LAMMPS data file via write_data, version 29 Oct 2020, timestep = 979

2060 atoms
1 atom types

0.42171974859913774 98.81082137623739 xlo xhi
0.1084849151639169 25.41850034266696 ylo yhi
0.1084849151639169 25.41850034266696 zlo zhi

Masses

1 18.015

Atoms # atomic

590 1 20.273536080696726 23.621329223523205 22.463336321371347 0 -1 2
405 1 5.297762178892206 3.110336159870997 1.5023300440633367 0 0 0
414 1 6.959101731687498 1.6924951373272321 3.413426298324289 -1 0 0
526 1 10.486075610641885 2.8783512439703673 1.8024674086337646 0 -1 1
12 1 12.085649479641463 2.056620230836237 3.7621481262197394 0 1 0
228 1 14.732412193450703 1.5613288831886867 2.448454613806425 1 1 0
209 1 17.70419927312055 1.5296859496252435 1.7099344881261527 0 4 -1
85 1 18.672008606901464 6.16838577701875 0.22401160969324163 1 0 -1
124 1 21.268200930020896 3.5363718051752033 3.0067174865243604 0 -1 0
465 1 2.1066318656924747 6.217967442039748 1.4590160330923216 0 0 0
404 1 3.7498245047680268 4.683621999257297 2.9425283370452084 0 0 0
25 1 9.7764896304082 5.313987104473851 2.816807283270257 0 0 1
24 1 11.589588681231266 6.348827899559913 4.66936582331955 0 2 0
738 1 17.64892642009266 6.158168192312783 4.242284192056906 0 -2 -1
701 1 19.9596435363586 5.897061195776391 2.8638310511245044 0 4 1
213 1 24.251765626094073 5.660332782400426 1.4408267373311519 1 0 -1
56 1 20.62155418279267 21.69031557011722 24.47870384147518 1 1 -2
468 1 5.47359781065978 9.539676729410616 1.6963288557615666 0 0 0
113 1 7.011648049649944 8.075936152773533 3.149013016447414 0 -1 1
27 1 13.221936536664417 7.181674113105355 3.027072002522729 0 1 0
518 1 16.202524799693784 10.082364690062544 1.665262293920167 0 -3 0
20 1 21.024869200123913 7.361262142882882 25.195071422680627 0 1 -1
302 1 20.64566951396924 8.635563990738827 2.6241058386022607 0 2 1
810 1 22.992768979785627 10.925673093110868 3.1049853361523785 0 -2 1
470 1 2.3483894541168713 12.825051976988632 1.8975938847404115 0 0 0
478 1 3.855756693085259 11.242611469813037 3.5433322651752666 0 0 0
709 1 9.94763070566384 10.86484764562495 2.9105295100579225 0 0 -1
598 1 11.816679649523474 12.783858643485555 4.724606497329784 0 -2 -1
852 1 13.440678563765713 14.753677666213202 2.5182966514152674 0 0 -1
1478 1 20.539876264235694 12.458638459931764 4.762200062782783 0 2 -2
1366 1 23.254931070684368 13.62755758759855 1.2963678836912471 -1 2 0
1598 1 0.5466799403034419 10.961408501026854 0.296930593740214 1 -1 1
473 1 5.0941822629146465 15.661854320552129 1.7420586542059588 0 0 0
114 1 6.926860613449702 14.065886717862826 2.6123503949264384 0 -3 -2
147 1 11.41437104441735 16.102541953553526 1.0192504743257265 0 1 -2
109 1 16.580049317723034 15.458213535452272 0.2464959963187492 1 -2 -1
33 1 17.611251558523342 13.426298022787154 2.8792173901997797 0 0 0
236 1 22.524102324206716 12.786728851172873 22.967824922548765 1 -2 -1
1435 1 22.724215865952964 16.673330942879712 0.6043920873664699 0 1 -2
400 1 2.03244054520922 18.599832779639925 1.3855651288226134 0 -1 0
406 1 3.3607444304090643 17.075192262268477 3.436500436631647 0 -1 0
50 1 7.944483061405527 18.663022589238295 1.631374021133887 1 -2 1
220 1 9.58431705716117 17.127176600455293 2.766344182967999 0 1 2
39 1 12.570271167747281 20.575560105369576 2.7290175627361353 1 -3 -1
380 1 19.437322021275214 18.51606552989594 0.2435788718295516 0 -1 0
599 1 21.92955126905517 21.05181428425833 2.3479646246042627 0 4 0
76 1 24.921609140237877 6.189647523047945 17.08607400463668 0 1 -1
430 1 0.45749088218761813 4.515946019277147 6.2513746300765956 0 0 0
582 1 21.53443723612658 19.426325037542682 22.96921491696515 0 -1 1
402 1 4.936592947921043 22.07070073549889 1.5958291415012624 0 -1 0
162 1 6.089278052688224 20.438897203638003 3.1873611130102257 0 -1 0
159 1 10.84492862990024 21.815535166116238 1.353410973998117 1 1 1
347 1 14.073540832918141 21.517536299242074 4.684272181492423 0 1 1
335 1 18.0745562346195 21.140418410989447 0.13216991036723877 0 0 0
878 1 15.472414511481734 1.2508767784918644 24.44868271351098 1 1 -2
706 1 19.97532958075802 23.090826403641117 1.9789153210598651 0 -1 1
403 1 2.197143853914673 24.908744681050756 1.375472971653372 0 -1 0
412 1 3.543335455994775 23.633410383564634 3.4114685153988353 0 -1 0
132 1 8.130205001936432 25.323153753864865 1.6550775084085405 0 0 0
167 1 9.246895493640288 23.41261940407729 2.984420363609948 0 3 1
375 1 17.89999621598373 24.303369806012583 25.37705142446455 0 -1 -4
218 1 21.25522749733203 3.380375683699809 24.155817018956217 0 1 0
415 1 2.3106430381288403 3.133787891080406 4.9026344189121 0 0 0
421 1 3.7672710537517977 1.3604985276749495 6.451040544145182 0 0 0
357 1 8.790875352866335 2.893401072453022 4.5434688349635755 1 0 0
87 1 9.958358029779378 1.1828366466749773 6.594425066584944 0 -1 0
197 1 15.71591185165163 1.053300569910307 5.328858696973542 0 3 0
281 1 20.095355742704065 1.516923728348043 5.441904163132286 1 0 -1
787 1 20.575499221964243 1.7295706367099195 1.1450777321951255 0 -1 0
1269 1 24.63757124267701 1.080047847794925 5.840572371935186 0 1 1
475 1 5.617511029353577 6.047672075592569 4.829682206508052 0 0 0
214 1 7.218073672169646 4.528583894950207 6.265224775902457 0 0 0
47 1 12.55391741097566 3.99851619917767 5.715458593380623 0 1 0
86 1 15.272691606964571 3.6976739183005907 5.607721273887023 1 1 0
21 1 18.812334346184997 4.211252395070052 6.202312438386529 0 2 -1
560 1 22.307904328891084 24.919142200866908 1.8407350457988036 0 1 -3
769 1 12.31020332089974 17.886070762453148 24.326213421962184 0 1 0
477 1 2.139699063320476 9.376674840960362 4.854730849168764 0 0 0
486 1 4.124525356595619 7.489774864889112 6.22728166690552 0 0 0
243 1 8.3663954640677 9.53771121609386 4.706636301161382 0 -2 0
158 1 9.822678261648404 7.909307475172598 6.304942462259479 0 0 0
207 1 11.523122121086352 8.906817830635589 8.227290514638977 1 -1 0
663 1 15.80960759388227 8.537445238947443 4.1920029972379576 1 0 -1
650 1 22.12202526519137 8.342638874529296 4.969174744436419 0 1 -1
108 1 22.03384786564539 10.804986862471234 6.617967766876252 0 2 1
83 1 23.228494209688915 20.090617215013392 16.166477395738976 0 2 -1
480 1 5.399350771557897 12.966933430518464 4.83096694788451 0 0 0
479 1 6.784245599147637 10.974725892452016 6.224173190194285 -1 0 0
74 1 15.592770586959588 11.557962290680619 4.961498927700557 1 2 -1
253 1 13.524194451414404 10.25688628023995 6.194429758563147 0 0 2
619 1 17.42367870125157 11.319592190900869 7.143310511042114 0 0 1
131 1 20.419658598451296 14.863111342506834 6.244011987322656 1 -1 3
825 1 24.183624202456393 12.07578094156699 5.845475698429419 0 4 -2
481 1 1.3874875570537908 15.842827035080733 4.823965475744833 0 0 0
483 1 3.0832131193809893 14.280171644977193 6.1861313906926965 0 0 0
173 1 8.245126004219028 15.42067121005262 4.692320349993305 1 1 -1
379 1 10.121018352279206 13.989284484919551 6.13375583369669 0 -1 0
262 1 14.844819493469663 16.852907130044738 3.5405409940311268 1 2 -2
944 1 19.079999886971326 11.281529752225714 1.6587431728535338 0 -2 -1
355 1 19.56161953912472 15.175415714198193 1.1494718817951832 1 -1 1
688 1 24.194986060558943 14.550398244029708 4.104733016129419 0 1 1
1182 1 20.769346912869086 16.640280928179134 23.522377845983012 0 1 -1
407 1 4.8164790713209555 18.708721682234078 5.138874880289225 0 -1 0
420 1 7.009362678560211 17.22717778920022 6.129645700941147 -1 -1 0
274 1 10.813310092310228 18.7604275918787 4.3786533994682 0 2 2
287 1 16.03773675843705 18.255904993059797 1.3726444141628957 0 1 -2
962 1 13.0752785336587 17.22904867687315 5.6666135459433145 0 -1 1
504 1 20.405974884152922 17.717637817794817 5.212157409106595 0 -1 -1
888 1 22.991985090290047 18.533563149614004 3.8856991667195917 0 1 -1
409 1 1.6763233058783646 21.828438422738405 4.920799854993121 0 -1 0
408 1 3.415811636262092 20.518415095082034 6.577737737634324 0 -1 0
521 1 7.869493937738853 22.045344263278142 4.724752324937466 0 -1 0
735 1 9.57032438360406 20.43509419194777 6.035362767020243 0 -1 -1
366 1 11.295292096236578 21.546942569945855 7.986205872817284 0 -4 -1
323 1 16.280503131629033 22.979213290370176 3.7927014951058493 1 1 -1
279 1 17.11095597251344 20.645637027883083 2.8121941020641614 0 0 1
589 1 19.747262235319447 19.38858184614813 2.8821105713589787 0 0 -2
635 1 22.14814847432282 25.015334321872764 4.679125522843438 0 1 1
739 1 14.247270504072029 21.546251797829974 23.95393606222294 1 -1 -3
413 1 5.358702289290911 25.26810260512452 4.797615603903246 0 -1 0
224 1 6.714629110687951 23.58696457553548 6.718805297882997 0 0 3
230 1 10.995697523173988 24.953197451536724 4.57212825461473 1 -2 -2
912 1 13.809886565191562 0.4726292897001228 7.3302167225646135 0 1 -1
352 1 12.58608987593899 23.300757198952827 6.361143966773427 0 -2 0
634 1 18.0344668727528 25.352346115167165 4.267427019385033 0 0 -2
247 1 19.792761974457132 23.248712042848855 4.621118457576229 0 -3 -1
422 1 5.524709466101697 3.2445975302321646 7.832304719621194 0 0 0
145 1 6.703828018395778 1.3066115384533004 9.822196908338654 0 1 -2
301 1 11.38153996255715 2.945415996215052 8.006425877381567 0 -1 -2
188 1 13.129329148511488 2.139707659708827 9.892440644038173 0 -1 1
1175 1 15.828955820540768 2.9535493001357613 9.939585673523402 0 0 0
1011 1 21.725294825566795 2.9565792040257968 9.158343071264094 0 -1 1
1471 1 17.444096063793918 2.1126248574264865 7.63287117736759 0 -1 3
1021 1 24.188373638247484 3.924008772429123 8.951889496733212 0 -1 1
484 1 2.2883153588936738 6.077764303363615 7.670001010750516 0 0 0
492 1 3.7157147850449688 4.408781227051226 9.301911644373824 0 0 0
384 1 8.649065402051066 6.033533933774594 7.7492881742536595 0 -1 -2
328 1 9.806734811622723 4.6517754183406 9.423806313008773 0 1 0
895 1 15.627715697532437 5.287593823641296 8.302076499918575 0 0 1
172 1 18.44971973202755 9.86848928890297 4.314491078133489 0 2 0
828 1 18.19539298170672 6.08310310533918 7.881603403534744 0 -1 -3
561 1 21.521836714199626 5.699210990037008 6.069711205779835 0 1 2
487 1 5.375246235813613 9.153903455486248 7.885609959156076 0 0 0
485 1 6.731436319630524 7.51235608339272 9.358265683161651 -1 0 0
321 1 13.78975578909359 7.522302444105919 9.497051671461728 0 0 2
54 1 15.030534674111141 10.020415382219056 8.404698190637204 0 1 1
70 1 19.093682508422667 8.955464330873655 6.947701790192242 0 0 -1
1824 1 21.604403561787944 7.700576671642968 8.109155264499034 0 -1 1
488 1 1.8894051865666428 12.125902237676934 7.414649318581277 0 0 0
489 1 3.988425369729837 11.0100777248035 8.975587929708304 0 0 0
358 1 8.597568889396944 12.336176715066653 7.92156035918808 0 1 0
26 1 10.18849017521366 10.61591529050612 9.43581637544638 1 1 1
1247 1 17.443154066160755 14.119709014460225 7.309009522082902 0 0 3
495 1 0.8530583630028776 10.930372661529816 12.447226631989537 0 0 0
1027 1 24.807179040680776 8.662474562145979 4.020660514084035 1 1 2
482 1 5.4054124108047965 15.430813614825164 7.684700921908508 0 0 0
886 1 7.317256231122824 14.31448815034554 9.2617031000351 0 -3 0
125 1 11.824315169780055 15.763584851412459 7.4111753763779555 0 1 0
728 1 12.722109784855933 14.458540790851702 10.243016723483843 0 -2 -3
60 1 16.880548334234568 15.44506772691026 4.904255570299451 0 -3 1
707 1 14.295632625514083 13.913790336791266 5.442827123464868 0 2 -1
256 1 21.483530970009067 15.491447151214638 3.0577551953923874 0 -2 -4
396 1 18.317522239860043 14.566668511711182 23.384151221279602 0 0 -4
416 1 2.058237444133173 18.674362889712402 8.058811299842183 0 -1 0
491 1 4.07946456021718 17.20853762861758 9.123442092670633 0 -1 0
190 1 8.242509051235416 18.72565425820554 8.027409483444828 0 -1 -1
123 1 10.644764775313558 17.353208922384173 9.287308713730068 0 1 1
618 1 14.503671326545147 13.776579697451199 8.017629873448094 0 0 1
754 1 17.676199855440927 18.165876417100346 6.01263417766239 1 0 -3
92 1 24.031520777921582 24.381816409822093 8.350997559067135 0 1 -1
418 1 5.054279053867461 21.820889068957957 8.175260226275148 0 -1 0
423 1 6.853434550712024 20.288593255319388 9.744149378324723 -1 -1 0
232 1 15.055896464270539 19.27542671025402 5.6890730900174376 0 1 0
579 1 13.494802814450315 19.882767556609284 8.074446913971622 0 0 0
1024 1 17.909471550167403 21.832952792869992 6.318074959628559 0 0 0
993 1 15.935514017463305 23.663100249538473 7.290557597803977 1 -2 0
373 1 21.645121564977774 22.90563180499877 7.193525111669471 0 -1 -2
765 1 22.174116191838763 18.663932440781547 7.161578317805874 0 1 0
419 1 1.8860644720511357 25.09902874462805 7.99588074378371 0 -1 0
417 1 2.9477862134864288 23.014423229648852 9.49769128862987 0 -1 0
726 1 8.386904097479434 24.93726751230814 8.171747248270403 0 1 0
255 1 9.87642008554211 23.455841675933062 9.876882010771661 0 1 -1
169 1 15.028471426164817 22.04548812411626 9.430758215316366 1 0 1
265 1 18.5009850425433 25.103192847101383 8.235634145251485 0 1 0
1032 1 17.218763831689202 21.03968559866559 10.91469036355385 1 -1 -1
864 1 20.798094890365157 0.7393282440338752 7.812155931416403 0 1 -1
401 1 1.6197805668843108 3.269611619281877 10.803694086886976 0 0 0
461 1 2.9761426868754945 1.8660107124727212 12.638847193152573 0 0 0
922 1 8.156174781217231 3.0987335921624957 11.059415892716205 1 0 -1
563 1 9.260348035363634 1.279963051121459 12.712799623583226 0 1 1
570 1 18.08661459087766 25.167775946976445 11.107872260731012 0 0 1
807 1 19.13323973658785 2.4683678746290623 11.375179103556551 0 0 1
428 1 6.143956805009117 17.52284619384822 0.12198181454994027 -1 -1 0
471 1 5.006444640103092 6.32307856071623 10.94256032342619 0 0 0
165 1 6.5230112116574155 4.443198720617582 12.587024668130756 0 -2 0
372 1 11.541332722048805 5.952299173439039 11.087493886624541 0 0 0
16 1 12.981571344455704 3.8911388457635305 12.295881671686105 1 -1 0
219 1 16.86720672739293 4.05544019869415 12.502070379858317 0 2 1
130 1 19.015484924915683 5.845024461063368 12.606584983000786 0 1 -2
239 1 19.852865056702008 5.077979199033619 9.8684093908282 1 0 -2
184 1 22.297684613123756 6.379033041212735 18.214425487853056 0 0 -1
469 1 2.2123318870130766 9.367589880352464 10.788762368540985 0 0 0
137 1 3.512531070862774 8.139323825129003 12.618905123048643 0 0 0
783 1 8.381550068146435 9.166622746906924 10.744239296021052 0 -2 0
359 1 9.901892231090232 7.572781687871811 12.750655290637557 0 -2 -1
937 1 14.18234319515859 7.849774696806796 12.171891712266097 0 -3 2
842 1 20.057304740429576 10.118777649864992 11.658225842538519 0 1 -1
920 1 21.27360027475816 7.5614197154678475 11.03027620117054 0 3 1
277 1 22.85866835384894 3.3929397899887483 12.094569537109905 0 1 2
564 1 24.01764566089652 8.492460715234161 10.303866224258275 0 1 0
466 1 5.722713308722835 12.646478419440891 10.858174404621511 0 0 0
244 1 6.926108234027309 10.900454227212574 12.475956530454326 0 2 0
320 1 12.16577457207615 9.702164051978572 13.763730431872387 0 -1 2
532 1 11.618594925653891 11.727321600930193 11.898611567451024 0 -2 -5
939 1 14.440294528758708 11.84634562757563 10.582347174589598 0 -1 -1
1341 1 16.98262589620467 8.536888966891768 9.3780460588463 0 3 0
682 1 17.834868743236974 11.381834479289148 10.241522985972205 0 0 1
234 1 22.818073645048177 16.10973879621073 7.621462522600051 0 -2 -2
872 1 22.66522684431719 11.605364353138869 10.362135895685133 0 2 -1
474 1 2.1973536710699797 15.66039883739501 10.450915573447743 0 0 0
493 1 4.044664812228006 14.222684209358254 12.133461820325051 0 0 0
1228 1 8.704128139741405 15.81677615474808 11.097427450604375 0 0 0
968 1 10.64450017958945 14.478262281987035 12.523097554202224 0 0 1
834 1 13.830037663750923 16.434260847375402 12.609733052323287 0 -2 -1
32 1 18.859085556161386 15.058366069431031 9.393101245561494 1 0 -1
674 1 21.53252629572419 14.121495742235478 9.345494910425762 0 2 -1
440 1 1.9462410704421917 21.90981696752434 22.93853188860278 0 -1 0
424 1 5.1765232853670895 18.842245838570452 11.241027554626847 0 -1 0
490 1 6.8750598447354365 17.23023570527474 12.70136189358016 -1 -1 0
133 1 8.294433653104683 19.030302549775886 14.470285639985144 1 -1 -1
753 1 12.26564889791875 21.623585688649154 11.175234126344145 0 0 0
592 1 11.849658490190453 15.963257450148877 14.637603181060571 1 0 1
781 1 12.752384690290933 18.24247918293572 10.59860467338626 0 0 0
629 1 14.124152527471951 18.269841034549128 15.573596839319425 0 -1 0
349 1 18.714430929088856 18.058517576175106 8.925816949748372 0 0 0
1193 1 20.874670244772993 19.22705633690356 9.511799859114973 0 0 1
1000 1 21.888487748521328 18.16625125324479 11.91311942932038 0 2 0
425 1 1.6687195927471155 21.68749316269348 11.471283556220056 0 -1 0
464 1 3.4256049573802576 20.39382225520072 12.799676220756783 0 -1 0
391 1 10.084169216858134 20.101300147855767 12.59800823212302 0 -1 0
388 1 8.338499876529543 21.83484769921953 11.390032138463445 0 0 -1
179 1 11.230704172527096 22.027952122199444 14.392611454238457 1 0 -2
1552 1 16.308959777493982 18.39892714145511 10.56356969606732 0 0 0
921 1 19.028553114430533 21.395952056716684 8.619867429405055 0 -1 -1
6 1 21.51415294423445 22.66523731848933 10.19680612552364 0 -1 0
225 1 23.204507054715496 19.52828286680178 0.2531029567319382 0 1 -1
426 1 4.409654940092906 25.31981759155856 11.024845394629137 0 -1 0
460 1 6.213215591129393 23.12104480849288 12.93918683892499 -1 -1 0
37 1 11.424689795631403 0.16851923218649972 11.167253187954072 0 0 1
249 1 12.55826886808994 23.886034878753645 13.105053255246293 0 1 0
393 1 16.22399204637155 24.62265456488969 12.891716988078405 1 1 -3
248 1 22.48861249823497 0.29692951385522465 10.616713206970283 0 1 0
1440 1 22.617829222186923 22.907531202532752 15.80066226336389 0 1 -3
439 1 4.989047965337132 2.9456911922175033 13.912712683914183 0 0 0
346 1 6.24084415798109 1.4411657753796319 15.926652818301157 1 -1 0
334 1 8.06234325428166 3.2614885476703126 16.755038844466988 0 -1 0
717 1 10.91470400747768 2.692944558623331 14.369042976644158 0 2 2
342 1 17.786009290391164 2.096938565253163 14.864034305376835 0 1 0
183 1 14.060583491425483 3.689712677836511 17.738911650722834 1 0 0
138 1 20.488224930079227 2.4543269884277166 13.9037986002428 0 4 0
496 1 2.10186558651289 6.150539455457236 13.835778966279626 0 0 0
433 1 3.4322005459148492 4.665258013985489 15.618299600076329 0 0 0
49 1 8.036032159883286 6.224755200861977 14.173603267703314 0 1 -1
644 1 9.907355233879434 4.978244810404114 15.428278918854382 0 2 1
583 1 15.147042374305034 5.510206246381938 13.820297098229629 0 -1 -2
881 1 17.842749384955308 3.8272872401846447 17.077349818444237 0 2 1
775 1 20.848384243821943 1.0402878122006456 17.015593791285 0 1 0
903 1 20.591755524942762 3.653076654444182 20.25606453828596 0 5 -2
778 1 23.638754585938578 4.127432360037235 15.480295153533426 0 0 -1
498 1 5.066885287447823 9.715601017769172 14.21667715876679 0 0 0
497 1 6.500305627602305 8.097738428035845 15.749406491840656 -1 0 0
339 1 8.715818418852805 9.679796159139164 16.927171759207635 0 -1 -2
196 1 15.05239189056405 9.142111369626553 14.73527332090046 0 0 -4
273 1 21.368839602411636 12.271131771570047 13.121706386366844 1 -2 -1
721 1 23.006001836756617 6.214156918852314 12.980968581482662 0 -1 0
500 1 1.8849183989811589 12.927813447341082 13.97173897059532 0 0 0
499 1 3.283952223382026 11.387494748728384 15.537897399147573 0 0 0
266 1 8.579252459296438 12.888625230217114 13.925420768212836 1 -2 -1
98 1 10.31676972219773 11.129868508492882 15.280468857585753 0 1 1
364 1 14.69483598689581 12.041295463868671 14.658222605855105 1 -2 1
278 1 17.1420560819876 8.113903825486652 11.929051497571868 1 -2 -4
120 1 18.223058336338813 9.729821064618141 14.241892376723909 0 0 0
908 1 12.955050677843792 23.4538355535629 0.16248353963379358 0 0 0
354 1 5.2377035972803245 15.695789892606257 14.031919712778945 0 0 0
392 1 6.863334381226628 14.029587233869043 15.48119186581548 -1 0 0
79 1 8.408958107471978 15.817569766669516 17.14776717486398 1 -2 -1
1030 1 15.172912091464296 13.79941792509378 12.585725527065556 0 -1 1
382 1 13.455196984339151 14.255254283405147 15.850833888424637 0 -1 -1
333 1 17.8707528751683 14.014055357508944 11.484481547363405 1 -1 -3
157 1 22.473131435526277 15.79258923461946 11.36344217934487 0 1 0
432 1 1.6016965897309616 18.87314404381707 14.182580039654335 0 -1 0
151 1 3.494859699636061 17.29398030099273 15.740242848380223 0 -1 0
177 1 10.916366129503206 17.639281652337427 18.207321519108998 0 -2 0
240 1 16.11802502264968 18.62295305070316 13.304157833807876 0 1 -1
127 1 18.293185421287212 16.71414356015798 14.8959813887364 0 2 1
569 1 21.915142706779406 21.662325922089966 13.239319299960254 0 -1 1
436 1 4.645186548062209 21.960039063560146 14.73400934806006 0 -1 0
434 1 6.458286689699016 20.421471374415823 15.772098124381554 -1 -1 0
3 1 11.2120271637249 18.572207208470964 15.587043920749768 1 2 0
763 1 16.392191113833142 22.754297528646614 15.664572509751132 0 0 0
1014 1 17.85419084070597 21.13506056664513 14.00690399809014 0 -1 0
270 1 19.368393316149824 22.87031420370146 12.359954561126314 0 2 -3
212 1 23.97670661966628 9.757515631311554 0.42145486107317964 0 0 2
437 1 1.5375056046164697 25.14919404215681 13.977411559955389 0 -1 0
443 1 2.878087342379263 23.827211155162637 15.96110902594162 0 -1 0
53 1 7.857974283160477 25.058911644486056 14.137024091549456 0 -2 1
182 1 9.677448685680762 23.755873565364197 15.721211123375058 0 -2 0
78 1 13.230509202208543 1.728584803545256 15.835558915045379 1 2 2
952 1 14.593635476021872 24.71337234310838 10.10762157594138 0 2 1
18 1 19.996424598217224 24.841117438297562 14.757956078011444 1 -1 -2
43 1 22.53068392708043 25.1034262616549 13.532465286183864 0 2 -1
48 1 19.971965391770144 20.37026322846991 15.529454286837067 0 -2 1
447 1 1.9745961208084222 3.249763263882338 17.537583939215178 0 0 0
456 1 3.727287133276929 1.837405984460136 18.993339086981948 0 0 0
96 1 9.487459416529555 1.5246843139487858 18.422302176059993 0 1 -2
148 1 11.051330708775227 3.573892338724888 19.61049010721187 0 1 2
311 1 15.477996137217499 0.26820524913029486 15.105747758393898 0 -2 -1
988 1 20.140179555553228 23.2828604925227 17.68262932878021 0 0 0
748 1 23.557430774225143 1.4056385842431107 16.73116722522355 1 5 -2
551 1 22.592022687601418 2.4848267827046895 21.846557799667373 0 0 -3
552 1 23.741667282654944 24.333503210892374 22.54270728848122 0 0 -1
336 1 4.758159185046579 6.440347226290036 17.249817748198467 0 0 0
8 1 6.690380014860197 4.874797498131126 18.52044598498591 -1 0 0
525 1 11.95220519712093 5.875536843912094 17.225440072904227 0 -2 -1
715 1 15.794100052546636 5.764907122601472 16.52340977261362 0 1 0
689 1 18.409946856552263 6.5147670552343895 18.250342187232267 0 1 -1
146 1 23.732247131104586 7.185653292443001 20.88669480090211 1 0 -1
883 1 21.901224489282054 9.157626366656503 17.70490369093941 0 0 1
291 1 1.599934465324672 9.543706552408096 16.94894203999604 0 0 0
303 1 3.154168381005612 8.156670805326748 19.171218908737234 0 0 0
250 1 10.222337677985513 7.715631594997776 18.16565223804197 1 0 1
58 1 11.126813160521808 9.23749884870145 20.45759270120425 0 3 -1
594 1 14.041264526498573 7.961720208423573 17.16053988530241 0 1 1
902 1 17.912361847082455 10.28947469968594 17.56403728762572 1 1 1
5 1 14.401664427043373 6.204996890379648 19.91395064629797 0 1 -2
371 1 20.971809650933444 5.522458027129717 14.873039096024586 1 0 -2
340 1 20.81080893061819 3.846737655344015 17.22258863770522 0 1 -2
268 1 5.160953286679468 12.509699047770235 17.310023414729933 0 0 0
282 1 6.819707476214125 10.882936679930872 18.5903108468435 -1 0 0
267 1 8.17220072573099 12.675038847880911 20.590206984812458 0 1 0
314 1 11.576148419287533 12.652623460078951 17.10849868404318 1 -1 -2
1249 1 12.737540936515856 10.236316891349942 18.66723646847732 0 1 0
936 1 19.593089146150398 8.170129119082546 16.208969473556454 1 -2 0
7 1 20.027827702685784 10.76165153712157 19.24228076381799 1 2 2
198 1 2.1750382279183924 15.560039917084906 17.431493564899437 0 0 0
187 1 3.798355019124655 14.107975586347452 18.978839275044386 0 0 0
344 1 9.95605355270524 14.291610154915963 18.921289124877905 0 0 1
614 1 11.228701323394157 15.439161842187263 21.05653274736298 1 -1 1
45 1 17.92251666905893 16.88570651166274 17.8585398868746 1 3 -2
833 1 17.303312370843322 12.566485549987418 15.304923308749098 0 1 -4
1012 1 19.324695532189182 14.170700034730467 13.901402221773568 1 0 1
740 1 20.858966310042444 17.94998220494835 14.406214217855204 0 1 -2
1501 1 23.353127392181996 22.257425115226614 4.431125758869805 0 -2 1
910 1 16.798378093298073 22.042830134454857 22.96344974967311 0 3 2
442 1 5.014397960804336 18.93065443680936 17.440416387322852 0 -1 0
9 1 6.6013337421476495 17.364301819633415 18.98261226030591 0 1 -4
866 1 14.72970059120595 16.069499566232405 17.620176486079348 0 0 -2
616 1 15.346040746826784 19.2229825631195 18.394010625007482 0 -1 0
671 1 13.889010738566885 21.85698782070572 18.80350495663983 0 2 0
104 1 21.107634299795713 16.4487446509822 18.17406377738891 0 -2 -2
149 1 22.36471152345722 14.133017846001371 15.276913492404642 0 -1 -2
636 1 23.031499347003557 10.32540822196707 15.319826538700935 0 -1 -3
444 1 1.2815863862272128 22.188804718441936 17.44864301411345 0 -1 0
441 1 2.976350729037877 20.495178973225396 18.59621132565907 0 -1 0
399 1 8.237767151450008 21.87717189235999 17.411497700326642 1 0 -1
154 1 9.771942500829143 19.971564059758524 18.9846823580642 0 0 0
222 1 13.947482545038577 21.343668509866674 15.963571195214321 1 -1 -2
40 1 17.14008098858836 21.24480454733388 20.091500755462548 0 -1 -2
139 1 22.981940954091115 16.71952556938783 15.566382151782916 1 -1 -1
700 1 23.720242440493124 19.12759276956152 20.653332291222636 0 -2 1
446 1 4.844075729071433 25.17740401538763 17.33535258159168 0 -1 0
453 1 6.7043598407579985 23.63495838232595 18.84377473669778 -1 -1 0
390 1 8.513166306954354 24.726133034498332 20.604726043058385 0 -1 -2
718 1 11.540452749300897 25.32834791520866 17.319410444548048 0 0 2
951 1 17.432841189142017 24.502623882577534 17.66865119638934 0 0 1
790 1 22.632631945106606 20.987312685369602 18.903807943391993 0 1 -1
448 1 4.80904685810501 18.89218479513508 23.687363367054182 0 -1 0
458 1 5.272772123470458 3.197217930856739 20.395578631269544 0 0 0
438 1 6.6540216256881894 1.3573159701141932 21.70157471044135 -1 0 0
1028 1 10.803260233497832 23.485855942669133 21.481110266748466 0 0 1
788 1 17.46974091850631 2.045720290449991 21.94162282000991 0 2 0
931 1 12.86429577611378 2.021258735596758 20.774029146731248 0 2 2
1007 1 18.50164201042611 1.5373899787407277 19.414228279196212 1 1 0
691 1 24.52169205808705 5.2076722875355195 22.42828959284947 1 1 -1
111 1 19.956596879703735 21.71137739198758 20.350662202690984 1 1 2
155 1 1.7982013546163123 6.340926007811682 20.70135151573495 0 0 0
452 1 3.4439611493209146 4.805898541970669 22.157110015354085 0 0 0
985 1 8.565472334553805 6.831104401409072 20.15208419242163 0 0 -1
1025 1 9.789933617044923 4.740749579022143 21.633709192802172 0 0 -1
206 1 11.537234240677114 6.294538734032574 23.410295536923204 0 2 -2
789 1 15.346762635913212 2.9216071617095265 20.427194607087586 0 0 -1
153 1 16.49717358201919 5.500592477036287 21.743837718406944 0 3 -2
72 1 6.688649782483457 23.56191739645812 25.19275323633356 0 0 0
52 1 5.145709221723883 9.825893018920436 20.457338076087677 0 0 0
329 1 6.626899595979889 8.13677742915899 21.7933393755261 0 0 -1
305 1 8.475243623881328 9.560849949858367 23.17742338989707 0 -1 -1
312 1 14.768452067836153 9.859493715162936 23.07181470131388 0 2 0
705 1 13.051886278753551 7.925228590744599 21.85447582110424 0 -1 -2
298 1 16.4145720237359 8.498956733933179 18.81089094445602 0 2 0
869 1 23.048824190092883 10.282984361005164 20.434199122571375 0 2 2
44 1 1.9370880905360541 12.502458713023328 20.248995553383587 0 0 0
36 1 3.268423276336084 10.80178991759589 22.402615948733377 0 0 0
42 1 9.89404696718868 11.098100979034452 21.661272273298184 0 1 -1
1006 1 11.671445708002826 13.083282462469857 22.651866844031048 0 1 2
600 1 13.94353338557597 11.496713396973169 20.8676747151972 0 1 0
105 1 16.627082183884216 12.690826019089338 22.44968753933328 1 1 -1
161 1 19.83827359253232 10.27361541605808 24.143965072052566 0 0 -4
227 1 17.11898490946311 8.80285668307166 21.64187932835328 0 2 1
84 1 18.658014611112684 10.89425302419037 21.948924845285536 0 -2 2
746 1 9.859995517515324 20.005879606806246 24.917620717020352 0 1 -2
370 1 5.306590689180195 15.740207738871032 21.02136662141855 0 0 0
363 1 6.891438587406671 14.159028442425075 22.30173000008593 0 1 1
116 1 18.091181949369886 13.580256850514916 18.119427061480188 1 1 3
106 1 15.448953562717767 16.034706947082128 21.27315052334757 1 -2 0
263 1 15.868930652409372 13.421148592519504 19.870797745330943 0 -1 -1
315 1 21.27137085126903 13.125201884557839 18.080303829634442 0 0 1
410 1 0.4948978352716716 20.191761032762656 3.0268809215854278 0 -1 0
450 1 1.6027349921666831 18.47201175040911 20.22698599687629 0 -1 0
459 1 3.3432301082323073 17.331111643508045 22.154835332413757 0 -1 0
2 1 8.20093701927134 18.622284472214133 20.723730918872764 1 0 -2
368 1 9.966217329729474 17.842874681343467 22.447917433877635 1 0 0
75 1 13.156889282776529 17.294450087337964 19.794590717211296 0 1 -1
4 1 18.412312370075078 16.33517358180777 20.87144504299844 1 0 0
549 1 23.789445466127667 16.447053881762606 19.40243869140879 0 1 -2
435 1 5.189251224337411 25.112886768421806 23.35874549304124 0 -1 0
454 1 4.993637431269018 21.87973263450177 19.996122819804704 0 -1 0
451 1 6.618147344364206 20.460764366215905 22.091057826952625 -1 -1 0
229 1 15.661235684649709 23.78513413003233 20.280175613912117 1 -1 0
259 1 12.853800408402902 19.184632577959974 21.762400760232012 0 -2 1
1916 1 15.683963328251544 19.304323122430823 21.657412460616424 -1 -2 1
17 1 18.3117795477469 19.530617515426854 17.84748222431856 1 0 -1
953 1 20.555069481975945 18.91602347549143 19.190495628381015 0 1 -1
330 1 24.283901275557664 3.4846636056900917 3.6028099705568684 1 -1 1
455 1 1.8199037114856909 0.22045104392557135 20.17272636314413 0 0 0
457 1 3.592070474706193 23.672660008653835 21.77744349552311 0 -1 0
761 1 11.814920309554013 21.25665926061504 20.13049269532019 1 -2 -1