LAMMPS data file via write_data, version 29 Oct 2020, timestep = 4000000

1539 atoms
1 atom types

0.7902636506791865 49.31041707697419 xlo xhi
0.5016732676015376 31.303120218965454 ylo yhi
0.5016732676015376 31.303120218965454 zlo zhi

Masses

1 18.015

Atoms # atomic

1495 1 24.505799343362558 1.3571845120358388 14.2667746435529 -1 -1 0
1253 1 6.187233465362596 2.8131135308745807 7.578798802347207 2 5 -3
1269 1 21.986307928826808 17.75487781667259 11.224684677231373 1 -1 -1
66 1 24.353313655331927 17.09796804256215 12.47634008098213 0 0 -1
776 1 2.36226707032289 17.102051595744314 5.6321201102455305 1 0 4
1393 1 14.666282809657224 2.9794515879607233 4.682438521959903 -1 -3 4
1167 1 1.4452035159997858 16.085730323186194 8.691479339517928 0 -1 3
1002 1 17.70039413627242 12.532277798582692 4.0566116944643 1 -3 -3
222 1 24.54689529350302 20.79427229053111 9.1249348960225 0 1 -2
1210 1 19.873590405754154 3.2381955999151892 4.600350499665516 0 2 0
1062 1 21.944377442647703 5.492924217149904 4.6729520677010115 2 1 -2
1177 1 2.6066032001008255 7.245821981804584 0.7073920881201103 1 -3 0
1447 1 21.389261257674878 9.994361746565676 2.8926469528713206 1 -1 5
251 1 20.262220643698175 16.679618772410358 3.833034135376754 -1 1 1
1036 1 7.29762018017583 27.97681061833692 15.666634371201583 1 1 -3
255 1 5.198167636900878 6.874153239571565 1.7230447904537256 1 1 1
145 1 14.011446610308493 5.978880829906102 5.180989391983201 -1 0 1
1285 1 6.588115871993862 1.8605274136219905 15.239284237073834 2 -5 2
928 1 19.877549277104784 13.77927667327414 0.7741088041858499 1 2 4
1309 1 2.796036752218467 27.447554046362526 3.802750781559811 0 4 1
1181 1 11.768217568312998 22.53680123177802 3.2474144704604933 0 3 4
126 1 24.03541626765351 18.83268277531763 2.866898740525973 -1 -1 2
561 1 8.819720546713949 9.28589213878278 6.055861278218717 0 2 -2
77 1 20.06702595071374 11.852112868489309 8.405987810080024 0 0 0
1319 1 11.744626319411871 5.6816066052703365 7.197423215982292 -1 -1 -1
1137 1 22.378753216915698 11.91353254561257 6.251533888219697 -1 1 7
1360 1 13.545503339493708 12.813778721399299 4.7351399143619455 0 -3 -1
714 1 23.532028178414897 5.601227203254509 2.343317299333922 0 2 0
395 1 2.465722457487731 5.237055391018483 7.2249085211512885 0 2 2
353 1 12.552404670004083 18.29797604489817 1.0475727981220415 1 0 0
61 1 4.0019451748379495 9.696369457241167 3.0788955513252936 -2 2 3
807 1 10.961154126139114 7.8518951855267725 4.911553955687847 -1 -1 5
1354 1 2.050694096736297 18.918089178857976 2.306391509209723 -1 -1 3
521 1 3.2284204220082926 3.2398542144309386 12.081442861862962 -1 3 -1
954 1 20.312156518410642 12.535215831154108 3.152448423738053 -1 2 2
538 1 20.098116722077982 23.790719975520496 11.104923343301374 0 -1 -1
495 1 6.417043308014882 14.82207995850868 2.386776660829349 0 1 0
505 1 10.127447228519939 27.013482959439592 14.869454962862601 0 -2 0
602 1 9.962520360763472 11.193434176606337 7.780717987911315 0 -1 2
736 1 15.114363636104706 30.035990796905814 1.3610723745857705 2 2 3
1016 1 12.807480275690859 11.762900084183284 7.500113632175809 1 2 -1
56 1 18.26158798647149 13.219126934414374 9.857140484483446 0 0 0
1301 1 11.61147138058782 2.015864851208585 0.9147996330757202 1 1 -3
71 1 22.690543807527533 20.26878356184205 15.658310110633039 0 0 0
880 1 5.505679292086067 21.599877079847992 2.5824975981890983 0 3 1
1482 1 3.1506036286526813 21.481779519505793 1.5308047253839552 0 -2 0
1451 1 13.2398460508283 15.348906159415572 5.192798856708124 -1 -2 -6
31 1 10.050638755994 18.922313673838666 5.8273764544623505 0 1 0
279 1 3.6707201923786714 1.9762542431670846 5.021140347492007 0 -1 -2
888 1 14.259725205486125 18.880625839260432 5.760722133990572 0 -3 3
1099 1 16.90025728912981 23.703084294163098 2.853893414624356 -1 -1 -4
922 1 18.514883295048314 21.184590003518174 5.385468032783495 0 -3 1
158 1 18.618920095371205 18.922889591275762 3.5715886683241767 1 -1 0
458 1 22.036990309208633 1.9991432533862583 3.7226440143605193 -1 0 1
827 1 7.707575064658255 18.26609062343168 11.932180434054112 1 -1 -1
846 1 9.176114406764459 29.465232458053862 1.9667672630969313 -1 0 3
586 1 15.764832683106196 19.66021577651084 3.7602779297035966 0 1 0
1371 1 22.066735002631756 0.9722523826874274 12.728278618218228 -1 2 0
1029 1 24.20887648605113 2.855758428350379 11.277729710832432 0 -1 -1
889 1 24.892330325035477 9.648862873294476 9.530653979103395 -2 0 -6
802 1 23.795306810780012 24.349378688597938 6.078458391443165 1 3 -2
365 1 5.635221726325472 19.806044228429045 12.88852833958579 -1 -1 -3
688 1 3.306345671651212 2.297499268926603 8.225005854432261 1 1 0
555 1 10.646560315459967 29.44822881310437 7.573790690507855 0 -1 1
1515 1 7.530974889226121 23.730679303749305 6.454451587358176 -1 -2 0
664 1 1.2255046562986487 29.27906914627306 6.043421269973308 0 -3 0
263 1 18.46605635934331 26.712244736960756 7.8173368111498664 -1 1 1
1233 1 22.698971076617706 10.309764344671969 10.63544059792973 -1 2 4
1369 1 14.841399347353805 25.471829488855775 13.833385742701166 -2 -1 -3
551 1 11.807639385087539 3.5941091159977616 3.54010890368583 0 2 1
783 1 11.961771219616125 27.710288641862427 5.099173905415277 1 -2 7
766 1 16.708610797978224 25.421449612166626 5.63314840842402 -1 -1 -2
1170 1 19.482951416410376 23.201660111385046 1.5851703882921704 1 1 4
784 1 22.286876191000264 26.001618566316928 10.338547356773198 2 0 3
1228 1 23.82785101514074 26.658608774281554 4.679732976565509 -1 3 2
1519 1 19.41323885367617 10.596714665469785 5.688302700853535 -1 -1 -3
416 1 4.59421573597024 27.11700488900759 1.2897950895468226 1 2 2
1407 1 20.126867062981695 10.260562780402081 14.530877723519836 2 -2 2
1019 1 10.034143644527179 5.996319618536133 3.0186066748575193 0 1 -2
882 1 10.014265234059238 3.93561863434556 5.906511442602942 1 3 0
112 1 16.126863218808904 28.310828980979977 3.3670834623416996 -1 1 0
713 1 20.84078523228091 26.222810279550117 14.687046436446646 0 -1 1
1237 1 4.537188389619482 30.121987459450104 2.449850571920882 -1 -6 2
729 1 23.452182112162085 2.9331519808516533 6.10948896503854 0 1 2
1452 1 6.058909706631313 0.8907714862935532 5.273421223526567 -1 1 -3
812 1 9.766583527551605 4.783966501057082 9.408657991370644 1 -1 -2
1014 1 7.347894254056429 5.749949141297156 7.359934443584472 1 5 2
901 1 9.561758274572476 1.8175750870609788 7.668249682239736 0 1 -4
146 1 13.60014794447094 4.373019983208469 9.69304264410198 0 -1 -1
1520 1 17.939544443748634 29.668178319123427 8.225487099038485 1 -5 -3
246 1 21.97809638931689 3.0704225948906085 9.674750722792137 0 2 0
1483 1 18.78942881967286 1.1542020106562305 6.067226485215624 -1 0 5
477 1 3.898366642422127 6.791333448673125 5.09612818338606 0 0 -1
1186 1 1.4645298615244629 5.565059337471152 3.147483627398992 0 2 -1
163 1 7.958097618320766 6.833624794496852 10.300608040717167 0 3 -4
325 1 14.137797913008686 0.9630302507300941 6.485852367282208 -1 3 1
155 1 2.4057590812246397 30.089078018524326 8.509554471082305 1 -3 1
532 1 1.2381152163047795 1.8413859346182448 1.517141692849881 -1 0 4
401 1 24.52403714049219 14.033332038276752 11.204959890109018 -1 -2 0
1348 1 3.9377674763522816 11.654237744597866 8.602291197263373 -1 2 -1
796 1 8.066453624182952 4.876503409983884 4.482676492037478 0 -2 2
1466 1 20.24280477426322 8.093937805007783 4.5382046101706885 3 3 1
1267 1 22.74093486049868 14.996006198033827 13.699491833547093 0 -3 -5
451 1 21.454272871392202 7.792644434058138 7.3712419513401315 -1 -1 -2
731 1 23.074334257977416 25.90400682835466 12.990670554658696 -1 -2 0
490 1 1.5252580674259018 11.428115270733093 7.236620824624925 1 -1 3
129 1 8.398110309475635 11.319210983607892 4.39128508813627 0 0 1
795 1 2.092662857429119 13.194053178962596 15.81212583779607 1 1 0
465 1 6.69836916641396 7.6622873409346335 4.037758765485177 -1 2 -1
725 1 15.73571817085334 8.253932352511544 4.236804162498855 0 2 0
710 1 24.45378947897906 26.777973858601356 1.9774223472501036 0 1 1
445 1 9.27697142916983 14.666278110532835 2.339318116437196 1 0 -1
102 1 5.28176779144151 16.8982516986253 0.8466685246677332 -1 0 1
1292 1 5.8681017597934755 11.972239426255872 3.346408011640023 0 1 1
1238 1 9.257318568531815 13.547312195138687 5.710025444821005 1 -3 0
1303 1 21.380591022515265 18.073022951098345 6.052903927350925 0 4 -1
1125 1 3.062925075101026 15.021240309406673 1.904235955239056 1 -3 2
1245 1 23.58199568413949 16.65002143724962 4.6567252466737825 0 -1 2
276 1 13.660713059670808 24.703689567980796 2.043959049762507 0 -1 0
148 1 12.115787864744822 17.88756449213509 3.8013693572191194 0 -2 -1
166 1 9.137809891354797 16.077901077977607 4.530505457979826 2 -2 2
181 1 12.01363852652902 18.295573181477444 7.40383927753466 0 -1 0
1105 1 14.310984558482017 12.413632932289069 1.0711346086752722 1 3 6
1288 1 22.471204278679892 24.304606389170175 8.522012269392576 0 -1 2
440 1 11.152905871237955 29.338430205583272 13.257626913076232 1 -2 1
1218 1 3.0352271296829576 19.595591194576734 4.986960204779421 0 -4 2
333 1 6.28040752320383 19.11173926481507 7.4040008178542065 0 0 -2
1523 1 10.448502996229648 19.69545402739172 10.07296945458339 2 0 -2
259 1 11.885021617136669 23.102465179348016 7.338493197739687 1 -1 0
556 1 10.168588756249955 21.78397087414895 5.490366232488398 -1 -2 0
1278 1 15.241358931666062 23.21387312179811 6.557120587366362 -1 1 2
791 1 15.238781020848176 27.543728534312542 7.570466267858848 2 0 2
984 1 22.702261995865705 22.646617756558882 3.7348178692831993 -1 1 2
1426 1 21.911913321023007 20.719310889968135 5.465674210267254 -1 0 1
1027 1 1.0755268026978781 28.238349834464906 1.8285891872805575 3 2 1
949 1 17.67390948730345 15.365089386790853 4.128148301520768 -1 -2 1
8 1 22.278034459065832 13.17669330340386 9.868852100730422 0 -1 1
1494 1 5.227416850563011 18.7132868175335 3.3216943393389684 3 -1 3
139 1 7.340385133985061 26.193548955896155 7.5132561623760505 1 0 0
1028 1 9.701930513748962 27.14339641290215 8.561641303915293 1 -3 5
821 1 21.300270817645536 25.082775953377258 2.739845019302165 0 -3 2
1178 1 24.4232733106203 28.87694882734742 6.184446328741836 -1 -3 -6
790 1 21.237519782457163 1.430019630700992 7.484647992038704 0 0 3
645 1 16.47081192699074 5.501287966799981 2.4958760232399366 -2 0 0
497 1 24.675244633276066 29.540725782442486 14.850930271784941 -3 -7 2
864 1 12.172429874012066 8.19804274236462 1.871164871294372 -1 -4 -5
433 1 12.200054052685147 30.22689615001601 5.108516938377938 0 -2 1
1403 1 9.70151600685648 30.430258693454533 10.214171482193226 1 -3 -3
746 1 15.841759905541917 29.67254125698239 6.003336767918828 0 0 3
310 1 19.685985008686306 25.48711377081775 5.112158495414623 0 -2 0
893 1 19.939821293337626 23.31267215094894 6.872044948234953 1 4 0
235 1 2.237750307282802 24.285776384387226 11.986374511708028 0 -4 -1
1358 1 20.64882210612725 28.110522063397134 2.452943593763867 -1 4 0
1124 1 24.951468121702515 16.646176112547693 7.320501941871899 1 0 -1
130 1 4.930641756381354 28.998256899943 5.344573788691263 -1 0 -2
1289 1 7.308776048145974 27.915983498714148 5.450690921217893 0 0 -3
1404 1 16.218620889911836 1.7004039084696077 2.7633196048368647 0 -1 1
550 1 21.210854069448104 27.749427974646927 5.377976747213014 0 -1 0
669 1 15.654679732793396 16.163640621796155 5.844162332126325 -1 0 2
757 1 5.237182037966824 4.4857481360580085 10.071993907135916 1 0 1
436 1 7.858693801000322 30.507764760348316 7.113526509921089 0 -3 3
318 1 16.792578792554085 3.246405835501378 6.233642263092493 -1 2 0
1469 1 18.013292370691328 5.616416730568403 4.8934622751225865 1 -1 -4
442 1 17.70901944053302 8.02443701662471 6.287781019438733 0 1 0
199 1 17.391321312797967 0.7858968387683257 14.796519954013167 -1 2 -3
518 1 21.350097109174733 29.615105754559927 7.5321823303924855 1 -1 -1
990 1 3.35872038209122 7.131678732611432 12.205158041504168 0 -2 -2
653 1 7.772609592666838 23.041347811886844 1.3703024592618114 0 0 -2
756 1 5.050764310757731 7.342698522040338 9.761396333835666 0 0 2
564 1 11.89479877218154 6.2265072410579885 11.018477029042307 1 -2 2
1420 1 15.793953903092603 5.523664302965738 7.867283350139628 0 3 4
79 1 20.253577968633113 5.585817508219883 8.52044880009138 0 -1 0
950 1 16.344136688045857 10.531595877626785 9.928131783900449 -1 -1 -6
471 1 24.02857245528751 5.818650298820479 7.198412426362396 -1 -4 2
972 1 6.671326886549178 26.0483403838794 3.2793279164107383 2 -3 -1
1073 1 11.223200034694798 3.1830176319184855 11.844600702899509 1 1 2
661 1 8.663718942489968 11.56332343051516 10.08228139580177 1 1 -1
187 1 15.191885064502992 8.451814582134533 8.050266468997993 1 0 1
306 1 12.9458755795255 9.206364727454506 6.721677369656281 0 1 -2
1331 1 20.73779073545266 7.26953702724288 12.0503554664552 0 -6 -1
177 1 23.264472133028498 9.401188754820703 5.3233206011120116 0 1 1
182 1 8.076008865199366 28.308077695575626 10.46479227014598 1 -2 -1
728 1 2.3783817569348233 11.34168010161206 4.316943459368636 0 0 1
236 1 4.977540931431545 15.760191529926114 5.953475859336147 0 1 0
1339 1 6.131759227891114 8.089084889856302 7.234255478770634 1 0 -1
970 1 11.169756378981399 7.951293942742017 8.665728768939907 0 -2 -4
839 1 16.042612922408964 14.818089711093803 9.715444267290284 0 -2 2
641 1 22.633383844826273 13.798324844335054 3.8515850931936924 -1 -1 1
940 1 17.802187563006854 8.429986440819127 11.187142966176854 -1 1 0
1323 1 13.481600907233789 18.652004380055175 13.147337251436294 1 3 -5
703 1 4.256490954585633 16.352188268130448 9.349808247761779 -1 -1 -2
1199 1 6.876309739604477 17.757027624033086 5.099919701188609 1 -3 1
30 1 9.110393786417687 14.779085402062401 8.753346513350644 1 0 0
1164 1 9.930364406793903 9.112165946667858 10.815998912657664 2 -1 -2
644 1 13.53298972582785 13.754586836905156 9.439725819452013 0 4 2
1539 1 18.207049145406675 17.45628993500315 9.140581770461115 -2 -3 2
623 1 20.178575052205566 9.38433223127013 9.668370335406667 -1 2 0
261 1 23.34516955594493 28.36902516161208 8.701135328075084 0 -2 0
781 1 2.055607152014134 5.155766748515687 10.239896278681702 -1 -1 1
303 1 8.564494659552103 17.86328005365008 8.612410359172891 0 1 -2
68 1 10.5679961866315 18.431756376607176 12.65979759181122 0 0 -1
565 1 13.520618591264014 21.665143635513147 10.685564490048012 0 -1 2
995 1 11.996737074397181 22.432194717607395 13.533073212553077 -1 1 1
1512 1 16.371548561554818 21.507086327033953 9.985795134487844 0 3 2
1077 1 20.012737777378828 15.572521130668866 10.289554445374774 1 -1 -5
323 1 3.7158053845665924 12.741042708038181 12.742711106963815 1 -2 0
117 1 17.248194561510168 16.831050293207 1.750542449892467 -1 0 1
429 1 7.7939449581524 18.42952023382268 14.900029695724491 0 -1 -1
472 1 17.329345488386597 24.50463160842134 15.008976682579656 1 0 -1
1141 1 16.429964526689524 20.61430814983588 7.317444518420834 0 1 5
376 1 23.23440280417211 18.443964831651336 8.653661525192927 -1 1 -1
526 1 24.42627436315863 21.528517695324595 6.384761001025357 0 1 0
1505 1 1.7304126487389226 13.98667855208907 6.664904459915409 1 0 2
1327 1 10.533605816645853 22.769667269219383 9.725883853703953 1 0 0
498 1 13.799418857161363 29.589560758036313 14.185860819507958 1 0 1
931 1 18.220122616414816 23.557101830081116 9.107857306163892 -1 -2 -7
1133 1 23.608264773227127 21.38619699363162 12.789536515347383 1 3 -3
1377 1 19.904460849162927 29.97817118782139 14.227268398457962 1 -1 -1
417 1 11.821651922787499 21.26540716773036 0.833070827727779 0 -1 1
1405 1 9.044445982713754 22.94841669008286 14.47280685465412 0 -3 8
335 1 8.362198842545906 21.523066430720952 8.389888508924663 -1 1 -4
290 1 9.649740423438454 24.55637764432914 11.76884620201265 0 1 3
1325 1 16.541062359110008 25.883373085977873 9.845983629643834 -1 2 3
1445 1 13.228831520704656 30.487760211565423 9.463796416289068 0 0 1
385 1 24.802919299736274 28.199054056324556 12.306649023156327 1 0 0
789 1 1.7789856780697781 23.752058906423287 6.954056967781442 0 1 -3
13 1 18.141339942422714 28.12839983343379 11.742749880434452 1 -1 0
674 1 5.001100744241233 26.0688415950127 9.105999804278422 -1 -1 1
525 1 8.225294138151952 2.191430875638364 9.681791043211042 0 0 -1
342 1 8.424355061547187 30.20592297906004 13.727049196016102 -1 -4 0
45 1 16.890367833304275 1.148128334556649 11.90387308976044 0 0 0
925 1 14.261780622152855 26.55496059810544 4.1950880826439665 1 -2 3
872 1 0.9490598615990341 10.501877055627766 13.675750402670989 1 1 0
481 1 17.557538583928615 5.704220603773467 10.19268847886462 0 0 5
10 1 4.898637208607732 11.628667752347914 15.434936755547668 1 0 3
715 1 3.5021038671351232 0.787328613793898 11.185496399531205 -1 3 3
1252 1 6.07424287938273 29.456770812071802 12.78970122729498 0 -2 0
869 1 13.704065903253495 4.388296357305327 13.089035548264887 1 1 1
174 1 11.867433708230719 0.6531114470288091 11.726166186243779 0 0 -1
1092 1 6.737634011998785 15.415887885077433 12.40695833636555 0 0 0
656 1 1.1499838552949098 23.452237101901254 1.8575543458804389 0 1 0
128 1 8.338434983431444 2.33315603136999 12.763084519308807 0 0 2
1230 1 23.766029518152262 2.8204438097298894 1.8096214197396516 -1 3 -4
1470 1 15.353221003732813 6.939657332004118 12.895449660438162 1 0 3
82 1 17.230652343024676 5.048312157241926 13.528274643254695 1 3 2
449 1 22.647031654408195 6.108637897011656 10.077862961775404 -1 -3 -6
1005 1 19.38142488796714 31.039600256243126 1.22989828839461 0 -2 3
97 1 2.2131640764943485 5.955701300505735 14.332602992521256 0 2 -2
1096 1 21.808858241096114 28.57463605260847 15.53915618157795 1 -3 -1
1194 1 6.198250320868658 10.396157966048715 9.482524167571679 2 -1 0
54 1 7.565416913039653 11.644952140429297 13.699561645669155 -2 -1 3
718 1 11.673248708097937 16.020379964110177 10.810785203766661 1 0 1
591 1 13.935315390440538 11.209525341518063 14.312035774024547 1 2 0
716 1 14.803180053009728 12.303705536144772 11.420781186799719 0 0 -1
1370 1 14.06989678804694 7.9771022378132965 10.753975756700585 0 0 1
608 1 21.675077658652516 4.821889942231668 14.104134839359286 2 1 0
692 1 15.2998174602982 9.115771055543508 1.2929292031807191 0 3 -3
1075 1 6.965673716178115 9.036340867446008 12.276124797893901 1 0 3
1220 1 6.65676386053805 13.876653861822204 7.079842504570287 -1 -1 0
1053 1 9.562192124663099 13.96662998963745 11.378489787149048 0 -6 -3
524 1 18.503477851798603 11.71064378664579 12.389438456822498 0 0 1
1203 1 12.235834332771754 9.686599538833006 12.251926867745468 0 0 0
262 1 19.456488615908093 19.727192720931633 7.702044370958403 0 -3 -1
316 1 8.582682852876019 7.864368035346183 1.6320012402053987 0 0 0
384 1 9.848527406841542 16.7054941499226 15.059767250945608 0 -1 1
1361 1 9.95728802694082 10.648637193274272 2.2216574836573035 1 -3 -1
159 1 15.540209174312663 17.749011609574737 8.413059187422979 2 1 0
833 1 16.61053041416001 13.393447388635632 13.77868307413889 -1 0 5
373 1 13.31383001457647 15.775297828324605 13.362811015923269 -1 -1 -2
1381 1 2.285045491424886 14.851646675154125 11.208758737460553 0 1 1
1262 1 5.360156839419879 13.617972625383285 10.4930125785062 2 2 0
1159 1 6.325316642263167 21.619586921872965 10.354248166231693 0 5 0
1145 1 5.042890895973024 19.29810444396881 9.9295426969114 1 8 1
87 1 22.676198208860146 10.606259965574012 13.285911635654966 1 -1 2
1104 1 20.069476410953275 20.37428722745763 14.307251264406744 1 -2 0
607 1 11.801708081052158 15.339803105747784 7.8022764350309455 -1 -3 -1
1419 1 16.294869536006537 16.244039588055607 12.454463557022017 0 -1 1
876 1 20.996909741021863 20.793716600939497 11.618534074409297 0 -2 0
883 1 11.963468406775084 13.144858403817885 12.438378459741557 0 -2 2
491 1 14.020490443106723 24.32425129239809 9.367023864843926 -1 -1 -3
288 1 2.9942452708174367 28.368893895585884 14.47235178964098 1 0 -2
1034 1 8.813634230391498 7.885398280626585 14.918864666512917 1 -1 -1
1103 1 4.699620335429243 24.35015169595983 13.034816985132254 1 3 3
913 1 6.102306295483262 22.17695331491798 14.383407215946436 -1 -1 -3
1378 1 14.562577710855543 21.2097558963776 13.412721894001276 0 -1 -1
930 1 16.741151126174493 18.82293570382457 13.239808380753578 2 0 -3
225 1 12.764772497415697 24.472356742162034 12.378377905559606 -1 2 0
1109 1 1.9040484330332372 31.045850358444163 3.7404812940985814 2 -1 -2
38 1 19.81694596369491 6.501117223284127 2.198721779861132 1 0 0
578 1 4.648465096154588 14.968165020218589 14.310637226928657 2 -1 -2
852 1 2.7233151909162796 24.602539718218623 4.278441814006031 0 4 2
1169 1 4.930281097175698 4.2740521363197 3.447557343186039 -2 2 3
956 1 18.9232699912784 25.519122433083005 13.055883849092265 1 2 4
694 1 18.2215231653307 19.595251864249633 11.01016444205451 0 3 0
91 1 4.015516542302267 23.172379930245185 8.541461620026682 1 0 -2
1311 1 10.14193356337585 20.291676922989154 15.403533793245266 2 -1 3
895 1 16.559692017583004 23.600058480172265 12.137788555893101 0 0 1
890 1 10.737053011756043 27.22798066762042 11.536167048881607 0 2 0
546 1 12.61456333507089 2.2723482728734803 8.439020088922902 0 0 5
1009 1 15.14432724144156 28.08509036011023 12.563901320123495 0 -4 -4
118 1 12.27826298588591 26.260603844357092 7.542730423865612 0 -3 1
1344 1 5.267582543383223 23.64133540786736 4.58322420214288 1 1 2
897 1 1.8479299543103855 26.227739771174477 9.976201394562144 1 -3 -2
1023 1 6.2561364074844965 30.74539074297722 9.979888508188678 0 -3 0
1375 1 5.022038553374967 28.98094039528153 8.312726124238065 1 2 -1
1341 1 13.415790690924881 27.61750713747 10.317326686344352 -1 0 -1
1308 1 3.2012828225542664 3.9489977678187147 1.1895330869619611 1 2 -2
1481 1 19.765822314687515 4.36676796757494 11.873210504660547 1 4 1
528 1 18.212818602165402 3.5063008501495774 2.2025816599007424 1 0 1
536 1 9.700981093056454 27.44080874670764 3.891520927832758 1 1 1
270 1 1.5554454656791776 8.257379145345622 4.191031363863462 1 -3 0
426 1 5.990814618206832 5.470248769655316 15.133720735242418 0 3 0
473 1 24.606732623542854 23.346676164911372 10.418696368199768 1 -1 -1
274 1 16.19287032249714 3.381129154079506 15.539480183622272 -1 2 -1
165 1 3.7286175933182446 13.935282028967453 4.408752278145391 -1 1 0
1184 1 13.364653113282127 8.55486083956148 15.037040283563037 0 1 -1
740 1 19.45695433817505 1.6246051685218423 10.769541726064615 0 1 -1
210 1 14.373290684355636 1.3873120360332802 13.504988183332614 0 1 -2
224 1 24.625607215869923 23.79936101692371 13.735878721040983 -1 2 0
1157 1 6.010900991721497 3.8531009441051167 12.604521327305052 1 1 0
850 1 23.128975391821424 21.822221560974867 1.3392157492579562 -1 -1 3
223 1 15.514085262792001 11.05771137633522 3.65143147012532 0 1 1
360 1 4.407362628697486 31.25515312487739 13.96932859648089 1 0 -1
1322 1 15.955883634868641 3.4773787670023104 11.324658697554588 -1 3 1
563 1 7.236362250034713 0.8030209514702586 2.6805223335748427 0 -2 0
304 1 24.788264248889934 4.995665755571282 13.32301169110134 0 2 1
805 1 23.917988436563405 30.352639216015426 10.49892105503295 1 -3 0
1453 1 5.8422296852257265 8.186037695129851 14.884799278713949 0 -3 7
1417 1 14.544957086590172 22.197438808320513 3.9616364586475687 0 1 2
144 1 23.223997753190318 25.011427818772837 0.8170690403917463 1 -1 1
560 1 2.266331201982956 10.34242445175117 1.0042680845876406 -1 0 1
576 1 20.257025233885486 28.028973386750152 9.749032171855813 1 -3 0
1527 1 16.811378114647756 9.628047993121019 13.900629944186736 -1 -2 -2
1140 1 11.801997872799566 30.41357113394286 2.209729799530395 2 4 1
500 1 5.365337749821311 11.842838251322869 6.313871863207483 0 -1 1
438 1 21.578197203915437 15.287090404864356 1.5177916744830837 1 0 1
1413 1 18.900774779011588 29.96709636883036 3.954816906778375 0 4 -5
512 1 15.175564596382664 18.399259638936414 1.5864082456555633 0 0 4
1102 1 8.815284397095692 24.1328331056679 3.843226797703787 1 -5 2
594 1 22.90677676695668 8.165004951380674 13.911005850460642 -1 -5 5
1456 1 22.860640431818386 30.06003745127098 4.082126962478047 0 -4 1
1352 1 23.738086374021435 29.430934277852394 1.4153838307535507 1 2 -1
392 1 18.02382120871886 26.674131653258748 2.6874204842444613 -2 0 1
808 1 11.599668516736015 7.068163423260162 13.66078287183679 0 3 -4
272 1 1.5340544993731204 16.826972134942622 13.13672125834541 0 2 2
734 1 11.744592395684682 12.90540044738106 2.5460276550594823 0 2 3
770 1 8.659717686936883 5.1438414098599745 15.590110725874618 1 -1 0
1536 1 13.255824340691955 18.68631573444585 10.153127734732811 2 -1 4
446 1 8.820842807865626 14.202097584449753 14.242377291697617 1 -1 0
326 1 12.80749674050905 27.834666837491028 1.4966502910352166 1 0 1
738 1 19.01067022988366 15.717181155118606 12.935803838994133 0 0 3
499 1 23.88926155294141 10.59223054447764 2.3660425882591434 0 1 5
819 1 2.019561722290604 19.190276527593838 10.448370585255335 -1 1 -2
171 1 1.176504746436356 26.682779375727982 13.206215077573464 -1 3 -2
719 1 10.697952259511656 25.73481067637237 1.9457562368973584 2 0 1
1429 1 20.525031296484563 17.63829348451288 14.172812520860463 1 -6 0
1315 1 11.555156325017018 12.632584472577339 15.087510421736862 -1 1 1
559 1 24.438946092037952 12.527551397992676 8.108735316810591 -1 -1 2
1489 1 24.98960243588303 19.00046486368312 14.4506517718542 -1 -5 0
1122 1 21.496276826669213 21.388401675856585 8.7231591731337 0 -4 1
1049 1 6.857986184108923 25.08201569838694 11.210418288060806 -1 0 1
592 1 0.9725582792939519 16.15841781946593 3.302263783864474 -1 0 3
1050 1 4.734433760694314 26.03482713862443 15.213241291867226 0 -4 0
492 1 5.939960605675451 2.3616404079055133 0.8379893268943536 1 0 0
1044 1 21.65537504140016 17.989694300130274 0.9009436421841421 0 -1 2
1346 1 4.714145857607257 21.406529081253012 6.559283512109908 0 1 2
1030 1 1.890359669574443 21.867379403487007 10.10272180323223 1 4 -3
1441 1 16.030929587317377 30.081684588199657 10.035559417743388 -1 -6 1
679 1 3.973031987485532 17.907710145128902 14.593867351379652 -1 0 0
943 1 18.922512861549162 20.45630524433131 1.3268879385690935 1 -6 3
924 1 13.61718833970218 5.713962736178823 2.5718233818928686 0 2 0
978 1 3.8774066450705016 9.79487989395291 13.439668444412925 -1 -1 1
1004 1 19.147146117778664 7.247705868554235 14.45732561130591 0 -1 -6
677 1 23.91779210240855 13.808792730452293 0.6383003886530129 1 0 1
1349 1 20.33659031345381 13.324026139793492 14.194242720563157 0 -2 1
596 1 20.912574004192805 1.8616389877749009 15.296215322115971 0 0 0
398 1 23.984041889725987 12.54872926259685 14.689561286627624 0 2 1
308 1 24.70939240095761 7.448653633822752 11.82227264066112 0 0 0
1518 1 16.629798256672274 14.032094274789227 0.9771526952303322 0 1 -1
902 1 14.085571035300436 2.9538296073557184 0.9453481075669745 0 1 -1
1306 1 0.8439975328118281 21.87796295784802 15.84933093759473 2 4 3
114 1 14.414000758950445 5.596651243674666 15.826167228618916 2 -1 1
1142 1 12.75204014047159 19.313304289980145 15.894570281470823 1 -3 2
845 1 9.742108532939016 4.530081123666166 0.5149323518967961 1 -2 1
362 1 4.141109047356962 19.67606828966032 16.76645964187866 -1 1 0
241 1 23.281509625692312 6.853358681851558 27.220378750183215 -2 3 -3
1206 1 21.747932271044522 15.245018298635712 24.99716065001116 1 0 3
346 1 19.86369897683311 3.352023310090284 23.148461089333736 -1 3 1
646 1 4.33743338811498 3.968823557217788 16.567528164313877 0 -2 1
468 1 11.92915150731234 5.585346911650952 17.134234509860825 0 -2 2
344 1 5.968363507694345 22.704466412057485 17.269626818033444 -1 -2 0
632 1 2.1874966606209236 24.76114720983064 20.36883670567711 1 0 -3
93 1 9.215217075081446 8.196807592870165 20.712602492253865 -1 -3 0
1168 1 22.02904431848362 23.771743646708707 25.499359883457863 0 1 -4
1161 1 12.001588357162943 7.838197073427854 21.40133940331181 1 2 1
797 1 24.483491096957042 2.7183756205710314 21.912824843777493 0 2 -2
55 1 15.710307587269263 4.9831773009240745 22.50276546601161 0 1 1
834 1 18.785528002008064 4.327138289089824 20.66183069047389 1 -1 -2
1155 1 15.760656964189788 23.767684445265367 31.03265572798655 -2 -1 0
1454 1 1.0151984357872872 15.7647908702806 24.280273271388744 -1 -1 -3
1491 1 14.73418397664399 9.916065307249852 21.89798028459927 0 2 -3
700 1 23.904926209223614 6.721574627677776 23.365519858711842 0 0 -1
513 1 3.892729188545548 17.650197283141267 28.387600860132927 -1 -3 -3
32 1 21.282924553645273 29.296190998915705 30.451739654195727 0 -2 -2
953 1 22.487844118788 10.685560956259899 23.278899248681817 0 0 0
258 1 10.933089028997916 13.887412434286526 24.29559495582511 0 2 0
969 1 5.487330396581127 9.123255341033708 17.47231888385135 2 6 3
35 1 12.403754567097625 27.103428295709136 15.9392722641477 -1 -1 -4
727 1 17.11625637882879 10.939864791465851 20.63462477040874 -1 0 0
1498 1 24.863480384498768 17.250327212150488 27.613219920430637 0 0 -4
1065 1 8.846685407612595 19.377077912068856 18.055816050207262 -1 -2 -6
1094 1 2.9583068497871263 23.428781340041155 25.1439517988722 -1 4 2
1435 1 1.6271663697699013 11.346817773671859 17.781894519442886 1 1 4
1257 1 2.4025789420717767 18.934927829146467 19.06743612843561 0 -2 -1
383 1 6.881800047263061 12.68650441040524 21.655566212900254 1 1 -1
1216 1 8.809485370140603 14.715896034379895 20.523841620739297 1 6 3
313 1 20.859430064230068 14.362389837952685 16.733800287501687 0 1 -1
1195 1 17.164057721007694 13.527648390565744 21.13775711479228 1 -2 -5
1414 1 20.637812382623476 22.933839356604715 28.284863746153654 -1 -4 -2
1185 1 10.781181007862168 21.038270462517488 21.54762842604527 1 5 4
390 1 5.743116190113052 19.878699679010218 25.75597151707759 1 1 0
836 1 6.309943917248 10.357464352668893 24.303451088964906 1 3 -3
706 1 9.894720585306704 14.47142524016951 27.202346786547643 -1 0 1
625 1 15.238683035722755 17.12708939175623 22.10467410763509 -2 4 0
249 1 7.157093578542305 18.66982035966226 30.593926542774348 -1 -2 0
253 1 22.040350106810582 16.939856051420726 16.418242767876684 0 -1 1
228 1 22.05507799945857 13.011267668628868 18.737480994298906 -1 0 1
108 1 3.872280335280024 26.60834737390737 19.063007709153467 0 -3 -2
1503 1 23.326967899506318 20.16742662677241 28.10565964605111 -2 1 -3
964 1 3.0769097961276426 28.07539588191201 21.631099854939663 1 -3 2
1336 1 24.717493451260566 23.10315777573684 22.5888063803321 -1 4 0
483 1 11.449647558587317 30.07693423099132 17.09098990887947 1 3 -1