LAMMPS data file via write_data, version 29 Oct 2020, timestep = 400000

2060 atoms
1 atom types

-0.04762370588023401 99.28016483072108 xlo xhi
-0.012250917128536543 25.539236174956933 ylo yhi
-0.012250917128536543 25.539236174956933 zlo zhi

Masses

1 18.015

Atoms # atomic

2006 1 1.429248480546115 2.905764695752876 1.0521246151093047 1 -3 1
470 1 3.1976283899263573 1.2792133728405697 2.4640552310689934 0 1 0
216 1 7.834453810945207 2.899307108515107 0.5507564761354582 1 0 -2
709 1 9.3100062080096 1.2843785188543244 2.049512433245124 0 1 -1
1006 1 14.36229792799885 2.60408750776035 1.0595065550718674 0 2 3
501 1 15.845111064860836 1.1422156969587196 2.6692475833977785 0 2 -1
672 1 20.282452095306517 2.322581170098211 1.089417199466359 0 1 -2
1262 1 22.015763622272942 0.6992125021545981 2.4741950272321898 0 5 2
473 1 4.705672030340851 6.342629653346548 1.0388129220994922 0 1 0
114 1 6.352642324804188 4.3193123450921975 2.287896600326382 0 -2 -2
220 1 11.06165889312649 5.808948865692949 1.0116195126425005 0 2 2
629 1 12.813731454977416 4.035013413349858 2.5680526407673856 0 0 1
842 1 17.480609950479643 6.213346418242157 0.9366312875260175 0 2 0
1093 1 18.770809972915853 4.440435750613448 2.6313407515505927 0 3 1
652 1 23.354484632360283 5.609644374182979 0.4775181113706264 1 2 2
400 1 1.4255719031376015 9.671234231489384 0.7064325037278315 0 0 0
406 1 2.826722163614931 7.995299053682288 2.4196082863156523 0 0 0
50 1 8.118195488297138 9.090268763445335 0.8631225793287094 1 -1 1
962 1 9.669056903455644 7.336322176986475 2.241661255463192 0 0 1
1249 1 14.61364234107628 9.124023078206022 0.4394106682392989 0 2 1
84 1 15.917447589816522 7.670402553682591 2.3056375708164873 0 -1 3
725 1 20.565191389500377 8.925467891083779 0.8301203922074188 0 1 0
1102 1 22.021022691472186 7.081537657076538 2.3921308153229277 0 0 1
427 1 0.12213666799946388 20.414108651478948 5.912100164954904 0 0 0
72 1 4.505435993906823 12.109212524094408 1.187521581967527 0 1 1
162 1 6.318123868123828 10.404835532678428 2.711188897833955 0 0 0
159 1 11.156255773791639 12.085942724413883 0.8328233545168725 1 2 1
265 1 12.647893746349045 10.133211337964747 2.219796177233032 0 2 0
544 1 17.295365731011444 12.390627979009633 0.5671845595265099 1 3 -2
874 1 18.8738269840978 10.869509849155966 2.4126299214379725 0 0 3
656 1 23.690246124727583 12.429723871410573 0.7678448113552367 0 -2 -2
431 1 1.7009157890774047 16.21951713193601 0.6343077908641769 0 0 0
402 1 3.0012842631790293 14.206707472360957 2.6544378572751337 0 0 0
132 1 7.650327020842297 15.300092883514017 0.7742251414302721 0 1 0
167 1 9.406864544132004 13.697315550892624 2.24141153567609 0 4 1
12 1 13.989999193165048 15.479017579718528 1.0427754670943876 0 1 0
912 1 15.583255760462288 13.810951627037783 2.275143203927106 0 1 -1
952 1 20.484096242985487 15.612005733026455 1.0932643063471161 0 3 0
77 1 22.07360011161274 13.851333140477001 2.426829843099123 0 -2 -5
445 1 0.18565961371385284 17.270398311892023 14.94642778678951 0 0 0
405 1 4.652869593958832 18.80060950211799 0.4744407553505204 0 0 0
414 1 6.16662387704596 17.055903985448435 2.4210924546723738 -1 0 0
71 1 10.79343183661898 18.51428264901556 0.9123849527511815 0 1 -2
526 1 12.490145472264688 16.95747647536201 2.5591672539270167 0 -1 1
166 1 18.92530816859478 17.104158385334745 2.6258796802361815 0 2 -1
1168 1 23.915887955345088 18.721492993102345 1.0390389839473089 0 -2 1
465 1 1.6094819320801441 21.936716234968543 0.8656421238424218 0 0 0
404 1 3.351829517774778 20.471917785173765 2.4539491007406316 0 0 0
100 1 7.964073779984918 22.114447836129933 0.8858903621238907 0 -1 0
25 1 9.48542574800136 20.278616435198305 2.250025372942053 0 0 1
599 1 14.415436336936937 21.580156498090506 1.3309311561378827 0 4 0
563 1 17.305023205595806 18.58719510545967 1.0389094928340463 0 1 2
1297 1 15.87134745404976 20.00822602827955 2.919219443807177 0 1 0
1535 1 20.656198525528996 21.8255733369779 0.7637015774741093 0 -3 2
218 1 21.991530057201718 20.053389297775723 2.5161171516124363 0 -1 1
1552 1 22.193867280060225 23.231592278322065 24.518039400743202 0 0 0
468 1 4.546949961244122 25.18035814814549 0.8723591997572282 0 0 0
113 1 6.0439774946217195 23.63825220871665 2.4794575576569593 0 -1 1
643 1 11.07607765543483 24.985254407867117 0.8972140165134199 0 0 1
333 1 12.802152727878017 23.668367027604425 2.5467918802359377 1 -1 -3
251 1 17.02535813012415 25.12840437565574 0.9480726614085606 0 4 -1
1205 1 18.68829815729114 23.368851026289082 2.3038876329290767 0 -3 0
885 1 23.56264063863994 24.901325367952754 0.5845349146023238 0 -4 -2
480 1 4.779726901431231 2.960714488032643 4.087669980063684 0 1 0
479 1 6.067208267380078 1.3238462469718881 5.688352471670059 -1 1 0
598 1 10.983906010246109 2.4591370349612913 3.9850533790657345 0 -1 -1
944 1 12.43640942992869 0.8808266186258149 5.702105850548888 0 -1 -1
1009 1 17.481305072861325 2.7042763058239174 4.317038977114561 0 0 2
890 1 18.387061996210953 0.8597022480584734 6.017312193901853 0 0 -1
1505 1 23.543201058531793 2.1627471454658043 3.95892961809452 0 -1 0
481 1 1.4247665817548005 6.004565903725111 3.7801779926783308 0 1 0
483 1 2.965006901811906 4.696249938820521 5.4614472789090724 0 1 0
173 1 8.034372983734547 5.791866605298591 3.79285797012784 1 2 -1
379 1 9.23818794953761 4.083989938312586 5.837863184657497 0 0 0
942 1 14.061627335653345 6.065993310025379 3.750629689405081 0 1 2
907 1 15.424660246056556 4.47954091779037 5.3811594534089044 0 3 2
2054 1 20.38727555376466 5.5767390992497505 4.121656596257375 0 -2 -2
1572 1 22.031735780069344 4.049316510564056 5.74361853838645 0 -1 3
407 1 4.472351996930426 9.402954032058714 4.095047403768489 0 0 0
420 1 6.23054546288347 7.383492612965979 5.41353527949842 -1 0 0
39 1 11.174285953766734 8.932059186466518 3.9420985048429187 1 -2 -1
852 1 12.39908362677425 7.275093827273926 5.862086592132692 0 1 -1
548 1 17.251200483423972 9.490068326554756 3.803368623229733 0 2 2
1769 1 19.05204358229051 7.543824813101305 5.616640297553512 -1 -1 -3
1398 1 24.177174490001317 8.394298869373161 3.826430729048004 0 0 2
463 1 1.4484241359072758 12.851619395412515 4.33480823870214 0 0 0
409 1 2.847764118462696 10.985840048073028 5.814533185275895 0 0 0
521 1 7.829425892867746 12.180976479552394 4.011578920315413 0 0 0
735 1 9.53575118711141 10.244329045641866 5.323930965411997 0 0 -1
1110 1 13.735317276741581 12.215313413010866 3.8566168147413005 0 5 0
109 1 15.5955554364949 10.79022580778626 5.551483610701736 1 -1 -2
870 1 20.654824798797154 12.14102430163519 3.916897852022454 0 2 1
80 1 22.578824983080114 10.023468700815634 5.255830928048732 1 -1 0
413 1 4.86451429339974 15.463568564291934 4.2840767665890755 0 0 0
224 1 6.073814200196432 13.454816535717791 5.604319488620339 0 1 3
230 1 10.638615695073856 15.355476268554538 4.145500560064649 1 -1 -2
60 1 12.166460833151724 13.961403581610242 6.078738545637404 0 -3 1
389 1 17.20511706605498 15.236300540629545 3.9484229966436533 0 1 3
986 1 19.040053936514532 13.752040454800305 5.703212589564868 0 -1 2
941 1 23.34449227612453 15.528561093706978 4.074488566251317 0 -1 2
415 1 1.5560214085171689 19.176539013441573 4.04671995042775 0 0 0
421 1 3.1792076022714433 17.17943432422582 5.542381630624293 0 0 0
357 1 7.645206810198632 18.70861830053968 3.887253874055209 1 0 0
87 1 9.083187682274538 17.11682148309227 5.603972364963239 0 -1 0
691 1 13.938341843173944 18.468954423439474 4.3371474406107025 1 1 -1
1182 1 15.825418249365056 16.754214822273184 5.86351250691386 0 2 -1
569 1 20.490036552425703 18.655441893210735 4.4316832588812884 0 2 1
275 1 22.265408446366276 17.312525310162286 5.910484129115224 0 -1 0
715 1 17.553415195551498 21.791379896459127 23.193673502643232 0 1 0
475 1 4.607294200924518 22.179805999673615 4.067666958307758 0 0 0
214 1 6.102676133976428 20.52434565768838 5.597076042553514 0 0 0
27 1 11.258783494889895 21.64468340948494 3.8036373505728203 0 1 0
47 1 12.385209158402935 20.09866805580201 5.584081962103379 0 1 0
1355 1 17.52809294011361 21.97678277333296 4.407121629831324 0 -1 -1
126 1 18.911797788443266 20.28471239023321 6.079446629866297 1 1 0
2002 1 23.388847577114873 21.946005166195402 3.8935793423984983 0 1 1
478 1 1.4893690504013217 25.285373869736677 3.9381418417779823 0 0 0
486 1 2.9696030430835108 23.67509046145203 5.559605945096897 0 0 0
243 1 7.741013303178383 25.366827247588898 3.7982636224655724 0 -2 0
158 1 9.48444740984188 23.551507349621048 5.238414263067562 0 0 0
1247 1 13.983585051933218 25.115346943246706 4.327482175720734 0 0 3
1233 1 15.767575367956166 23.60111319967945 5.622038621695275 0 1 1
394 1 20.011374262273094 24.866835135464733 4.1547139147943435 0 2 -1
1546 1 21.911368728356827 23.540497565238145 5.4248897318160765 0 0 0
488 1 1.490012884720063 2.8329764652509355 6.867738579097309 0 1 0
489 1 2.9293903351948556 1.0776032385118253 8.592652599842339 0 1 0
358 1 7.912593560623166 2.668544767484103 7.5853506904646375 0 2 0
321 1 9.498200287534655 0.9724395692616029 8.937722529866193 0 1 2
201 1 14.078030536243864 2.5613235563830443 7.142034410680024 0 0 0
636 1 15.331616553625764 1.2057263464549393 8.830283137210275 0 1 -3
928 1 20.20400321374793 2.515278487833791 7.26357547071174 0 -3 -2
1199 1 21.82510375915566 0.8285159110226091 8.7701832937154 0 0 -2
482 1 4.698580533792503 6.262349582658524 7.013336029777346 0 1 0
886 1 5.841734754665892 4.371866095842921 8.690920776498412 0 -2 0
125 1 10.95246924897698 5.582034401523953 7.3162007922197185 0 2 0
707 1 12.858159007578953 4.380648800963249 8.660040301778633 0 3 -1
532 1 17.329119452151833 5.86708089644285 7.046998471258125 0 -1 -4
936 1 18.46535716100631 4.5117666613365826 8.790570532703201 1 -2 -1
718 1 23.788009970661253 5.441557388233419 7.45399640983305 0 3 1
408 1 1.4689580469004437 9.097179378762622 7.2277984428357875 0 0 0
491 1 3.1706121503868676 7.538115695528421 8.88963959828044 0 0 0
190 1 7.592611544600132 8.854503888234703 7.127411884603089 0 0 -1
123 1 9.15621738504973 7.349948905628113 8.978787778736496 0 2 1
171 1 14.406412185340596 9.014994929565205 7.118936862928986 1 1 -1
1374 1 16.024618964671753 7.298996571632543 8.99179395310585 0 1 -1
247 1 20.6061685102195 9.043908864741084 7.110233238240952 0 -1 -3
237 1 22.279873667481322 7.2315061138098224 8.721493039242315 0 0 0
29 1 19.02210892654844 20.099082911671363 24.888677430965362 0 -2 -3
417 1 4.760779416141464 12.19145814098469 7.557060058454206 0 0 0
418 1 6.386715816380602 10.46862228272948 9.031801603558035 0 0 0
347 1 12.928849653799999 10.448324699915698 9.023108773535082 0 2 1
1642 1 17.338159768931423 12.087170200485192 7.558722795275755 0 2 3
1503 1 18.819629889754996 10.321219567661439 9.157077559052455 -1 2 1
704 1 24.00900029099632 11.770176609098463 6.99355516958211 0 0 -1
419 1 1.3894170033572844 15.74992112220521 7.306585523277722 0 0 0
425 1 3.2695633089468976 14.166452402265918 8.833444007848657 0 0 0
726 1 7.651346008649013 14.934386496857213 7.110915370395391 0 2 0
228 1 10.964340855614221 11.836998585752863 7.469949619969836 1 1 0
1014 1 9.285010781302661 13.666743237739608 8.889813842855427 0 0 0
1142 1 15.692387460299042 13.72673935991735 8.987847063449577 0 -2 2
138 1 20.702616827080323 15.384459606684178 7.346664012439913 0 3 1
1431 1 22.62174633312355 13.56049178095784 8.350554234968412 -1 -1 0
422 1 4.63657006128168 18.737639085293818 7.227446857131655 0 0 0
145 1 6.284250534608571 17.0918390296013 8.687928887048873 0 1 -2
24 1 10.555429568122742 18.411005257783696 7.2787657837785655 0 2 0
1360 1 13.984982111622877 15.476804631527882 7.6158210036671665 0 -1 1
904 1 12.286026038547469 16.933196864680713 8.68040078056715 0 3 -2
273 1 17.387625655074274 18.49923401347196 7.327261951825139 1 -1 -1
1782 1 18.814874389133944 16.91428236189081 9.037538910046358 0 -3 -2
720 1 24.0811103519383 19.03155884010546 7.115293137032349 0 2 0
484 1 1.6136207774776332 22.014837803544268 7.311190302174226 0 0 0
492 1 3.2749444444411577 20.408967695312185 8.943640970495222 0 0 0
384 1 7.894281340192573 21.839661916090645 6.928690405947247 0 -1 -2
188 1 9.392342183784448 20.182953800078863 8.681196595558255 0 -1 1
107 1 14.12115763922686 21.801899156625243 7.001563619498311 1 3 -2
86 1 15.603646872351295 20.462043767347723 8.747521366490004 1 1 0
1409 1 20.33551498941017 22.02802039271958 7.177916549789023 0 -2 2
199 1 21.88590881751754 20.23738104795678 8.707139632684836 0 1 0
1736 1 20.467068261617193 25.243147965289147 23.446452895870358 0 1 -3
487 1 4.557554652767584 25.091283156311267 7.204568825876569 0 0 0
485 1 6.203630682609466 23.55418969567761 8.643335014339865 -1 0 0
16 1 10.840459312164606 24.838318240380797 7.299734524468114 1 -1 0
372 1 12.620241651292837 23.41507334766371 8.439679929624281 0 0 0
838 1 16.933657550345924 25.060805237496584 7.49701236789736 0 -1 -1
31 1 18.582026243996584 23.36950983357618 8.84600963235442 1 2 2
1973 1 23.43935415136355 24.911542463861714 7.227338881750475 -1 0 1
373 1 23.686450920644408 21.437036340344115 22.810370841988494 0 0 0
466 1 4.512421812144311 2.4128432274188274 10.5675925497385 0 1 0
244 1 6.424161870239861 0.9411270556350636 11.833936223730504 0 3 0
26 1 11.086942431827103 2.8008774367683524 10.293705244395031 1 2 1
1222 1 12.735649076750773 1.4053746124797861 12.170112491765007 0 1 1
510 1 17.19146243195396 2.515056126356506 10.239038520861824 0 2 0
1922 1 18.836215722968028 1.2629988075045164 11.947914606732912 -1 -2 1
1163 1 23.734855297837047 2.566240151878209 10.431219535620777 0 0 0
493 1 1.5248650043388217 6.055946742505043 10.460678316050975 0 1 0
490 1 3.3778560747654307 4.417780968424588 12.163467184597044 -1 0 0
1228 1 7.388059320974808 5.742747557622317 10.544542513471253 0 1 0
968 1 9.467365785538636 4.257584956187874 12.120969272867141 0 1 1
804 1 14.152771682622303 5.900539804289231 10.660889507550573 0 3 0
1147 1 16.039354416111586 4.375278174072573 11.860530672035278 0 0 0
381 1 20.52880307451954 5.848535806477238 10.077949283260358 0 1 2
1545 1 22.172264968653835 4.58167568562555 12.115718825699114 0 0 -1
436 1 4.825954064545872 8.937238838064006 10.65973391303197 0 0 0
179 1 6.289375374871688 7.432811196468479 12.615540054494266 1 1 -2
781 1 11.206978427225748 8.745284209891743 10.634080273669008 0 1 0
364 1 12.524625361927942 7.440731511692264 12.487996421062064 1 -1 1
1232 1 17.325168152769425 8.953557778723322 10.90909639179523 0 1 1
858 1 19.19815087416404 7.625492389808144 12.055323955378487 0 0 -3
1643 1 23.861118330430017 8.65184002724971 10.438716697815789 0 0 1
1958 1 1.633313175070147 12.709032233755348 10.425889310614634 0 0 0
443 1 3.1942365135673385 10.883760210494088 11.784605021501537 0 0 0
423 1 7.9779076502493815 11.982447776538534 10.69006046221661 -1 0 0
388 1 9.762019768123265 10.322456978579101 12.14235352673465 0 1 -1
1960 1 13.87489797176322 12.514254948388837 10.769353768377705 0 1 -1
40 1 15.270667874678006 10.350390140598682 12.041282334861716 0 1 -2
604 1 20.720312966233877 12.149974152018823 10.17639223779312 0 -1 -1
41 1 22.27790055964019 10.497834936422825 11.627819318446997 0 0 1
426 1 4.6985045575119795 15.55522259813065 10.590423146590634 0 0 0
460 1 6.400559863892218 13.617645313423496 12.135855252322537 -1 0 0
255 1 10.85052338596572 15.1549735591106 10.475502480764947 0 2 -1
638 1 12.433039174484149 14.046531129417357 12.453429523658423 0 0 2
708 1 17.739156116438892 15.128115474366014 10.54282992059645 0 3 0
1780 1 19.259548296921643 13.398290109075818 12.467308325474127 0 1 -3
1311 1 24.031912049967026 15.287689757073066 10.04584448839186 0 1 -1
401 1 1.5594600736770827 18.69807887923186 10.291340823518041 0 0 0
461 1 3.1997927723212123 17.1446311817357 11.954086783231942 0 0 0
922 1 7.799994945797996 18.75330039158194 10.0722060964999 1 0 -1
53 1 9.503613227291096 17.14255993364652 11.81797217279479 0 -1 1
790 1 14.270543774557199 18.600604234402034 10.26689867411852 0 2 0
978 1 15.981555731970097 16.821250172407126 11.909597883027967 0 2 2
913 1 20.37667111837933 18.452429350996095 10.6130489449578 0 -1 1
1573 1 21.974207300633974 16.620059166799134 11.687362197853037 -1 -1 1
264 1 1.6939658255175887 25.422716086499825 23.51357798074456 0 0 0
471 1 4.6937127520929804 21.962293542325902 10.72788246157251 0 0 0
165 1 6.351100818504415 20.19157663426468 12.102201959314428 0 -2 0
120 1 11.234206838023757 21.909589454410067 10.341525074830113 0 0 0
931 1 12.774672165706837 20.169403587472292 11.805428425879537 0 2 2
1515 1 17.03836571612667 21.99279781160562 10.783105440790612 -1 1 2
1640 1 18.76849965118033 20.404957223798004 12.068194417781662 -1 -1 -1
779 1 23.503978292738914 21.679729839450086 10.336626308746864 0 2 -2
469 1 1.826242160126649 25.17831514749656 10.256520539450678 0 0 0
137 1 2.9589936059271125 23.672429242739987 12.289040501391934 0 0 0
783 1 8.009628016051275 24.73056559844206 10.279649945681735 0 -2 0
359 1 9.607183692086377 23.584693929031165 12.103906182654857 0 -2 -1
259 1 14.14222993803366 24.956307944252465 10.38062695159539 0 -2 1
38 1 15.766298845817369 23.79138681667132 12.219373008673827 1 0 0
833 1 19.96094849297565 25.116577098211007 10.203854678976278 0 1 -5
607 1 21.63347099443986 23.3060965565524 11.699472915724456 0 -3 -3
500 1 1.7072212634180517 2.603663030799474 13.574782444461325 0 1 0
268 1 3.262966049861874 1.1945069752288855 15.443003994067219 0 1 0
592 1 7.774648783020482 2.6532536962146502 13.561091434327189 1 1 1
339 1 9.06413216209041 0.8967993420727929 15.10251319318603 0 0 -2
763 1 14.391620949395643 2.8885514096126257 13.459173046595987 0 1 0
867 1 15.879505412002958 1.501850840755771 15.168208536911795 0 2 -2
722 1 20.580532630897736 2.85261212523588 13.151493168270129 0 -2 2
202 1 22.30939303894901 0.8222482618247513 14.928174820889023 0 1 -1
300 1 23.455011660969742 24.67366771940163 13.275160814720719 1 0 -3
424 1 4.560779939621258 5.970373439589722 14.185287697291436 0 0 0
354 1 6.384569264504826 4.353851194974649 15.44015310894362 0 1 0
314 1 11.012170082793777 5.72539166091268 13.64028467866467 1 0 -2
1032 1 12.544085584207622 4.0828168287546065 15.398465328189916 1 0 -1
1857 1 17.44769325014984 5.949554073173227 13.397410988137747 0 3 -1
1157 1 18.9132474215698 4.349970460911107 14.950628030279164 0 0 1
1551 1 23.81378153102645 5.970537452919698 13.535647056335563 0 1 -3
464 1 1.803602345608443 9.528362709589667 13.887321606008705 0 0 0
151 1 2.9438586238901063 7.732326775272942 15.61117419089089 0 0 0
391 1 8.175167005451216 9.070854602631403 14.079097578998388 0 0 0
79 1 9.439582588400718 7.255401935487537 15.253597618493409 1 -1 -1
219 1 14.263984759459202 8.873486008493758 14.209443624701908 0 3 1
590 1 15.907808168451059 7.128426570185242 15.518639745376074 0 0 3
387 1 20.816157342488818 9.474268995464122 13.714490143017768 0 5 0
1259 1 22.25114929456793 7.622304114631558 15.009419339257638 0 3 -4
1974 1 4.703777815732043 12.328160325873418 13.727127302242586 1 -1 -2
133 1 6.0868093788915205 10.666963814546945 15.426623821995845 1 0 -1
953 1 11.423261474300071 11.957782406562039 13.877490973460137 0 2 -1
1264 1 12.587259398062846 10.649503305447837 15.695166489879297 0 4 -3
1024 1 17.254639180574678 12.21380407519476 13.609976090732083 0 1 0
1186 1 18.94767621843461 10.886906510556848 15.324172702670436 0 2 1
703 1 23.500549573139228 12.246296621273997 13.484622545987058 0 0 1
1720 1 1.7490893523079316 15.55914803261141 13.432766767450772 0 -1 1
437 1 3.3104447658093963 14.103560218147102 15.125810906556282 0 0 0
182 1 8.057684717833903 15.421043057580903 13.79184170768227 0 -1 0
144 1 9.612894069772707 13.739602408338719 15.405608553684768 0 0 1
229 1 14.282830519022172 15.547775931852652 13.871607745589126 1 0 0
518 1 15.890942982510754 14.035307080740017 15.365050957939841 0 -2 -1
377 1 20.375668424295228 15.480532796515496 13.567512075175642 0 1 -1
1446 1 22.069713372962127 14.094612681960225 15.067501838656261 -1 1 -3
439 1 4.624304987760945 18.764467841031657 13.671543821849845 0 0 0
346 1 6.428719104157949 17.325487909309345 15.13741078359645 1 -1 0
70 1 11.041800069662907 18.852503138072265 13.613591687484986 0 1 -2
311 1 12.341865414771398 17.099040274871182 15.435635628960348 0 -2 -1
140 1 16.932662945816197 18.83369505803127 13.478735512050095 1 -1 -1
839 1 18.8538771475342 17.246317778386473 14.96217595116666 0 -1 -1
1131 1 23.666119945117607 18.374456170686123 13.243190935001332 0 -6 6
496 1 1.5185690369303448 22.030958695886714 13.656663651455512 0 0 0
433 1 3.1170415224136376 20.482558626563268 15.269413190507624 0 0 0
49 1 8.142152902005911 21.814097464494637 13.696448047110497 0 1 -1
644 1 9.65798826087663 20.119656102497327 15.460360023512186 0 2 1
288 1 13.858248803286212 22.220701717113343 13.773189127960663 0 -1 -1
319 1 15.256966949121674 20.33710554276106 15.060950639940772 1 0 -1
919 1 20.287539087662513 21.902327624585087 13.724573806495153 0 -2 2
795 1 22.13950395369044 20.36036754659682 14.901338085907057 0 -1 0
705 1 15.77407590587762 23.063267181190007 24.929709553829184 0 -1 -3
499 1 4.567512014368127 25.396584660288877 13.50207817497109 0 0 0
498 1 6.18265466854449 23.325243841976526 14.923493715966762 0 0 0
328 1 10.967728058893327 25.324274236847153 13.688435326414975 0 1 0
207 1 12.624384302140284 23.632428766727667 15.200169871916275 1 -1 0
571 1 17.285384011046133 25.29167229478876 13.7357766504009 0 -1 -2
871 1 18.683824492834706 23.36162073707301 15.265281118972105 1 2 -2
266 1 4.836808594364687 2.8069069713104247 17.141628643996604 1 -1 -1
282 1 6.421692455484754 0.9661409119968681 18.478214957457762 -1 1 0
196 1 10.773961495015596 2.242657683811342 16.8006566119936 0 1 -4
58 1 12.674178608080187 1.3405774517015485 18.42778480092227 0 4 -1
56 1 17.659531070259643 2.7209613064626024 16.55870496582851 1 2 -2
788 1 19.298868996042902 0.9677586418871165 18.301271843392875 0 2 0
1277 1 20.58393864731777 24.89216473210422 16.70230273271616 -1 0 -1
1884 1 23.181609679182078 2.6694323370970996 16.615264503406898 0 -1 -1
198 1 1.4385075795061508 5.9418454083813215 17.124404906784367 0 1 0
187 1 3.4063795659578275 4.41305576677679 18.69599237113285 0 1 0
392 1 7.6514141224561625 5.985960739359928 17.020050093370443 -1 1 0
344 1 9.600224194030718 4.383413038452228 18.17239197402774 0 1 1
1420 1 14.21002755659502 5.770637484751951 17.14910186153229 0 -3 0
231 1 16.229698618686562 4.353345050029335 18.50924956904135 1 2 1
301 1 20.643578999109305 5.939250415001018 16.62466274963976 0 -1 -4
1088 1 21.92069553377649 4.249806801938406 18.45659666028681 0 0 0
442 1 4.3699977049212375 9.397951678193511 17.145244693507795 0 0 0
9 1 6.467260790442771 7.76272404916367 18.687763577456437 0 2 -4
177 1 11.033557613502644 8.841990520065012 16.815892194780993 0 -1 0
1027 1 12.610246062343055 7.494129741762877 18.485067445663717 1 1 1
1021 1 17.4705128677737 9.085008650750304 16.75821873201928 0 0 1
648 1 18.91604016912188 7.409508019055605 18.43370827316215 0 1 2
654 1 23.952679092751847 8.97870191589495 16.877794937797194 0 3 1
1809 1 1.4476928415103214 12.412735083219937 16.826934407889265 1 0 1
441 1 3.0535329289835755 11.122358655948027 18.9278449810131 0 0 0
399 1 7.9104214770048005 12.276675434793159 16.80588083161189 1 1 -1
154 1 9.463963073225548 10.641573358583278 18.346887082897076 0 1 0
279 1 14.259406819494876 12.57606778863791 16.974943035968266 0 1 0
315 1 16.036143808635956 10.876202486160336 18.280080529064307 0 1 1
596 1 20.774134218070362 12.325225644606585 16.892282179764717 0 -3 -2
1800 1 21.968617090428044 10.31373933806799 18.195648771717185 0 0 0
446 1 5.155199191105833 15.707122533310118 16.704714277771085 0 0 0
453 1 6.344669075641771 13.871825943604957 18.27995908680909 -1 0 0
380 1 10.915890625104442 15.533006709579595 17.2768955768961 0 0 -1
206 1 12.455879010192602 13.894523511885959 18.85036149312201 0 2 -2
276 1 17.555957887562087 15.334712655390561 17.15168033168114 0 2 0
1206 1 19.119064940075404 13.493596785468817 18.65313636401805 0 -2 1
1537 1 23.900493607974585 15.540371661018098 16.84853639954905 0 -5 0
447 1 1.497693305099402 18.77744473949967 16.71318701331599 0 0 0
456 1 3.362183937775875 17.40544107626208 18.106820241872594 0 0 0
334 1 8.02053842145155 18.73106548533067 17.01879452953853 0 -1 0
96 1 9.15419493078407 16.87852755857873 18.909800308107613 0 1 -2
286 1 14.098369041875355 18.748381243776826 17.095960965647777 0 0 -2
327 1 15.921508042685842 16.934896283911403 18.797716086835464 0 -2 -2
849 1 20.787487397014228 18.591296200703567 16.46294487397088 0 0 0
1460 1 22.109968140178548 16.830746862415314 18.439775280292665 0 -1 1
841 1 14.200408219141929 24.801167457813936 23.26361925796555 0 2 0
336 1 4.722201967657597 21.87397655618992 16.919078765749138 0 0 0
8 1 6.3196178095905 20.41184675210406 18.560662566326474 -1 0 0
525 1 11.282641667383258 21.863364130100237 16.916763348039346 0 -2 -1
1193 1 12.66007374044659 20.481096211286648 18.549286178201275 0 0 1
28 1 16.996127153511754 21.855873404392252 16.732528636446165 0 -2 -1
1122 1 19.04824100585475 20.074859133882615 18.017395278127655 0 -1 1
1472 1 23.858536511389914 21.539578542424355 16.632479799282617 0 3 -2
2051 1 1.2136661010447254 24.996103286291813 16.99662437334359 0 0 1
303 1 3.102822467032793 23.32991698876881 18.42448899032892 0 0 0
497 1 7.808843498057549 24.79102749868177 16.546585084067747 -1 0 0
250 1 9.933098996238567 23.861153705488388 18.404945142436965 1 0 1
43 1 14.366980433692085 25.347836213193144 16.797974469907256 0 3 -1
1295 1 15.897327953294822 23.81753052955275 18.286529646223816 0 -1 1
310 1 21.999924497418167 23.008485970709764 18.184992166610193 0 -2 -1
44 1 1.6659788144470131 2.627146286851241 20.339336610273655 0 1 0
36 1 3.4034251929587658 1.0441567147514326 21.711788613738463 0 1 0
267 1 7.963801148532982 2.6913951780593153 20.006230364084303 0 2 0
42 1 9.47109146950783 1.4599794997199265 21.841301442404788 0 2 -1
106 1 14.587877283219262 2.693732751013639 19.907076208113327 1 -1 0
1415 1 15.777494632738314 1.0523000517962793 21.64387280035286 0 2 -1
150 1 22.00980441118925 1.0781440378926506 21.633402502158194 0 1 -2
305 1 8.056243442755157 25.304459366134306 23.414619008361637 0 -1 -1
370 1 4.724273564849714 6.231083629909754 20.153345024450076 0 1 0
363 1 6.1810482288396305 4.255407520203705 21.54923947587494 0 2 1
105 1 11.242337635070069 5.704249921659935 20.15050161178764 1 2 -1
112 1 13.156878302839631 4.197906079072714 21.623324589787043 0 3 -1
740 1 17.474696001779026 5.821443087976871 20.355530620640717 0 3 -3
1422 1 20.716849634863276 2.6365473538671034 20.025076651217688 -1 -2 0
1351 1 19.266278575705044 4.258083709764591 21.7808566295647 0 -2 1
1005 1 23.642251229344716 5.951899595730181 19.827493782692763 0 1 0
450 1 1.5047101309144941 9.12855418932981 19.951511143385122 0 0 0
459 1 3.2820642639906485 7.586518385598183 21.73662304756598 0 0 0
2 1 8.16989160146199 9.258240881158244 20.165505915237713 1 1 -2
368 1 9.924192581081911 7.462248745184278 21.614822749611065 1 1 0
753 1 14.563685761393216 9.125106433079903 19.926626781936235 0 2 -1
200 1 15.643999307724682 7.318582282904392 21.5994901703794 0 1 -1
1689 1 20.422549885534476 8.94826417873738 19.974738233803052 0 -1 -1
1244 1 22.163194160366285 7.6304629213610005 21.383682326249687 0 1 0
170 1 3.235514209550941 23.361382005705227 24.77468540334664 0 0 -1
454 1 5.030263912341861 12.49896545508409 20.030023309420166 0 0 0
451 1 6.552082489133893 10.976832209779642 21.696557816857933 -1 0 0
619 1 11.130809164680578 12.046684199165224 20.04794407365594 0 1 0
183 1 13.016106106942303 10.602561584162208 21.52127189247972 1 0 0
1411 1 17.341150527694825 12.46064798171779 20.120875133987997 0 -2 -1
509 1 19.048590451656317 10.757056351844426 21.725036538582295 0 2 2
1560 1 23.479122615275365 12.227870176313997 19.85492035782841 -1 -2 -2
455 1 1.8595283126889175 15.477106513759194 19.50833311356001 0 0 0
457 1 3.1010978685644686 13.903213033688598 21.58760990974442 0 0 0
390 1 7.74019077925726 15.250378589220672 20.34480017197788 0 0 -2
761 1 9.625684005855357 14.185894928332162 21.856558957829208 1 -1 -1
1214 1 14.167986502979696 15.060369253210572 20.369418095643955 0 2 1
634 1 15.754350074975473 13.790316055638007 21.88261827836144 0 1 -3
85 1 20.518306602963165 15.23305030325597 20.287964984318716 1 -2 -1
582 1 22.2910413846732 13.77033468768808 21.797109649976253 0 -1 0
458 1 4.91682806660585 18.78146853089979 20.192884882906064 0 0 0
89 1 6.255163443921758 17.00432671604059 21.568059731182554 1 0 -1
1463 1 10.927525393909296 18.64738596237107 20.126792201133746 0 0 0
520 1 12.818960463959481 17.089649582802576 21.767826842227848 0 -1 2
306 1 17.571280216322943 18.58750143517698 20.214687452501146 1 3 -1
1823 1 19.096016511685857 16.90363172109956 21.863803619907202 0 0 -3
812 1 23.552643081359268 18.338327404394242 20.228690884339116 1 -5 1
155 1 1.1314607667214642 21.81833274292192 20.021347536617903 0 0 0
452 1 3.0276671175935475 20.32505914976118 21.293720766967517 0 0 0
985 1 8.082692841835229 22.467854358072934 19.939455478590048 0 0 -1
1366 1 9.395947400791664 20.422764320787497 21.64556110635134 -1 2 -1
758 1 14.613482844317948 21.795916599928404 19.817189713506885 1 3 -2
270 1 15.882217011102846 20.400116073380108 21.67687818966408 0 3 -4
641 1 20.249833461665297 21.6650655973014 19.964865932019304 0 0 0
1949 1 21.747021518884765 19.949992336936607 21.569239171307064 0 0 -3
52 1 4.934895483235403 24.911338992944913 19.843333004002083 0 0 0
329 1 6.41375274478246 23.687691287818815 22.08972873213614 0 0 -1
600 1 11.541266433646268 25.219744607435135 20.441432752189552 0 1 0
883 1 12.919270589962467 22.941833938535247 21.544052929852803 0 0 1
110 1 17.818270378797546 25.018058061103407 20.104928128268256 0 2 -3
543 1 19.224155449239657 23.494824221709475 21.695869646167683 0 3 -1
1229 1 23.557147506540215 25.016570888802455 19.74024433959907 0 -2 0
163 1 4.793788875526563 2.808134330860927 23.02557466731614 0 1 0
494 1 6.227987359875305 1.1531070616056474 24.66259678099356 -1 1 -1
312 1 10.993473306926958 3.0067987409304915 23.26544314340937 0 3 0