LAMMPS data file via write_data, version 29 Oct 2020, timestep = 1082

1539 atoms
1 atom types

0.27816628213689754 49.82251444552608 xlo xhi
0.17658484934318963 31.628208637223942 ylo yhi
0.17658484934318963 31.628208637223942 zlo zhi

Masses

1 18.015

Atoms # atomic

229 1 5.034629217146383 1.3235258506055882 2.716416480480538 0 1 0
622 1 6.587200332606854 3.378718827405177 1.2953702944920875 0 0 0
230 1 11.271501785462458 1.4200744186135887 2.7713287584360717 0 1 0
387 1 12.956218191360678 3.1964507237601802 1.1149055368027785 0 0 0
231 1 17.59497540864854 1.7771482683454567 2.823422414494226 0 1 0
191 1 19.381742832552796 3.3378631243445476 1.388098757103098 0 0 0
233 1 24.042272185243245 1.3601603464372594 2.658626835695802 0 1 0
3 1 2.01784722787537 4.490898410687834 2.7004269330653754 0 0 0
196 1 3.067436081211846 6.301901996565596 1.1418331615547788 0 0 0
7 1 8.503470479493192 4.492652181572324 3.131592282204397 0 0 0
429 1 9.778476194314575 6.049490211444789 1.6287157756463586 0 0 0
8 1 14.534004917960042 4.616695576770163 2.884990784697874 0 0 0
44 1 16.525954142620062 6.155816322742789 1.4565661639981384 0 0 0
11 1 21.0462614211803 4.855263207061388 2.876709153631979 0 0 0
13 1 5.054885171173512 7.254692188066747 3.005823082773525 0 0 0
42 1 6.39060617583298 8.854578322940023 1.0163879424882554 0 0 0
15 1 11.32852230328187 7.928288458516792 3.237539513380124 0 0 0
185 1 13.006917459143052 9.179797796233851 1.4296218949733066 0 0 0
16 1 18.189914527256025 7.707291410285923 2.8452906193928316 0 0 0
578 1 22.72411697565197 6.381698297457953 1.0312244155965327 0 0 0
18 1 24.315131236545138 7.839377386401885 2.7933397763392946 0 0 0
19 1 1.517278021812848 10.351167677740666 2.4063339575688385 0 0 0
576 1 3.1320225044602013 12.406758198315277 1.0249209175936773 0 0 0
20 1 7.93396675947424 10.755244241478056 2.8641745394048908 0 0 0
397 1 9.465586902973838 12.190095338280333 0.9621046476477555 0 0 0
22 1 14.339727620544783 11.114633696569788 2.8040974963228478 0 0 0
189 1 16.192428210005694 12.614181739132013 1.2719740905615387 0 0 0
188 1 19.72917237151396 9.604496593527426 1.6193541557894 0 0 0
23 1 21.443919300862838 11.146138528865604 3.1539820952911355 0 0 0
378 1 20.70468119978841 29.923399219635087 15.4224686518285 0 0 0
27 1 4.656956430256636 14.027043772865524 2.839859791849117 0 0 0
584 1 6.196245039832524 15.47256989714095 1.081371892148427 0 0 0
29 1 11.226752424371545 14.064536408047056 2.5045313194507712 0 0 0
186 1 13.165918836761817 15.727084475044563 1.2300236294833082 0 0 0
32 1 17.770499073236678 14.375952577858492 2.538004937179758 0 0 0
14 1 22.832147868497007 12.238563809468928 0.9588036436734185 0 0 0
34 1 0.8648374349855736 17.27268080009912 2.7000029881957572 0 0 0
195 1 2.7954014160216647 18.619265200814947 1.0689240175241217 0 0 0
36 1 7.876426292564733 17.125150673860322 2.8526914988556245 0 0 0
766 1 9.503710114978206 18.754465764191647 1.408977168140329 0 0 0
39 1 14.490743810680991 17.328797534111438 3.0378897902038315 0 0 0
364 1 16.366875966362066 18.625348116290343 1.2516799111709669 0 0 0
582 1 19.424290233609305 15.914427553659158 0.670438535803993 0 0 0
759 1 22.90945055412122 18.771952894757177 0.7414437205502513 0 0 0
197 1 4.805451095350147 20.14202277491281 2.572042990507797 0 0 0
771 1 6.466663970010886 21.991103539777594 1.4578505921192173 0 0 0
199 1 11.28545064980191 20.289465725934715 2.773580026935259 0 0 0
772 1 12.842013341048755 22.24154359067873 1.3155870316351863 0 0 0
200 1 17.783080631356956 20.433583597555913 2.678716202675736 0 0 0
1 1 19.40390805892866 21.938465236163307 1.2625920219133593 0 0 0
202 1 24.43844960701364 20.466346644256603 2.487787085517203 0 0 0
203 1 1.7094310567841788 23.340515516552887 2.575552674117707 0 0 0
776 1 3.350695750829702 24.736595122116174 0.806253934750321 0 0 0
205 1 8.162418370479005 23.723094365150686 2.665592901411354 0 0 0
769 1 9.639850790631213 25.06213196315946 0.9905905105983592 0 0 0
207 1 14.614234762001008 23.87616810625295 2.705801380512536 0 0 0
777 1 16.32456621012727 25.374641970781393 1.1417751412903865 0 0 0
209 1 20.964339683282958 23.532571867264128 2.9101174141589032 0 0 0
767 1 22.40326511339719 25.050442352235766 1.2396668228502195 0 0 0
212 1 4.705420044247471 26.583969008939704 2.390029551223455 0 0 0
621 1 6.691699281063535 27.90985586700666 0.7074781998904838 0 0 0
213 1 11.15697633795504 26.705339695758347 2.644805385941168 0 0 0
392 1 12.920061807476806 28.17145688186066 1.2400744231996452 0 0 0
216 1 17.69738916447142 27.053965910485573 2.90212210047048 0 0 0
770 1 19.654728506518573 28.38295553532023 1.319321451012983 0 0 0
218 1 24.340907118034377 26.268223864097877 2.5538270663193248 0 0 0
220 1 1.410407447480263 29.593878046264074 2.3373466909104845 0 0 0
2 1 3.3112265766056517 31.433800379832025 0.9686526696547535 0 0 0
222 1 8.081993099944736 29.829089589084514 2.361341500717103 0 0 0
661 1 9.602449561278391 31.602738641203015 1.1589418659041688 0 0 0
225 1 14.389996353132695 29.600805177907183 2.8845078899630696 0 0 0
390 1 16.064734669923844 31.32784588887687 1.5028168318326447 0 0 0
227 1 20.951299768376952 30.042767132690845 2.955837573057061 0 0 0
383 1 22.68287789793583 31.27847160076732 0.9800672093383864 0 0 0
264 1 1.686270334732622 1.4886128622953592 5.7610616502460905 0 1 0
352 1 3.564623110406628 2.8584921145762094 4.25989465630007 0 0 0
266 1 7.806976067251929 1.4453357186624465 5.547627467311896 0 1 0
10 1 10.060616360853746 2.8483729242660276 4.55465723546526 0 0 0
268 1 14.580931321435814 1.3368956815124846 5.780135150472199 0 1 0
270 1 16.35192443486266 3.239090891729705 4.668645046627841 0 0 0
269 1 20.74094464854823 1.7120304348065072 5.842790619163754 0 1 0
129 1 22.554621629525368 3.0260354271355485 4.181719880470379 0 0 0
43 1 4.905326801483171 4.566333639933724 5.834411372929416 0 0 0
55 1 7.058400711154569 6.090825099117654 4.65024144021309 0 0 0
45 1 11.496191543735582 4.438648204682435 6.171785253198494 0 0 0
57 1 12.917763704155455 6.051243557088754 4.424850522521395 0 0 0
47 1 17.73035766746616 4.864326524772675 6.263513927492772 0 0 0
17 1 19.51993628563737 6.379598770315181 4.475045680291566 0 0 0
50 1 23.68440056995316 4.578110757082487 6.26488184025503 0 0 0
52 1 2.1555031443831023 7.573175840905374 5.891872094345292 0 0 0
54 1 3.349399990701877 9.108431920076654 4.007313833502527 0 0 0
56 1 8.39786134203056 7.922296322621533 6.376293283459414 0 0 0
21 1 9.611103934152343 9.484039196366695 4.73253375192055 0 0 0
58 1 14.522721022460866 8.073265281551699 5.710623290427113 0 0 0
64 1 16.23113287895037 9.529638327402202 4.388942710623824 0 0 0
60 1 20.905138069463206 8.130617712202142 6.2549577033613435 0 0 0
61 1 4.578480760676601 11.152181525830825 5.638839459793212 0 0 0
28 1 6.447897496764875 12.238936218354214 4.554633860063512 0 0 0
63 1 10.954991640929864 11.117766783355155 6.079310312464682 0 0 0
30 1 12.62743882994519 12.628896589035886 4.423942696463117 0 0 0
65 1 17.400687242268525 11.307586478744623 5.971828282507751 0 0 0
73 1 19.17342607626204 12.363726224607495 3.8286582219890852 0 0 0
24 1 23.031904015588196 9.358025584949479 4.451104974409795 0 0 0
68 1 1.5065880517686567 14.123059659283921 5.576638698435255 0 0 0
75 1 3.098080919313421 15.781204625156262 4.0376344778624045 0 0 0
70 1 7.796143637727938 14.263862103342285 5.786821228188941 0 0 0
37 1 9.475792090640628 15.524702945072319 4.334168587448111 0 0 0
72 1 14.266015323685844 14.1531441081699 5.786456930550912 0 0 0
38 1 16.192901061853263 15.736602033861491 4.461581731581309 0 0 0
33 1 24.094581415823377 13.720135950063934 2.903097369546912 0 0 0
81 1 22.530225111668187 15.736706403989366 3.9757402648241444 0 0 0
76 1 4.352732523191588 17.23508917802483 6.06742236662927 0 0 0
385 1 6.221564996569959 18.51955345968835 4.433336733249028 0 0 0
77 1 11.17368372617972 17.261112524061243 5.8474579282668095 0 0 0
274 1 12.97734794413257 18.88809893886631 4.346309765033687 0 0 0
80 1 17.895297078382463 17.655785648063844 6.069713091118187 0 0 0
41 1 21.21130255785419 17.43710395159314 2.60488441269584 0 0 0
386 1 19.67003015011653 18.899913063113615 4.254917023902381 0 0 0
235 1 1.1617141502830393 20.19737052388176 6.023482310084728 0 0 0
240 1 2.893207341243278 21.557575234335282 4.57457729923924 0 0 0
236 1 7.776056567266091 20.193867855886747 5.555644115239909 0 0 0
206 1 9.527232042615475 22.072728260913717 4.226037384438737 0 0 0
237 1 14.126116814309675 20.834575195451926 5.578093980116569 0 0 0
208 1 16.04909751562363 21.931713463305076 4.188461026026802 0 0 0
238 1 20.879211834496797 20.55662067362896 5.9735537304914095 0 0 0
210 1 22.69200786896525 21.8304582056999 4.15557915127158 0 0 0
241 1 4.500463775638199 23.36307806089591 6.012338449067607 0 0 0
204 1 6.154758197947869 25.1422041814826 4.120839789853804 0 0 0
243 1 11.126137815951333 23.688805710120466 6.003968764299058 0 0 0
214 1 12.893870486836981 25.419716991861772 4.265302997905576 0 0 0
245 1 17.684956292125133 23.726372198952316 5.912951000700433 0 0 0
254 1 19.30088665628518 25.22927504695128 4.412796022112953 0 0 0
246 1 24.425144733327215 23.469759764291425 5.442123244576559 0 0 0
247 1 1.339397691798259 26.635432418607095 5.317453203489606 0 0 0
248 1 3.0407101749704446 28.35815268377898 3.922704400536233 0 0 0
249 1 7.8277710551692445 26.670777310063812 5.796440488017168 0 0 0
223 1 9.64112942173551 28.348477801150846 4.154344181541589 0 0 0
252 1 14.24309845044692 26.646235471636306 5.959333334760621 0 0 0
255 1 20.957651073142905 26.785177407099255 6.198529549857837 0 0 0
261 1 22.93481677678372 27.802797343040723 4.205304285482322 0 0 0
256 1 4.864586957944113 29.673780610596204 5.718390688236973 0 0 0
265 1 6.539319092620331 31.08721027042465 4.182632820367503 0 0 0
258 1 10.884377125766266 29.93016372427342 5.852335271561855 0 0 0
224 1 12.70245652608865 31.364291008920407 4.445454234204247 0 0 0
259 1 15.90018404941872 28.396978256238157 4.589275632771151 0 0 0
260 1 17.488908072207874 29.851413257962587 6.3473223295052925 0 0 0
232 1 19.051994624515988 31.385433237845536 4.672966893871123 0 0 0
262 1 24.212358133447694 29.882781569185873 6.041114996984987 0 0 0
300 1 4.695953220502163 1.0509661615335053 8.710027859593442 0 1 0
382 1 6.363040739579132 2.9688272987198343 7.448224836519276 0 0 0
302 1 11.026420504896507 1.3270866243367252 9.102601200037293 0 1 0
190 1 13.06646992747526 2.7586425487622717 7.551279512139238 0 0 0
305 1 17.627254617722997 1.28211686290479 9.186507671857541 0 1 0
9 1 18.961919085200552 3.1598770181348854 7.815160466005008 0 0 0
308 1 23.994412835599633 1.6359210910912385 8.8259176425198 0 1 0
83 1 1.9266845327841562 4.510706286976554 9.249027491448738 0 0 0
84 1 3.446141107086365 6.094417482072136 7.489534811209306 0 0 0
85 1 7.995843252285193 4.587262225192416 8.862303983281159 0 0 0
97 1 9.969822315970559 5.977358124099319 7.614461099019318 0 0 0
89 1 14.639647070993682 4.717225048450141 8.86647097518349 0 0 0
59 1 16.337062025396165 6.606215853072965 7.336448124753984 0 0 0
92 1 20.695913428830842 4.599546321968128 9.397909078192502 0 0 0
51 1 22.28970350647678 6.205526516832654 7.736934019400281 0 0 0
340 1 22.530328006316477 31.37248911282836 14.069096178560889 0 0 0
96 1 4.754434358563588 7.898831666764539 9.355892269116968 0 0 0
102 1 6.102072029089107 9.343587375284574 7.363568910883618 0 0 0
98 1 11.218488277065234 7.544759370466428 9.285422940284432 0 0 0
62 1 12.636500297200454 9.466211384801438 7.617494387921146 0 0 0
99 1 17.54686422407906 8.285511750488626 9.070912237264928 0 0 0
107 1 19.14019115011581 9.875978391046383 7.536706406273711 0 0 0
100 1 23.719168444423623 8.345121279804674 9.030021103573826 0 0 0
101 1 1.44970286201947 11.380188251856703 8.999904440081707 0 0 0
67 1 3.230228222067957 13.018039178974975 7.312895170695443 0 0 0
103 1 7.686159865614765 11.110119916928394 9.107008943697219 0 0 0
112 1 9.221021671725147 12.600263073387456 7.357444559934159 0 0 0
105 1 13.982434424236441 11.197678737862404 9.17237910286229 0 0 0
71 1 15.562603620311664 12.757263978488893 7.5396561236886095 0 0 0
108 1 21.03855713438838 11.156064663643704 8.889427764282825 0 0 0
66 1 24.29201468291152 11.481676393864088 5.633372510136448 0 0 0
116 1 22.324833024906507 12.873455850838512 7.057416856547334 0 0 0
111 1 4.39488099074923 14.480819314020561 9.146097393701746 0 0 0
69 1 6.013259988357996 15.5960966107251 7.367998881937124 0 0 0
113 1 10.753017637507163 14.391502686261985 8.838471587568614 0 0 0
121 1 12.773868653371526 15.814295937489897 7.534587984156558 0 0 0
114 1 17.331584188751773 14.531401989754231 8.673002039012745 0 0 0
74 1 20.66052345525272 14.439829737542556 5.499208689860859 0 0 0
79 1 19.215569461862223 15.804974324980542 7.524753439635435 0 0 0
119 1 1.0552448816805662 17.0873204552108 8.70779617694863 0 0 0
313 1 2.847509914935775 18.759707834734108 7.659677873543331 0 0 0
120 1 7.782211166483966 17.612838544149042 9.15908369013884 0 0 0
363 1 9.424079334502053 18.879760257146717 7.316252276523257 0 0 0
123 1 14.304410090469455 17.76987756578471 8.88209564995283 0 0 0
198 1 15.872345972295308 19.429191315253785 7.137454166784712 0 0 0
124 1 20.969307183125558 17.09987382483122 9.149931529276563 0 0 0
82 1 23.9898686794691 17.485821709203304 5.592673701555274 0 0 0
239 1 22.276104054402797 18.599366347035595 7.136198191923851 0 0 0
271 1 4.432116380792866 20.364482362828795 8.89617026867443 0 0 0
242 1 6.307597136253268 21.520267557181807 7.6050699744225065 0 0 0
273 1 10.912668801779885 20.64066259648064 8.697173137343924 0 0 0
244 1 12.874867517803601 22.195644616340896 7.397393185697152 0 0 0
275 1 17.5001879781189 20.652723368850886 8.715368025321476 0 0 0
283 1 19.333022712943812 22.336723989199555 7.705617613964279 0 0 0
276 1 24.3334537143632 20.139358936276356 8.867700384764285 0 0 0
277 1 1.2153188349515212 23.44756374963449 8.75892817743506 0 0 0
278 1 2.646412083943349 24.86487326990923 6.950708382609102 0 0 0
280 1 7.5995042740961045 23.801200673426205 8.92308617581644 0 0 0
250 1 9.70338000151212 25.229318175799026 7.377898336813653 0 0 0
282 1 14.383689382757415 23.819329428706908 9.141004321453078 0 0 0
253 1 15.904993148208273 25.137683531429765 7.430925372787075 0 0 0
284 1 21.159817415224584 23.78115574903192 9.175708370264752 0 0 0
285 1 22.75934578731981 25.118863806260556 7.447565800904995 0 0 0
286 1 4.365900890989008 26.296254622703028 8.982162911465986 0 0 0
294 1 5.9322654314808325 28.107339923616987 7.518916201368881 0 0 0
289 1 11.160131971144484 26.640138888316354 8.998896008160125 0 0 0
251 1 12.604976856836041 28.487152053369243 7.322030656571826 0 0 0
290 1 17.49085829525714 26.48403150402016 9.07678380634576 0 0 0
292 1 24.22964918322391 26.67511365534301 9.041132173261465 0 0 0
257 1 2.898071052855729 31.057855596305988 7.182302283071739 0 0 0
293 1 1.3609776214095302 29.40376217596204 8.93371617605974 0 0 0
295 1 7.958430450916551 29.276705885456572 8.992507448355807 0 0 0
301 1 9.140372294642734 31.4368761586947 7.484997207778886 0 0 0
297 1 14.48218598424146 29.540605520876372 9.253988609866624 0 0 0
303 1 15.90931677495161 31.419896498149175 7.8715153304575285 0 0 0
298 1 19.182512571182112 28.15101409274963 7.7226011005447 0 0 0
299 1 21.057126750347706 29.747132245622925 9.024171028092567 0 0 0
307 1 22.368987786729587 0.32560552862385317 7.432459227367209 0 1 0
391 1 3.4492263301414834 2.8065216101838457 10.776951005367987 0 0 0
343 1 1.5489881285466494 1.3864904475880306 12.34264460773881 0 1 0
345 1 7.73497037465588 1.5124095422112092 12.124951761058123 0 1 0
367 1 9.433865467583791 3.2006114253779536 10.55571193180603 0 0 0
347 1 14.273220333047446 1.0077219626885623 12.411296770008907 0 1 0
388 1 15.880705762601847 2.6493373332332384 10.909473763805616 0 0 0
348 1 21.063263315647827 1.351815267394474 12.338574476558891 0 1 0
221 1 22.49005124345335 3.103951216220283 10.773430553258857 0 0 0
126 1 4.605664198373301 4.678361466567212 12.292578075027567 0 0 0
86 1 6.578936365606487 6.005237639191526 10.643511878298485 0 0 0
127 1 11.570838155684864 4.58355955330687 12.273180530170013 0 0 0
90 1 13.226073153982504 6.163349159862374 10.610967101918819 0 0 0
128 1 17.633280033782004 4.0892298699605885 12.649912903127941 0 0 0
135 1 18.622672501776517 6.078899076150719 10.940260033340591 0 0 0
130 1 24.103268869963877 4.899514185647505 12.118985122322634 0 0 0
132 1 1.2971710723358945 8.235308256731287 12.616908516101391 0 0 0
95 1 2.8243927121360737 9.658818409706637 10.593667196739153 0 0 0
133 1 8.08656296888262 7.611148735288767 12.225273078201273 0 0 0
104 1 9.171791679022414 9.238805800448489 10.417107654426838 0 0 0
134 1 14.864596177886346 7.659577736897873 12.390072945858272 0 0 0
106 1 15.589750332967224 9.542019345918824 10.540548854442209 0 0 0
136 1 20.565909215484822 7.564669235082063 12.14426676687443 0 0 0
109 1 22.019964669805354 9.445281819322524 10.83793440896524 0 0 0
138 1 4.740852941136535 11.113115048185675 12.036114875320521 0 0 0
148 1 6.1174278915170905 12.706614933908487 10.38943901682989 0 0 0
140 1 10.992811591264584 10.914701634287733 11.927608539540717 0 0 0
141 1 12.290842063260184 12.725942728019387 10.513194139762915 0 0 0
142 1 17.565767051269297 10.809734362827024 11.834405811210791 0 0 0
115 1 19.094760340415068 12.657162640624437 10.412568145650829 0 0 0
145 1 23.759378447729738 11.071649764607495 12.261167537321032 0 0 0
146 1 1.1740110757024116 14.305671857134206 12.316799279138293 0 0 0
147 1 2.440075562915682 15.880309125231129 10.688875322626348 0 0 0
149 1 7.851669671124785 14.11047187846052 12.276525097325395 0 0 0
156 1 9.370038963628406 16.005210143298054 10.733987443077323 0 0 0
150 1 14.320562195732402 14.038042192342823 11.909792651372499 0 0 0
158 1 15.476667885212555 15.842807110268526 10.270822282648346 0 0 0
151 1 20.525197951604092 14.079455102526687 12.053175376498512 0 0 0
117 1 23.987804842697088 14.104996825256546 8.72176565518481 0 0 0
152 1 22.54557969907775 15.163453011267721 10.58585179246049 0 0 0
154 1 4.416459988706667 16.837531103277474 12.265652773871881 0 0 0
342 1 5.7621937411639506 18.620698263041042 10.44033177781847 0 0 0
157 1 11.163418355834388 17.11268403990028 12.335562242098474 0 0 0
12 1 12.170911008395345 19.187218251889032 10.55977275597486 0 0 0
159 1 17.66656514552784 17.45903672046491 11.869110390465636 0 0 0
31 1 19.127747159349425 19.13272867950705 10.491467988243068 0 0 0
160 1 23.965069682913313 16.89017387327628 11.886487085535325 0 0 0
309 1 1.6952670788691488 20.291018672177994 11.875331896687179 0 0 0
279 1 3.0287918415529487 22.006225557076945 10.429056461160519 0 0 0
310 1 7.738391248538668 20.506053394992612 11.8637597802271 0 0 0
316 1 9.23860281292403 22.00120535522721 10.306558857327131 0 0 0
311 1 14.013944285121415 20.525370987870314 12.024170220286265 0 0 0
314 1 20.711848523670906 20.47174196500654 12.151589963057257 0 0 0
322 1 22.42883276982586 21.920398819587295 10.794372523001526 0 0 0
315 1 4.475159447270217 23.509209823528938 12.185444737321971 0 0 0
281 1 6.096112774349702 25.096038903795066 10.783095335097702 0 0 0
317 1 11.05659420089836 23.19668166962583 12.307587518350026 0 0 0
319 1 12.59359493933721 25.04515926644624 10.788303901893217 0 0 0
320 1 16.00098991725762 21.927239807181753 10.571174212535606 0 0 0
321 1 17.29758911788854 23.426361980093848 12.530794568841355 0 0 0
323 1 23.83631383498316 23.43696288397439 12.449105462985065 0 0 0
324 1 1.2765468185692797 26.60518043903908 12.068244740131748 0 0 0
287 1 3.0018310257287855 28.15620141717869 10.622115359284463 0 0 0
326 1 7.834855299301375 26.411229108163692 12.471800915147039 0 0 0
327 1 14.222478225705304 26.447937696889813 12.479312835920009 0 0 0
329 1 15.835297667941004 28.00479981991733 10.824062444590593 0 0 0
328 1 18.735160799289414 24.737690789787113 10.513148579431503 0 0 0
331 1 20.28716765601586 26.405722110431306 12.201614089278555 0 0 0
334 1 5.0693748183624585 29.333665519155378 12.17749582376842 0 0 0
296 1 6.550501696486487 31.024960403215655 10.346126202917592 0 0 0
288 1 9.609331773641928 27.97159423258757 10.783044893180877 0 0 0
336 1 11.051037703510794 29.620679269773152 12.276160996309898 0 0 0
304 1 12.524743371089643 31.02161796197666 10.534368067444062 0 0 0
339 1 17.626081794026558 29.879471787384226 12.199393980146993 0 0 0
306 1 19.59220617688318 31.275313295855597 10.951439064798514 0 0 0
291 1 22.469464998612423 27.889990337642736 10.850791532654062 0 0 0
341 1 24.04051662324479 29.479636309758078 12.3756314878019 0 0 0
5 1 6.330715587419601 3.1090272038969506 13.51183200721095 0 0 0
365 1 4.81342589751324 1.1925845216518378 15.136434079453315 0 1 0
346 1 11.105683337039634 1.318321733546789 15.21957377826674 0 1 0
337 1 9.499387978104712 31.56715200193664 13.54813851176218 0 0 0
93 1 12.653485667794913 2.7247521908680477 13.844739832226615 0 0 0
344 1 17.37691596378966 1.680317000611271 15.527412050265864 0 1 0
267 1 23.926019978723026 1.6442165101064303 15.713490768909054 0 1 0
161 1 1.3827343720212548 4.429222860587214 15.500721078943315 0 0 0
169 1 9.59356439787858 6.036878564299145 13.904252541571761 0 0 0
163 1 7.895715699978955 4.506191541878362 15.218090915742225 0 0 0
164 1 14.066244437229466 4.599619157553552 15.443157718360789 0 0 0
173 1 16.254207347880122 5.855668139334541 14.120229629727792 0 0 0
219 1 19.54265146028122 2.7251343561844315 13.956597215147598 0 0 0
166 1 20.52382940944503 4.711873808127985 15.39170012070623 0 0 0
137 1 22.054845690497377 6.124787281583199 13.646205152523239 0 0 0
162 1 2.9258185573727125 6.093746278465096 14.01588728690139 0 0 0
168 1 4.95253978262443 7.944646735283698 15.269348236581024 0 0 0
177 1 6.518525133552895 9.41606791081329 13.430863182980787 0 0 0
171 1 11.15338764318513 7.867807898030218 15.261672412654422 0 0 0
172 1 12.681387622371208 9.32471439371508 13.501290922921815 0 0 0
174 1 17.372515786016073 7.891546916857067 15.468166670398455 0 0 0
143 1 18.88268881295932 9.63026618699979 13.948173091368634 0 0 0
175 1 23.94441380606651 8.164495395017859 14.974991298605518 0 0 0
176 1 1.4441137397297348 10.521559147274694 15.04807083640849 0 0 0
178 1 2.941728111463071 12.437694737703389 13.719664315562126 0 0 0
179 1 7.722368046518219 11.254665495379452 15.28786615432652 0 0 0
139 1 9.790800050728432 12.893168418386198 13.852051535136065 0 0 0
180 1 14.308527668362672 10.856457154177576 15.106014014269622 0 0 0
181 1 15.891393154420355 12.273801998798703 13.571541494961105 0 0 0
144 1 22.116766861935602 12.553636973344283 13.52948893285641 0 0 0
155 1 4.2890474452267755 14.073516690520334 15.325289632308799 0 0 0
125 1 6.051793031672354 15.547834817603363 13.95295013409262 0 0 0
91 1 11.192717128977845 14.541585461705397 15.307869255505162 0 0 0
49 1 12.945996261153669 15.795062657114464 13.662859041072307 0 0 0
183 1 17.305601289675753 14.037345166505336 15.141683553855655 0 0 0
48 1 18.872017976510442 15.548656461799352 13.305151732699827 0 0 0
167 1 23.49806118874524 14.012151694933731 15.35573914875004 0 0 0
165 1 1.2487922357827612 17.42836234965448 15.355251160399135 0 0 0
217 1 3.0134948317680745 18.776574358134226 13.841330442597359 0 0 0
35 1 7.72478646197216 17.47741422960143 15.10745774624878 0 0 0
184 1 9.482617821676941 19.07866317321204 13.720169941186004 0 0 0
87 1 14.787827785422326 17.092511723566002 15.346043189046453 0 0 0
215 1 15.897046099369328 18.840037471539624 13.357268710027155 0 0 0
78 1 20.53082073455232 17.477036943864437 15.171649457787996 0 0 0
25 1 22.278087317295487 18.794177435771758 13.60911973130507 0 0 0
349 1 4.8242642389884445 20.07791310950801 15.375649013148392 0 0 0
358 1 6.165571069028436 21.775395772423156 13.903405550888166 0 0 0
351 1 11.08137749485907 20.53380210348797 15.401104545818065 0 0 0
312 1 12.806600771413004 22.187958946325594 13.825384014287746 0 0 0
353 1 17.498842113325008 19.951540727014628 15.299101292702048 0 0 0
373 1 24.052559597410124 26.237836424987957 15.074376173904861 0 0 0
356 1 1.6692162809696969 23.57367010319626 15.365321903253648 0 0 0
325 1 3.028913794626781 25.212224956442583 13.524591600076045 0 0 0
359 1 7.419803778898569 23.712282495930555 15.696318317757878 0 0 0
318 1 9.52060195240686 24.582576886685835 13.939928690923486 0 0 0
360 1 14.396732972647875 23.096074996283697 15.375159925561118 0 0 0
370 1 15.778703098809551 25.053323682836258 14.024800971655662 0 0 0
362 1 20.94121664978705 22.859932298326537 15.254606625748231 0 0 0
361 1 18.953203341050813 21.784669741148576 14.141209542568587 0 0 0
372 1 22.059949721383386 24.892215737206342 13.73219952500696 0 0 0
366 1 4.385051761197637 26.70317525155158 15.251747840000068 0 0 0
335 1 6.358328066162194 28.315704492902018 14.130005344377404 0 0 0
369 1 10.982530941294577 26.165809869588358 15.629564849019085 0 0 0
338 1 12.39008116104061 27.88099799868901 14.012045841290798 0 0 0
371 1 17.50674118268949 26.184266018750815 15.58520631757034 0 0 0
330 1 18.813794345252774 27.96870516190432 13.907587237901657 0 0 0
374 1 1.4471271447084813 29.66124872971782 15.173624130009468 0 0 0
332 1 3.1507774800253245 31.22918941680025 13.615197920590079 0 0 0
376 1 8.393800528906198 29.8067235197639 15.165926762269526 0 0 0
377 1 14.241381930041925 29.457330868839655 15.28865580761289 0 0 0
355 1 16.049232414334448 31.34877859206248 13.996836570042799 0 0 0
182 1 20.486094455813458 11.062245241805684 15.363009424458864 0 0 0
53 1 0.9585524474034574 9.67787739767088 6.829848761820759 0 0 0
94 1 0.7236230581347483 6.01378871928071 10.944706609868682 0 0 0
354 1 23.66756698305089 20.124637732887077 15.277505235033319 0 0 0
4 1 0.41007150624855926 5.803323149222661 4.314287172251718 0 0 0
1141 1 0.42452971031373804 2.885518768947261 7.781586093698502 1 0 2
843 1 0.3379674305355884 2.522428379078025 1.6255223420305105 1 1 -2
918 1 0.5967742304122248 11.822313467188678 4.627963614864801 1 -1 -4
614 1 1.6183371080523121 1.4075645887704702 18.2152300044563 0 1 0
234 1 3.3075818310609004 3.043894499507398 16.930005783965843 0 0 0
616 1 7.99810849024059 1.4527027066104163 18.276444164286055 0 1 0
368 1 9.54134860823572 3.032307106416117 16.84854067906693 0 0 0
618 1 14.183617204955102 1.4545005895174536 18.190524131735593 0 1 0
6 1 15.828467769421879 3.316915509410906 16.93227878612933 0 0 0
620 1 20.52939402038055 1.612640180184189 18.191577404326914 0 1 0
612 1 22.402887513100154 3.489003249059479 16.928296808780203 0 0 0
394 1 4.939459730489578 4.689312019413856 18.711368851777262 0 0 0
153 1 6.328565935853432 6.062172106951819 16.84934955468203 0 0 0
396 1 11.093866726885977 4.866967027761084 18.468338734297895 0 0 0
193 1 12.763395770101273 6.435840541730856 17.024648605297248 0 0 0
398 1 17.255520776000516 4.7609353605683165 18.576309473072328 0 0 0
46 1 19.077162882510525 6.427282010846208 17.059572841393024 0 0 0
400 1 24.35477560858172 5.139887241006621 18.19675668571755 0 0 0
401 1 1.3050486847990863 7.467742102295845 18.189825322645746 0 0 0
568 1 3.134064505609393 9.219625603406914 16.884068196003764 0 0 0
404 1 7.887910043587053 7.913047104509013 18.070774850423565 0 0 0
192 1 9.501142626731161 9.716373596745493 16.695521921513393 0 0 0
405 1 14.172508665801322 8.09827751236494 18.629927757369618 0 0 0
26 1 16.010736912759718 9.484086344766219 16.940000979169707 0 0 0
408 1 20.89368331543467 7.933283640315232 18.517280454479625 0 0 0
579 1 22.56169788063144 9.956439223710904 16.896505899240317 0 0 0
583 1 5.926099509952751 12.73946453300729 16.928704790298237 0 0 0
409 1 4.46542576228836 10.745928770256196 18.631619143729733 0 0 0
412 1 11.020602469034488 11.339025673072054 18.19284918825315 0 0 0
187 1 12.672845929531507 12.74224775715511 16.456344551429996 0 0 0
414 1 18.041167740596197 11.226544051913761 18.582178210875902 0 0 0
466 1 19.17259291898107 12.754769507808339 16.851468593305885 0 0 0
547 1 21.022665551936342 13.882130361945045 30.67034329877558 0 0 0
417 1 23.76246921878882 11.20528663696229 18.857489073064137 0 0 0
40 1 2.795311758443433 15.663766405161011 16.90838603297009 0 0 0
418 1 1.0185785725562884 13.743852755735602 18.438218501959767 0 0 0
419 1 7.740904588204242 14.239218468973403 18.23763324221352 0 0 0
471 1 9.388569387164912 16.12849927588156 16.863594858496132 0 0 0
421 1 14.365440777288255 14.109011221667995 18.549087761720312 0 0 0
473 1 16.108423729706004 15.632821836835042 17.035593838222 0 0 0
423 1 20.547560462175515 14.517785329047555 18.609191903605193 0 0 0
575 1 22.03140223373057 15.72072127711646 16.667862655559972 0 0 0
426 1 4.558897699687979 16.980385991128855 18.744887052807087 0 0 0
122 1 6.10890400709763 18.39592409573161 17.137835080728653 0 0 0
428 1 11.246924365194245 17.234484797646996 18.58347487949423 0 0 0
572 1 12.927238175938465 18.693353868987845 16.878842164576422 0 0 0
431 1 17.573501061356545 17.404285365827757 18.45983193204534 0 0 0
194 1 19.284711136061997 18.655139028861708 17.13022242028662 0 0 0
433 1 23.56785517850076 16.98835703112774 18.374430697163554 0 0 0
585 1 1.2422227850037912 20.3602300029386 18.561377486952235 0 0 0
384 1 3.1449806395385074 21.863899662775506 16.852910350762016 0 0 0
587 1 7.787448973248976 20.18047205457723 18.587047766598833 0 0 0
775 1 9.248046076585506 21.72530106748548 16.77370789425803 0 0 0
588 1 14.370122339359273 20.09436905303368 18.484307362186627 0 0 0
742 1 15.91714033252082 21.54183416234699 16.837298742060085 0 0 0
590 1 20.766434644479727 20.131742872419807 18.78283343214226 0 0 0
389 1 22.344942311986888 21.725739597543512 17.145755861515035 0 0 0
593 1 4.495303321667924 23.33071178103712 18.590620702200578 0 0 0
272 1 5.77771470466523 25.378907364803215 17.34127506088693 0 0 0
594 1 11.214948769480149 23.14314031551892 18.388769987209937 0 0 0
774 1 12.730183485565496 24.68186489207437 16.983183671875754 0 0 0
598 1 17.29165612909597 23.22855171767948 18.75438096132011 0 0 0
375 1 19.022328287387268 24.208258497514333 17.005135529997535 0 0 0
599 1 23.98315473381682 23.40764036020507 18.494351627169323 0 0 0