LAMMPS data file via write_data, version 29 Oct 2020, timestep = 979

2060 atoms
1 atom types

0.43446679012041045 98.79807433471606 xlo xhi
0.11176401632677369 25.415221241504113 ylo yhi
0.11176401632677369 25.415221241504113 zlo zhi

Masses

1 18.015

Atoms # atomic

590 1 20.690526775350804 23.105301155095088 24.829730594846808 0 -1 2
405 1 4.846203152608673 2.601176873739512 0.4380819389743225 0 0 0
414 1 6.511560748712536 1.2675754404822714 1.964489919123162 -1 0 0
526 1 11.158370754235484 2.643127330282861 1.1751315474688688 0 -1 1
12 1 12.890555346168224 1.7935628136475552 2.9286479677435704 0 1 0
228 1 15.134698443812233 2.875502973989325 1.7008038072634173 1 1 0
209 1 18.975915290084732 2.039921991906051 1.8070675519961354 0 4 -1
85 1 19.69635871738199 3.336354997419265 4.727022122444297 1 0 -1
124 1 21.768982463499906 1.5635670341660035 3.496238656136859 0 -1 0
465 1 2.0415975268517568 5.545395596777138 0.7757802718160357 0 0 0
404 1 3.5492569209649525 3.908182127022328 2.2512042664798924 0 0 0
25 1 9.332455868088113 4.331428791621684 2.398993546499108 0 0 1
24 1 11.277390762518625 5.925430418317699 3.6706604503060447 0 2 0
738 1 16.116724984379562 7.336158274103509 4.670658114396555 0 -2 -1
701 1 17.83723858438823 3.960785652847272 24.837176183849987 0 4 0
213 1 20.181982488068954 5.33798906751203 1.0791416252161117 1 0 -1
56 1 20.752684248367586 19.923732380136357 23.777982453586358 1 1 -2
468 1 4.723641257027196 8.73052783331946 0.6690743907436588 0 0 0
113 1 6.632282029647485 7.1916961084297535 1.9720898579675412 0 -1 1
27 1 12.840987931941775 7.7639560739316185 2.4583808976219865 0 1 0
518 1 14.652757734334884 9.39452215563634 3.686470668973342 0 -3 0
20 1 16.88987018020455 11.495767222149338 4.13859262098857 0 1 0
302 1 19.088610309797982 9.903747826737128 2.9050158143407914 0 2 1
810 1 22.47444957827854 10.070228913783701 1.990097851597422 0 -2 1
470 1 1.7844369479265183 12.396953702318072 1.2029918494169776 0 0 0
478 1 3.4006422262279425 10.523214804831685 2.401884056737281 0 0 0
709 1 9.54605287575532 10.460589766382524 2.2726589358281877 0 0 -1
598 1 11.206367559739071 12.224291011334271 3.7122960683974937 0 -2 -1
852 1 14.836949544818877 12.962113686439078 25.13326283602634 0 0 -2
1478 1 23.06934777317811 10.897596288242434 5.508412052187164 0 2 -2
1678 1 0.8932556648801704 13.830585901609158 15.060731170528628 1 0 1
176 1 23.668947888824142 15.997456589338585 2.4611860206299085 0 1 1
473 1 4.757286891635821 15.409250862812996 0.72637077463014 0 0 0
114 1 6.796252549307963 13.706663006793221 2.377505432187667 0 -3 -2
147 1 10.96683173630749 14.170559296231128 1.730222652949665 0 1 -2
109 1 13.434390653059664 15.612309762048179 0.8660653782767308 1 -2 -1
33 1 16.29225378951573 13.804040184912504 2.328236990576555 0 0 0
236 1 20.077221787629743 14.38943808788603 25.376704717106453 1 -2 -1
280 1 23.7220927872143 8.308651822151774 16.98122831924314 0 2 -1
400 1 1.4233792329013166 18.129265445914445 0.3070065719527886 0 -1 0
406 1 3.0804490313408435 16.804773716715125 2.131306369043579 0 -1 0
50 1 7.907651753900805 18.32096989311796 0.8310753922971698 1 -2 1
220 1 9.646423047790316 16.583873280888223 2.3649599113459883 0 1 2
39 1 13.23163487695638 20.061512493802628 1.570434968320245 1 -3 -1
380 1 18.726947647775233 15.448153487646602 2.335773592683509 0 -1 0
599 1 23.305783321850242 17.01485057781744 23.253025448136146 0 4 -1
514 1 24.039516616329927 7.527170119609 24.50540659389192 0 1 -2
752 1 23.04111987845092 19.052806496176604 1.9542690604272641 0 -1 1
46 1 23.22862105026756 23.09380460186236 3.3014738835273936 1 -4 2
402 1 4.691843018540965 21.6419474557605 0.375536474151147 0 -1 0
162 1 6.450193629919529 20.10626508452911 2.2103790641748655 0 -1 0
159 1 11.53498377976774 21.791538346831285 0.241741758800885 1 1 1
347 1 14.739666119303111 22.11010420548981 2.8839932335733556 0 1 1
335 1 18.199862134816126 19.55862922461195 25.005095318687253 0 0 -1
878 1 19.181219741197488 21.321138531931744 1.576298761972172 1 0 -1
706 1 20.649876122124503 19.74737129719565 3.169120385883736 0 -1 1
403 1 1.6857455733916185 24.829709316428705 0.6643011548997684 0 -1 0
412 1 3.4548996319962675 23.52255760214559 2.308774651201868 0 -1 0
132 1 8.11239576543537 24.90186723846502 0.7878233981524438 0 0 0
167 1 9.609996876233625 22.78611629683412 2.1611801410761764 0 3 1
375 1 16.69743278983865 0.28854979937235115 3.0326171349691 0 0 -3
218 1 20.757086357697634 24.324751734278685 2.526851892434635 0 0 1
415 1 1.439395657026779 2.5720487154474507 3.641127455834173 0 0 0
421 1 3.348730210765333 1.0854075955830695 5.6473539596995 0 0 0
357 1 8.061508871642516 2.715595698727576 4.131838533360588 1 0 0
87 1 9.944232833956502 0.9953466561303148 5.433489365345276 0 -1 0
197 1 14.967371838928718 1.0203472799965634 4.848449181466673 0 3 0
281 1 20.693282798611715 1.8868703175037538 6.707860397394432 1 0 -1
787 1 23.51895036987504 1.2537385071025002 6.420622470384297 0 -1 0
1435 1 23.52696469722984 12.131235630791839 25.0031380044084 0 1 -3
475 1 5.173263758116889 5.623818000288285 3.518196234531449 0 0 0
214 1 6.668453292150782 4.663613920346178 5.355563170129509 0 0 0
47 1 12.963607648067423 3.8280180549288496 4.6919573784445685 0 1 0
86 1 15.472256588103958 4.5927540284197415 4.321913594556043 1 1 0
21 1 21.117037341392333 5.6741151400332885 6.109363767728961 0 2 -1
330 1 22.455716903085044 3.9855979857777974 1.304983150405951 1 -1 1
765 1 24.049951744347428 17.097810645438134 5.984162313028765 0 1 0
477 1 1.8403958131805327 8.61276819747578 4.051417883541012 0 0 0
486 1 3.8593733200699964 7.252201532374951 5.520666415353086 0 0 0
243 1 7.995818454494997 8.529095272353238 3.9291623078327467 0 -2 0
158 1 9.762007932382566 7.219590679970337 5.340310744478843 0 0 0
207 1 10.963386726700689 9.249075195819806 6.65471924923626 1 -1 0
663 1 17.175537393740687 7.8509076203140395 7.334051701787869 1 0 -1
650 1 18.367507427541224 7.183939519903259 3.0714226068706005 0 1 -1
108 1 20.758722959472475 9.463559225588925 5.193296442322458 0 2 1
1027 1 22.373536592221328 7.762927434792577 3.8066389150182744 1 1 2
480 1 5.0777982649708715 12.202943528949032 3.8387038259088806 0 0 0
479 1 6.802320781205924 10.550298959839598 5.286162979551884 -1 0 0
74 1 13.637503518188351 12.282654683780754 7.458954700963749 1 2 -1
253 1 12.857987509745463 10.76891182923568 5.353935604691898 0 0 2
619 1 16.157626329344488 12.254928655705577 6.776863378439147 0 0 1
131 1 21.310318115978536 11.241073129159123 9.396758196843289 1 -1 3
825 1 19.731624879047907 11.707494290783712 0.4955848493491972 0 4 -2
481 1 1.6541930318696376 15.426556215899513 4.201544855512426 0 0 0
483 1 3.5273026231102325 13.945312842037193 5.553706733298252 0 0 0
173 1 8.338171737558692 15.497400306202742 4.157689588636167 1 1 -1
379 1 10.1633883421344 14.008925419222948 5.642228142507782 0 -1 0
262 1 15.753023384678391 14.633092444908534 5.28736565345632 1 2 -2
944 1 19.29311135133965 13.425764411264776 4.102877803261729 0 -2 -1
355 1 21.022210612047484 13.497474200175258 6.410656845909574 1 -1 1
688 1 21.887592884220705 12.335551032624805 3.0512348481622364 0 1 1
261 1 24.613736882901318 2.210685336553328 11.223095242274928 1 -1 0
407 1 4.593782726989514 18.343482980305225 3.545653733649349 0 -1 0
420 1 6.256607696989769 16.782940439412748 5.13471257793704 -1 -1 0
274 1 11.336898499896208 18.239705838552837 3.6231077013943724 0 2 2
287 1 15.344140104115818 16.318239664025896 2.7707745841013467 0 1 -2
962 1 13.461284499079687 16.85485191354823 5.025795144628909 0 -1 1
504 1 21.434369943128853 17.813348602814877 6.193464557675609 0 -1 -1
888 1 22.98815185985155 14.918905498521113 25.302303851124496 0 1 -2
409 1 1.4176003685832592 21.69968095786067 3.6190686935234293 0 -1 0
408 1 3.42463839855572 20.355635725492498 4.9988154216074845 0 -1 0
521 1 8.145881812722957 21.416433658240074 3.816303149247967 0 -1 0
735 1 9.693997079448602 19.938933833382055 5.249731466364106 0 -1 -1
366 1 11.656441708455423 21.43587652156418 6.717368295842727 0 -4 -1
323 1 16.695677235336856 20.33520111655218 3.8412726814010174 1 1 -1
279 1 17.206660316927554 18.325610273546737 1.9952264226290017 0 0 1
589 1 19.494667691733802 17.48316847359866 4.0504465119415975 0 0 -2
635 1 22.39714272799135 20.975068828454603 5.000711166069439 0 1 1
739 1 15.372284289578223 23.973074756384648 0.7932922026656688 1 -1 -2
413 1 5.1411505657143755 25.10142354414469 3.75568793241934 0 -1 0
224 1 6.752917329728523 23.40989081472143 5.293240987487662 0 0 3
230 1 11.144135655827073 24.582944749997406 3.5400654922605614 1 -2 -2
912 1 14.511300165131724 24.213381233331006 6.8998598875807025 0 0 -1
352 1 12.83163639850721 23.175711144287828 4.752096073922849 0 -2 0
634 1 18.14167836833969 23.227618849706403 3.6529653254806442 0 0 -2
247 1 22.53903123328369 20.194486483477142 7.713029292795167 0 -3 -1
422 1 5.464157074123221 2.514141102497453 7.02504416249717 0 0 0
145 1 6.892098133301096 0.9080056003020949 8.749150445436902 0 1 -2
301 1 11.877963821076182 2.4698098493905105 7.1851390900771746 0 -1 -2
188 1 13.026009594198472 0.6271723606579676 8.61074390095851 0 -1 1
1175 1 15.286457977875196 1.813276943538385 9.949827790734215 0 0 0
1011 1 22.852483392342794 2.760185726393521 8.883509335676939 0 -1 1
1471 1 17.276359423552336 2.618377201368674 5.576814499721627 0 -1 3
212 1 22.853380753643457 9.316515100918814 22.582032696086532 0 0 1
484 1 1.9792563745640812 5.782766200604325 7.257467784571098 0 0 0
492 1 3.494872441210701 3.9445669001509196 8.68312073527728 0 0 0
384 1 8.348690412612836 5.8200162451537905 7.266958636029039 0 -1 -2
328 1 10.04335853668675 4.249649658442069 8.706156938081287 0 1 0
895 1 12.598469277155322 7.841286533185895 8.434320032709403 0 0 1
172 1 14.80587847480774 5.993615727113354 7.324460806100376 0 2 0
828 1 19.93530063274041 7.728869553421698 7.565947795198952 0 -1 -3
561 1 21.823388679460802 8.288078522977907 9.615400713781455 0 1 2
487 1 5.209770807720544 8.860535298433172 6.9159244225033225 0 0 0
485 1 6.611706076983156 7.349325783278729 8.66790991322949 -1 0 0
321 1 13.55965886855231 5.6693032842129405 11.85546067618524 0 0 2
54 1 13.866672217348162 10.37267118036773 9.356847712119377 0 1 1
70 1 16.70897767246297 10.069260233429276 8.932068791567417 0 0 -1
427 1 0.6273834755457464 1.1687404238735994 9.081156900579023 0 0 0
488 1 2.1833359280464113 11.999524633458462 7.0822322634319965 0 0 0
489 1 3.9658382542817003 10.313067376142032 8.76506082392305 0 0 0
358 1 8.111112350897976 12.366536564760683 6.769642904167583 0 1 0
26 1 10.03986644931729 10.741814663382469 8.80795690485789 1 1 1
670 1 24.027134579613627 16.439864364945045 18.306101598467613 0 0 1
91 1 23.695994287559895 24.676168918176476 16.689241182076533 0 -4 -4
117 1 24.276956619048175 5.063225491806168 20.027962480748517 0 0 -1
482 1 4.874983623892474 15.28739993935795 7.294294117456643 0 0 0
886 1 6.614540773820984 13.739720433639079 8.56537780541723 0 -3 0
125 1 11.923928780218247 14.378149798803491 7.975295797492977 0 1 0
728 1 13.99653889355215 16.238081462046765 9.338318549565612 0 -2 -3
60 1 18.39158878904692 14.402994567336275 7.2625306024607434 0 -3 1
707 1 17.79475553744577 13.878387105199453 11.34819141142749 0 2 -1
256 1 23.612116321870783 11.669974041149388 7.956171298530194 0 -2 -4
811 1 24.53381344292316 4.424850381421472 3.4853759537120723 0 2 -1
416 1 1.6427930389252612 19.173609861880394 6.924286594988575 0 -1 0
491 1 3.433279587173468 17.32502091806269 8.309870460810002 0 -1 0
190 1 8.220559961567844 18.269730831730286 6.61361438835908 0 -1 -1
123 1 9.833504754100808 16.972535874641824 8.523608896280725 0 1 1
618 1 17.162425621016848 16.72307736503995 10.464600415600298 0 0 1
754 1 17.298673058847186 17.097553654897908 5.882082944496852 1 0 -3
597 1 21.25253148467828 15.712139507048756 8.160298097380704 0 2 1
418 1 5.179845001447009 21.546213574887503 6.662855105637438 0 -1 0
423 1 6.535032099872157 19.569913088692594 8.120182916060793 -1 -1 0
232 1 13.541271431647107 18.629012500405143 12.524658290231784 0 1 0
579 1 13.263952006827083 20.048145702388865 8.13177231911603 0 0 0
1024 1 15.842094868470335 19.66782553842033 6.252837392069623 0 0 0
993 1 17.795943174064263 21.15889188725182 7.741590024389683 1 -2 0
373 1 20.95787760870211 22.800620164628477 8.115525249078374 0 -1 -2
1960 1 24.604977800324082 1.5927801292876687 3.4598900905329733 0 1 0
419 1 1.9952762941422282 24.660216381681515 7.129653024372906 0 -1 0
417 1 3.754072716828831 22.92716871468946 8.591944789636445 0 -1 0
726 1 8.47824944416062 24.644057945737394 6.947366528084122 0 1 0
255 1 9.891506489200772 22.595938688752753 8.298151099408692 0 1 -1
169 1 17.62328191178624 23.760291893763878 6.748762613011642 1 0 1
265 1 20.05864940805448 24.732456445876327 5.806340940203928 0 1 0
1032 1 16.780026500585713 23.57152855271913 10.877823641801992 1 -1 -1
864 1 23.62367596598937 24.316624899415295 7.958441216299518 0 0 -1
401 1 2.1654803757617884 2.6840337079413805 10.58498982357586 0 0 0
461 1 3.518526210013581 0.5527646839137131 11.830392529124563 0 0 0
922 1 8.548566483319629 2.5268055493799015 10.262914960935 1 0 -1
563 1 10.071357421606194 0.7127145479753728 11.635148810933488 0 1 1
570 1 17.510220413284735 1.2298466123235603 8.13297710524314 0 1 1
807 1 19.767017319635954 1.5047077289967041 9.716944259127128 0 0 1
515 1 23.838565941472297 14.289150597171233 7.987542338887048 0 0 1
471 1 5.154009216076245 5.395410307185795 10.222012300215484 0 0 0
165 1 6.838768536341098 4.065714918630598 11.66731876827677 0 -2 0
372 1 11.161961445922238 6.180425521564367 10.017989345254541 0 0 0
16 1 12.843558963912841 3.9927672143821478 13.899406021933398 1 -1 0
219 1 15.586440587432975 4.797215140239208 9.542046713379436 0 2 1
130 1 18.085593170429185 6.010479497050696 9.885875555161578 0 1 -2
239 1 20.384065970828036 4.5943452234691025 8.54930397084137 1 0 -2
51 1 24.669933254737494 5.011863509277642 11.496465041016734 0 -1 -2
469 1 1.9146323251968893 9.059973980896455 10.35653525371587 0 0 0
137 1 3.4989197666920555 7.354874937023863 11.823275919197503 0 0 0
783 1 8.60258064944075 9.021586221772838 9.982188890363716 0 -2 0
359 1 9.857051033778495 7.493593962073405 11.854891850920309 0 -2 -1
937 1 16.121151355016657 6.634900254267483 12.418135832893201 0 -3 2
842 1 17.705161216414158 9.023680739903238 11.70556132832149 0 1 -1
920 1 22.470835993950065 9.563224501539876 11.922786796889783 0 3 1
636 1 24.36450895547494 13.544431762404717 16.31789457416599 0 -1 -3
171 1 24.569794317515452 7.977160959895358 8.393249234172677 1 0 0
466 1 5.3361686129475645 12.00855335251461 10.205947048842047 0 0 0
244 1 7.008764636585968 10.379384012663943 11.639271078236233 0 2 0
320 1 11.739765067381377 8.903708692403926 13.528179270657146 0 -1 2
532 1 11.701914234284203 10.572367050428811 11.395853654701336 0 -2 -5
939 1 15.562035203163296 12.23423490345623 11.06727062570266 0 -1 -1
1341 1 15.554091321200021 11.350658657660198 13.869314642103728 0 3 0
682 1 18.51549844803856 12.346084131037616 9.265220684360367 0 0 1
234 1 22.177922818735404 12.609400964883818 12.208370664020295 0 -2 -2
872 1 23.18365248856255 11.502542679625 14.5910298056008 0 2 -1
474 1 1.913383012516886 15.586806682949536 10.140004836279713 0 0 0
493 1 3.505020072878342 13.743243585135426 11.576954579876235 0 0 0
1228 1 8.475605551976626 14.805926835159422 10.026200595181667 0 0 0
968 1 11.15278941600742 13.109574333258742 12.819147831567296 0 0 1
834 1 13.170675945802769 16.117334286692156 11.843309878070286 0 -2 -1
32 1 18.769161783835006 17.34854132320887 8.314498777838953 1 0 -1
674 1 23.49753437423117 14.533991844004104 10.656765506004405 0 2 -1
467 1 0.8635104477163673 13.851425427779612 8.451298410358229 0 0 0
424 1 5.002624779608368 18.275439003453414 10.410370263349183 0 -1 0
490 1 6.888164394913269 16.322010261542683 11.721501988105603 -1 -1 0
133 1 7.905295984111398 18.462488243867096 13.032274718202688 1 -1 -1
753 1 12.408242725787986 17.593438071468466 7.6921822200129775 0 0 0
592 1 10.278426666291661 15.501134764276163 12.357215444148752 1 0 1
781 1 16.08070160987007 18.784114979335403 11.749121600079976 0 0 0
629 1 13.776940665908922 19.09411190630209 15.538248951719197 0 -1 0
349 1 19.811349902379206 19.78969848100604 9.273129329904691 0 0 0
1193 1 23.646317588989376 19.3508599847097 11.31452694294069 0 0 1
1000 1 21.922966324770208 16.908645387806867 11.820235978281753 0 2 0
425 1 1.9264812444889419 22.135406459124273 10.237747558514233 0 -1 0
464 1 3.304828330107644 20.098321312747714 11.587519242540955 0 -1 0
391 1 9.679909485723414 18.979561903858375 10.71620293506446 0 -1 0
388 1 8.281421461624351 21.021786879364885 9.861742952588322 0 0 -1
179 1 12.206645867071163 20.523593797330115 10.906876716304364 1 0 -2
1552 1 15.647616505188674 20.78160545621111 9.589970886623975 0 0 0
921 1 21.737628096849434 21.333815602884812 11.166661729614892 0 -1 -1
1441 1 24.4554891757596 22.782851317178 10.763956154846696 0 -2 -1
1179 1 21.342324643346945 7.8454292788136115 25.393784905092346 0 2 -2
426 1 5.116124030377926 24.25155862982127 10.171361232019667 0 -1 0
460 1 6.928933218477353 22.619878386207965 11.590855172343607 -1 -1 0
37 1 11.404512703359687 24.175648049405975 9.982587259618388 0 -1 1
249 1 13.924628074747728 22.75892988087841 10.103846294735545 0 1 0
393 1 16.496620071565392 24.45855964098317 14.6410988270507 1 1 -3
248 1 19.68536616130422 23.82659573419286 10.298601370172067 0 0 0
200 1 23.867798891443893 2.367529440491761 13.941779555574177 0 2 -2
439 1 5.3222817905853015 2.2453701237881374 13.353251228508789 0 0 0
346 1 6.872523964305421 0.8088583471416354 14.804422775861132 1 -1 0
334 1 8.404195138413204 2.8190762267999863 16.074684828693165 0 -1 0
717 1 12.259630430623647 1.3598371492289172 13.17116730558457 0 2 2
342 1 16.659374296513324 0.5726824475992105 12.450274919966743 0 1 0
183 1 15.370529246410657 1.2417723159688512 16.569981302428594 1 0 0
138 1 18.253934508342244 2.6181180641104795 12.228780446665667 0 4 0
496 1 1.868135933857422 5.714050362339423 13.32678502847756 0 0 0
433 1 3.639952790818266 4.028436498157049 14.534671659037327 0 0 0
49 1 8.400710913738113 5.623917648632463 13.265223779835782 0 1 -1
644 1 10.21529579433273 4.43100850223812 14.815646904498784 0 2 1
583 1 15.093276694553094 3.818008152562345 15.8365659142308 0 -1 -2
881 1 17.0469157000285 4.39628591515104 13.960840689017497 0 2 1
775 1 20.343460942022404 8.956876733955601 13.93223171346471 0 1 0
903 1 21.15833569463054 5.010430670380613 12.45384088166659 0 5 -2
778 1 22.335651980749276 5.721862335557353 10.25129066187114 0 0 -1
498 1 5.22131346382781 8.99904312461601 13.173243743839476 0 0 0
497 1 6.758081020419453 7.379468945149269 14.945160513652528 -1 0 0
339 1 7.932496735478932 8.773432918449513 17.319028152114768 0 -1 -2
196 1 14.709924161545745 8.879563185530506 14.343793873820067 0 0 -4
273 1 21.440685019031168 10.012354677324907 16.6087780733472 1 -2 -1
63 1 24.168114452913446 6.292180975956881 5.607585368733138 0 2 -2
500 1 2.1010528660537497 12.252388719496631 13.383334228228883 0 0 0
499 1 3.545871875908762 10.461218118476848 14.70447862154646 0 0 0
266 1 8.522161518750325 11.966099981717528 13.552660603029677 1 -2 -1
98 1 9.706674067217554 10.023088114859297 15.335586191710293 0 1 1
364 1 15.518454232939215 14.886772671426183 13.146930200842203 1 -2 1
278 1 18.22788022081594 11.125499152256799 14.141403585633633 1 -2 -4
120 1 19.728358518993947 13.432965559333292 13.066040758254157 0 0 0
908 1 13.507454484853666 23.330980978383785 24.261560052286644 0 0 -1
354 1 5.2101297303786405 15.247544260148706 13.382148070416488 0 0 0
392 1 6.706274498224564 13.314158644466584 14.868290104393898 -1 0 0
79 1 8.444794815000947 15.102734768001723 16.096320095915647 1 -2 -1
1030 1 18.138620022750896 16.52919775428264 13.590723344765882 0 -1 1
382 1 13.49365429003967 13.036731288739832 14.51483052604856 0 -1 -1
333 1 19.525358488243402 17.935753619645467 11.677735904561093 1 -1 -3
157 1 19.063452421982994 11.946046053798167 16.519318478487797 0 1 0
432 1 2.08445380321072 18.37861768286514 13.097835542906113 0 -1 0
151 1 3.8020321481433887 17.035954582748563 14.851734035776282 0 -1 0
177 1 9.755244423359303 16.991394269799994 14.526652439929032 0 -2 0
240 1 17.54960179769718 19.724408771877272 13.816704713820423 0 1 -1
127 1 21.452513626188875 16.09587560116897 14.338226211872632 0 2 1
62 1 24.259858684853576 4.362917380111125 15.611648728801049 0 1 -1
436 1 5.020963454520852 21.68268379604032 13.248427778428773 0 -1 0
434 1 6.729445314350491 20.328601712006964 14.953976543395127 -1 -1 0
3 1 12.280928522535714 16.854281527842538 16.27142578003264 1 2 0
763 1 11.518470586954102 22.133828241344514 12.868341707726865 0 0 0
1014 1 16.286416464208635 21.554877045482783 15.310194073026173 0 -1 0
270 1 20.21304780455999 20.132363319338417 13.612426571258046 0 2 -3
1325 1 22.77944412499581 23.322380715187844 13.104196491229489 0 -1 -2
437 1 2.1061318122402213 24.635941572737774 13.835656420765654 0 -1 0
443 1 3.7217107284476096 23.038217871063093 15.297354598028189 0 -1 0
53 1 8.193239235217462 24.42939877123603 12.822237932759188 0 -2 1
182 1 9.94561160268226 23.594458891389266 14.801389585402948 0 -2 0
78 1 11.574523285271175 0.35065127872248775 15.762184992895738 1 2 2
952 1 13.836482889164898 23.984784459549726 12.598064770009248 0 2 1
18 1 17.695114991936027 1.511643727973104 17.966485713584483 1 0 -2
43 1 20.294475965717446 24.574411572523633 13.22440027641837 0 2 -1
48 1 19.15598758529416 22.73147921758127 14.864135103696688 0 -2 1
447 1 1.8880668571087738 2.96384294125364 16.357887645498842 0 0 0
456 1 3.483199233937934 1.1556055249881785 17.761562742213236 0 0 0
96 1 10.175488184009247 1.8598865642488018 18.139962425897778 0 1 -2
148 1 11.895812002314125 3.854428218101354 19.583089874955355 0 1 2
311 1 12.821765722955957 0.20252894126606769 18.507359204475126 0 -2 -1
988 1 16.799123514665897 6.654799818316319 20.09325284591217 0 1 0
748 1 18.3120827424159 4.177060202856818 17.270764572688964 1 5 -2
551 1 20.929492557990542 3.2623973815751537 17.34046938742505 0 0 -3
429 1 3.1509921658621667 20.07226142192409 24.422674385716803 0 -1 -1
336 1 5.185062221805723 5.500617202710708 16.27282768142855 0 0 0
8 1 6.648239418700114 3.8896215673803023 17.657807029837507 -1 0 0
525 1 11.492705706556116 5.5582402455678865 17.00033448901242 0 -2 -1
715 1 14.03226204993412 5.874996284387548 17.610180646348397 0 1 0
689 1 19.260586956306966 5.740879569651109 15.105838590613983 0 1 -1
146 1 19.285738296003604 5.404075587264335 19.678343577368892 1 0 -1
756 1 23.87292786159481 22.482977011356734 0.5436902854539287 0 1 4
291 1 1.8673408440860406 8.997025871740641 16.28905877010332 0 0 0
303 1 3.802238846385942 7.143056302403437 17.756539650080857 0 0 0
250 1 9.659872915993848 7.122892689042608 18.29662679119011 1 0 1
58 1 11.505552084358731 8.296013334488617 20.041632712918066 0 3 -1
594 1 14.386855045207643 8.350140832261081 16.838571579850417 0 1 1
902 1 17.578143461746055 7.891773719540851 14.685804183651365 1 1 1
5 1 16.886781029358794 8.520449407866774 17.731335303033994 0 1 -2
371 1 22.274493421683438 5.505943484608721 17.673692265528476 1 0 -2
340 1 22.139826004861895 6.642043842181713 14.847197410738014 0 1 -2
268 1 4.858876387021465 12.219696205585565 16.450419479406893 0 0 0
282 1 6.346702190556428 10.918530939993062 18.15420873918997 -1 0 0
267 1 8.388725669103168 12.350065332191685 19.78755349493878 0 1 0
314 1 11.361595505503542 11.799909845680308 16.662561131793957 1 -1 -2
1249 1 13.017473523467341 10.246228580096007 18.45442768996546 0 1 0
936 1 19.780342078492108 7.818842272328633 17.603435717957616 1 -2 0
7 1 22.447456129327282 12.486399212206118 18.00976366755701 1 2 2
198 1 2.311130459799285 15.588339733625288 16.668350469966374 0 0 0
187 1 3.6399709038322787 13.941353989733306 18.249649901374088 0 0 0
344 1 10.006276821066747 13.838430294876312 17.994890858460828 0 0 1
614 1 11.250872030946764 15.468262235012974 19.876230034753963 1 -1 1
45 1 15.312443422885462 15.70962091094692 20.049903139485266 1 3 -2
833 1 15.670395249622546 15.420926340894393 16.16005612260161 0 1 -4
1012 1 19.12559396615758 15.065364208328328 15.483465139826661 1 0 1
740 1 23.963376317735747 16.091602322592788 15.50373979881958 0 1 -2
1182 1 18.843193927274342 17.920232186489077 21.111872161478754 0 1 -1
440 1 1.8686372282815276 21.653684024212193 22.77703016881047 0 -1 0
442 1 5.264619672608254 18.769995630663548 16.4754367097599 0 -1 0
9 1 6.94603359298777 16.983552468341447 17.715836816825743 0 1 -4
866 1 13.391303647187577 14.396833094291877 17.151698792895136 0 0 -2
616 1 16.78796111296854 18.020092588306614 15.816480731981784 0 -1 0
671 1 11.34411830983677 17.87348240500756 18.506945198607536 0 2 0
104 1 18.841745361385136 18.19404016126883 17.35129922630395 0 -2 -2
149 1 21.259603585189886 18.834444250031844 15.815833089570168 0 -1 -2
225 1 24.324397701331755 18.038450808157446 20.74377188438801 0 1 -2
444 1 2.0793732080177243 21.336412797374276 16.354590895759248 0 -1 0
441 1 3.544575124917274 20.030090622132057 18.280914585090855 0 -1 0
399 1 8.627088937790697 21.78804659492345 16.54226937477748 1 0 -1
154 1 10.634929614357063 20.42635189943572 18.006146999773943 0 0 0
222 1 12.308189808657712 21.11522710119511 15.76388013213038 1 -1 -2
40 1 19.177940672871408 21.076942952285847 17.400180036142398 0 -1 -2
139 1 23.847481345984185 19.066116103959164 16.955437502347504 1 -1 -1
700 1 23.387784103302398 21.940601471727405 15.490074979379868 0 -2 1
446 1 5.23592804100501 24.611191081161316 16.578911463583154 0 -1 0
453 1 7.054894549987343 23.346402877944556 18.087883438631327 -1 -1 0
390 1 8.471289692840424 25.1928597647347 19.30781454107928 0 -1 -2
718 1 15.02093722370731 20.62379155427262 17.92531518981195 0 0 2
951 1 13.629045650175785 23.700885162555778 15.659439865031608 0 0 1
790 1 21.792761816079626 21.8201010923743 17.772656148142254 0 1 -1
527 1 19.692985503905348 25.14049881836253 16.800929131664486 0 -2 1
458 1 5.033699979821124 2.7232332957221352 19.4455633891979 0 0 0
438 1 6.685105196841873 1.0957320746006387 21.008179899663315 -1 0 0
1028 1 12.885326355435847 23.59876381488155 20.935962129060027 0 0 1
788 1 16.48421499268152 0.7548952252853527 20.44797598870927 0 2 0
931 1 13.768145343541654 1.9401582952441063 20.728633941619606 0 2 2
1007 1 21.13289011036962 2.037914938280179 19.727208888199392 1 1 0
691 1 22.147978388305614 3.896689264187252 21.739101245188262 1 1 -1
111 1 21.536282729889344 23.263281557088803 21.57234485799559 1 1 2
155 1 1.9914550179801136 6.102561132006152 19.458288513944023 0 0 0
452 1 3.166962327958395 3.986568551065172 20.89601043800866 0 0 0
985 1 7.793504417490005 5.646371657527182 19.77595128655146 0 0 -1
1025 1 10.01086283316546 4.894458114596243 21.581687891211892 0 0 -1
206 1 11.436965577473801 6.185621492088082 23.38415339489482 0 2 -2
789 1 14.465150703594473 5.325515290936789 20.432236151119756 0 0 -1
153 1 18.47283755782714 2.7856234752062243 21.093520879425867 0 3 -2
72 1 6.744198139089046 23.21291373321356 24.438167764109078 0 0 0
52 1 4.926461630599136 8.991259736377506 19.478207288952415 0 0 0
329 1 6.23002722570204 7.501398891910592 21.380294044872713 0 0 -1
305 1 8.243098739363454 8.938496429190792 22.787562666701515 0 -1 -1
312 1 15.06949469030499 9.318301091315186 22.576707430682518 0 2 0
705 1 13.131616407030837 7.350184941883035 21.942255171214835 0 -1 -2
298 1 17.013432920055877 7.556568892516873 22.791339819140486 0 2 0
869 1 20.85747959235085 8.965041881250903 20.17289645007934 0 2 2
44 1 1.5724366677511254 11.855926648623054 19.63048052180471 0 0 0
36 1 3.2727896146213964 10.393343243566388 21.085882488196155 0 0 0
42 1 9.878849833104352 10.631933729185265 21.33400083823241 0 1 -1
1006 1 11.48554644104221 13.227463283484932 21.986032627268063 0 1 2
600 1 15.70777885908024 11.700822612271633 20.89108603708211 0 1 0
105 1 16.910691304873673 12.382556487529433 23.522166540761557 1 1 -1
161 1 17.80948254193404 10.26378579048829 24.55384861812523 0 0 -4
227 1 17.571572935097226 12.490873743797257 19.116686579673928 0 2 1
84 1 20.17863009945951 11.58719152697372 19.645349754085803 0 -2 2
582 1 20.63757789990877 17.075051089726454 23.2156722772156 0 -1 1
370 1 5.572631414922333 15.525891941142714 19.6501615340322 0 0 0
363 1 6.950764257117976 13.776435850225642 21.540058617819227 0 1 1
116 1 13.677116135760826 13.09220403664883 19.724775306255058 1 1 3
106 1 14.531788269386546 18.261613991146593 19.331612602186564 1 -2 0
263 1 17.420791197598636 14.96160743060149 18.236824849726023 0 -1 -1
315 1 22.041362616860425 15.161723025377707 19.24245664539348 0 0 1
1222 1 24.84976490416814 11.12290434955326 19.046403558801455 0 0 1
450 1 1.9998776668854734 18.315111322583896 19.84711368408107 0 -1 0
459 1 3.8947263959996636 16.732521893478207 21.561396355231974 0 -1 0
2 1 8.296859020824396 18.55986408609989 19.414907081841747 1 0 -2
368 1 9.280190727361088 16.589336810629234 21.17509090738884 1 0 0
75 1 12.601751102445235 19.835672064904898 21.462894525546613 0 1 -1
4 1 19.55477079687379 16.269198975543596 19.11280613008227 1 0 0
549 1 22.312249090208134 19.487461175280256 19.577914006178485 0 1 -2
435 1 5.1154418327241515 24.90767075213398 22.960868414630852 0 -1 0
454 1 5.2115371590540365 21.96418711795261 19.553260614796496 0 -1 0
451 1 7.0493789682002745 20.33304073538056 21.039555488362506 -1 -1 0
229 1 16.07868843836837 23.09037231456562 20.897806884608976 1 -1 0
259 1 14.607580313524695 21.41802832163451 22.514960059922927 0 -2 1
1916 1 17.129313401656017 20.751348387287276 19.63923963995316 -1 -2 1
17 1 20.02581318786731 20.512077815929498 20.72025689747687 1 0 -1
953 1 23.10982406283183 20.94186740552205 22.138689121113043 0 1 -1
1440 1 22.321449749003875 0.3779571378246431 10.768682378923044 0 2 -3
455 1 2.0081043680220105 24.59658008238417 19.13790569951957 0 -1 0
457 1 3.4059717347276193 23.5913092532488 21.41612949701124 0 -1 0