LAMMPS data file via write_data, version 29 Oct 2020, timestep = 400000

1539 atoms
1 atom types

0.24416830216941676 49.85651242549674 xlo xhi
0.1550023335756361 31.649791152992492 ylo yhi
0.1550023335756361 31.649791152992492 zlo zhi

Masses

1 18.015

Atoms # atomic

265 1 6.432105683440042 0.9973889557760698 1.9476503890314323 0 1 0
229 1 4.475715793829072 2.594462665487385 0.5794232608360917 0 1 0
230 1 11.385418724477473 2.543115778376227 0.5187882658107477 0 1 0
224 1 13.147440322538609 0.851976725840083 1.6516398137796942 0 1 0
231 1 17.622467222192267 2.542635573337153 0.22165453911710303 0 1 0
232 1 18.98429524960997 0.6110019669936342 1.5884163638736393 0 1 0
269 1 21.032125990675993 2.0429609143325536 3.2223783808486806 0 1 0
291 1 24.912278791474 1.335618627590175 1.4973659911259893 0 1 0
352 1 2.8152446187022537 4.173564708918438 2.0860508977901304 0 0 0
809 1 1.5083525122457377 5.623443030581391 0.5216130157218114 1 0 2
7 1 7.817421800835794 5.4737588284737155 0.33282999323484663 0 0 0
10 1 9.726946723810537 4.173204234958417 2.0359081286986225 0 0 0
8 1 14.676296499121797 5.971734971603718 0.7042604082838643 0 0 0
270 1 16.443229087356126 4.044931143618271 2.0270293429675985 0 0 0
11 1 20.895474051038565 6.027584079605231 0.22514048372471163 0 0 0
129 1 22.26251873333635 4.056569599416328 1.796369791251806 0 0 0
55 1 6.285715399947089 6.88700339966331 2.3735204019016747 0 0 0
13 1 4.837328219820558 8.39956181626622 0.5743748151213393 0 0 0
15 1 11.228902022150645 8.81383805711787 0.4528429311354392 0 0 0
57 1 12.849612667064978 7.249593630918378 1.9698689216967038 0 0 0
16 1 17.828923319633493 8.746637676537402 0.515635188882077 0 0 0
17 1 19.282974573676395 7.2230303242327105 2.1676242805826544 0 0 0
54 1 3.3882736862919827 10.165605565200142 2.2041417618131085 0 0 0
21 1 9.532888253275182 10.286597286243225 1.8620915905893975 0 0 0
20 1 8.06290674106769 12.046412915989796 0.4916229954990695 0 0 0
22 1 14.489028049213823 11.721130219814198 0.2144464053247237 0 0 0
64 1 16.091715478610592 10.377760656904456 2.0384364498791108 0 0 0
23 1 20.70293090062388 12.290697593924293 0.28374134930562833 0 0 0
24 1 22.346226599096518 10.555475403444976 1.5551430583490822 0 0 0
68 1 1.3339880611863646 14.857985106358079 3.263433907099783 0 0 0
28 1 6.432055852571089 13.655415729892214 1.7856638402207017 0 0 0
27 1 4.897061819247748 15.184900185399941 0.6818112935700636 0 0 0
29 1 11.166004712401554 15.181668661292937 0.6928646103404681 0 0 0
30 1 12.835483506712286 13.442767057069256 2.0231251806998616 0 0 0
32 1 17.56020369788183 15.222702936054862 0.4231483050790851 0 0 0
73 1 18.840428947387338 13.68472383810402 2.157805610451619 0 0 0
1210 1 24.45457702106557 14.226447189469777 1.379433298862614 0 1 1
75 1 3.0994369542056335 16.55555305229175 2.1860138954717354 0 0 0
34 1 1.673424253571966 18.294274211151922 0.4691515183765849 0 0 0
36 1 8.374086161314505 18.411437900966675 0.44612303764974154 0 0 0
37 1 9.839390936444431 17.10572873868071 2.327365269449707 0 0 0
38 1 15.599752496926168 16.675938803601092 2.0886293738746637 0 0 0
39 1 14.445236824208928 18.509002666033794 0.7036283678831073 0 0 0
41 1 20.915318854249097 18.413698416164415 0.9709940603575736 0 0 0
81 1 22.840185651271153 16.49436374985509 2.229366207947488 0 0 0
197 1 5.006211991659721 21.54996120669091 0.6658961945180254 0 0 0
385 1 6.5816016107079 19.903981048787827 2.1831850371905683 0 0 0
199 1 11.048617450712594 21.505805873426645 0.6034205446067693 0 0 0
274 1 12.813386896427577 19.996688613179643 2.3905647949171294 0 0 0
200 1 17.70934577096005 21.449217728231943 0.528524781743879 0 0 0
386 1 19.194131668780358 20.023010564053898 2.3462361031467642 0 0 0
759 1 22.491287410701226 20.391520488777104 0.1779586336677994 0 0 0
240 1 3.0736805193328616 22.89248862154416 2.1771413782273625 0 0 0
203 1 1.7705377109784801 24.803486124279146 0.45240970008666836 0 0 0
205 1 8.159837981420552 24.49391072787178 0.8118007549777511 0 0 0
206 1 9.632594353179412 23.047514045765325 2.362225589150893 0 0 0
207 1 14.232520005810008 24.60009749207586 0.8050453709352087 0 0 0
208 1 15.995818820251534 23.031043250844384 2.229980922928336 0 0 0
210 1 22.30641430761192 23.13069717881381 2.0318286119593276 0 0 0
1058 1 23.853161096317507 25.097117327676074 3.0602297199813466 1 -3 0
212 1 5.250821329560024 28.217479972411283 0.8402812757981569 0 0 0
204 1 6.640118804411984 26.1366905006092 2.231772019269564 0 0 0
213 1 11.134049476952194 27.811024610177377 0.7013367402585019 0 0 0
214 1 12.648833923039868 26.287055737635725 2.1999495796053017 0 0 0
216 1 17.535568270660274 27.228070462827354 0.2749369394587825 0 0 0
254 1 19.26893131071632 25.954696783758102 1.7922948502325806 0 0 0
248 1 3.241163176349315 29.33000336033472 2.533622843801491 0 0 0
222 1 7.887954756188274 30.8095213181186 0.5088397640833897 0 0 0
223 1 9.654764634985359 29.56938760471131 2.3592846290034495 0 0 0
225 1 14.596067071541846 30.656632174835472 0.23944848697020343 0 0 0
259 1 16.163574109313444 29.163348955367546 1.7417037560852904 0 0 0
261 1 22.308561725644754 29.139178026375376 1.7832449079746588 0 0 0
1291 1 24.123134623860157 30.646008399883755 3.226929974599157 0 1 1
264 1 1.2051013281928395 2.3319123139273024 3.5370219610454408 0 1 0
257 1 2.9775054859125913 1.1660732093795605 5.333328702698203 0 1 0
266 1 8.41298436972865 2.2679556637656537 3.743483734141466 0 1 0
301 1 9.819889674616432 0.730910428342434 5.3404482439376295 0 1 0
268 1 14.834674061569494 2.2311304596703674 3.4679176870427164 0 1 0
303 1 16.111272002677076 0.5349623504763277 5.137902240553603 0 1 0
307 1 22.740376223806066 0.6306510443845696 5.044374576511705 0 1 0
43 1 4.4886084174125385 5.082985018826111 3.9390707124496083 0 0 0
382 1 6.252514324755204 3.587015578228916 5.33394175314232 0 0 0
45 1 11.323229927840375 5.552958688839068 3.502614061453916 0 0 0
190 1 12.860649154910917 3.758998826644535 5.091344489922075 0 0 0
47 1 17.709648449752002 5.5930714659825345 3.7441014381758366 0 0 0
9 1 19.43172481385216 3.76532375902405 5.052946876615583 0 0 0
92 1 23.843372712720864 5.755135372857191 3.349569918735052 0 0 0
1506 1 1.3142271125577545 8.869980937931883 3.6301811246174056 1 5 -1
84 1 2.88961385523285 7.1549725328043605 5.061913547187307 0 0 0
56 1 8.002044721075285 8.622224971398609 3.5404170247366364 0 0 0
97 1 9.670555013214614 7.139668850764782 5.1050399332359815 0 0 0
58 1 14.41223440862632 8.48522549393005 3.6707186479364386 0 0 0
59 1 16.01350214920439 6.772371395504225 5.381373101576375 0 0 0
60 1 20.936875600873368 8.979328347802367 3.4554750592248693 0 0 0
1144 1 24.035223411835492 9.169776426837567 6.220657298314778 0 -1 -2
875 1 22.479679261046513 7.3622777022667165 4.99824582454591 0 0 2
101 1 1.2928738284370096 11.990673919643907 6.333130754792868 0 0 0
61 1 4.858909230343158 11.808892058268148 3.577854516680771 0 0 0
102 1 6.09684262416138 10.220758052278214 5.115864408412083 0 0 0
63 1 11.154584718208108 11.972753924436606 3.408603810628352 0 0 0
62 1 12.593047096934121 10.424035450279558 5.116915443724907 0 0 0
65 1 17.558920332853656 11.900466405814921 3.714128910312775 0 0 0
107 1 19.33959843983916 10.396644268894452 5.2007018687819935 0 0 0
1035 1 23.90775935330642 11.958521922602309 3.3989415384944652 0 -3 0
67 1 3.163374582079306 13.545947142205806 4.867800062598989 0 0 0
70 1 8.212813978111585 15.205430701056192 3.418972781143052 0 0 0
112 1 9.529736114692536 13.597767338939152 4.99920048184534 0 0 0
72 1 14.18176723489562 14.879412167934875 3.7627076629337024 0 0 0
71 1 16.04074094107619 13.538131917837099 5.1832995851257175 0 0 0
74 1 20.91830811905154 15.142065177665941 3.470354043070029 0 0 0
116 1 22.41137774960931 13.587070187756934 5.04097621416135 0 0 0
76 1 4.93389086617999 18.36178954763612 3.7148357212264185 0 0 0
69 1 6.450630141152395 16.621462625033587 5.252876237891656 0 0 0
77 1 11.313263056616098 18.406994458724064 4.16667670538069 0 0 0
121 1 12.95902476630718 16.689473879955507 5.317103339775787 0 0 0
80 1 17.32919177969801 18.11096955275076 3.6282403440296407 0 0 0
79 1 18.996473741529783 16.501614211844313 5.329598053238269 0 0 0
1061 1 24.22226323026991 18.3692500440632 3.6963678832607 -1 0 0
235 1 1.606545387894073 21.068536630136542 3.6164529260830327 0 0 0
313 1 3.0845742587577316 19.421538183463802 5.187374767921322 0 0 0
271 1 4.902419558042639 20.91421509935479 6.413842602907452 0 0 0
236 1 8.121158969455031 21.538710425451896 3.9774205989914844 0 0 0
363 1 9.469633221038274 19.77154126049013 5.421932369055347 0 0 0
237 1 14.167548852590615 21.466498365916486 3.8750092353889314 0 0 0
198 1 15.988356813588045 19.548229284943446 5.305790230311029 0 0 0
238 1 20.710921457678072 21.595324322726718 3.780058854872321 0 0 0
82 1 22.15582045577809 20.02982441151252 5.167485417068199 0 0 0
1246 1 24.183494682787707 21.6350983841174 6.251577054813265 0 -1 4
1323 1 0.4266072390017399 22.62605712213393 5.622046681011651 1 0 0
241 1 5.151155068846791 24.552243411152084 3.871341413366193 0 0 0
242 1 6.462445347936735 22.997898929322076 5.472682369742437 0 0 0
243 1 11.097020724072026 24.815515626926555 4.011140156450313 0 0 0
244 1 12.49983994930371 23.000115059063063 5.501892160984591 0 0 0
245 1 17.664709516509454 24.512396326323355 3.616861185625143 0 0 0
283 1 19.010602595858586 23.12190391458789 5.195844954471032 0 0 0
247 1 1.3995592503347472 27.594691852606992 3.7727915481692755 0 0 0
278 1 3.0221636531042737 25.999038222856562 5.331283666707027 0 0 0
249 1 8.164461463179222 27.93228571635023 3.864856135078535 0 0 0
250 1 9.38545202683271 26.519100369421594 5.608856316487655 0 0 0
252 1 14.474011382208479 27.90140607154828 3.537599509586095 0 0 0
253 1 15.767104304486052 25.841151400810936 5.099991575343024 0 0 0
255 1 20.93280166228424 27.50017947779874 3.3176683928058948 0 0 0
285 1 22.48613428094441 26.389122470508852 5.2524372761062965 0 0 0
1294 1 24.522095471044214 28.227772613334835 6.304329327955067 -1 -1 0
256 1 4.7439330607271355 31.25774535034526 3.57527044875959 0 0 0
294 1 6.187832823536728 29.541674723615728 5.290587034924546 0 0 0
258 1 11.61375306372582 30.92587344265292 3.545055432832624 0 0 0
251 1 12.823128017351525 29.095033990126637 5.255098180396074 0 0 0
260 1 17.546420993786324 30.497253376815834 3.40806715637512 0 0 0
298 1 19.140043674583968 28.913250627420943 5.109670002581407 0 0 0
300 1 4.455605137738061 2.6314279727857453 7.275184724346386 0 1 0
296 1 6.563207168935704 0.9285538833957534 8.331358800579457 0 1 0
302 1 11.250987959725663 2.441697232575778 6.562362417900475 0 1 0
304 1 12.812709404058129 0.9569188263983469 8.129293272403784 0 1 0
305 1 18.048077440016474 1.9583275087733443 6.717082448590201 0 1 0
306 1 19.763873518274675 0.5486180968774937 8.205271997816071 0 1 0
308 1 24.28752138855179 2.3974267247364307 6.558877255678513 0 1 0
83 1 1.1011768545100837 6.017759815152484 6.710398959910994 0 0 0
391 1 2.6550142109640498 4.532891994687797 8.532295273548085 0 0 0
85 1 7.56880984900648 6.008493660586098 6.595857394402354 0 0 0
367 1 9.570430014873377 4.142256132825203 7.9702845858940075 0 0 0
89 1 14.286822871290445 5.167912775511861 7.033265859717629 0 0 0
388 1 16.304639655985124 3.492387491456543 8.283708487981981 0 0 0
135 1 20.694259924597294 5.991979930213259 6.648668986137315 0 0 0
221 1 22.418184469129162 4.152900296892911 8.201224900080057 0 0 0
1479 1 24.272460205394754 5.87459980685248 9.427020481050898 0 -2 1
132 1 1.0460505066543353 9.468249378698735 9.494410329554253 0 0 0
96 1 4.521402961760033 8.611490685613928 6.845851806119107 0 0 0
86 1 6.425105840104505 7.47988992666533 8.75668951092018 0 0 0
98 1 11.445292682608438 8.587390548230458 6.8992649171304405 0 0 0
90 1 12.997138129380142 7.078105266368245 8.414723495547099 0 0 0
99 1 17.475918791195163 8.678337961348578 6.628375537994112 0 0 0
136 1 18.980181026886772 7.096677366913265 8.331639913608036 0 0 0
95 1 3.1022878556671687 10.727761803302432 7.9989100641778625 0 0 0
103 1 7.885206357782999 11.78608760947766 6.457461249397125 0 0 0
104 1 9.644355909502673 10.320146830634426 7.937336433851309 0 0 0
105 1 14.228385461919894 11.779980767076102 6.688495823642028 0 0 0
106 1 15.836082449367296 10.17715300799474 8.459574279580547 0 0 0
108 1 21.015911505253538 11.958694888669624 6.624543950794113 0 0 0
145 1 22.6531436088026 10.555891972877546 8.162809067106327 0 0 0
111 1 4.594525747295458 15.03977022352133 6.660473317899623 0 0 0
148 1 6.158112744963827 13.220326300844311 8.09050568676561 0 0 0
113 1 11.229129186423966 14.979954094632102 6.5786754652576995 0 0 0
141 1 13.0844088805015 13.570300168865996 8.30541133361609 0 0 0
114 1 17.67659099666651 15.033132666543558 7.022820745750583 0 0 0
115 1 19.550860364488035 13.433940024608143 8.353390813543607 0 0 0
151 1 20.701304916821336 15.370135928425492 9.479539641569177 0 0 0
66 1 23.95314426377675 15.113776759899062 6.482470830979306 0 0 0
119 1 1.556396888019363 17.73439173513311 7.101661251350295 0 0 0
147 1 3.2931168514827176 16.211421417666607 8.812797196378366 0 0 0
120 1 7.957705689214737 17.912606478883227 6.895959110306561 0 0 0
156 1 9.707628517925867 16.17323266006334 8.430497403580988 0 0 0
123 1 14.426604736063222 17.978206567269815 6.906903532362277 0 0 0
158 1 15.965851526481568 16.427505887909987 8.395763889596887 0 0 0
124 1 20.503178160950593 18.325743378277444 6.634387206929296 0 0 0
117 1 22.473088524991987 16.913276104877937 8.151214027339268 0 0 0
342 1 6.454590240593643 19.650218439489578 8.20620848055044 0 0 0
273 1 11.27796267644694 21.129356360571116 6.98574411495092 0 0 0
12 1 13.020688780484473 19.787636084092725 8.881386968376647 0 0 0
275 1 17.372291084397244 21.26054136774635 6.599222829591454 0 0 0
31 1 19.014390265491812 19.885310810330452 8.508378020785436 0 0 0
277 1 1.8953572966057322 24.386653503678353 7.0189928141581905 0 0 0
279 1 3.0350384266948036 22.443302135034408 8.904943460521295 0 0 0
280 1 7.820420875142443 24.599223115120495 7.089719896230805 0 0 0
316 1 9.60087519275042 22.63831613331981 8.27225861935228 0 0 0
282 1 14.287263179844627 24.698010566446996 6.904788959280994 0 0 0
320 1 16.09122176338 23.19171215432869 8.174247730611505 0 0 0
284 1 20.781412036720226 24.56538955917881 6.671038125129248 0 0 0
995 1 22.476416120692033 23.053304702897655 8.127715681582272 -1 0 2
930 1 24.707073376875048 24.73555203815615 9.385646314435563 0 1 -1
286 1 4.804293287596318 27.665318890388015 6.913371353879795 0 0 0
281 1 6.262002139032403 26.119676813226697 8.900862430150628 0 0 0
289 1 11.215683313929205 28.049230081318846 7.357881188156849 0 0 0
319 1 12.564944177675176 26.26158647036253 8.81746045698132 0 0 0
290 1 17.371910345437865 27.475311238681755 6.632850159801047 0 0 0
328 1 19.370350163412017 26.25471769102537 8.24619799006027 0 0 0
293 1 1.7005788049607133 31.040648513950046 7.0217219351771165 0 0 0
287 1 3.5092456171746176 29.137227282818728 8.486959751761043 0 0 0
295 1 8.013225440023838 30.769154266165287 6.906215942887346 0 0 0
288 1 9.327173184517566 29.405546853682814 8.63019474036982 0 0 0
297 1 14.392527221123688 30.641318139736413 6.700068027194781 0 0 0
329 1 16.15930376492183 29.121482866917432 8.218505070187842 0 0 0
299 1 20.891774611881324 30.548357173126682 6.538869336509055 0 0 0
341 1 22.767772564242904 29.218297683109732 8.029349490064956 0 0 0
1421 1 23.96908704243327 31.090542038849158 9.39676454899854 0 1 1
343 1 1.1594921808242291 2.6686207682998235 10.126263888472474 0 1 0
332 1 2.944516015598443 1.159175444271725 11.48656059198988 0 1 0
345 1 8.045704930243616 2.935086543814985 9.78990259796367 0 1 0
337 1 9.614594237047243 1.1514334019881982 11.443302862580907 0 1 0
347 1 14.315799017340149 2.2636206446664997 9.80133220965234 0 1 0
355 1 16.019877225434005 0.7648417990162782 11.473483541333026 0 1 0
348 1 21.02552321918028 2.4225607392843633 9.916278173616872 0 1 0
340 1 22.548397078744554 0.7022777397262457 11.420060045148507 0 1 0
835 1 24.183586579478796 2.7364913299059936 12.481620873860043 -1 -3 1
126 1 4.443436353406347 5.757422844490363 10.177722811070382 0 0 0
5 1 6.252089829743713 4.211859843101035 11.32432236775748 0 0 0
163 1 7.941577908114328 6.0066844993104915 12.665157286959387 0 0 0
127 1 11.259214350045431 5.328960079197137 9.835555960371664 0 0 0
93 1 13.218329405379901 3.910004905830969 11.544054741741643 0 0 0
128 1 17.852175703729515 5.186848395054343 9.900380323153385 0 0 0
219 1 19.43191025280917 3.793788969179933 11.567423290447339 0 0 0
166 1 20.993400225002002 5.70691493317369 12.56483166291009 0 0 0
162 1 2.726592084363804 7.809568940727787 11.204786258791303 0 0 0
133 1 8.304852970318027 9.13993577224977 9.880782870574281 0 0 0
169 1 9.901737028520166 7.531459141717746 11.275806619643001 0 0 0
134 1 14.666953031958224 8.536089924238315 10.142545414824937 0 0 0
173 1 16.262320213101695 7.096598648927359 11.45468829198059 0 0 0
137 1 20.825899468394798 8.88817764150515 9.684901424014502 0 0 0
130 1 22.77809360722599 7.334159568747141 11.219438910059631 0 0 0
1371 1 24.168240083202804 9.026691646293836 12.730931379585924 -1 0 1
138 1 4.4287944911072605 11.879970385097275 10.080839890852403 0 0 0
177 1 6.543010222193682 10.477456732035177 11.585981942712401 0 0 0
140 1 11.233624536391977 12.057213392534756 9.60548171694825 0 0 0
172 1 12.65271621300189 10.275626496799322 11.262712998797987 0 0 0
180 1 14.593419744557627 11.975515740919777 12.675830850976512 0 0 0
142 1 17.461481163294728 12.164466922449197 9.631144944756338 0 0 0
143 1 19.021745105104827 10.399973908940463 11.2696172276043 0 0 0
182 1 21.172210405336184 11.907996366421887 12.68200780729068 0 0 0
813 1 23.897047971066534 12.207755899305775 9.628292851659793 0 -2 0
146 1 0.99844940354853 14.95052331898186 9.794986178362617 0 0 0
178 1 3.0643508138312194 13.638710210693189 11.398853382430028 0 0 0
149 1 7.942984821811671 14.748800435835827 9.672756608173385 0 0 0
139 1 9.766423054244111 13.30464218859674 11.312502146519432 0 0 0
150 1 14.5950178296751 15.044182342017974 10.000539773561721 0 0 0
181 1 16.30440173038049 13.672222220435218 11.327602368248884 0 0 0
144 1 22.41096317534367 13.793070257829482 11.185110901595301 0 0 0
1159 1 24.170133412370124 15.103008020259322 12.717787125578266 0 3 0
154 1 4.856071093341402 18.12513143352301 9.824292492278085 0 0 0
125 1 6.601194546464084 16.92727928032526 11.390774688985445 0 0 0
157 1 11.262999556876638 17.671276215606824 9.883578795072987 0 0 0
49 1 12.834784764062135 16.39766918682789 11.774647763751672 0 0 0
159 1 17.601105471689348 18.000717120439305 9.830452038397787 0 0 0
48 1 19.222668813735336 16.495379043506354 11.31306092270513 0 0 0
152 1 24.486742704842616 18.499123176172418 9.789389564042127 0 0 0
309 1 1.3751315152784416 21.231365102334138 10.1880416473813 0 0 0
217 1 3.081979373486467 19.391349979945034 11.697600870174746 0 0 0
310 1 7.938982190848674 21.166600110086854 10.027576137128092 0 0 0
184 1 9.879484465791933 19.599263975202682 11.307090718843487 0 0 0
311 1 14.898711802591604 21.36059367783013 10.27050319450305 0 0 0
215 1 16.404631026807472 19.33800777380501 11.568084011156735 0 0 0
314 1 21.095170890239746 21.30435721702535 10.045672914378665 0 0 0
1217 1 24.949787985128133 21.882078113164283 12.676084015376865 0 0 2
25 1 22.96658950597988 20.13797935459594 11.533420277695825 0 0 0
315 1 4.72706347017837 24.27522911501044 10.229191977121904 0 0 0
358 1 6.179886454441329 22.821091961827747 11.993054189253968 0 0 0
317 1 11.047512108984598 24.387533736192545 10.259174828913332 0 0 0
312 1 12.900457770245476 22.822479505978187 11.397375145515063 0 0 0
321 1 17.67280306996471 24.412390578259746 9.744439470265421 0 0 0
361 1 19.166195398672816 22.832692599881966 11.305663554764998 0 0 0
362 1 20.976381461469632 24.36279258836838 12.671325239597639 0 0 0
324 1 1.2924896869740543 27.978169393141343 9.746891164037544 0 0 0
325 1 2.6388965325507745 25.867415403038414 11.399711023490084 0 0 0
326 1 7.8245411066243955 27.548310347156175 10.297786224676386 0 0 0
318 1 9.546615820657676 26.04289802658254 11.725342203674261 0 0 0
327 1 14.546412518932689 27.610497024519567 10.115530467696717 0 0 0
370 1 16.029160530103965 25.79147135843464 11.57153396304479 0 0 0
331 1 21.38171205425222 27.56793497642274 9.637068284558833 0 0 0
372 1 22.925895865097992 25.733512488813737 11.024578715417935 0 0 0
334 1 4.710468177418243 31.03592588721773 10.11292763544376 0 0 0
335 1 6.364165643605109 29.44687343159636 11.775330275079027 0 0 0
336 1 11.179349598527565 31.09654354255651 9.742292495794745 0 0 0
338 1 12.678961958024782 29.009329712873132 11.456072934471777 0 0 0
339 1 17.887579703020645 30.749382730575725 9.76650449201285 0 0 0
330 1 19.597900012400014 29.01064897903352 11.15310616143002 0 0 0
365 1 4.767082212345496 2.2922009547031283 13.151392978269957 0 1 0
201 1 6.32451793068488 0.6804805916017254 14.988179534479139 0 1 0
616 1 7.974492190254639 2.585101746245936 15.782233858417257 0 1 0
346 1 11.32640065029032 2.397204436444489 13.074955013860547 0 1 0
765 1 13.145746851876961 0.6152174905564789 14.511726897475112 0 1 0
618 1 14.613558868428823 2.540183296059599 15.858339379336044 0 1 0
344 1 17.760199144576504 2.025516112383964 13.010473947103804 0 1 0
380 1 19.483252059624455 0.5636000658940097 14.712255898447733 0 1 0
161 1 1.7015230683197824 5.7912136617742025 13.102549389526729 0 0 0
234 1 3.327944772483406 4.160223059456623 14.632460090422772 0 0 0
368 1 9.506195878977326 4.251350597770981 14.376164646962387 0 0 0
164 1 14.738933601245268 5.794271271170347 13.078901945043894 0 0 0
6 1 16.20304499687623 4.062856384121407 14.405415022351947 0 0 0
612 1 22.790035162598496 3.997198374307993 14.246262341831747 0 0 0
400 1 24.075131277903182 5.522321103254838 15.823342997590926 0 0 0
168 1 4.747681306264145 8.713961762218773 13.095746368504521 0 0 0
153 1 6.50164087704602 7.235350420635225 14.64519675545701 0 0 0
171 1 11.240410063665871 8.852920149421314 12.976809272078151 0 0 0
193 1 12.915555048808644 6.978676499647487 14.44472795045335 0 0 0
174 1 17.75287416359033 8.63197095625701 12.967670705344181 0 0 0
46 1 19.549755917250135 7.357376511455442 14.336431398138535 0 0 0
176 1 1.650042879371995 11.975394922979737 13.145912803188319 0 0 0
568 1 3.133989375191386 10.430608550728989 14.527063026079952 0 0 0
409 1 4.858409887595687 12.088155718509421 15.78100750811523 0 0 0
179 1 8.102617084692895 12.11800253589812 12.972518712078173 0 0 0
192 1 9.845918822050992 10.578513604497541 14.597372265212075 0 0 0
26 1 16.148431697768586 10.36387790150849 14.36867798839276 0 0 0
579 1 22.754954982016063 10.234552445266024 14.520678423075498 0 0 0
155 1 4.828642402386206 15.21469749583501 12.803934747613845 0 0 0
583 1 6.522101158497871 13.896847555244522 14.382097580768395 0 0 0
91 1 11.108141553896795 15.045302311460901 13.159564998996213 0 0 0
187 1 12.857918016901696 13.637444068850687 14.23145702843029 0 0 0
183 1 17.75293336720741 14.843698239772712 13.279065728344074 0 0 0
466 1 19.59309613687813 13.187155135086153 14.492421425322966 0 0 0
165 1 1.3286306147753888 18.16027491142959 13.501697587417162 0 0 0
40 1 3.2942709341226233 16.69551345456864 14.575595416984052 0 0 0
35 1 8.258401354998437 18.370641749990995 13.226524599448668 0 0 0
471 1 9.645938700983656 16.77601955047041 14.772274995556192 0 0 0
87 1 14.571278740377284 17.766390985658084 13.285552363202838 0 0 0
473 1 16.254505923795264 16.592251374934214 14.959889515349776 0 0 0
78 1 21.319920958059686 18.085370754340673 12.913544302649427 0 0 0
575 1 22.78356949068555 16.32603901932425 14.600616723168596 0 0 0
1288 1 24.493559730530507 18.189708591242216 15.826925813941806 -1 0 0
349 1 4.340695528443195 21.13784162563848 13.45485965391427 0 0 0
122 1 6.301258137714694 19.71401012058886 14.909420024413915 0 0 0
351 1 11.315565866305484 21.401496102517456 13.349381363180047 0 0 0
572 1 13.207893503643781 19.890325412066233 14.898400263586721 0 0 0
353 1 17.967203473597024 20.994121652062084 13.028577325322717 0 0 0
194 1 19.801230467051745 19.796566691207346 14.463769606207567 0 0 0
356 1 1.0958720181540977 24.50370104694401 13.464190047014505 0 0 0
384 1 2.8549346558453648 23.08214176311276 14.940739968978772 0 0 0
359 1 8.257485136730637 24.19899883090865 13.053799849615523 0 0 0
775 1 9.682325583997024 22.762747558208034 14.807638776885621 0 0 0
360 1 14.262950761474869 24.27392899880398 13.102467358615927 0 0 0
742 1 16.319046948450175 22.83808964597408 14.510984311927098 0 0 0
389 1 23.08805414339514 23.233577512233815 14.429014106714193 0 0 0
366 1 4.578313588139019 27.383564018673574 12.843264513813358 0 0 0
272 1 6.277543776973309 26.08031550798576 14.412568415763372 0 0 0
369 1 11.423312175728626 27.643927054912396 13.433406944957266 0 0 0
774 1 12.822572579113006 25.78567891524414 14.874482457778992 0 0 0
371 1 17.993797527632136 27.66509165227204 12.891815666684966 0 0 0
375 1 19.39983034665019 25.78356133853938 14.477060989461913 0 0 0
605 1 21.55480499322122 26.922458569055095 15.845631030650347 0 0 0
1032 1 23.513218025948195 26.61239245844329 13.527156028578593 1 -2 -1
374 1 1.7113716549861315 30.924081028432454 13.101540743042374 0 0 0
228 1 3.0459604636959434 29.108570609594686 14.757477960804124 0 0 0
376 1 8.24861391316446 30.671899880530567 13.10540864388521 0 0 0
381 1 9.606183318622909 29.16836321605882 14.852339870994317 0 0 0
377 1 14.814964307078165 30.49619801544032 12.986902414667995 0 0 0
693 1 16.409867291922833 29.102159838484553 14.694686655215433 0 0 0
378 1 21.107864237485682 30.714527273781208 13.052721462052968 0 0 0
758 1 23.213110727951296 29.444055316319478 14.268500856962051 0 0 0
646 1 3.038541770222898 1.082496674734057 17.664401854943854 0 1 0
614 1 1.5162112367074714 2.8116541604930125 16.313857473891204 0 1 0
617 1 9.2858183770227 1.0475802508967045 17.72008342257051 0 1 0
619 1 16.10030877238247 0.9726099929709163 17.557811439238115 0 1 0
620 1 21.138521834200116 2.591519743218607 16.027934937477113 0 1 0
660 1 22.607182192818204 0.8889386768614786 17.591485651680777 0 1 0
577 1 6.232098232616605 4.196666362495919 17.68021778127507 0 0 0
394 1 4.771142097412772 5.7862073655145645 16.17185149640129 0 0 0
396 1 11.219547833648866 5.883892033367538 16.16105969604297 0 0 0
570 1 12.929012739721365 4.072119240774812 17.38072425720577 0 0 0
398 1 17.79780505708442 5.734112933538259 16.042292012776784 0 0 0
569 1 19.26067880648486 3.973367183551375 17.468940997999724 0 0 0
393 1 3.0887653839992084 6.994857635281635 17.67737406148119 0 0 0
401 1 1.4804507002486575 8.633209743751804 16.021936376595185 0 0 0
443 1 9.310348287885517 7.398616250881329 17.6231076370902 0 0 0
404 1 8.220372373610818 9.091927731795613 16.17368674784383 0 0 0
444 1 10.9822927564116 9.093519783379515 19.012766264292225 0 0 0
405 1 14.526531884139555 8.720522314670617 16.265958838886732 0 0 0
406 1 16.369578745145777 7.348196388658482 17.877015156492426 0 0 0
408 1 21.040967553105776 8.619230469799076 16.224640346059175 0 0 0
399 1 22.885353345466616 7.252337516772592 17.500481731006168 0 0 0
449 1 0.42019549466436956 10.36404945212316 17.77699132342846 0 0 0
403 1 6.331323523900857 10.379262829912907 17.504031524680293 0 0 0
412 1 11.160413855590065 12.327294382140316 16.08813204050253 0 0 0
445 1 12.84195793415751 10.554393474020062 17.394394047483836 0 0 0
453 1 14.613911547180683 11.86359448364642 19.02766518833449 0 0 0
414 1 17.84414544688614 11.779933340886709 16.031776644992597 0 0 0
407 1 19.32270131026575 10.08362067887248 17.800259782947514 0 0 0
167 1 24.190908468214438 11.738498840677076 16.24069665381232 0 0 0
418 1 1.465452762671321 15.290934902641114 16.259065345634546 0 0 0
451 1 3.5077939103527545 13.598618201135569 17.60501903266062 0 0 0
411 1 9.507622232212807 13.581623256803473 17.883225071979886 0 0 0
419 1 7.843412408375722 15.237941609449901 16.202764269207833 0 0 0
421 1 14.749008970801672 14.768439998851777 16.204508577663958 0 0 0
415 1 16.50338057590763 13.369032323648684 17.78035294954004 0 0 0
423 1 21.288705611742923 14.826078932263163 16.08757857405429 0 0 0
1274 1 24.69924388943798 15.068363191006318 18.928962860181258 -1 0 -2
455 1 22.70349850944808 13.410633890927867 17.720771021199056 0 0 0
465 1 5.845296297100939 16.85499668269263 17.83408894620031 0 0 0
426 1 4.096418241115751 18.598852832455883 16.128640716034717 0 0 0
428 1 11.465204401898871 18.039593021097886 16.549497571795783 0 0 0
422 1 13.329677147363437 16.509094804758888 17.994493449798178 0 0 0
431 1 17.872932705695213 18.25519350015282 16.01310918078148 0 0 0
462 1 19.566369149744435 16.59772551445743 17.390344723410195 0 0 0
556 1 2.9622115060293197 19.993227729977413 18.377940976107645 0 0 0
585 1 1.6194852797707944 21.55428620640577 16.55435043941054 0 0 0
587 1 8.045300269050863 21.104979468942354 16.41390074276098 0 0 0
581 1 9.713741702037764 19.768381994442827 18.201633471309464 0 0 0
588 1 14.69601040523566 21.536596509692743 16.3411136455531 0 0 0
567 1 16.34798591774874 19.993768594103123 17.56707482209302 0 0 0
590 1 21.477973743544805 21.4066286489153 16.157775233796436 0 0 0
604 1 23.21592975153782 19.956750267634256 17.60664524195292 0 0 0
624 1 6.397010884774598 23.06055740013072 17.731512671436242 0 0 0
593 1 4.9144416310958015 24.683821634068288 16.204863965535324 0 0 0
594 1 11.153400415349298 24.472946374081097 16.77752752523905 0 0 0
627 1 12.710809947336873 22.883925023258243 18.017257799567446 0 0 0
598 1 17.74536464833472 24.37248270090248 16.143186170062933 0 0 0
630 1 19.66271906875606 22.802384504401076 17.72338347482406 0 0 0
592 1 3.118535425865428 26.04808578734516 17.824524198216082 0 0 0
600 1 1.157466762125431 28.007332707709224 16.572431614422477 0 0 0
602 1 7.876608615071049 27.89032301655711 16.483654322457824 0 0 0
595 1 9.670176262365548 26.248158751277415 18.149182873758704 0 0 0
603 1 14.450750510565584 27.78804949857833 16.157133317297287 0 0 0
596 1 16.012847214554817 26.171950753859058 17.387354620931283 0 0 0
642 1 17.89992155797567 27.84800176927034 18.667055895309943 0 0 0