LAMMPS data file via write_data, version 29 Oct 2020, timestep = 1082

1539 atoms
1 atom types

0.2937492411864504 49.806931486476515 xlo xhi
0.18647718587998163 31.618316300687134 ylo yhi
0.18647718587998163 31.618316300687134 zlo zhi

Masses

1 18.015

Atoms # atomic

229 1 4.263941915487992 1.7940546094613925 3.0691048968061465 0 1 0
622 1 6.22234270002566 3.1690105415534453 1.2935840614046779 0 0 0
230 1 11.084569284011499 1.285327812714869 3.174454302358236 0 1 0
387 1 12.810773213963978 2.7673391561551974 1.7254710763785055 0 0 0
231 1 17.394860660770792 1.3259320426916898 2.9534609205606523 0 1 0
191 1 19.055455710032067 2.9735071671364364 1.4511133573070363 0 0 0
233 1 24.180616879593092 1.7513994927477547 2.8913613969122394 0 1 0
3 1 1.2081224334813667 4.708051217267755 2.559080306982172 0 0 0
196 1 3.360757377812704 6.188709192386938 1.051266805639738 0 0 0
7 1 8.121348966894633 4.529711897639001 2.7446475594431283 0 0 0
429 1 9.575112845367498 6.336481915365274 1.237091333642152 0 0 0
8 1 14.187531265619356 4.614828305652385 2.8275200389658286 0 0 0
44 1 16.021588141527836 6.143155474181569 1.3450005097514415 0 0 0
11 1 20.765603094381127 4.364642591416135 3.0006957115423907 0 0 0
578 1 22.524146434221496 5.914015213392441 1.5418265215344353 0 0 0
13 1 4.816477203249261 7.380937082238955 3.0919915746815936 0 0 0
42 1 6.667871564346477 8.828058406527608 1.5811422881211945 0 0 0
15 1 10.863201446767627 7.945277534919527 2.853292262206499 0 0 0
185 1 12.603202023952154 9.37330081429898 1.2115400219886638 0 0 0
16 1 17.860360911381083 7.870614871537634 2.672448623049876 0 0 0
188 1 19.530832011737726 9.62759401832855 1.0286411048821984 0 0 0
18 1 24.541441451430387 7.45024891632858 3.1004828069780888 0 0 0
19 1 1.5978857419480539 10.949081605713603 2.8160950961913263 0 0 0
576 1 3.51607280841832 12.610611125620943 1.6885482251503001 0 0 0
20 1 7.971986422935386 10.859614979561002 3.124218649456629 0 0 0
397 1 9.310143461401625 12.3821076708424 1.2497242251567175 0 0 0
22 1 14.079300518570067 10.892937986251846 2.6873612740622956 0 0 0
189 1 16.012688820378976 12.35889736360155 0.9507030879509182 0 0 0
23 1 21.097285109092255 11.114382224522087 2.7118374281990216 0 0 0
14 1 22.854607338748316 12.272573987612251 0.8079499964389666 0 0 0
27 1 5.155760508765106 13.917550915472875 3.629503340213155 0 0 0
584 1 6.350063259452078 15.195547562428855 1.3005933139278616 0 0 0
29 1 11.24773665038523 13.785182487930017 2.7796811872099187 0 0 0
186 1 12.969861073953046 15.48312851040876 1.076187751230003 0 0 0
32 1 17.657529065329747 14.122720871998009 2.439868475581618 0 0 0
582 1 19.36386010911588 15.802841051543398 0.8159574691630236 0 0 0
378 1 21.076011224449065 29.561665497981537 15.242847441080837 0 0 0
33 1 23.849518383780847 13.977080786309898 2.4660388464231837 0 0 0
34 1 1.498788627767252 17.246954332436964 3.2110101435139873 0 0 0
36 1 7.788009742659907 17.00153602368035 2.9262842974673324 0 0 0
766 1 9.520775551326038 18.61711160198773 1.473033585390748 0 0 0
39 1 14.533005154951569 17.13714900038869 2.517729796681483 0 0 0
364 1 16.111833261906796 19.006896776384572 1.2669824761830408 0 0 0
41 1 20.96127799335129 17.26043649354967 2.6103920082674366 0 0 0
759 1 22.73184053712772 18.62419182697176 1.1329300566578997 0 0 0
195 1 3.0852234198064887 18.237039362899644 1.318108699695268 0 0 0
197 1 4.877875784180326 20.217156584649466 2.557348227214396 0 0 0
771 1 6.779403550029569 21.96643698332246 1.1062533566785613 0 0 0
199 1 11.445149780166728 20.02530692533771 2.874805465671194 0 0 0
772 1 13.00251937953836 21.768478117469186 1.3689770187429735 0 0 0
200 1 17.630487396097895 20.662912479336832 2.780777853057526 0 0 0
1 1 19.176210678288232 21.852810651472936 1.0671071902970666 0 0 0
202 1 23.955449485515107 20.155973445391503 2.898623900051678 0 0 0
203 1 1.8343279125400311 23.74690350350346 3.055090751933866 0 0 0
776 1 2.885774517726541 25.22066622598281 1.016239975215469 0 0 0
205 1 7.92110990130607 23.660413845603728 2.939361689322066 0 0 0
769 1 9.776388138722316 24.86325299736658 1.327026882868183 0 0 0
207 1 14.545070198087693 23.708509865413326 2.4569113703712193 0 0 0
777 1 16.45852616197196 25.135933725530677 0.9251317875670372 0 0 0
209 1 21.107261193031448 23.469097142477324 2.610747717051315 0 0 0
767 1 22.637431949908045 25.154946533892094 0.8773281712138589 0 0 0
212 1 4.672641441186281 26.747011068939933 2.7191382445906314 0 0 0
213 1 11.32580653397005 26.800902482457403 2.796573615600991 0 0 0
392 1 12.764239432309264 28.026222183357135 1.0731568414464538 0 0 0
216 1 17.862826682481003 26.516919886397325 2.7688198616240154 0 0 0
770 1 19.52223316120073 28.052299006751632 1.1949587203889933 0 0 0
218 1 24.167365567951222 26.524370995640183 2.4135759096471125 0 0 0
220 1 1.0326630950819262 29.975412647882145 2.4785902358151923 0 0 0
2 1 2.9758817884548665 31.52792571457136 1.6191627870869323 0 0 0
621 1 6.234863133165027 28.073175118258895 0.8103204495578881 0 0 0
222 1 7.645300577551636 29.41690154547117 2.9438580980421114 0 0 0
661 1 9.282373826567929 31.22761946390108 1.5026939503458543 0 0 0
225 1 14.435503882179445 29.43856922329563 2.741823268709456 0 0 0
390 1 15.80593293213482 31.00550657501121 1.227488759212271 0 0 0
227 1 20.866326489033117 29.706867476169286 2.9729408600008123 0 0 0
383 1 22.62003125730111 31.350621823918516 1.5345734990696414 0 0 0
264 1 1.0467118717123332 1.9537075102762032 6.1302771253752555 0 1 0
265 1 5.885113685739136 31.206079935955934 4.090140569049548 0 0 0
266 1 7.362600829324618 1.4194651423071254 5.893320586569337 0 1 0
268 1 14.515838690504568 1.2861510075148994 6.075992909808024 0 1 0
270 1 15.817416050496798 3.017814441289685 4.593891043929157 0 0 0
269 1 20.769592439498528 1.7437766176113394 6.364545711162001 0 1 0
129 1 22.298493617232634 3.075902008152163 4.7395665158366524 0 0 0
352 1 2.6510346846200075 3.4432272494142366 4.619807569003483 0 0 0
43 1 4.56598819733645 5.156109772856568 6.026256631103503 0 0 0
55 1 6.754366704445147 6.067197589189632 4.366377968296888 0 0 0
10 1 9.315865037505207 2.976645884454034 4.538707744409569 0 0 0
45 1 11.069737432889399 4.316913855661799 5.924770742590495 0 0 0
57 1 12.588739128938967 6.29360042504708 4.432140730479381 0 0 0
47 1 17.306492540748412 4.4274861396034035 6.082371742879996 0 0 0
50 1 24.181612268686 4.4878335034298855 6.5895304700163955 0 0 0
52 1 1.2789676791288422 7.909271053829557 5.596806202122019 0 0 0
54 1 3.3301121035011296 9.428727433332147 4.282682722972592 0 0 0
56 1 7.803433360429251 7.9379038855945545 6.1490892779265 0 0 0
21 1 9.428478042897884 9.279667537038693 4.524843536483939 0 0 0
58 1 14.438145116172706 7.753928883896879 5.848877226036403 0 0 0
17 1 19.124154401632186 6.014313937206732 4.369139782350697 0 0 0
60 1 20.332927954864175 7.904087469798177 6.143519708670544 0 0 0
24 1 22.568073144958664 8.99434799306932 4.233309812854257 0 0 0
61 1 4.65284242409097 10.86163062660674 6.035887085555551 0 0 0
28 1 6.942006763665078 12.472571302204813 5.145583481169958 0 0 0
63 1 10.83481010909591 10.865289733688387 5.794603016081321 0 0 0
30 1 12.608410009060028 12.442772696410213 4.512821944958857 0 0 0
64 1 15.731469452437445 9.549390561313405 4.27077526101064 0 0 0
65 1 17.281237352713998 11.186520835279339 5.626016972577815 0 0 0
73 1 19.07328843999215 12.585124544872828 3.9858643661043893 0 0 0
66 1 23.933804941622814 10.411503712278195 6.29245215144971 0 0 0
68 1 1.390890833814823 13.870070215307416 6.072175015256466 0 0 0
75 1 3.1322886263871412 15.70085436348802 4.774463175234261 0 0 0
70 1 8.586054119464308 14.386469667598623 6.493202610028227 0 0 0
72 1 14.509022536352347 14.23050782214336 5.660238238886707 0 0 0
38 1 15.977051244415094 15.687457719030284 3.985013392507809 0 0 0
74 1 20.895401610097803 13.97988233096958 5.748549310710905 0 0 0
81 1 22.222704988948855 15.518545821246462 4.356378752329825 0 0 0
76 1 4.754264350862269 17.375628745338467 5.830432319783565 0 0 0
37 1 9.68455686578133 15.669878354392472 4.30237526292563 0 0 0
385 1 6.490886698048227 19.0197642944129 4.4723215087428105 0 0 0
77 1 10.814308556029921 17.342247726107615 5.751805151857533 0 0 0
274 1 12.802276389415225 18.323525407674886 4.172388021063047 0 0 0
80 1 17.64224477093255 16.843410552675913 6.082409354888988 0 0 0
386 1 19.26127062340789 18.758353205175204 4.276744559867052 0 0 0
82 1 24.36591164281589 17.063318291743016 5.817844971593046 0 0 0
235 1 1.7954980841238617 20.468633785691004 5.85991993307911 0 0 0
236 1 7.89071880351677 20.477598832305354 6.054193704757597 0 0 0
206 1 9.487925378331763 21.675878321179454 4.325003295487447 0 0 0
237 1 14.461620536036571 20.232798219460804 5.832432419864281 0 0 0
208 1 16.0351581523013 21.98768662063928 4.453349585644364 0 0 0
238 1 20.684649029277065 20.277020555868184 6.087392184365027 0 0 0
210 1 22.48531961921037 21.865749620718248 4.62088954753863 0 0 0
240 1 3.618449708048658 22.196214175284837 4.288307643008618 0 0 0
241 1 4.785950979352419 23.732881905100093 5.846497435405949 0 0 0
204 1 6.32161949341374 25.454042162291273 4.31094426722625 0 0 0
243 1 11.31259212969241 23.43865727427891 5.985213197112417 0 0 0
214 1 12.907992925954902 25.27122658973125 4.272555823265856 0 0 0
254 1 19.354809207256515 24.780564401808206 3.9466084619060036 0 0 0
246 1 24.211683440516357 23.699261983269693 5.653475778810171 0 0 0
247 1 1.6033549298395926 27.162089345955934 6.188947910173984 0 0 0
248 1 3.0679150046715664 28.869210646343035 4.4519382500766485 0 0 0
249 1 7.941011737251048 26.528866737523543 6.361746792641204 0 0 0
223 1 9.439894144346901 27.77646124773458 4.307085688479778 0 0 0
252 1 14.260311198957035 26.832521104292752 6.0261745497159325 0 0 0
259 1 16.02115890037524 28.103005367649338 4.396908843172068 0 0 0
255 1 20.62745075733198 26.521882154676263 5.630124576340242 0 0 0
261 1 22.783055086740422 28.151733772535366 4.1375102500861765 0 0 0
256 1 4.199079456207448 30.13979920364966 6.074290371354151 0 0 0
258 1 10.646751057467567 29.594311762834394 5.869060580330053 0 0 0
224 1 12.853070424617282 31.24950148743892 4.633760027446969 0 0 0
260 1 17.86801510703813 29.645712439859963 5.903112235956521 0 0 0
232 1 19.26072486881141 0.23556095384120565 4.449229055741444 0 1 0
262 1 24.13801210147392 30.053119163120243 5.718988054976328 0 0 0
300 1 4.111295582253456 1.4255326255081446 9.344466837255114 0 1 0
382 1 5.773410471594293 3.007227530616942 7.647082141953086 0 0 0
302 1 11.069877628713712 1.3813474636952623 8.802836660653538 0 1 0
190 1 12.912851200208705 2.902264245901085 7.488742952772391 0 0 0
305 1 17.77191380723198 1.0896790525792373 9.11385490991932 0 1 0
9 1 19.016662512964054 2.969590634646941 7.828046707745678 0 0 0
308 1 23.715717822837185 1.4496541472713185 8.702133096885042 0 1 0
83 1 1.3939365212444195 4.883562248241625 9.428086035855431 0 0 0
84 1 2.7234534706234386 6.689348646557655 7.633416655189016 0 0 0
85 1 7.9124794384604344 4.515693436703817 9.33858069763896 0 0 0
97 1 9.445639445133054 5.9205859770613465 7.2982955485738 0 0 0
89 1 14.481722201512467 4.317749640041018 9.17932074021837 0 0 0
59 1 15.956968300261705 6.135546035601681 7.342889693561989 0 0 0
92 1 20.822382079963585 4.631712388652016 9.073181152586121 0 0 0
51 1 22.378270314553653 6.388662722138375 7.615987435053197 0 0 0
96 1 4.2914699535994565 7.705651679249959 9.57262283564687 0 0 0
102 1 6.09016146441684 9.170508979690622 7.890712118364322 0 0 0
98 1 10.938206192342598 7.4656626502728445 9.000677231254658 0 0 0
62 1 12.500079549037215 9.36831974858776 7.306961833557535 0 0 0
99 1 17.545462109107948 7.948765048424721 8.81697444034327 0 0 0
107 1 18.800004790902147 9.79487634545836 7.418291486015871 0 0 0
100 1 23.697020893596736 7.728666304339789 9.939965445206067 0 0 0
101 1 1.3144030668719757 10.486074340947726 9.11762084961625 0 0 0
67 1 2.824898218250484 12.390211412565867 7.659607897555295 0 0 0
103 1 7.97765011048258 10.630697720158524 9.42910348183028 0 0 0
112 1 9.636532316656814 12.138996378080213 7.953643090028504 0 0 0
105 1 14.073693018407717 10.812656528787675 9.406466799125532 0 0 0
71 1 15.520009193450694 12.285698836683396 7.368562896789125 0 0 0
108 1 20.9518747621366 11.142944086917058 9.296171691181316 0 0 0
116 1 22.594214202109224 12.43056664247011 7.613524974761822 0 0 0
111 1 4.5522440201872465 14.13238324342781 8.950536340040687 0 0 0
69 1 6.184283347045641 15.683844118612118 7.457710981715049 0 0 0
113 1 11.231100730103796 13.931391601999085 8.950480910110056 0 0 0
121 1 12.56765200025249 15.412629825858193 7.1104498499153905 0 0 0
114 1 17.406999394993182 13.69909118247664 8.889808304924511 0 0 0
117 1 24.667426835288623 13.944418284129465 9.138732811109554 0 0 0
119 1 1.1405499713917657 17.152695513246826 8.713466233039167 0 0 0
313 1 3.0359549026834998 18.87700795999517 7.591953618880518 0 0 0
120 1 7.819321740531624 17.210965511287917 9.055945785572147 0 0 0
363 1 9.397907232527581 18.657227270106503 7.533269922135337 0 0 0
123 1 14.208271493137605 17.20620184542105 8.780338177614409 0 0 0
198 1 16.206689721060982 18.63887879613761 7.172205026745825 0 0 0
79 1 19.36847002137077 15.348151995008646 7.668919968833639 0 0 0
124 1 20.94236707297786 16.890254741756017 9.101032846160031 0 0 0
239 1 22.401393220578356 18.500577755283516 7.437777414871778 0 0 0
271 1 4.693249445198414 20.364873883796896 9.143191847607296 0 0 0
242 1 6.1716826166651515 21.831783844102524 7.405139974244934 0 0 0
273 1 11.21097226860278 20.34475654834982 8.943505133201068 0 0 0
275 1 17.4848031379537 20.166303177389715 8.910873968689751 0 0 0
283 1 19.11367610416528 21.858688091336404 7.483791320964235 0 0 0
276 1 23.96880420420903 20.10536012223998 8.877965978911641 0 0 0
277 1 1.4586202280109817 23.24051306417809 8.897217135723066 0 0 0
278 1 2.8844079812002703 25.142486033272952 7.454597932695451 0 0 0
280 1 7.613030703876631 23.53936541028032 9.220823050973491 0 0 0
244 1 13.079399346351186 21.65027192738811 7.728863529312524 0 0 0
282 1 14.577647243303689 23.22275181703624 9.004721802849476 0 0 0
245 1 17.69065643260134 23.820031875897946 5.84338511568678 0 0 0
253 1 15.973544944622775 25.18107046934606 7.610688980281921 0 0 0
284 1 20.871951366951787 23.592302109446784 8.521037298180643 0 0 0
285 1 22.456574988341814 25.18221450576094 7.123746419389281 0 0 0
286 1 4.507863711253073 26.808655946797842 9.079624846413362 0 0 0
294 1 5.849842302729338 28.217947169862235 7.415628948360233 0 0 0
250 1 9.552067155818076 24.768579684462097 7.63159302800105 0 0 0
289 1 10.991063781750313 26.572834935251393 9.107132036764465 0 0 0
251 1 12.617459302093538 28.319104627168123 7.589926949867758 0 0 0
290 1 17.728159460878036 26.776408523112735 9.283422199162915 0 0 0
298 1 19.36492408263178 28.110761824288858 7.553177355025264 0 0 0
292 1 24.138735451863507 26.66579739582925 8.795520055504332 0 0 0
257 1 2.2806242246079043 31.4372271830378 7.705424636916801 0 0 0
293 1 0.8295249288255605 29.68364337544927 9.267369919218192 0 0 0
295 1 7.768969228780595 29.62350763845069 8.793503767479285 0 0 0
301 1 9.007979031893647 31.466517161909877 7.440406953707687 0 0 0
297 1 14.5023411680593 29.969181384162347 9.016286190964362 0 0 0
303 1 16.176729492410626 31.28824922187608 7.388236620411335 0 0 0
299 1 21.112342028166914 29.61445451875742 9.336906693435091 0 0 0
307 1 22.062533543116945 31.236816528398556 7.354336822244745 0 0 0
391 1 2.6252041131103203 2.9264697688349646 11.140491050500179 0 0 0
343 1 0.8549422433465179 1.186357738513082 12.575383436033322 0 1 0
345 1 7.599410054415051 1.3364141890711583 12.311164006915043 0 1 0
367 1 9.31874157618597 2.5711423977415313 10.51601311438078 0 0 0
347 1 14.284104925770324 1.145547402964048 12.160954073425206 0 1 0
388 1 16.013772941303927 2.6935736935891503 10.750367000006172 0 0 0
348 1 20.886125010477933 1.5843164939826744 11.936267759724952 0 1 0
221 1 22.701951430591762 3.271786299331598 10.545965321900349 0 0 0
126 1 4.242599445655266 4.5564793041353955 12.891441870842058 0 0 0
86 1 6.0226209818576155 6.100016752776492 10.836706075988277 0 0 0
127 1 10.856236479698218 4.479752188680156 12.301880812643914 0 0 0
90 1 12.695672992498075 5.907246024545362 10.620475543753615 0 0 0
128 1 17.78514841969459 4.544044216338524 12.469189468054653 0 0 0
135 1 18.985516334995626 6.368706412409385 10.628286707345863 0 0 0
130 1 24.291340264503624 4.604056463783846 12.512349863698514 0 0 0
132 1 1.0581442023313212 8.27147782305754 12.562373873831778 0 0 0
95 1 3.098903188376633 9.637399694426406 10.836098660878662 0 0 0
133 1 7.526999566596212 7.657230972771242 12.409099164608206 0 0 0
104 1 9.472597319226702 8.992796006233178 10.984136295721386 0 0 0
134 1 14.402525825234822 7.241275960090739 11.983699322952534 0 0 0
106 1 15.844559173830662 9.229467631918212 10.636592382321682 0 0 0
136 1 21.11447127858446 7.413088743744109 12.40904818855904 0 0 0
109 1 22.262802709226186 9.543845193404078 11.116563594111186 0 0 0
340 1 22.40768117619131 31.39387290591653 13.449287443310636 0 0 0
138 1 4.533114485998715 11.112890959045796 12.655769908530294 0 0 0
148 1 6.005696457839472 12.491108599752001 10.690928675569223 0 0 0
140 1 10.886892933793584 10.841836427481393 12.402246808200974 0 0 0
141 1 12.532472532497993 12.423674954360106 10.780486725861593 0 0 0
142 1 17.56875415498407 10.687790719808037 12.518930973620382 0 0 0
115 1 18.778163651437502 12.358924676546946 10.980428810379516 0 0 0
145 1 24.207321473504603 11.328886447383857 12.264802570743754 0 0 0
146 1 1.9025559633380813 14.143453777868043 12.071227836571685 0 0 0
147 1 3.01942353308789 16.238319033653333 10.417829042834526 0 0 0
149 1 7.7491877075194875 13.990230629967533 12.286137607673158 0 0 0
156 1 9.269819461493062 15.407737046360618 10.470903344311056 0 0 0
150 1 14.418991720608583 14.02525273022557 12.206459400068127 0 0 0
158 1 15.819541164403208 15.456433866888537 10.474960895691588 0 0 0
151 1 20.687518648252585 14.039337835747633 12.250769431935705 0 0 0
152 1 22.652682365170367 15.040157204218323 10.537585100465494 0 0 0
154 1 4.78798985990963 17.384614862565428 12.461851652764732 0 0 0
342 1 6.273204423071353 18.785921399156784 10.65949455698217 0 0 0
157 1 11.047559219363855 16.675064775838095 12.360616379310624 0 0 0
159 1 17.661985147020914 17.047990241683436 11.790123989090514 0 0 0
31 1 19.34460935561162 18.57655657393962 10.535309102283108 0 0 0
160 1 24.350323442728186 16.7042358399026 11.957213030117748 0 0 0
309 1 1.2635133591894872 20.109369727319304 12.056720732591062 0 0 0
279 1 2.9409543450713542 21.915000440757765 10.801855146827235 0 0 0
310 1 8.266710245733666 20.36230958288968 12.316590983606416 0 0 0
316 1 9.562133245839808 22.00297792326797 10.653631242060756 0 0 0
12 1 12.48384386383047 18.496486844662726 10.312646808129966 0 0 0
311 1 14.467587870385655 20.462419800222712 12.116420223642312 0 0 0
320 1 16.14122280572279 21.83993420963793 10.737564996797508 0 0 0
314 1 20.508275025896598 20.39404599188017 12.095161745507994 0 0 0
322 1 21.912068297639447 21.58473487075816 10.209945476149729 0 0 0
315 1 4.803623800188018 23.617551305957157 12.411455285411606 0 0 0
281 1 6.059402155433886 25.439079943927446 10.678857004012578 0 0 0
317 1 11.435177256387892 23.784930704939576 12.56027931894636 0 0 0
319 1 13.190655913734483 24.9869511139876 10.54695470259437 0 0 0
321 1 17.783631126947835 23.64833715722446 12.231326512666316 0 0 0
328 1 19.497282292671297 25.067007163230137 10.617533555452578 0 0 0
323 1 23.603565079123076 23.559643421423353 11.579352393881317 0 0 0
324 1 1.3838913143119718 26.59454844399611 12.538198809787513 0 0 0
287 1 2.853399916160952 28.53061604201867 10.83973291724476 0 0 0
326 1 7.914974328375697 26.531220745101763 12.484271174340394 0 0 0
288 1 9.190073830303946 28.03095750307086 10.61242519505923 0 0 0
327 1 14.602114984240126 26.776250258455804 12.27807288735629 0 0 0
329 1 16.18938237038501 28.22350233162617 10.737428326662744 0 0 0
331 1 21.241834584752276 26.668989253159808 12.161941470954043 0 0 0
291 1 23.100771035257065 28.202604161739444 10.819489567967198 0 0 0
334 1 4.741010158655515 29.919766962644275 12.215771044814439 0 0 0
296 1 6.149966842127736 31.394163524089365 10.290146007496537 0 0 0
336 1 10.77347794187319 29.590585165697576 12.272382093640035 0 0 0
304 1 12.419044396792653 31.261669730863467 10.419533164850142 0 0 0
339 1 18.04999061731032 29.706327913777187 12.469807134767985 0 0 0
306 1 19.39246574435392 31.13862776312719 10.763703257700485 0 0 0
341 1 24.57860901815375 29.845923162750395 12.239712413483732 0 0 0
365 1 4.897240845324078 1.5692787619186344 15.827885544757418 0 1 0
5 1 6.175382064449054 3.0377131558888926 14.039831813896324 0 0 0
346 1 10.941021931128633 1.1874041658829124 15.371015632168454 0 1 0
93 1 12.593810827274659 2.9869765218880286 13.759784843597735 0 0 0
344 1 17.73273694866808 1.2901626674117275 15.202123398496822 0 1 0
219 1 19.335824854799153 2.930932723936751 13.822564777554682 0 0 0
267 1 24.33664841526906 0.876346062128038 15.42790285507931 0 1 0
161 1 1.354862511337415 4.491832976448046 15.777893948929588 0 0 0
162 1 2.4057907463876735 6.46447109892167 14.04004269473011 0 0 0
163 1 7.713264259748693 4.567654521246983 15.531353253082225 0 0 0
169 1 9.29931641879828 6.05598950864262 13.946808018163344 0 0 0
164 1 14.18834592782873 4.224960703875956 15.255324981374084 0 0 0
173 1 15.81454243321622 6.122384617617493 13.88628195963555 0 0 0
166 1 20.877224863657677 4.629082168609222 15.296928874246419 0 0 0
137 1 22.62842745658522 6.046367462132827 14.18833824365006 0 0 0
168 1 4.187017554881317 7.648707553326472 15.63885836721008 0 0 0
177 1 6.045141421052566 9.142620250958615 14.274923805999626 0 0 0
171 1 11.034822947000686 7.5325841621423395 15.314414861180934 0 0 0
172 1 12.799721958859195 8.997851857664873 13.469863491284968 0 0 0
174 1 17.239701011258536 7.8382188418042364 15.335319810987865 0 0 0
143 1 19.506497652806 8.925317097807728 13.91903940537257 0 0 0
175 1 24.31915446613753 7.752526137290879 15.605955315107309 0 0 0
176 1 1.5544206240080893 11.239023585600423 15.60070345463159 0 0 0
178 1 3.1397496338408972 13.028496534317824 14.101773951625146 0 0 0
179 1 7.773799537353823 11.075647726898648 15.53569436214321 0 0 0
139 1 9.330730548275122 12.580106813426209 13.88551558629707 0 0 0
180 1 14.260420807901603 10.867230997370031 15.412159216547796 0 0 0
181 1 15.685922324460996 12.324041172650162 14.06487335549253 0 0 0
355 1 16.2067135228376 31.267586028576474 13.581137023099053 0 0 0
155 1 4.5854972413072 14.439123542631194 15.802280518027905 0 0 0
125 1 6.243177177118817 15.555920387024676 13.78266397233695 0 0 0
91 1 11.001381490034113 14.362460597385596 15.23570153015354 0 0 0
49 1 13.142371314325645 15.705033763271606 13.925957799044733 0 0 0
183 1 17.437160425125505 14.20524864387892 15.333074230061927 0 0 0
48 1 18.85641675777918 15.554778454696134 13.570936851301223 0 0 0
144 1 22.104025157049644 12.463225314056167 13.786607874015196 0 0 0
167 1 24.13176253223702 13.422272535863943 15.215381150376116 0 0 0
165 1 1.2823972323238508 17.72127816489151 15.033746145317254 0 0 0
217 1 3.362672392713898 18.83703124187577 13.859212493334526 0 0 0
35 1 8.11644371979185 16.973992661688925 15.26171428960896 0 0 0
184 1 9.948397711781192 18.634944416597847 13.925529260092091 0 0 0
87 1 14.660602889268311 17.497009625541338 15.30778751394995 0 0 0
215 1 16.383380411926026 18.75306075012825 13.397369633754069 0 0 0
78 1 20.539748839432367 17.476010249722343 14.7873720537232 0 0 0
25 1 22.657645444981338 18.76255296068735 13.265799086274665 0 0 0
349 1 5.0878569129511275 20.153080761981364 15.336253772676233 0 0 0
358 1 6.718485821173016 21.873064536204538 13.899299591920068 0 0 0
351 1 11.566707588863398 20.03021781846546 15.810483695745951 0 0 0
312 1 13.056104671382153 21.729160330836613 14.123341732912069 0 0 0
353 1 17.649932165647602 20.240841278824938 15.076243939672535 0 0 0
361 1 19.326703283619924 22.060543924138102 13.758575165355488 0 0 0
354 1 24.381213351353402 20.334355282263864 14.94692949022813 0 0 0
356 1 1.4956195447144325 23.351905004779148 15.1811194649128 0 0 0
325 1 3.3305016834609544 25.128733174502102 14.114139888237576 0 0 0
359 1 7.950809039443796 23.44528802659093 15.459762557084218 0 0 0
318 1 9.86826201002482 25.245962650883477 13.924942535787382 0 0 0
360 1 14.667063392084417 23.360237014250806 15.793376472414254 0 0 0
370 1 16.057200217565384 25.060784911480326 13.891029337342948 0 0 0
362 1 21.030984107532078 22.991185614117917 15.446007958992748 0 0 0
372 1 22.771540492540897 24.718394713420636 13.888918626538903 0 0 0
366 1 5.036156091329633 26.760322715184934 15.694320854272629 0 0 0
377 1 14.667011652661916 29.87823918437492 15.565763490147738 0 0 0
338 1 12.953664295139253 28.340159726333496 14.16715620284951 0 0 0
371 1 18.01509210783219 26.34617310215414 15.378181745314691 0 0 0
330 1 19.5801318876137 28.025652715631814 13.637251267645015 0 0 0
373 1 23.829311038448374 26.742410955475144 15.602792204685468 0 0 0
332 1 2.9753140472563087 31.557931913811757 13.89355441045186 0 0 0
374 1 1.4232493808873647 29.581241009544613 15.513300262734163 0 0 0
335 1 6.384368693755985 28.28567871666604 13.806922866683777 0 0 0
376 1 8.105910782917796 29.626294381907947 15.526385674471973 0 0 0
337 1 9.402746819145246 31.33117279708857 13.997449999668172 0 0 0
747 1 0.9324374411031385 1.4985949706903947 0.1922717075536621 0 1 1
520 1 5.397898829557666 10.785792344063877 0.3392258932616913 0 0 1
369 1 11.613704472552328 26.498052627756024 15.648060925032674 0 0 0
182 1 20.70185155313611 10.550864582146922 15.510871697196299 0 0 0
614 1 1.2811487314226966 1.8943269573015162 18.9870017107837 0 1 0
234 1 3.051344834423085 2.967016806118444 17.185210375757073 0 0 0
616 1 8.0055689608653 1.22719468668265 18.69528317663851 0 1 0
368 1 9.342733609892754 2.8237412397451833 16.91281532392108 0 0 0
618 1 14.484879892037291 1.0925209311741646 18.480965919722735 0 1 0
6 1 16.015659806555107 2.7386539896031126 16.694013618345046 0 0 0
620 1 21.07909158412592 1.3385076281202324 18.09531142794814 0 1 0
612 1 22.902408922136086 2.959277329487988 16.801903812630748 0 0 0
394 1 4.461932091344273 4.580075380783724 18.8856468469319 0 0 0
153 1 5.738956050224462 5.920458241082165 16.996432082243757 0 0 0
396 1 10.676690406166632 4.77904816484446 18.519109374974306 0 0 0
193 1 12.644180810629514 5.8160701451979255 16.848619072688876 0 0 0
398 1 17.759273032249098 4.246391290341957 18.33012033256619 0 0 0
46 1 19.111960282403963 5.988536588382074 16.876152745887964 0 0 0
400 1 24.30355774552971 4.425440524274987 18.459297069569843 0 0 0
401 1 1.3286082052853454 7.790231733416442 18.82443573007391 0 0 0
568 1 2.856872887773007 9.351589865543355 17.07861477948738 0 0 0
404 1 7.6480636964679976 7.812827193658241 18.249956620492895 0 0 0
192 1 9.390143210449692 9.352567626851403 16.667675794999028 0 0 0
405 1 14.193186018125695 7.49721339649488 18.334167768393264 0 0 0
26 1 15.728638801958517 9.429785358147335 17.066154339608737 0 0 0
408 1 20.717573032255032 7.735661682958303 18.791351241673745 0 0 0
579 1 22.430401905951044 9.085400744487567 17.218447839429032 0 0 0
409 1 4.565173110294484 10.34721154116715 19.12254553150337 0 0 0
583 1 5.914810829016074 12.44933458385177 17.30677072238209 0 0 0
412 1 11.055839193990963 10.704390160525898 18.439959457932694 0 0 0
187 1 12.662695364532446 12.706697733293854 16.979163523498897 0 0 0
414 1 17.570263224418223 11.154680011914634 18.522024508742348 0 0 0
466 1 19.23394064326403 12.436335895048925 16.692221305419984 0 0 0
417 1 24.449404654452433 10.47585462497193 18.625461302323544 0 0 0
40 1 2.8468632094295194 16.21550369687391 16.81013586432443 0 0 0
418 1 1.5867102984382726 14.557953388951368 18.70183237198315 0 0 0
419 1 7.943168382675968 14.203915653928687 18.48465487781565 0 0 0
471 1 9.534462706193297 15.747279102688102 16.97401153146007 0 0 0
421 1 14.322969767031049 14.479827783854072 18.433370408900295 0 0 0
473 1 16.297976862988104 15.845917268953254 17.089485976348946 0 0 0
423 1 20.713274775623987 14.1569101922306 18.196949683558778 0 0 0
575 1 22.23611601833117 15.48594776165428 16.23517543627981 0 0 0
122 1 7.0460074909867405 18.65880100692936 16.974122545790408 0 0 0
426 1 4.861490093137662 17.09255694150606 18.613918842437727 0 0 0
428 1 11.174945044342769 17.12752738527763 18.769840265003076 0 0 0
572 1 12.961327609763956 18.489186440114594 17.336409206305767 0 0 0
431 1 18.018454614332544 17.623230090897685 18.45498315556471 0 0 0
194 1 19.616563815225156 18.889972216303626 16.611394031163726 0 0 0
433 1 23.822454562169867 16.899412349365235 18.036128190822716 0 0 0
585 1 1.51892784621392 20.450842078123394 18.64854628842714 0 0 0
384 1 2.919939035606986 21.781377133244327 16.644152978162815 0 0 0
587 1 8.306274694918939 20.402252002550682 18.475518956317877 0 0 0
588 1 14.476987545284384 20.350943524684126 18.582327902445037 0 0 0
742 1 16.42393937004695 21.739925385810047 17.089547104152956 0 0 0
590 1 21.282199938929143 20.35942232401564 18.567584094522452 0 0 0
389 1 22.994467618962435 21.87065323153398 16.985520777108192 0 0 0
593 1 4.165368899738948 23.570249083498396 18.498331682477755 0 0 0
775 1 9.923604084408412 22.150888811467013 16.884690160176994 0 0 0
272 1 6.33267584762744 24.82811533026738 17.288055792614053 0 0 0
594 1 11.434495244905762 23.577649596836515 18.845003791895394 0 0 0
774 1 13.297098162109174 24.912119048008265 17.518853535625382 0 0 0
598 1 17.84799426537295 23.179877609258575 18.611267616915725 0 0 0
375 1 19.563623550688668 24.58658445798831 16.849352746284268 0 0 0
599 1 24.692379342512957 23.5834846450095 18.373879216846746 0 0 0
228 1 3.2101152159043767 28.188696369424548 17.277175635843307 0 0 0
600 1 1.3191564018498234 26.535875905687746 18.584281175704653 0 0 0
602 1 8.15638149333692 26.51537931241983 18.767969474442957 0 0 0
603 1 15.040879311585874 26.525220812851757 18.815835412492376 0 0 0