LAMMPS data file via write_data, version 29 Oct 2020, timestep = 1000000

1539 atoms
1 atom types

0.3747913144606052 49.7258894131994 xlo xhi
0.23792411967055216 31.566869366897592 ylo yhi
0.23792411967055216 31.566869366897592 zlo zhi

Masses

1 18.015

Atoms # atomic

749 1 4.322527425802049 1.1987443276997443 0.8157082395734304 0 1 1
621 1 6.42429278229465 31.39311609318412 2.221177081923198 0 0 0
792 1 20.908920952369726 28.796008451723207 15.305484924163567 1 -4 0
661 1 9.901986755999896 2.3788934504870682 2.340162364851535 0 1 0
654 1 16.12542847013355 2.6819839960248575 2.3294969950266524 -1 1 1
761 1 20.79341039718244 28.228265602726314 1.4174098927909065 0 0 1
713 1 23.069356014153815 0.24162692766433835 4.668700967275295 0 0 1
747 1 1.4675255832019773 4.591228906375122 1.1639069797567112 0 1 1
2 1 2.9956895146823306 3.136081541307483 2.2893713794319237 0 1 0
745 1 8.027631640961891 4.033502108039334 1.021205372556982 0 1 1
622 1 6.747767738950494 5.863061679388843 2.779294865316268 0 0 0
740 1 14.41064342776979 4.377133665109836 1.0985422383282653 0 1 1
739 1 8.198925297321008 23.151031221119208 0.6842860768429113 0 0 1
1464 1 23.539735431334197 30.351600964640234 0.8816973517740667 0 -2 -1
196 1 3.179054758287371 9.027147758258328 2.3261982956118343 0 0 0
552 1 5.2056576961807615 7.552832798118716 1.0208027396731776 0 0 1
615 1 11.427398062571383 7.527046031762493 0.8735032481168787 0 0 1
429 1 10.096987881421784 9.490091238570443 2.430227427404449 0 0 0
553 1 12.9201154997185 6.207810322609166 2.2414177272251488 0 0 1
857 1 16.129294733763324 9.076433725838353 2.4405135334377146 0 3 -4
858 1 18.36253118317028 7.209547241690939 1.3121495192842347 0 3 -1
741 1 14.48239258365845 23.854477337153963 0.853822668206627 0 0 1
1346 1 17.794585365406174 13.944789598806626 1.390025052166294 -1 1 2
933 1 1.480754407021268 10.795288956282365 1.0113707281903639 0 -3 0
559 1 8.218206910245861 11.016163206745004 0.8974264379639602 0 0 1
1422 1 21.496558561923596 3.6426852463546084 13.902263513685202 -1 1 1
238 1 18.101846745088142 10.563267268573462 3.8897518846453876 0 0 0
371 1 19.6329313430007 12.144049349049515 2.33057018767395 0 0 0
1358 1 17.096737897196757 29.57787174928277 13.08764202116249 -1 2 0
42 1 6.310930078340036 12.598626011820803 2.234917145451101 0 0 0
520 1 4.594243761672473 13.648372479970504 0.31875279036382365 0 0 1
430 1 11.816182997474778 13.842567758683987 0.6650823985805008 0 0 1
397 1 10.042214583258954 15.323565740755697 2.1971013562195294 0 0 0
22 1 13.232450460715912 12.467214800877361 2.451681527602339 0 0 0
1495 1 24.502433500046408 14.049268165137338 6.471242323954931 -1 -1 -2
564 1 16.132462165803805 15.49285105864005 2.8470865327619026 0 0 1
1241 1 20.17583712438408 17.279986480957696 1.9135976148041653 -1 0 2
436 1 1.7005775185608463 16.936512130642168 0.808130177812493 0 0 1
576 1 3.2201322436884148 15.063267803060873 2.258387968581443 0 0 0
425 1 8.117794311309318 16.734389058066384 0.5614127369811173 0 0 1
584 1 6.547818229701446 18.397507695547592 2.2060047192667063 0 0 0
1441 1 14.613486835338936 17.119238755938365 1.2542167757653297 -1 -5 1
186 1 13.01011909744697 18.62486288423799 2.4048193874421524 0 0 0
526 1 18.890424273861566 19.400833734455045 2.875617858179028 0 -1 1
750 1 11.01021233452818 26.671501726543507 1.0227677731946878 0 0 1
887 1 23.72533353237478 28.42736386575223 8.820822526692702 0 -4 -2
561 1 5.108800805919395 20.00592142675637 0.749502783013517 0 0 1
560 1 11.541956473510245 20.00213754600511 0.34180937077350426 0 0 1
598 1 17.732572795849876 20.708707383356728 0.8588244336378934 0 0 0
364 1 16.21395072353948 22.19624856076395 2.514366820791283 0 0 0
326 1 8.211212401189186 29.452196646730556 13.410414649107794 0 0 0
737 1 1.7968698305174327 22.902186521134695 0.9101886738695838 0 0 1
195 1 3.4549922766485928 21.21445400741849 2.074041639911165 0 0 0
785 1 0.6100738226144449 18.71185738591764 2.3020731680791937 1 1 2
766 1 10.042943725032726 21.734225041891563 1.9203003780866659 0 0 0
1476 1 20.592404983755227 17.53504512679801 15.755890515440514 0 1 -1
772 1 13.02905631870744 25.383128748752398 2.287784757750684 0 0 0
866 1 22.55895404796924 27.706715861290352 3.5301091890372103 1 -1 -1
565 1 24.712321791520754 29.381334063169692 4.102862783967231 0 0 0
748 1 4.871643793724264 26.213390495877892 0.8288380471139519 0 0 1
771 1 6.997278136910722 25.029665649723057 2.3503903132991573 0 0 0
671 1 24.347791804399222 22.68371445260072 11.83716579523721 -1 -1 1
769 1 9.486776083743989 28.509904749754966 2.2544861173126125 0 0 0
628 1 17.91505444881888 26.69353806645432 0.9326726896566414 0 0 1
207 1 16.662064232979684 28.362190055990542 2.8944204196615195 0 0 0
158 1 19.05134390230727 25.050557462239144 2.7088945130523956 0 0 0
861 1 23.279167871422707 21.483449960123153 3.7663069225644112 -1 1 -3
172 1 13.172996105221792 12.78312140165398 14.989031050396049 0 0 0
756 1 1.7642065234301487 29.493028458775758 1.0044512764837887 0 0 1
776 1 3.2090388428953345 27.533169953990402 2.319226977275662 0 0 0
757 1 7.732245191709055 29.925966831181025 0.6603526721875738 0 0 1
447 1 14.677678338524547 29.851654720676105 1.0229544483785433 0 -1 1
392 1 13.041741280190239 0.24955850467675234 2.078740846545231 0 1 0
549 1 19.464707001453313 30.576729648843106 1.9200614567259693 0 -1 1
699 1 11.331292525836973 1.181316569305382 0.29233367728197085 0 1 1
220 1 1.303687948213438 1.3183192310684761 3.7509185195579007 0 1 0
265 1 6.505936579189352 2.6879724547500277 5.360729123092593 0 1 0
222 1 8.517533223514276 0.9585718552111028 3.6761941321673817 0 1 0
252 1 14.907438129015745 1.4857661462629628 4.241704327435778 0 1 0
224 1 13.15096562338396 3.2501830254815385 5.582736447563993 0 1 0
1162 1 16.522272922882795 31.473064425824536 5.852784380492675 0 -1 1
1165 1 22.410450100879526 4.3480483881496985 6.138374293801571 0 0 0
1141 1 23.180990373286782 12.252585817142597 3.541797007791936 0 0 4
229 1 4.647297440452737 4.642846118602355 4.011508319309516 0 1 0
387 1 11.632990508264461 4.523417467565419 3.69632314162677 0 0 0
230 1 10.00678508773258 6.0144713229018185 5.538008207171018 0 1 0
1234 1 18.05268288436932 4.142161490781223 3.6669473188583908 -1 -2 -1
390 1 16.760345424038963 6.0694257016488935 5.249589316456087 0 1 0
1444 1 20.915032006895252 4.431056952997753 3.822886018696556 0 3 0
917 1 22.061464662576682 9.406386820879337 7.668335091759906 0 -1 -1
518 1 24.233000923714055 12.527601824966126 9.935398527892866 0 0 0
352 1 3.0002958635405887 6.275756015435456 5.63821418439255 0 0 0
3 1 1.2619492088671853 8.02282084478044 4.296273805586567 0 0 0
10 1 8.534444043534547 7.619123113248128 4.0460002960229104 0 0 0
8 1 14.523493338421128 7.317754187482296 4.123034735584415 0 0 0
57 1 12.92150615016524 9.026065798894587 5.644124893957141 0 0 0
261 1 22.49328854935482 17.62262347792682 7.942217289968251 0 1 0
128 1 18.68026114643202 12.436643528393166 15.16855227743307 0 -1 0
54 1 3.259229309818521 12.013864655852348 5.3702758139656686 0 0 0
13 1 5.068132020195773 10.800274541398998 3.64072474532405 0 0 0
7 1 6.495570741321492 9.241615783432904 5.567512246104614 0 0 0
15 1 11.282126532471997 10.873956449658122 4.101558909510818 0 0 0
21 1 9.489953265653146 12.375910580683856 5.531247946461452 0 0 0
987 1 19.5661923266963 8.441674372602042 4.806240482530375 0 2 1
804 1 16.560196180734593 12.300285088520765 5.7003825079784916 0 1 -1
529 1 20.69727562356503 13.647040025518384 4.799803758405337 0 -1 0
338 1 12.866052759404877 31.109314672666187 14.692503848083788 0 0 0
19 1 1.6702746620039741 13.489314316456385 3.8337760963321847 0 0 0
20 1 8.01807008751127 13.821453878559348 3.7761309382708967 0 0 0
28 1 6.542552624618677 15.802978837431832 5.2864550813629885 0 0 0
185 1 14.770186697382853 13.634069924798231 4.212518045483387 0 0 0
30 1 12.920952593073652 15.223843403467727 5.614686343043204 0 0 0
110 1 22.83831565516794 15.65069060453608 1.9512499569360044 -1 -1 1
931 1 20.601299803006746 11.16926783759886 6.480866579458148 -1 -5 0
75 1 3.634407734267144 18.974786264286845 5.691115555610943 0 0 0
27 1 4.6809799308838285 17.252201271557254 3.779128654707976 0 0 0
29 1 11.502130738539957 16.941809337186694 3.890343040033955 0 0 0
37 1 9.721003764714338 18.510014677219967 5.326763387920449 0 0 0
1229 1 17.77178407383644 16.435302710441462 5.007362316722605 -1 1 -1
38 1 15.980741686365482 18.406238407346798 5.558449758939096 0 0 0
1389 1 23.60281418571237 9.185460651640934 3.533412032818646 0 0 0
34 1 1.7832044095538258 20.287198775906745 4.147617412056636 0 0 0
36 1 8.392330526741414 19.99568057813662 3.311106932258102 0 0 0
385 1 6.956230073007955 21.844638367151433 5.172864343053474 0 0 0
39 1 14.622237372289288 20.267577889019854 3.917134426470016 0 0 0
613 1 20.56856417975508 16.56527227716774 4.6104754233893885 0 3 1
825 1 19.4880884925229 20.451554272662534 5.2742647181529785 0 0 0
1385 1 24.545572723379813 19.796249059299623 1.1599943501374703 -1 0 -3
197 1 5.061266972738658 23.044607249759245 3.6076402610344402 0 0 0
199 1 11.483455645771919 23.30580062943826 3.4729210431786632 0 0 0
243 1 9.760124329245729 24.93809539880212 4.9274335830285665 0 0 0
274 1 12.962939014884421 21.85993554518072 5.486141313486076 0 0 0
320 1 17.963559058413004 22.959993956965175 4.392463254752698 0 0 0
1050 1 16.335324576325547 24.336375186357763 5.704711189330818 0 -2 1
659 1 23.198891188697555 24.043135114692642 5.252104639599455 0 0 0
203 1 1.7155236509877672 26.203516432023125 4.155448888894987 0 0 0
240 1 3.710562355772803 24.476312098446442 5.687799865175348 0 0 0
205 1 8.004425356262125 26.782712659892105 4.004913330916477 0 0 0
245 1 15.241206743640097 26.021606857077305 3.9162086689258127 0 0 0
214 1 13.368328123451404 27.969542943133447 4.966758549364679 0 0 0
1155 1 20.002086002838958 28.48855320346983 6.03548567521481 -1 0 -1
1513 1 21.99142082959564 29.845147964768053 6.783253270740934 0 1 -2
248 1 3.145722137124998 30.89893833071389 5.189541625880089 0 0 0
212 1 4.628995125632467 29.544496712313205 3.424136770959947 0 0 0
204 1 6.515003154260655 28.62367855412283 5.438962522006631 0 0 0
223 1 10.156397264739791 31.207869267453354 5.969479171449689 0 0 0
213 1 11.607001061680162 29.913583954724412 3.623875576769236 0 0 0
211 1 18.141350307540755 29.952671206392306 4.422882494950902 -1 0 0
210 1 21.345200730838368 12.259535515503662 14.653648517925863 0 -1 -1
300 1 2.9352620383111705 3.2137343814518435 8.11899525723846 0 1 0
256 1 4.4983174155983825 1.222830273986787 7.229616159756163 0 1 0
294 1 6.282028884339981 31.04821983431893 8.884198304154387 0 0 0
258 1 11.41583891879228 1.9533565532781625 7.307887404514146 0 1 0
301 1 9.618818915288852 3.599776446006307 8.844420262990806 0 1 0
251 1 12.804340515523169 31.100055356789916 8.370032950491654 0 0 0
1127 1 17.503708355692748 1.447492102332698 8.508959015573883 0 0 1
276 1 15.541789075044536 3.1846213547570663 9.3611448256154 0 0 -1
530 1 22.09356734451873 29.688896845280006 11.454555708323397 0 -1 0
969 1 24.301530661395276 27.34045628169504 1.3554488177541253 1 0 1
264 1 0.9663734775174752 4.7376258914928595 6.672185600972893 0 1 0
43 1 6.5009680656487365 6.035326428491572 8.258625433661663 0 0 0
266 1 8.008664306882226 4.628755012015459 6.620882863075743 0 1 0
996 1 14.793118709474202 4.892924669395383 7.114671375662438 0 0 -4
1408 1 18.72401216739593 5.437637084600497 9.071421803436213 0 0 2
908 1 20.227111892732733 2.9641913715701764 8.094708989833434 -1 1 1
906 1 22.70681119810215 24.49218837282234 14.565741585576365 0 1 -1
55 1 4.763695569202733 7.585935068891471 7.127810082550146 0 0 0
84 1 3.1196518645806766 9.115500343490817 8.397590554584902 0 0 0
45 1 11.630001692070723 7.291784629703845 7.301710325543296 0 0 0
97 1 9.890880477388988 8.912787450711315 8.589978552818161 0 0 0
190 1 13.188832409273912 6.049850642382652 8.892586308595789 0 0 0
1412 1 17.504970704410276 7.597875735060053 7.318385457907655 0 1 -2
828 1 15.658321422804528 9.509924848614972 8.465878319298223 0 0 -1
216 1 20.8617834113499 6.984322480610128 2.8128681960342203 0 1 0
1253 1 22.57714161376245 7.578815044644829 5.6295059115166906 0 1 1
52 1 1.4624905697738497 10.971100432253287 7.536675605058731 0 0 0
56 1 7.988860694524632 10.817330535558888 7.214935884008159 0 0 0
102 1 6.271401918341317 12.432887155572963 8.497031808543761 0 0 0
1407 1 14.137541507444956 11.232153324204079 7.0772433318506325 0 -3 2
62 1 12.601196058872883 12.489629092374047 8.802302589835598 0 0 0
1215 1 24.408898619026047 11.428333311171919 7.591727103472434 0 2 2
61 1 4.6659167080402835 14.195478295291402 6.809631680492539 0 0 0
67 1 3.268210084313538 15.860377152602686 8.798351734752575 0 0 0
63 1 11.25494136789047 13.842941446056612 7.0929317542342485 0 0 0
1108 1 19.573171228071118 12.586676719656529 8.364624375025537 0 -3 -1
262 1 21.776147458934553 13.733824715924033 9.764596202929441 0 1 -1
335 1 6.518166703091244 31.48098352210167 14.57668042804306 0 0 0
1255 1 22.866671837189458 26.757293633578364 11.366533520913698 0 -3 1
68 1 1.5970615002118191 17.264366988185618 6.997529612335678 0 0 0
70 1 8.17500390152561 17.008666246452762 6.96185834611624 0 0 0
112 1 9.654782255703442 15.190066243996112 8.756494616951734 0 0 0
72 1 14.40673032050761 16.864125165479745 7.374268139619783 0 0 0
268 1 16.269504425211295 15.936375849950323 9.343022642272414 0 1 0
215 1 19.661136341739013 22.738849211183172 11.191111247266258 0 0 0
977 1 18.31117648562151 14.443611355873063 6.561005772463239 0 2 -1
849 1 19.34904411121119 16.055310233296133 8.87300510805662 0 -2 -2
1169 1 21.819775336770366 21.74590184555294 6.530312092891405 -1 1 0
76 1 5.474860188854285 20.680669190298598 7.064879262588207 0 0 0
69 1 6.730941759024324 18.635016791099424 8.708285636301728 0 0 0
77 1 11.37031948730276 20.137596679929437 6.746057880685118 0 0 0
121 1 12.800922826917706 18.60284292257252 8.738164102550535 0 0 0
189 1 17.10259309351907 19.91197837914999 7.5507086535162005 0 0 0
978 1 19.411094389132295 18.405078596480767 7.508690526362207 0 -1 2
235 1 1.8539426711977627 23.066074316641906 7.1877489231638725 0 0 0
313 1 3.4225500791616197 21.77177273555689 8.70176792022559 0 0 0
206 1 8.178413748958913 23.500364830812952 6.5305547065253915 0 0 0
236 1 9.74340261563604 21.854497216628243 8.13690066415745 0 0 0
1317 1 14.311338156019751 23.188890246238916 7.400091798700924 -1 4 -1
237 1 12.83246132324546 25.074749636779092 8.639713459008108 0 0 0
198 1 17.118827553752496 22.467244300151755 10.158323391674267 0 0 0
307 1 20.909402032243346 25.89293164849257 4.657667254022167 0 0 -1
1023 1 20.13330431833104 24.336170441771987 7.3241117334573875 0 0 3
241 1 5.115377529495142 26.526111216036714 6.72892733415486 0 0 0
278 1 3.534997176547298 27.55129564941451 8.73586118429156 0 0 0
242 1 6.63480972311989 25.011104615730513 8.289259426481323 0 0 0
244 1 11.629604182219975 26.410434559722386 6.460838044746782 0 0 0
250 1 10.00719668439723 27.85206019744679 8.205810600441113 0 0 0
1371 1 18.43721584594534 27.898621546673947 8.339002973587746 -1 -1 1
247 1 1.8410588501382181 29.390506475405324 7.386864478548168 0 0 0
249 1 8.077060322990166 29.9454817262124 7.389044833217051 0 0 0
744 1 14.44051227439267 29.83494749355134 6.822656362761369 0 -1 -1
333 1 15.897419164706315 28.29218774666594 8.697897284989896 -1 2 0
1111 1 21.456771908377743 31.12205874558084 9.329000937165956 0 -5 6
433 1 22.854657693021053 1.3995945056413515 12.243216390976434 0 0 -1
263 1 1.7988079751236392 1.2740545255977263 10.09370845361304 0 1 0
295 1 8.464454458300274 1.2003320668697943 10.152517823325681 0 1 0
296 1 6.687645068614572 3.1434249871147304 11.176047442194397 0 1 0
304 1 13.069622553625104 3.7067784324369386 12.005258344066297 0 1 0
297 1 13.895132060206814 1.137051606451548 10.623276634323114 0 1 0
1072 1 22.94770020983773 2.3336955647328104 9.72277251108606 1 0 -4
356 1 1.6416112920961774 29.39445757737514 13.003267322501223 0 0 0
382 1 5.014043227978576 4.3088661714815935 9.488092865819683 0 0 0
302 1 11.323140643725395 5.139996814617923 10.322068309008817 0 1 0
367 1 9.453971093721451 6.18115046412099 12.144630387977625 0 0 0
1118 1 17.3970460839336 4.19835245041271 11.25103577617889 -1 -1 -2
106 1 16.354678737992902 6.356780652729534 12.544457636062262 0 0 0
962 1 22.13882995340596 5.682921011702869 12.052879927515127 0 0 -1
563 1 14.958801101733659 10.962488456767844 0.7235344071534939 0 0 1
83 1 1.9365164217451636 7.653264716001799 9.914739312643565 0 0 0
86 1 6.489803822266417 8.924409244517093 11.54701647354436 0 0 0
391 1 3.396936084060852 5.796257802608757 11.26341776596058 0 0 0
85 1 8.286049108776695 7.243785181267838 9.916525600847514 0 0 0
89 1 14.477432680014955 7.86647077053805 10.556504687275174 0 0 0
90 1 12.726657241328637 9.402664220915225 12.18442337056186 0 0 0
1277 1 19.890062195838652 6.977875296912983 11.035940073875242 0 0 -1
700 1 21.995849702768822 7.642646646472078 14.300244184646022 0 0 1
330 1 21.815250668805724 0.6959408193739753 2.444240827336763 0 1 0
95 1 3.48550627675777 12.362009550952013 11.843812590417688 0 0 0
96 1 4.911655488104983 10.681767020923434 10.151686440831732 0 0 0
104 1 9.835825097431874 12.187302742302656 12.007938177163853 0 0 0
98 1 11.276268772278556 10.529007995156698 10.363473869189159 0 0 0
218 1 17.976692687968235 10.659299321253844 9.708367689145446 0 0 0
1499 1 23.167984293801876 18.873961509469254 5.2683968037672475 0 2 4
101 1 1.5950852287486412 14.280185269518805 10.77774493060814 0 0 0
103 1 8.050254383239725 13.5636418590526 10.161106693452547 0 0 0
105 1 14.678136873717834 13.879449594675236 10.248199529733915 0 0 0
1232 1 16.34249726538995 12.128589128829558 11.510405326070448 -1 0 0
1250 1 20.708664285642822 15.093557365500272 12.098121353430908 0 0 -2
1062 1 23.947852783366365 10.355801266458968 11.61243191302191 0 -2 -1
660 1 21.98023262576045 14.953184482337281 7.270045985793604 0 1 0
111 1 5.3051043580761865 16.941408892883885 10.194074573422307 0 0 0
148 1 6.44656484701597 15.41310268134983 11.809600461128875 0 0 0
113 1 11.839174773997257 16.69094701456329 10.178541122939132 0 0 0
141 1 13.164797206400722 15.421313717575753 12.00447826651784 0 0 0
26 1 16.117193356655363 18.091538511440728 11.245531618290654 0 0 0
1336 1 22.364320928352633 14.544897371241635 13.864227223527683 0 0 0
1352 1 22.465780188821697 22.127678507706808 13.853647915346825 0 5 -3
147 1 3.8988863660764466 18.96936609692933 11.614808159484037 0 0 0
119 1 1.7854051935799653 19.999995503945936 10.24232127778497 0 0 0
120 1 8.600189373246598 20.09960412388734 10.19914103144915 0 0 0
156 1 10.474988390848258 18.086658197195487 11.591970227638559 0 0 0
123 1 15.132574706008166 20.536321796491105 9.819701835627981 0 0 0
273 1 12.977345601037541 21.7459702468217 11.088283105934032 0 0 0
897 1 20.477052147523974 20.84622624391182 9.164826966414015 0 -3 0
47 1 17.797547420343623 0.7980850123881794 0.605421630150607 0 0 0
279 1 3.147272507138923 24.752986238983482 11.678530345806497 0 0 0
271 1 4.982620165394369 23.474865550904642 10.288045344906156 0 0 0
342 1 6.700038203908355 21.638751045041992 11.76692500958853 0 0 0
363 1 11.164946176554443 23.3023124953969 9.888184679930484 0 0 0
652 1 17.827770852022823 25.163757891919754 7.8972464958373605 0 0 0
1295 1 20.997957758922045 24.826334655389545 10.039632411021483 0 0 -5
319 1 14.474878194556199 28.87024210022263 13.711017359107846 0 0 0
907 1 1.4475969084805784 26.23488683040591 10.412770375664612 0 1 -2
280 1 8.39530423570893 26.614472081626698 10.205348009712445 0 0 0
316 1 9.779452350365357 24.775800277095907 11.667481235591973 0 0 0
285 1 14.438370901081262 26.24085074496403 10.336686946586989 0 0 0
1356 1 15.439318091986086 24.035394777256066 11.502884832330631 0 0 2
1027 1 23.577083630276164 27.880129223037944 15.853657367513739 2 -4 -3
1292 1 20.841844073645152 23.47450867171504 1.1736175668320545 0 -1 1
93 1 12.798908595966557 6.312191827879946 15.419247218255691 0 0 0
287 1 3.133668891021623 30.824897214632667 11.460035438711254 0 0 0
286 1 4.994326882085402 29.120149202401535 10.402409685217249 0 0 0
281 1 6.663280134632728 27.878974872769735 11.837645976227547 0 0 0
288 1 9.98783269191324 30.899220945814218 11.777871005927636 0 0 0
289 1 11.431499610947679 29.544973814020377 9.909606725773175 0 0 0
282 1 12.87861206229698 28.136354423837766 11.73443855562792 0 0 0
46 1 19.24696851121565 0.4043979454039254 10.795589850814538 0 0 0
693 1 19.521280371264453 27.14855757590669 10.92933375721015 0 0 0
332 1 3.556454082314629 2.717075694883299 14.835140770318288 0 1 0
334 1 5.028438999817794 1.2903078741161824 12.609029851375569 0 1 0
336 1 11.572926373265053 1.8529234925250286 13.043935951355055 0 1 0
337 1 9.53478636451225 2.8957632217889735 14.377227764101844 0 1 0
1089 1 16.330509946265842 30.667126584994904 10.57993089949582 0 -4 1
1236 1 19.210736121714575 2.611912528605038 12.613722686650327 0 0 -4
856 1 17.897410764347267 0.880666788030161 14.514895770456347 -1 -1 -1
160 1 21.16968888361335 3.1606415283814933 1.3153805383667139 0 1 1
174 1 24.121928923900864 8.746446629869782 9.472368470502488 0 0 0
343 1 1.7102242185750467 4.584908018468162 13.131402871043278 0 1 0
5 1 6.2149570982451054 6.061095855105538 14.936248296388206 0 0 0
345 1 7.561476148965047 4.499995328251699 13.427619064563284 0 1 0
347 1 14.397327805777971 4.691587502175017 14.013118158012333 0 1 0
590 1 23.52604118182185 11.854767813902944 0.8078657026567996 0 -1 1
580 1 23.864715315904167 21.058784288502597 8.330475869167525 -1 -1 0
162 1 3.3185478292801265 9.183601986152427 14.405037098293391 0 0 0
126 1 4.5806456611656925 7.460177625049528 12.907519632950498 0 0 0
127 1 11.051186759178355 7.696573565137799 13.680345326848439 0 0 0
1324 1 17.035423934918157 26.663135242669107 14.773620282474873 0 -1 0
832 1 18.249368032470645 8.14178089508166 13.261708487921375 0 -2 0
1042 1 24.195224169769723 6.704980982345354 11.077990070819258 0 -1 3
1454 1 15.906061543488418 2.617038287233911 15.01309265796495 -1 1 0
132 1 1.617704812926895 10.803167445768102 13.193179010738273 0 0 0
133 1 8.184555557328514 10.592251100551271 13.476800270851738 0 0 0
169 1 9.633538106980563 9.028685221928821 15.138294316590173 0 0 0
134 1 14.79408899124922 10.841768186801485 13.565236741481211 0 0 0
164 1 16.718302659447186 9.586474853342583 14.850522706039525 0 0 0
806 1 20.700005845750393 9.419217460648316 10.157178609262337 0 0 -1
1517 1 21.69763149134011 10.092009632868054 12.935686058571061 0 -1 -3
178 1 3.0174335057589103 15.896305080393125 14.681111250335332 0 0 0
138 1 4.772143515865253 14.137111029092251 13.235825889909254 0 0 0
177 1 6.377603710540296 12.423503805373372 14.66028099906024 0 0 0
140 1 11.412152574477286 13.953598944060284 13.105979467470354 0 0 0
1382 1 16.49633836406596 15.355626399613259 14.276710721276846 0 4 -3
793 1 18.021935932396406 13.702843279911681 12.71929510946387 -1 1 0
139 1 10.065897270432988 15.65676709065795 14.96858281767117 0 0 0
146 1 1.7516006113376048 17.841105732053514 13.044955323717561 0 0 0
149 1 8.269652862371052 17.31862554035551 13.291838919269386 0 0 0
1332 1 23.485151424590235 23.79557358469621 9.614904066769972 0 -3 -1
150 1 14.453253770497879 17.065315185371357 13.484983046614254 0 0 0
49 1 12.765257976679107 18.83935652412312 14.919569003094646 0 0 0
833 1 21.400492210667537 20.90810817813138 1.9875045470956387 -1 2 3
945 1 18.949052403339273 19.082795690569604 11.382849815269008 0 -3 3
941 1 24.755488032288604 29.498406726489964 12.857220312658253 0 2 1
604 1 24.705046900511025 19.47746344891757 11.290129241772497 0 0 1
786 1 22.422093006006858 8.42289146754416 0.9010482028743164 -1 0 -1
217 1 3.212122447521596 21.942901544089562 14.92520250370457 0 0 0
125 1 6.914896003499659 18.8752004250037 15.182115017238615 0 0 0
154 1 5.22507776941651 20.346658248584102 13.655488719083037 0 0 0
157 1 9.955204016957154 22.037720771927866 15.050920763514135 0 0 0
12 1 11.687441127947945 20.275573871116887 12.906382316652365 0 0 0
188 1 19.487945542766052 24.352850289660953 14.003061295700451 0 0 0
492 1 24.24494578737107 2.3252075744008587 5.723584173820686 0 1 1
1133 1 20.025733896341976 21.053802593706326 13.49869575280933 -1 2 -2
309 1 1.4692124758116702 23.31551581365777 13.237084910566043 0 0 0
358 1 6.5250270845643445 24.986571674111016 14.779529134616185 0 0 0
310 1 8.090792439018571 23.23841386650049 13.252597850757084 0 0 0
312 1 12.903552746355837 25.035410740613074 14.62338241480292 0 0 0
742 1 13.961988626637885 22.608802380014726 13.553333614070285 0 0 0
1477 1 21.094452138076292 17.762003794955685 12.655320491976155 0 -3 0
1400 1 21.986315365318006 19.04798939560114 10.176005004399512 0 1 -2
325 1 3.2869368408587527 28.123495410168776 14.496675616540418 0 0 0
315 1 4.820767106794316 26.39904594354881 13.226469971592527 0 0 0
318 1 9.712025138589537 28.04775960907582 14.812939717301198 0 0 0
317 1 11.024340797441655 26.565512900188722 13.083142268406622 0 0 0
331 1 17.789297619141873 25.50130417798574 12.359272803433422 0 0 -1
1262 1 19.785592082914153 29.00592397285687 12.647868159575532 0 -2 0
1060 1 19.699082630715484 7.404406831701642 15.818611473402193 1 2 0
1083 1 23.177521124752445 24.819930022175942 0.7036500386311556 0 0 -1
1381 1 24.862178820406452 1.0080449161189784 8.164351829198814 0 -2 -1
116 1 19.793239939381873 4.850731734450564 15.896058721863346 0 1 0
225 1 24.42372170115913 5.017248398683723 8.435575865050005 0 1 0
472 1 18.66875082944146 21.906696051180546 15.349760538606642 0 1 0
1104 1 15.887898840874112 22.282069432996337 15.53116723731228 0 2 1
1210 1 20.86504930433524 10.819861371354168 0.3965014952730549 0 0 0
946 1 24.84873943639139 14.491723802696345 3.8009529635183688 0 -1 0
1007 1 24.257563771894443 17.774586512403893 2.6888801344854887 -1 1 -1
1363 1 24.214092111151977 6.470917487693856 14.96539638274334 0 2 2
704 1 23.536735459936043 4.443199337425703 0.4605324863111241 0 0 1
867 1 24.677474205460385 26.624366099793125 13.72131058785668 0 -1 -1
690 1 24.770115934829217 14.760121023185942 15.825152913189783 0 1 -1
1124 1 14.56195904532189 8.098348619164643 16.374261351427712 0 1 -2
228 1 3.305395826887937 31.31836165260713 18.056757033903697 0 0 0
376 1 8.138563476289672 1.5397413143719603 16.252531737128262 0 1 0
201 1 6.669244192358451 3.3160633894189835 17.916112872593686 0 1 0
377 1 14.207232571630506 1.3667126757870072 16.548732399272414 0 1 0
1279 1 15.744769801888513 31.381853632631202 18.548937489145246 -1 -1 -2
695 1 23.46529969456095 14.855461079546576 30.917671212176547 0 1 -1
365 1 4.601852293067395 4.627463518931048 16.46216614507596 0 1 0
346 1 10.752411857855467 4.627555239140695 16.356681668387644 0 1 0
765 1 12.739070342009477 3.3939615477664455 18.21999930588419 0 1 0
1297 1 23.595528099320216 2.984450837009119 18.708196573894703 1 0 2
259 1 20.743585585785883 6.503332125030168 22.53034710119287 0 0 0
1181 1 17.290667134050253 4.029384641889668 16.833544934718148 -1 1 3
234 1 3.0455344720265893 6.153765999977641 18.23925501417001 0 0 0
161 1 1.6108013773064158 7.64556399367386 16.208806907486885 0 0 0
153 1 6.376714136529793 9.039980079995479 17.811104363717916 0 0 0
163 1 8.00791012135048 7.271245211682618 16.589941537568187 0 0 0
368 1 9.504915495514028 5.956237710771689 18.35173745017992 0 0 0
948 1 24.480306718777065 22.21092570104535 20.905180014857788 0 0 -1
1139 1 21.69260434735711 15.281792669725254 16.608801523347115 0 0 2
1263 1 21.65029907580887 9.28121998039103 19.212802068869976 0 3 0
355 1 19.981031271044195 6.859578758729285 19.57792808551688 0 1 0
166 1 23.17691515775327 5.371503144656006 23.642179999985785 0 1 1
568 1 3.3404217688433415 12.178953445092668 17.771706761719855 0 0 0
168 1 4.731484053541851 10.717743875395534 16.270146000066234 0 0 0
171 1 11.499113130732185 10.868979832408021 16.459751733172958 0 0 0
193 1 12.965724115432286 9.305577066532996 18.085502635144714 0 0 0
1293 1 17.748257236750153 10.635748237305874 17.245160506991038 -1 3 6
1462 1 20.228143630030193 11.952770737083346 18.827821270583026 0 -1 -2
1283 1 21.785718912472078 28.145335816928853 30.00509833039251 0 -2 -3
176 1 1.866870510286122 14.248123526065768 16.392489111392816 0 0 0
583 1 6.890025680517187 15.376856599752387 18.090015356002812 0 0 0
179 1 8.316297767263954 13.903797905509363 16.285426283351907 0 0 0
192 1 9.65350605269779 12.413063715767683 17.931532576460434 0 0 0
1160 1 23.878502612795792 4.5672598883218685 20.892657030076695 1 3 5
1426 1 16.435446986285598 12.786213301444242 18.554443365659115 -2 -2 -2
731 1 9.432753774115353 30.868421340996118 30.231069211999436 0 0 0
911 1 22.831565141430293 16.141829506123415 19.551502464481544 0 2 2
40 1 3.47395210412427 18.714261409085474 17.982942848034778 0 0 0
155 1 4.965120295862555 16.9398771817649 16.55849981980654 0 0 0
91 1 11.483371514342513 17.34667505214962 16.636243745359128 0 0 0
187 1 13.001967284360441 15.570390456139682 18.045333741032465 0 0 0
1344 1 18.129395125769946 16.54409727284112 16.294839482099775 0 0 3
340 1 16.372890893642023 18.15944305045258 17.793233678949267 0 0 -1
1096 1 22.575050057249214 17.229432222459742 23.596454415994693 1 -5 2
165 1 1.7302217203626802 20.251561472904566 16.411606767273852 0 0 0
184 1 8.391839511614776 20.56162870384284 16.708066231875595 0 0 0
35 1 9.69240041293621 18.593854238150193 18.105973066301672 0 0 0
800 1 23.43861922789533 20.561611929678286 15.966731240452368 0 -1 3
572 1 12.964093436701145 21.687572845132628 17.838751294992313 0 0 0
1501 1 19.702364911731454 21.029900294413256 17.751489247438798 0 -2 -1
709 1 6.154659526119975 27.982620527416305 30.691367267532588 0 0 0
1357 1 20.196266462079027 16.727146395200972 20.519381418428026 -1 1 0
384 1 3.2729864757504075 24.59013124507202 17.450999347549175 0 0 0
349 1 5.242843716606547 23.14071812833232 16.249074128125063 0 0 0
122 1 6.655916423923481 21.890611502490405 18.21734247853145 0 0 0
351 1 11.730506156603498 23.498390218504817 16.39516997816861 0 0 0
775 1 9.991378653094012 25.016781188967048 17.980557177080517 0 0 0