LAMMPS data file via write_data, version 29 Oct 2020, timestep = 979

2060 atoms
1 atom types

0.4187549109449762 98.81378621389138 xlo xhi
0.10772222818413724 25.41926302964672 ylo yhi
0.10772222818413724 25.41926302964672 zlo zhi

Masses

1 18.015

Atoms # atomic

590 1 22.521102161543563 25.26415116249614 1.4763448822678606 0 -1 3
405 1 5.157503063977461 2.876624024057184 0.3612464135452082 0 0 0
414 1 6.782563475647522 1.1175296528936196 1.9394073165034857 -1 0 0
526 1 11.487243397935018 2.2928743365064252 0.9342201957850399 0 -1 1
12 1 13.456175048061953 0.9660072254776955 2.4131758805889993 0 1 0
228 1 15.829885479674289 1.7350340874590868 0.2735891262296214 1 1 0
209 1 18.05826278402686 23.602839424616008 5.361040349297978 0 3 -1
85 1 17.62726864475854 1.0939244919601816 4.400813450932397 1 0 -1
124 1 22.399158418619127 3.7895748312828803 2.8779308002974315 0 -1 0
465 1 1.7864181616138486 5.636882615789489 0.6781176357898887 0 0 0
404 1 3.5416523204370445 4.130145227728471 2.3768600922591774 0 0 0
25 1 9.961509383612825 4.161272633029459 2.2598413626264637 0 0 1
24 1 11.882079797104863 5.862733248746441 3.0885892776345942 0 2 0
738 1 17.78430116818796 8.132662834668166 2.7967138767641866 0 -2 -1
701 1 19.469220438793087 4.446897103308315 2.311988603281659 0 4 1
213 1 21.284905976879205 7.494053757921925 1.95210334159483 1 0 -1
56 1 23.30363359670637 22.715967344232467 20.34996669043694 1 1 -2
468 1 5.421417317583821 9.332543979969568 0.6825936723971736 0 0 0
113 1 6.904266825934182 7.3888340694310966 1.9718369585367146 0 -1 1
27 1 13.127338227195601 7.571871711898468 1.4064417897432029 0 1 0
518 1 15.01278121027996 8.761157776624785 3.311634008199514 0 -3 0
20 1 17.65601635016096 8.766416749917312 23.155135463351538 0 1 -1
302 1 19.166333262508584 9.962893881055708 0.158726826429983 0 2 1
810 1 22.684503903372814 10.181618092308716 2.650262988356492 0 -2 1
470 1 2.0789073044081907 12.523469644082757 0.6675743984911294 0 0 0
478 1 3.415869827765715 10.852583327572058 2.3003631911808657 0 0 0
709 1 10.186429506128665 10.921686724252288 1.724174726797528 0 0 -1
598 1 11.51269425459949 11.937839504308048 3.7397082657639937 0 -2 -1
852 1 14.194509897034846 12.912748186648162 2.252403441214718 0 0 -1
1478 1 17.204154451875088 12.046792432863395 0.7710109992853635 0 2 -2
495 1 0.42277409756208945 10.425781934065029 11.579767221052009 0 0 0
514 1 24.721237282319027 8.659417393704153 0.7479987972213537 0 1 -1
473 1 5.055992489544745 15.391927243752678 0.36483361566400097 0 0 0
114 1 6.8812889446231 13.79347913081996 1.9538996493740277 0 -3 -2
147 1 11.104744087291964 14.245316972922463 1.3480911691301427 0 1 -2
109 1 13.437495614588066 14.648018154555828 0.12715547614700284 1 -2 -1
33 1 16.58216733602194 12.696783685257417 3.888109869451163 0 0 0
236 1 21.76516770062775 14.32996554756856 1.8570752805971853 1 -2 0
688 1 24.452516323364115 15.771169759646973 6.549412201410355 0 1 1
400 1 1.5066978391489985 18.31991240216328 0.6909508939488689 0 -1 0
406 1 3.2625283078824707 16.670137707324884 2.228825637830482 0 -1 0
50 1 8.648271154378595 18.301480413090207 0.3492233222024983 1 -2 1
220 1 10.330263484526188 16.60247336760133 2.2171646345511355 0 1 2
39 1 13.237831287999253 19.707206917499725 2.525874936193737 1 -3 -1
380 1 20.309415501317044 18.28688389512164 0.9535875525557478 0 -1 0
599 1 22.89521134727909 17.410100551507004 23.12841313364446 0 4 -1
134 1 0.4703536452305637 7.550651081843072 20.993253145078064 0 0 0
752 1 21.025630412865656 19.572487643755945 23.395260582107987 0 -1 0
277 1 24.421744329740704 7.910316275374656 11.442016457918216 0 1 2
402 1 5.12568689583387 21.463242210551105 0.2287748966669463 0 -1 0
162 1 6.775952884395223 19.856565448436037 1.8000518062669768 0 -1 0
159 1 12.267948320673108 21.585887044805606 0.20220354591415263 1 1 1
347 1 15.571011906836162 24.428763494242588 3.6826756197475063 0 1 1
335 1 18.019490120606104 16.784310044884972 0.5644124208499836 0 0 0
878 1 20.48818153997711 22.54203109226265 24.026816100794562 1 0 -2
706 1 20.655718243591235 23.290089988358197 1.3962748899067017 0 -1 1
403 1 1.8380948620702737 24.671054453896883 0.4701092576751543 0 -1 0
412 1 3.8211977984876158 23.392547387374808 1.87052132364118 0 -1 0
132 1 8.751541049616746 24.564103632645015 0.6829671771066217 0 0 0
167 1 10.475812836535791 22.875921888433894 2.034279876880014 0 3 1
375 1 18.732529234103914 20.73662293343927 0.1540548237492591 0 -1 -3
218 1 24.921378378820634 3.159182797137691 0.8925855222621177 0 1 1
415 1 1.693316398875212 2.7649098827026233 3.683839033226787 0 0 0
421 1 3.3278282133372685 1.2293265803286146 5.273614120974038 0 0 0
357 1 8.307447673171298 2.563195629602409 3.6637266437753713 1 0 0
87 1 10.038368624164784 0.9377185085335794 5.026895459057805 0 -1 0
197 1 16.33857760531987 2.7208649817293544 5.997287268514138 0 3 0
281 1 20.458896386018278 1.6580077221402998 4.8476618346514355 1 0 -1
787 1 22.961930509031 0.42696755940934866 4.0588418482289965 0 -1 0
1269 1 24.33838965356061 3.895741631352815 6.011105626545413 0 1 1
475 1 4.94816996227718 6.005621879659202 3.594515564755434 0 0 0
214 1 6.51063022150087 4.14739209756195 4.97347783878478 0 0 0
47 1 13.019769324301562 3.9580099529703334 5.337130386674949 0 1 0
86 1 16.87750060962755 4.529580242964303 3.8362622095648278 1 1 0
21 1 21.131957919627286 6.9403102211190335 4.788135375642533 0 2 -1
330 1 21.659862054768563 4.347783961630585 5.807021759774647 1 -1 1
428 1 6.523017954202221 17.11753698187601 24.042404667547054 -1 -1 -1
477 1 1.9317917776432771 8.832903591581346 3.270341600828121 0 0 0
486 1 3.497695971612232 7.901293421877243 5.054190347111052 0 0 0
243 1 8.646238957044366 8.98722655077058 3.263534950302759 0 -2 0
158 1 9.728803705306312 7.14860806083655 4.67731706584775 0 0 0
207 1 11.223589471572641 8.569634786300512 6.851423878276248 1 -1 0
663 1 18.850569852808277 8.425030780132918 5.343145526161905 1 0 -1
650 1 18.799857510641772 6.936242011044583 0.629317077573074 0 1 -1
108 1 18.8551518741055 10.774468489886342 3.093816327335939 0 2 1
1027 1 21.17241498757789 10.988443545917926 5.363334091346176 1 1 2
480 1 5.4090556132972525 12.126859387459827 3.535310430628961 0 0 0
479 1 6.8519779621738195 10.425723865905795 4.9834339882554595 -1 0 0
74 1 15.27819649576658 9.116166480610064 8.215442477751505 1 2 -1
253 1 13.066278974780708 10.221005110531912 5.307523398961349 0 0 2
619 1 15.617702500819952 10.82715436655416 6.073685397430334 0 0 1
131 1 18.656700647523575 12.470962187112857 8.959981722112316 1 -1 3
825 1 22.555343799987327 13.39087037278967 6.4454330539055 0 4 -2
481 1 1.5653818894576914 15.2584792052216 4.132490832627027 0 0 0
483 1 3.638463131900976 13.918169602535087 5.191532847971907 0 0 0
173 1 8.207865343067809 15.648181646406895 4.005452453069689 1 1 -1
379 1 10.362714284285802 14.095567262946734 5.063353032003202 0 -1 0
262 1 14.925773123148167 15.851408098920501 5.437569805431112 1 2 -2
944 1 18.99404025447953 14.225612132435263 1.7133056418698247 0 -2 -1
355 1 23.640515232856902 13.855208601721131 3.84192318373402 1 -1 1
1366 1 24.64941346355266 12.381607290298346 1.2608915609581703 -1 2 0
756 1 23.640876228726267 20.720889539367082 24.18202867014129 0 1 3
407 1 5.19532179553883 18.33801474319643 3.5682219903376797 0 -1 0
420 1 6.389266613749226 17.25603138787161 5.861791556409214 -1 -1 0
274 1 11.598241709588489 18.373330266228507 3.9415004850604483 0 2 2
287 1 16.039445562597795 19.614689202655995 2.8874482330997955 0 1 -2
962 1 12.605759488026507 17.69444848058473 6.245537483832586 0 -1 1
504 1 18.30811365752519 14.940872996641112 4.321754037683295 0 -1 -1
888 1 22.762799940191616 17.118358114471217 0.82061960192885 0 1 -1
409 1 1.9499788629678778 21.586988228174825 3.354318385569016 0 -1 0
408 1 3.240363177554177 20.062092877383368 5.0214702307014765 0 -1 0
521 1 8.213849617218585 21.47908332206029 3.3984652755891482 0 -1 0
735 1 9.574819308927918 19.827432521005417 5.064137832109484 0 -1 -1
366 1 11.154605410082084 21.80627608611478 6.6212269779620945 0 -4 -1
323 1 18.43066954614254 21.970165495677257 3.2547068882687458 1 1 -1
279 1 16.060010316905863 16.61018574825143 2.9227112792457937 0 0 1
589 1 19.421042924353547 19.501927619580332 3.5511647885337982 0 0 -2
635 1 22.239666384851 22.497969251164832 4.01385781675925 0 1 1
739 1 16.68435456821616 23.751448963074527 1.337583352183856 1 -1 -2
413 1 5.150708988326629 25.023493291775388 3.9321355742707076 0 -1 0
224 1 6.764099487972414 23.09031755450775 5.104411329345853 0 0 3
230 1 11.840487781793042 24.479844248828318 3.889366070255237 1 -2 -2
912 1 14.576200256761835 3.730619816430919 2.8728790328981275 0 1 -1
352 1 13.411701722154923 23.49027048952362 5.8154637279193695 0 -2 0
634 1 21.074368709881853 24.00373504862694 6.184616453949698 0 0 -2
247 1 21.790712590469955 20.10882391825907 5.1401908318051674 0 -3 -1
422 1 5.114173731112995 2.6243064768394806 6.899712412846295 0 0 0
145 1 6.446731874860477 0.980206376033138 8.311448664972135 0 1 -2
301 1 11.274348206823719 2.777519085387072 6.875489017817132 0 -1 -2
188 1 12.80330717177216 1.4233288243170754 8.412439146934968 0 -1 1
1175 1 16.13749888251059 25.23032411092367 9.595668470578108 0 -1 0
1011 1 22.67130157327424 1.475703594007981 8.978199746413468 0 -1 1
1471 1 19.020358529869046 3.47626715087253 7.124013591021877 0 -1 3
171 1 23.035767845957775 8.75783444070258 5.959631845878125 1 0 0
484 1 1.928014034884862 6.202523492460094 6.673920410546424 0 0 0
492 1 3.2373584285827057 4.521736797920528 8.434783254624737 0 0 0
384 1 8.13134810265336 5.782258362268067 6.5111185892420975 0 -1 -2
328 1 9.617510913683095 4.228173067756998 8.185807697984027 0 1 0
895 1 14.792280461870748 4.9859119148825775 7.441426573805782 0 0 1
172 1 17.019716707951623 6.114442509545309 6.216078849222503 0 2 0
828 1 18.85790231350733 5.970070122164152 8.636627792682399 0 -1 -3
561 1 21.850690850262833 5.17882501186049 8.50213046551839 0 1 2
487 1 5.247645609127904 8.963199603132283 6.803105449798746 0 0 0
485 1 6.606762987320903 7.4759225011627874 8.431422210341628 -1 0 0
321 1 13.396299274671403 7.056660137378892 8.295663270418723 0 0 2
54 1 14.147105076299782 10.749072920917103 9.969257695067096 0 1 1
70 1 19.53032014313737 10.264819523031727 7.708179478262413 0 0 -1
1824 1 22.296567762902693 10.306846441864687 8.789696181773008 0 -1 1
488 1 2.205721942808175 12.022541364595236 6.456173129037783 0 0 0
489 1 3.740584948163967 10.661339895530723 8.380135138500538 0 0 0
358 1 8.484418405203414 11.970756703106758 6.610225617646409 0 1 0
26 1 9.959777747792717 10.214847922247955 8.249943397448869 1 1 1
1247 1 20.42761152568114 15.639284347761027 12.034225811901605 0 0 3
201 1 24.635155632207713 11.436895452958534 7.733835509770393 0 -1 1
1377 1 20.56500210683586 11.884976070111144 10.661920554601993 0 -1 0
482 1 5.188065492424648 15.228282283142706 6.949842162511449 0 0 0
886 1 7.013934784385145 13.46277750811605 8.463868223044663 0 -3 0
125 1 11.231889717653614 15.632014452601316 7.283339118765735 0 1 0
728 1 11.563000031616042 14.294668340312153 10.111005912375141 0 -2 -3
60 1 16.383219582284177 13.671100845067135 7.018768506011865 0 -3 1
707 1 15.786802411166587 15.201353010466562 10.329200274395484 0 2 -1
256 1 19.573274942662398 14.775710873876374 7.087478535593615 0 -2 -4
396 1 19.72818640213957 12.213406124060908 23.68572302730879 0 0 -4
416 1 1.973456901138362 18.581999305209116 6.9298801927778895 0 -1 0
491 1 3.498786467839658 16.652228776856454 8.3433313759329 0 -1 0
190 1 8.22377828993821 18.700718410738876 6.923310321031374 0 -1 -1
123 1 9.771060036914607 17.480933052284538 9.09426218547302 0 1 1
618 1 12.530595680505641 17.52767600277447 10.102747575896453 0 0 1
754 1 17.243384292034083 18.362869472835527 5.343803307783123 1 0 -3
597 1 20.031012076052377 16.66805184312261 9.212805348315795 0 2 1
418 1 4.764011030829858 21.886559912203836 6.631260131103033 0 -1 0
423 1 6.328049563048283 20.204616388951127 8.158365382283627 -1 -1 0
232 1 12.31493720859817 19.700125081096544 8.074159428517842 0 1 0
579 1 14.273440301144488 21.12764322171318 10.649519970376415 0 0 0
1024 1 14.560606207565892 21.347592182498733 7.523926651447316 0 0 0
993 1 19.02735731966146 21.67624269571603 7.634012904535249 1 -2 0
373 1 21.562432314732888 21.024694308941164 7.972715939374461 0 -1 -2
765 1 22.81973793135556 16.283617486388156 9.125479569986155 0 1 0
419 1 1.6133698653744681 24.869886680445386 6.755804892589377 0 -1 0
417 1 2.9197975944582946 23.200572337485976 8.20276395266039 0 -1 0
726 1 8.26693821809627 24.87425258080148 6.555235045190916 0 1 0
255 1 9.629113339133898 23.550931871401858 8.379542857181235 0 1 -1
169 1 14.917323290934146 0.5147742887226128 6.994196117587355 1 1 1
265 1 20.259725700796533 0.941753961314736 7.927200196868237 0 2 0
1032 1 18.798780798205506 24.011978130716567 9.243390154211545 1 -1 -1
864 1 23.685359534454243 23.286449447045005 8.403514310115597 0 0 -1
401 1 1.8805023006685426 2.6994690958254473 10.066579772446042 0 0 0
461 1 3.5732458302124277 0.9446617853730493 11.672683522993395 0 0 0
922 1 7.483200721024281 2.9608489390988773 9.553007431614054 1 0 -1
563 1 9.587695670965873 1.5160690152315697 10.78931667105842 0 1 1
570 1 17.03286796437631 23.90523716058731 13.23613360133382 0 0 1
807 1 20.381976433393962 3.639862220547093 12.779102014508505 0 0 1
261 1 24.1902749685822 5.19700017501214 14.653511133183779 1 -1 0
471 1 4.761304517267639 6.062218072870469 9.966131868794053 0 0 0
165 1 6.4685277223738 4.459546700258233 11.257172196384873 0 -2 0
372 1 10.575963859572628 6.490595723259001 9.2871430288743 0 0 0
16 1 14.618325197855304 3.0251878514369963 9.410536641469513 1 -1 0
219 1 17.62343205396606 2.4593410089266183 9.558435863391253 0 2 1
130 1 17.48402750593413 2.2587090150575655 12.459350071055072 0 1 -2
239 1 18.59597471807752 5.90234064406671 11.97210934652312 1 0 -2
51 1 22.24104046683566 3.716028794253227 10.849706152147567 0 -1 -2
469 1 2.238618013875203 9.112422450337588 9.823056183047012 0 0 0
137 1 3.5439094349358338 7.99620538531657 11.736005043413352 0 0 0
783 1 8.259153321404835 9.023379715005007 9.98261492897014 0 -2 0
359 1 10.061248797453066 7.869292136659227 11.90453558767868 0 -2 -1
937 1 13.12420076675011 6.808964214547804 11.200492329693601 0 -3 2
842 1 17.884341324237635 8.44939214647149 8.84910046002502 0 1 -1
920 1 22.16469890399864 7.665740646684699 9.630169565960747 0 3 1
1325 1 24.67479266066479 21.035271471774323 13.4841446174852 0 -1 -2
721 1 23.171333664798755 8.01692433877405 13.881299220760372 0 -1 0
466 1 5.080103897960449 12.277164374518929 10.038820460694518 0 0 0
244 1 7.226369001701729 10.708888275019035 11.678022027466918 0 2 0
320 1 11.569643560217973 10.059565865446517 12.364253714034104 0 -1 2
532 1 11.482365678524731 11.644906100017726 10.16502955468586 0 -2 -5
939 1 16.12524932021751 12.511261533212418 10.16547877763468 0 -1 -1
1341 1 17.305537947055754 12.21854936671971 12.798796998983937 0 3 0
682 1 17.24620150591528 8.728589383124843 11.469266983010286 0 0 1
234 1 19.1510142652833 10.07038508355185 12.497223550378283 0 -2 -2
872 1 23.40679794582671 10.655926946237894 11.521124072771752 0 2 -1
474 1 1.6843705469344414 15.00226557470838 9.922327233023868 0 0 0
493 1 3.360922218283321 13.548864022964603 11.702480299075853 0 0 0
1228 1 8.59093760236429 15.218655986951465 10.020876092562352 0 0 0
968 1 9.398359646791013 14.467053294111004 12.415436276699612 0 0 1
834 1 13.489400024633323 15.522822334777315 12.230249252840826 0 -2 -1
32 1 18.476418080400435 18.995583144312427 9.826887211424017 1 0 -1
674 1 22.967269633081965 14.51970342314106 13.195197840267245 0 2 -1
176 1 24.675360732608326 19.321018065344237 1.1892664474029053 0 1 1
424 1 5.046473867222289 18.39783070856509 9.894603769672381 0 -1 0
490 1 6.57491079963891 16.740496924471866 11.498590174765306 -1 -1 0
133 1 7.93449857261266 18.4959223262819 13.022494109339068 1 -1 -1
753 1 9.351700165399802 19.40297334354461 10.975353286474599 0 0 0
592 1 9.847218855282623 16.579778666038173 14.213763743282469 1 0 1
781 1 12.169250587262402 19.71645399305689 11.807848824121058 0 0 0
629 1 12.947076900260397 16.880162217889097 15.232247739396955 0 -1 0
349 1 15.072054726185657 17.195266614449146 8.209278849668925 0 0 0
1193 1 16.633188188503404 19.686474701774145 7.816371621078552 0 0 1
1000 1 22.6290432900851 19.79050377535158 11.820991046682355 0 2 0
425 1 1.604929512320457 21.391754900948364 9.583639427665485 0 -1 0
464 1 3.408904496101708 20.20547642175032 11.485043355787015 0 -1 0
391 1 6.428533690660319 20.25054839065522 14.826777893666153 0 -1 0
388 1 7.860762986473603 21.668880421188515 9.933234377655397 0 0 -1
179 1 12.275903345054594 25.11573173711442 12.623441017393064 1 0 -2
1552 1 16.47085379183796 19.66278079162242 11.940151092672643 0 0 0
921 1 21.98448129720947 21.95198318243043 14.013373456452946 0 -1 -1
6 1 20.26492277933405 20.988433551397083 10.890015916184343 0 -1 0
1856 1 14.04753169504544 17.281967960448586 0.603211280266052 0 0 2
426 1 4.613414406565651 24.5810406839187 9.688999966051124 0 -1 0
460 1 6.21306473655787 23.15091208896632 11.43539078947473 -1 -1 0
37 1 11.587729792461879 25.08131142010996 9.78170889403936 0 -1 1
249 1 14.44293689512566 23.873694328748307 11.178569382085888 0 1 0
393 1 19.338998081061607 25.39969215332011 13.20636239574253 1 1 -3
248 1 21.11133543548069 23.66880684167625 11.530665010965103 0 0 0
1440 1 23.54985894008265 24.952372665061493 10.756311305070497 0 1 -3
439 1 5.379424273916762 2.746091330065033 13.252435471650406 0 0 0
346 1 6.7391855636112 0.6224889670253844 14.62067795662718 1 -1 0
334 1 7.714547818395013 3.0470172413456393 15.803857956396977 0 -1 0
717 1 11.526447717357668 2.856105264446133 12.758980825907901 0 2 2
342 1 14.949553407130523 2.9478285277850613 13.740972153525322 0 1 0
183 1 13.175961574762997 2.540202858682331 16.14438404065086 1 0 0
138 1 18.421355454677137 2.7740987894295377 15.201150127923484 0 4 0
496 1 2.127746940040044 5.7953656737222365 12.989296708920438 0 0 0
433 1 3.8322422571405883 4.3628886074505155 14.738707485200635 0 0 0
49 1 8.276312746410472 5.8331292674651785 12.605311402825647 0 1 -1
644 1 9.655535122755863 4.3447234863464725 14.249781468754009 0 2 1
583 1 13.414852714739645 4.185358610130809 11.64665899071811 0 -1 -2
881 1 16.0506944510238 4.732016744423503 15.330516498160172 0 2 1
775 1 20.28656470895532 7.058074509659371 14.964170804864931 0 1 0
903 1 21.02115514474147 4.473158710624704 15.610571132052415 0 5 -2
883 1 24.66084850465221 12.693250012895076 17.498868613137194 0 0 1
498 1 5.548647968744928 9.136242567956485 13.14680391847372 0 0 0
497 1 6.848209879761077 7.3603522979137255 14.538246119421228 -1 0 0
339 1 8.402508984562349 9.329941400193933 16.132414978689024 0 -1 -2
196 1 14.525326170911278 9.088766031654238 12.311155811597981 0 0 -4
273 1 20.629333421684883 7.668125841850411 12.08108492961631 1 -2 -1
1168 1 24.602768397444876 10.959810494255054 5.014534958738611 0 -1 0
500 1 2.0134638545165613 11.937381591325217 13.486370156014932 0 0 0
499 1 3.9783497222417803 10.5634941053505 14.911185437994503 0 0 0
266 1 9.175264738184008 11.828848510325056 13.249160098199605 1 -2 -1
98 1 10.977736232219888 10.600447793081788 15.1556004296877 0 1 1
364 1 15.070383644894275 11.560476989912205 14.092893164914164 1 -2 1
278 1 17.4557133241979 6.826619539768123 14.249936823049893 1 -2 -4
120 1 20.14821862651649 10.865950813981735 14.997059403444798 0 0 0
908 1 14.524268739046365 22.937694750148296 24.565131612091132 0 0 -1
354 1 4.983805446863565 15.09026069026846 13.278673778304213 0 0 0
392 1 6.67287988206006 13.506393157382284 14.61177688939378 -1 0 0
79 1 8.147387353574278 15.274826931660426 16.16708024451543 1 -2 -1
1030 1 18.637344851912445 14.042261278692411 13.627371031100843 0 -1 1
382 1 13.88409135160304 13.861231672642923 14.828023494436868 0 -1 -1
333 1 17.248861799668433 16.89597061264468 11.917346738670688 1 -1 -3
1729 1 0.447029011859416 10.372364347547034 4.843069742799875 0 -1 0
432 1 1.9060151843502424 18.023231783294815 13.178417263881412 0 -1 0
151 1 3.694780690568166 16.727549670307543 14.734813270650264 0 -1 0
177 1 9.086823513730284 18.401702647598167 16.330417456650427 0 -2 0
240 1 15.31758830971673 18.426548083066518 14.461460927718129 0 1 -1
127 1 22.828388077380232 17.525176946134128 13.134839640948572 0 2 1
1019 1 23.909730108384057 18.588264317863658 6.398761112987799 0 2 -1
436 1 4.679197656299384 21.72821763266028 13.149829370317363 0 -1 0
434 1 9.655208216629891 21.274714435837996 15.014404852334481 -1 -1 0
3 1 11.943214833444623 19.71496242360676 14.562168823792257 1 2 0
763 1 14.043557217525592 21.418488371318585 15.425275498469636 0 0 0
1014 1 16.814398997853356 21.37464224622848 14.36959417741355 0 -1 0
270 1 19.146866391252995 20.278692007984215 13.780250961966624 0 2 -3
769 1 11.967426854072 19.19206893324183 21.923608155639204 0 1 0
437 1 1.618255455598438 24.690709212744295 12.832412569079816 0 -1 0
443 1 3.144449260434746 23.276327872733077 14.921465694933888 0 -1 0
53 1 8.292770964027653 25.04273301009956 12.588877631303607 0 -2 1
182 1 10.43026875269717 23.83806467119195 13.97732087672873 0 -2 0
78 1 11.622917610335605 0.12004534105457054 16.11138425464487 1 2 2
952 1 14.84087688880992 25.260065722875257 14.14497960814466 0 2 1
18 1 19.375958555758032 0.2596000130369291 16.133855258248897 1 0 -2
43 1 23.089495991724537 3.8158603585891337 17.274648479475715 0 3 -1
48 1 22.131353443861627 24.837076971272623 15.182978342522324 0 -2 1
447 1 2.127474998593981 2.6613588933046963 16.08729730618597 0 0 0
456 1 3.484561673605676 1.2267588813501986 18.004969823685844 0 0 0
96 1 9.574662012136207 1.5104574246888975 17.560672764622286 0 1 -2
148 1 11.33435709529187 3.0906830662961022 19.052512950544052 0 1 2
311 1 14.871063335034659 24.29557751862198 16.51313615156095 0 -3 -1
988 1 14.875578394703238 1.2084560022959883 18.10731920993949 0 1 0
748 1 21.29851616389813 0.4201208388184584 18.3392472189463 1 5 -2
551 1 22.64701951495272 3.0608109663485688 20.0985297451558 0 0 -3
1179 1 23.751996225082447 6.19968400426528 2.141378497310606 0 2 -1
336 1 5.337832822160706 5.8739809858130485 16.53367257969153 0 0 0
8 1 6.64580091362005 4.221771111026185 18.302382055266282 -1 0 0
525 1 11.352342253616204 4.697953334728757 16.572307064744788 0 -2 -1
715 1 13.79110589840705 6.131737319185291 16.461558866447255 0 1 0
689 1 16.77298468174632 3.055236378335616 17.382924368592757 0 1 -1
146 1 20.09918369129239 5.100864242907132 18.063520155579848 1 0 -1
62 1 24.98916986971221 6.050301119200303 17.723608415820564 0 1 -1
291 1 2.13603370770244 8.749394810688996 16.156252881525038 0 0 0
303 1 3.3505640112485184 7.331107531345779 17.936975282193867 0 0 0
250 1 9.596953741412204 6.8993978525146575 17.516433376200588 1 0 1
58 1 11.238045164400818 8.590446881076984 19.289146089175585 0 3 -1
594 1 13.616979637456543 8.852781251361302 15.356307396407306 0 1 1
902 1 16.42050045834131 9.178042858515683 15.564286574544516 1 1 1
5 1 17.162358525452962 8.882158319002805 18.61561641562337 0 1 -2
371 1 23.864178896939652 8.544402820901082 17.010063844041397 1 0 -2
340 1 23.86636567441761 10.541634841841791 19.03930660406443 0 1 -2
268 1 5.0276072553316515 12.403369131492905 16.584519329651943 0 0 0
282 1 6.839568116663788 10.601178649484446 17.925508078533756 -1 0 0
267 1 8.575993466552632 12.15674580037541 19.458686881587422 0 1 0
314 1 12.192572118435669 12.867002466494412 16.722519745772043 1 -1 -2
1249 1 13.227188706087608 10.221139788646607 17.88189869888702 0 1 0
936 1 21.10045771253969 8.959816154851262 16.66814008183078 1 -2 0
7 1 22.63894828470658 11.690752894869185 13.846588854714962 1 2 2
198 1 1.9426917669405985 15.306299520353445 16.289089956338294 0 0 0
187 1 3.5872184171010764 14.073329866617984 17.98973593641184 0 0 0
344 1 10.127294090004291 13.843079221870246 17.75540646895382 0 0 1
614 1 11.34961783148932 15.697600413341238 19.411826828744918 1 -1 1
45 1 16.42600802258327 15.500855957492114 14.388916539433998 1 3 -2
833 1 17.14217509282532 11.732787835768303 16.976986829918072 0 1 -4
1012 1 20.04483169419232 13.894948727459507 16.10705800321413 1 0 1
740 1 24.54842655677107 17.195581389411988 15.708698034788085 0 1 -2
1182 1 18.438469497573895 16.055953992966593 23.16876349897603 0 1 -1
910 1 16.286950412542257 19.136284844780114 25.23991745830827 0 3 2
442 1 4.619069019131371 18.53572463991289 16.260727995388226 0 -1 0
9 1 6.530314214580357 17.028282234950847 17.752005156665575 0 1 -4
866 1 13.793211337646328 15.721979796798847 17.759921247324904 0 0 -2
616 1 16.8557476533818 18.569533399166403 16.913264768890375 0 -1 0
671 1 14.57976210739793 18.617678448414658 18.309611309177146 0 2 0
104 1 19.53509063303488 16.78956349339426 16.92901814716772 0 -2 -2
149 1 19.73168630537624 17.55768600727235 13.997897767962238 0 -1 -2
397 1 23.340728494419967 1.0832439765771715 13.177196911951597 0 3 0
444 1 1.8220340588897979 21.442019727875696 16.66561723147154 0 -1 0
441 1 3.1467739212256136 19.86183881190046 18.078011196371246 0 -1 0
399 1 9.359978027793199 22.396966608337824 17.81922536860121 1 0 -1
154 1 10.51580542176775 20.180762471693154 19.18895495264142 0 0 0
222 1 11.443893559503172 18.090751040072668 17.850817146120335 1 -1 -2
40 1 17.746094248325836 20.833511183034194 18.554003017415447 0 -1 -2
1501 1 24.70758120456853 21.886524718010367 2.735476287050252 0 -2 1
700 1 23.30632314967169 23.90996791265863 17.709631068118917 0 -2 1
446 1 4.674501241897247 24.600462818147022 16.44425406486637 0 -1 0
453 1 6.470688124968835 23.367097221728635 18.04216344482565 -1 -1 0
390 1 8.061369549714833 25.216351829868483 19.29805969351868 0 -1 -2
718 1 11.995562994189621 22.86835170074879 17.56860302162775 0 0 2
951 1 17.385361167855674 23.402283576983066 16.52977601374231 0 0 1
790 1 22.316619729836432 21.1867772619486 16.832178700294158 0 1 -1
527 1 24.3136833109907 1.2985595500406142 16.748426952873075 0 -1 1
458 1 5.088555975816549 2.585661972730085 19.776403486934356 0 0 0
438 1 6.841310925836646 1.0088896457177126 21.33437683111959 -1 0 0
1028 1 9.507095816462552 24.4682800643052 21.73340018186148 0 0 1
788 1 11.979985741869688 23.879119494500152 20.259584516644566 0 1 0
931 1 12.961844745020137 1.0561954616817857 20.308495398916378 0 2 2
1007 1 19.146353833719136 2.8396240964585835 18.721420956208274 1 1 0
691 1 21.270697141784012 5.685303332264904 20.58206692598839 1 1 -1
111 1 20.965137330734592 24.563447806820186 20.946461312996792 1 1 2
155 1 1.1877711285984405 5.586164409353851 19.654937478960868 0 0 0
452 1 3.4285771158340004 4.23998369685019 21.10829238826244 0 0 0
985 1 8.103034168863243 6.100286424972309 19.428284259340646 0 0 -1
1025 1 9.804705565162829 4.464664474335094 20.923599825256336 0 0 -1
206 1 11.381669980479597 6.026259939076075 22.634931418265044 0 2 -2
789 1 14.901907013142052 7.363301016516889 18.83009364735529 0 0 -1
153 1 15.747904992528705 4.755350033792813 19.17466962865927 0 3 -2
72 1 6.856439057451929 23.31979832270882 24.426137605543975 0 0 0
52 1 4.656721849516385 9.295193751367533 19.123876386514013 0 0 0
329 1 6.441049749909852 7.794501679991163 20.755425190245752 0 0 -1
305 1 7.757042597998551 8.980713188470135 22.802869108517903 0 -1 -1
312 1 15.431862722812848 10.857008246834098 23.243158466630597 0 2 0
705 1 13.252874089956855 7.529607871471729 21.475549446200258 0 -1 -2
298 1 19.677161951271106 7.887101946076377 19.086138072876015 0 2 0
869 1 21.181188550100934 10.660798807065468 19.613093457249178 0 2 2
44 1 1.972233333389448 12.077391727503263 19.466388617233505 0 0 0
36 1 3.4771148053773304 10.545650750520448 21.28630894931562 0 0 0
42 1 9.761109660660484 10.495726769191133 21.084367638678028 0 1 -1
1006 1 11.68644961567988 12.280047728673404 22.24255002250706 0 1 2
600 1 14.964374718890026 10.800213737801196 20.17749881694196 0 1 0
105 1 16.8983488053749 14.883130541577467 20.52030400317491 1 1 -1
161 1 18.96942636486072 10.425189724676306 21.347234866465396 0 0 -4
227 1 20.091670503578772 12.976443264563915 18.87635167760633 0 2 1
84 1 17.54974521324029 12.28947986142858 19.589474700475787 0 -2 2
746 1 11.517330356471566 18.894201506707518 24.65715596398903 0 1 -2
370 1 5.038939802814757 15.444420446931627 19.785014053301495 0 0 0
363 1 7.074399244716428 13.943697733087783 20.75951510244808 0 1 1
116 1 13.02298092476026 13.112269672560434 19.645963090350275 1 1 3
106 1 14.286509759011198 15.533373994150796 20.97908222930359 1 -2 0
263 1 16.973726054557122 15.696301516245121 17.120163778823645 0 -1 -1
315 1 22.000479273271534 14.887223012943144 19.436792373933866 0 0 1
1222 1 22.929164680310535 14.515238212591054 16.404976995617233 0 0 1
450 1 1.4730341549526897 18.859862057596605 19.874545724589957 0 -1 0
459 1 3.171142242816806 16.88946831723666 21.19142404396163 0 -1 0
2 1 7.9635616086251035 18.64647370165579 19.483462563295987 1 0 -2
368 1 9.99037270235695 17.252529774688842 21.09363936022251 1 0 0
75 1 14.828463199908315 19.004625443870207 21.050771809981928 0 1 -1
4 1 19.25665789626184 16.26786642827771 19.579023215174978 1 0 0
549 1 23.064487173662258 17.182021522349658 18.29226698015934 0 1 -2
435 1 5.040617065662477 24.776273718435405 22.87010657506852 0 -1 0
454 1 4.982983370438742 21.543011529953095 19.448358357017668 0 -1 0
451 1 6.286859074307344 19.9243495537784 21.17624730521002 -1 -1 0
229 1 18.492476683734473 23.334208870053775 21.827493326988733 1 -1 0
259 1 14.662129674099459 22.1807786769127 21.541389365410428 0 -2 1
1916 1 17.108260505956615 18.74245515979263 22.5347407449251 -1 -2 1
17 1 18.959816918770915 20.59223166861569 21.032379365454354 1 0 -1
953 1 20.701978466036216 19.5934639999361 18.38240091642775 0 1 -1
655 1 22.2679180146001 20.131355792366797 20.71812269157815 0 -2 0
455 1 1.6097012380250284 24.77977399641824 19.67986094671339 0 -1 0
457 1 3.3699859548043967 23.244335136506745 21.08239961518528 0 -1 0
761 1 11.929532788200541 21.89685201894999 22.533777246734317 1 -2 -1