LAMMPS data file via write_data, version 29 Oct 2020, timestep = 4000000

2060 atoms
1 atom types

-0.41098649302482926 99.64352761787116 xlo xhi
-0.10572384854953754 25.632709106379885 ylo yhi
-0.10572384854953754 25.632709106379885 zlo zhi

Masses

1 18.015

Atoms # atomic

1087 1 1.208718991774389 0.8352316357859143 2.6734790504419372 0 2 -2
1949 1 2.583194701255873 2.6950625161198483 1.3669705991265406 1 1 -2
705 1 7.4734188660506184 1.1151856047248518 2.5510573541688104 0 -1 -2
565 1 13.235673930166193 1.4813809948769465 2.856377840998896 1 2 0
396 1 15.194882211074932 2.662853219865146 1.4369156975013304 0 1 -3
1009 1 18.175445856320053 0.045805775045567904 1.2220048888082613 1 -1 1
1055 1 19.6628361524515 1.5459778266121766 2.9268779739791912 0 0 1
1136 1 -0.27450618876247623 25.615401199318075 14.066216966835036 1 -1 -4
216 1 0.031798516790945086 9.828807578376447 10.687753528412795 1 -1 -3
498 1 4.188342348199889 4.627401144464222 2.6158232143002627 0 0 0
1337 1 8.938013343223405 3.0104918825211975 1.105043773806041 1 2 0
1906 1 10.308374069100644 4.812544510667386 2.5723513218470946 0 0 0
1367 1 12.113956463987218 6.083011805914985 1.2118739092264745 0 0 6
1653 1 16.904153729140557 4.569419580393346 2.810552046237742 0 -1 1
870 1 18.026990778500497 6.309767296872619 1.1482100691551813 0 1 2
39 1 20.951088307551082 3.150836615848586 1.2680110306703427 1 -2 -3
145 1 23.01071837760349 4.723354837330685 2.7901554496158156 0 1 -2
2007 1 1.0548381334384647 7.619500820418303 2.7963077072729337 1 0 1
358 1 5.981989413915911 6.324038085553831 1.0649004347954736 0 1 0
402 1 7.619564740279362 7.992494998039852 2.576027146727456 0 -1 0
1202 1 13.84139215961996 7.670791293614896 2.67075680505711 0 -1 2
361 1 19.79082248816001 7.934369308037303 2.8479447463923706 0 5 3
1166 1 21.40061409344938 9.490540982948195 1.176941990886667 0 1 -2
264 1 2.6865887876970884 9.309645770282728 1.0332370145494996 0 0 1
266 1 4.098197511976863 11.05381311937231 2.7323171633749115 1 -2 -1
339 1 5.522602835696646 12.46972348267172 0.7900632238116757 0 -1 -2
344 1 9.177133530665204 9.390178605420449 0.7856793716087456 0 0 1
1930 1 10.77423610825641 11.053452736186713 2.565030293405025 0 -2 1
469 1 15.185473547695308 9.21624737035881 0.7602827150078926 0 0 0
647 1 16.743695016194415 10.760272761101824 2.5481756504294744 1 0 -1
372 1 18.468802787813207 12.369187660638966 1.1239831027959064 0 0 0
211 1 23.170185874635866 11.011208898859689 2.6769687152147488 0 -1 2
1208 1 1.240369476091597 14.070039763540917 2.445805566373121 1 -1 -1
582 1 7.246175306187669 13.883185545158739 2.7269392019131686 0 0 3
397 1 8.907545747285498 15.507256552665206 1.3244415034273345 0 3 0
428 1 12.091463169373288 12.811026125383588 1.0242734625767973 -1 0 1
298 1 13.832948741502408 13.969475153286561 2.9127092758422783 0 2 1
479 1 15.493772554526396 15.721870026589785 1.3666665901357105 -1 1 0
172 1 20.080852434455355 13.80482622731248 2.7688572250469914 0 2 0
780 1 -0.20993581855511725 12.731742250280709 13.730115692711326 0 2 -2
1751 1 2.6961858615007044 15.435947923520846 0.9209819281627225 0 -2 3
420 1 3.951497243387733 17.13810764079841 2.512034535475952 -1 -1 0
454 1 5.993241808485464 18.535787842254607 1.1308811602746467 0 -1 1
807 1 10.481366320729833 17.250450656813715 2.7000727637623885 0 -1 1
158 1 13.511211778742865 17.173612576364064 25.376184021461214 0 0 -1
1547 1 17.034914200718102 17.542663948147112 2.6888691558153903 1 2 0
1618 1 21.5069499459328 15.727962201131612 1.4746287164147849 0 -5 -3
471 1 18.132343390653052 19.29067449092642 0.9592304646393492 0 0 1
721 1 22.988411482479794 17.503721518158475 2.6988344206196913 0 -2 0
1820 1 1.0807153190778227 20.746595021203607 2.135814907576081 0 -1 0
268 1 3.0311635838386035 22.02138862006645 0.6637401277191948 0 -1 1
1175 1 7.50115037971418 20.519153109183705 2.2604658531175414 0 1 0
1966 1 9.046859802825646 22.296097844099158 0.992830075473591 0 -2 0
321 1 12.125123521070837 19.104826757902323 0.9667350048058752 0 -1 3
782 1 13.789111116121765 20.624726698641535 2.6912411035166732 0 1 0
718 1 15.256723047969295 22.20048148527497 1.070053889400718 0 0 2
462 1 20.08016144050222 20.926711547011134 2.607510261068281 0 -1 0
593 1 -0.3392675736149953 13.019868599393595 7.488758660966135 1 1 -1
435 1 0.04758985013520217 15.550914293705036 23.43105114550216 0 -1 0
563 1 4.358399665636736 23.69908061866979 2.661519609288883 0 0 2
408 1 5.67193550188176 25.344115035314587 0.975342215097154 0 -1 0
483 1 12.114387202775008 -0.03359298776569328 0.8188871841418243 0 0 1
1607 1 10.554718717837224 24.0597085853762 2.5891320540374645 0 0 0
365 1 16.590965292931756 23.97513665623027 2.9504367083875116 1 -1 1
1332 1 21.583431766143697 22.63405848661778 1.3333944661364094 0 1 1
703 1 23.25009536104715 24.18674355988119 2.8434138806703895 0 1 -1
1539 1 4.10162536140835 1.5577446724179018 5.658219921596196 1 2 2
492 1 10.315866122592608 1.2644667019173876 6.116961079642582 0 1 0
1019 1 11.623972641675675 3.0354554354258596 4.379863388264457 0 1 0
1183 1 16.792833688342867 1.4213514202913355 6.144554593504265 1 1 3
193 1 15.132564813914145 0.012700249129003416 4.361485132822502 0 -1 2
541 1 21.64921893979785 -0.051319572603127694 4.161872478455015 0 -1 5
579 1 23.277464035074274 1.7632606730195015 5.805866152114643 0 1 0
779 1 1.307126839213482 4.661321863121632 6.0366336449240485 0 2 -2
52 1 5.720688619335074 2.9615285513311274 4.038951351344885 0 0 1
484 1 2.914618375230427 6.1370605097082915 4.3699203962920175 0 0 0
229 1 7.54492220792761 4.220916325406244 5.656844622211155 1 0 1
1380 1 13.296632945782777 4.803083746822882 5.806215808084051 0 -2 0
633 1 15.191087922484433 6.185268850363822 4.279284350394679 0 -2 -2
1031 1 18.36426459294686 3.0649104579718336 4.798850735018364 0 1 2
928 1 19.897334976717012 4.642045318237647 6.026755944709226 0 -1 0
1021 1 21.29113472032386 6.104238172826911 4.328642916207597 0 -2 1
1384 1 4.332032144044927 7.6528833607420506 5.856913171878431 0 2 -1
867 1 5.996591213953913 9.42757007391406 4.267023972519274 0 0 -2
461 1 9.207088189514414 6.368907663222202 4.551409977337025 0 -1 0
750 1 11.06537327314823 7.934594329742092 5.715108115172418 0 -1 -1
296 1 16.668255876769663 7.80108059806687 5.867657826808986 0 1 1
549 1 23.13268494528609 7.4760355145455835 5.777528603071011 0 1 -1
148 1 2.8404477582037764 12.836869676730608 4.350205940585103 0 1 3
426 1 1.1630615591804916 11.271581613510202 5.792550410371473 0 0 0
70 1 7.476427350422994 11.26460825437454 5.577853472216589 0 0 -2
748 1 9.307486804322256 12.62522999244924 4.054665885924383 1 5 -2
219 1 12.463642607040695 9.498841153120734 4.0404291316052445 0 2 1
463 1 13.806266993879046 10.85438161638895 5.876035727891323 0 -1 0
194 1 18.430947722664072 9.682998772514912 4.713953108968519 0 -2 3
1316 1 20.26884988483859 11.052924316569861 6.004724608962486 -1 1 0
727 1 21.692972527046386 12.420650959531596 4.437449836391596 0 2 1
246 1 21.25528992502084 25.329428614359248 23.805820369732434 0 -1 -1
414 1 4.195662348630483 14.432555149227195 5.783792513745285 -1 0 0
289 1 5.7145305611784405 15.899667150375322 4.13713444349274 0 0 -2
754 1 10.600213467304743 13.894668551314085 5.769807569163795 1 0 -3
983 1 15.405705016316503 12.313160139619534 4.320342696752403 0 2 -1
366 1 16.647323804818384 14.480495381356485 5.790656202950735 0 -3 0
709 1 18.31809928788599 15.484168685463585 4.019807391543487 0 0 -1
1872 1 23.133151037241845 14.213105914218493 6.058439184686565 0 0 1
287 1 0.6781973513070281 17.526134235532552 5.39584990994486 0 1 -2
1247 1 2.428829183598906 19.08037850970607 4.172077250732426 0 -2 2
342 1 7.4597247561100355 17.436107072144537 5.761403967458681 0 0 0
670 1 8.982443375507128 19.109796752806634 4.172624274541843 0 0 2
391 1 12.207631505594325 15.571890736503159 4.283880396636976 0 -1 0
239 1 13.447720927051607 17.39000737549874 5.949061278357686 1 -1 0
117 1 19.62587529266092 17.281815744809627 5.868607516354619 0 0 0
26 1 -0.033473592633326 18.736226928438185 0.8321691500300719 1 1 1
220 1 6.0160713545061615 22.130387248587038 23.842362653934313 0 1 2
329 1 4.4220336447891055 20.90260580010455 5.590124763153134 0 0 -1
1044 1 6.081832031794306 22.24983542790748 4.119397781425197 0 1 0
353 1 10.471854901707363 20.890460088620063 5.616904091942515 0 0 0
4 1 15.161157251433865 19.016147473694563 4.5428089825724935 1 0 -1
157 1 16.731165924289872 20.600456402900505 5.999986223226786 0 1 0
1514 1 21.601620038397236 19.056004589832906 4.7994880004373 0 2 2
1792 1 0.7623730090843319 23.954215616029906 5.742859818108964 1 -1 -3
456 1 2.785086731551629 25.238219911583286 4.331351633071283 0 0 0
245 1 8.950989927412046 25.217573062164018 4.257618056490667 0 0 -2
783 1 7.329174552422661 23.97557789022788 5.851186341364262 0 -3 0
125 1 12.052512107857815 22.55171360030014 4.1907536522544655 0 1 0
547 1 13.30040185803665 24.32605281094348 6.0926569619588875 0 0 -1
1673 1 18.320824900017737 22.199112105170066 4.44029966861911 0 -1 0
1028 1 20.167481420998566 23.67390495564032 5.942272968787929 0 1 2
637 1 20.353295045463902 17.460577431091743 25.37447441609664 0 0 0
1883 1 1.1176112893305095 1.6249611259874985 8.906281673938375 1 1 0
1628 1 7.190395454575458 1.5300407550284734 8.985490950881026 0 2 1
717 1 11.799250885471126 25.62840816936742 7.739078413934119 0 1 3
775 1 13.990831186493654 1.3275263351842193 8.819310753940655 0 2 -1
811 1 19.703040908994975 1.3242654561620224 9.010199826386422 0 1 -1
411 1 21.55406370630266 3.226736159385088 7.72519728520749 0 0 0
206 1 14.962582801741993 18.97574419466733 23.475316028615566 0 2 -2
491 1 2.7130709349281057 3.114109270036958 7.511940907193528 0 0 0
230 1 4.0516835566012 4.88584646811166 8.981723277272698 1 -1 -2
119 1 8.894223773317286 2.896703947579017 7.743240632380919 0 0 0
1006 1 10.62951898537432 4.674321111156331 8.96921793810073 0 1 2
8 1 15.332046534318014 3.288797524203999 7.542548871371744 -1 0 0
176 1 17.00344499772595 4.745934136602758 9.212650323697295 0 1 1
1700 1 18.421699772484743 6.195477695309505 7.504481218075861 1 0 0
1401 1 23.323609724345754 5.036243743261665 9.233705488144142 0 0 0
444 1 1.1605578062442066 8.090153862900408 9.096961734755423 0 -1 0
111 1 2.939758377803945 9.744453369425917 7.388722222404389 1 1 2
323 1 6.084205575549847 6.087921746405895 7.193508129552196 1 2 -2
510 1 7.578587310759516 7.674144039063929 8.844612311482646 0 3 1
217 1 12.188926666665038 6.345166687115842 7.4521940599226495 0 -1 1
966 1 13.471831243734378 8.009828365433362 9.225907812258423 1 0 -2
1029 1 15.14519596367411 9.36291822300137 7.765667844469602 0 -2 0
3 1 20.157393252021627 8.074615152511997 8.661681393077304 1 3 0
585 1 22.22427000582947 9.323711778212058 7.389835408769195 0 1 -1
1243 1 19.568561009350244 23.758748567900607 25.396848216256007 0 0 -1
1642 1 -0.3215232326552416 12.707917392021573 20.266234678797318 1 2 0
985 1 4.5449730746435835 11.316087712769932 8.949296073000031 0 0 -1
72 1 5.829374973725151 13.01166345212793 7.297760925075048 0 1 0
766 1 9.112127027449006 9.350061301171818 7.124011828013126 1 -5 -2
44 1 10.291188825285793 10.689991416913951 9.032427230059502 0 0 0
701 1 12.206242005427303 12.241692386004683 7.343274871703073 0 3 0
505 1 17.01653752239684 11.347881256327147 9.017412877506425 0 0 2
678 1 18.37307252722903 12.688734539796137 7.073985358565064 0 1 0
788 1 23.20570313614138 11.264004232417733 9.015714976058366 0 1 0
1143 1 1.8020311141736713 14.346259257238735 9.609326666505975 1 1 -1
1091 1 2.5972506660024037 15.916228975052686 7.364742219750358 1 -4 3
338 1 7.720862493799922 14.392522276086854 8.79301818302984 2 0 0
846 1 9.173198239918282 15.814850546808737 7.2878334211396565 0 0 2
509 1 13.444646587594656 14.074085809089107 9.053737656580704 0 1 1
418 1 15.085364920914687 15.891138703737663 7.511348844514136 0 -1 0
1755 1 19.835343768699246 14.088136622424607 8.857666020146974 0 -3 1
912 1 11.659636833097387 16.031642705718234 23.53871642819823 0 1 -2
480 1 4.482344034922713 17.39552283873749 9.02056569046773 0 0 -1
1713 1 5.821521386194032 19.135047750453328 7.378193100763437 0 1 1
1115 1 10.818877429081232 17.123026125634652 9.00246241509522 0 1 4
888 1 11.997525483230799 19.261903304853416 7.309117710192477 0 0 -2
303 1 16.724367946647277 17.42182901771106 9.068869894034618 0 0 0
137 1 21.410050771848944 15.872176443371153 7.4019818409367675 0 0 0
175 1 18.151708772241864 19.111520194972726 7.7026364459026695 0 1 -2
930 1 23.139880259715564 17.19635434537523 8.906280783954227 0 0 3
17 1 8.920467490332214 18.61028626809648 23.465082074424004 1 0 -1
68 1 1.0179387103795723 20.766128733201132 8.780607017844533 1 -2 0
487 1 2.2884519507503773 22.06631200046424 6.959438526566573 0 0 -1
170 1 7.315914765685076 20.74909754124574 8.830084203059844 0 0 0
320 1 9.021837020590757 22.418474659066597 7.385981914681012 0 -1 2
113 1 13.312423032921705 20.715038783855878 9.059964143195645 0 -2 1
1838 1 14.838927574525679 22.342296691622614 7.21416806231084 1 -2 -2
1313 1 19.953885629830395 20.635057553586424 8.926280776255963 1 0 -3
375 1 23.4093541753626 21.005980258156587 6.1142799567025925 0 1 -3
1681 1 -0.15366566739309778 2.6689157247667987 23.409442248238438 1 -3 1
572 1 3.7872820624488357 24.001060284311638 8.5357236258477 1 -3 1
1789 1 5.614360181496116 0.020432182333551624 7.359205109435798 1 -1 -1
1644 1 10.286121675092893 24.262017468326526 9.44520300135082 1 -4 0
598 1 18.264701440352137 25.171923848454192 7.449486565389864 0 -2 -1
688 1 16.715705354829623 23.543485812661217 8.932785483615481 0 0 0
1531 1 21.555988513080468 22.306869521625437 7.712852467815947 0 -3 -1
1885 1 -0.2539327307904634 15.716068716793833 10.450334251458742 1 -1 2
207 1 -0.3333837211122599 6.397791453547146 7.733957526961045 1 -1 0
425 1 4.153093580335659 0.9816927658323173 12.207429729525877 0 0 0
36 1 5.564173509984788 3.009153246685401 10.900649263312904 0 0 1
1599 1 10.386288576114413 1.6647714815592582 12.161449074236783 1 1 -1
31 1 16.637207437396906 1.4330503849498888 12.477025914609035 1 2 1
1616 1 21.143162891474574 25.571220526201667 10.936780767195925 0 -3 1
690 1 22.616929263208807 1.6510874492952197 12.503276132855163 0 0 1
869 1 -0.1883450181031109 22.35516634319318 23.799282643374237 0 2 1
2 1 1.3697621846756094 4.858506219732227 12.41005595161786 1 1 -1
368 1 7.564914690343105 4.633192677247327 12.143959074161556 1 1 0
191 1 12.372603935062507 3.035880485261477 10.42246441648972 0 4 -1
294 1 9.019697285181328 6.338259636836152 10.403718571792087 0 2 3
312 1 13.77408379161433 4.634633416317375 12.00423299740763 0 2 1
1014 1 18.27769175989563 2.940681354737319 11.048492389560826 0 0 1
446 1 15.291947829091367 6.376586468297625 10.577588536380851 0 0 0
1446 1 20.047151849070836 4.545999249276983 12.422470202921831 -1 3 -1
1904 1 21.424300939577954 6.455957339111663 10.709597307969211 0 2 -2
473 1 7.568095807841296 17.04836442097458 25.193355808951853 0 0 0
706 1 2.8219715259105422 6.455056152602447 10.571366738424347 0 0 2
250 1 4.620234440432961 8.070400152052768 12.009423104552097 1 0 2
1024 1 6.065347583348829 9.334698594236759 10.208679994313451 0 1 0
1857 1 10.672607970468858 7.524478344284302 12.350100795591823 0 4 1
225 1 11.845012160182936 9.499493986232185 10.869823615069663 0 2 -2
501 1 17.18562960567663 7.9089185082983136 12.086735791016455 0 1 -1
257 1 23.069484480738296 7.8400308170627655 12.238511006062131 1 0 1
226 1 1.6486888733957983 11.169154571575078 12.321284347691144 1 -1 1
336 1 3.322908697942927 12.721787552236412 10.893319394335274 0 0 0
280 1 7.596123255772479 10.537102563425233 12.270944708828454 0 2 -1
259 1 8.925721872486758 12.482130455167114 10.703248870635756 0 -1 1
758 1 13.49325255991202 10.936963013444867 12.355065450418152 1 5 -1
871 1 14.848683787813824 12.722230067166665 10.682251017558606 1 2 1
694 1 18.73475661074164 9.529795491977135 10.547052636270706 0 1 -1
1908 1 20.149512768683035 11.282257458663931 12.347585442835914 1 1 2
258 1 4.65530799059471 14.330425238355357 25.000647706618135 0 1 0
1440 1 18.289810621484637 22.588749000697018 23.26022382552355 0 2 -3
316 1 4.593125179877538 14.438179277776868 12.53903623464035 1 3 -1
399 1 5.947576856920232 15.934012407980838 10.348005402527786 1 0 -1
29 1 10.841694478194462 14.24485951397978 12.165595314832112 0 -2 -3
904 1 16.95981629223389 14.300899049588976 12.119902895779735 0 2 -2
1182 1 21.509759467153167 12.88439572711138 10.523203520104543 0 1 0
1946 1 18.648332385409997 15.909017584482694 10.459021559057764 0 0 0
671 1 22.79803303488085 14.318433329022394 12.666276201694679 0 2 1
1236 1 0.13018197106342477 2.7673439926427785 4.252478787834733 1 1 1
886 1 1.0962814107599455 17.456085859504523 12.262064015314483 0 -3 0
1150 1 2.8348079562305664 19.086436241605366 10.587281032310157 1 -4 2
465 1 7.597637100885944 17.354707183143923 12.035275533276637 0 0 0
281 1 8.876251723739959 18.910889654478886 10.20535589795496 1 -2 0
1429 1 12.35479471593549 15.811687036473614 10.449476284214802 0 3 -2
152 1 13.832029442489057 17.48815191545954 12.548867330001844 0 1 0
1666 1 15.03437472199641 18.925675025298172 10.74379083115971 1 0 1
514 1 19.940028994051662 17.466484590885784 12.12903341171691 0 1 -2
1046 1 3.1260520444760562 18.813513056165647 23.626816609710225 0 1 -2
1020 1 3.9569559151671845 21.059289652579057 12.108744961056447 1 -1 -1
49 1 5.504448990845196 22.262789630633335 10.201111043771721 0 1 -2
1506 1 10.47764588643981 20.7322869724685 11.484202591151181 1 -2 -3
507 1 16.718185891318452 20.684136272635865 12.12330962882258 1 0 0
843 1 21.56930331145874 18.99610887632709 10.373517690834932 0 0 1
993 1 22.94396220247006 20.440467677362975 12.265544931554633 1 -1 0
936 1 18.410300049314227 15.686360751378915 23.85050440600447 1 -2 0
482 1 0.9817492990899257 24.01054381610074 11.770177933020735 0 0 0
30 1 2.4418671956962816 25.506590778964814 10.346790708418576 1 -2 1
12 1 8.722771960549272 0.09176513022672678 10.708938488750439 0 1 0
1912 1 7.255239330226805 23.955965352509867 11.830783957620483 1 -2 0
1856 1 11.997185963431138 22.70623933747839 10.575085742700029 0 0 2
1318 1 13.825483381009185 24.148445070884883 12.34708573864682 -1 2 -1
27 1 15.309717532296888 25.43248157909065 10.762924788125515 0 1 -1
1463 1 18.258434434944128 22.214838429042832 10.596973643949767 0 -2 0
978 1 19.41002809262019 23.832409772794872 12.553689829085547 0 3 3
1552 1 22.880502406883203 24.134734043509127 9.321954681574066 0 0 0
968 1 1.470308315351434 17.035584505282237 24.888763914995685 0 0 1
863 1 1.3098245154282224 1.1662854371686855 15.608637109261894 0 3 -1
138 1 2.6478520176817235 2.7421626063577866 13.988604633815736 0 4 0
1016 1 5.9313910808130395 25.311790129580682 13.76015005882833 0 -1 2
1303 1 7.419020969621754 1.4321492046268542 15.272162628553694 0 2 -2
604 1 9.05774722106089 3.1180664540565757 13.71838424373699 0 0 0
80 1 13.390922136066091 1.1799742724245244 15.2504784129504 1 0 -3
952 1 14.848585493767821 3.1444542481346485 13.990061607420376 0 3 1
1899 1 18.052886596563862 25.495708734537526 14.310543435587231 0 -1 -2
629 1 19.90861756297999 1.3529977433951936 15.686513156587463 0 -1 1
965 1 13.474456412101816 23.848272935630984 25.292726052358528 0 0 -1
1879 1 4.073983124785016 4.881549603109054 15.218515498587474 0 0 -3
255 1 5.96603394871604 6.321156762322177 13.845017708598977 0 2 -1
79 1 10.542658065596015 4.569319642661048 15.256750637350052 1 -2 0
333 1 12.192132604890865 6.0513829304570805 13.940441574410587 1 0 -3
1684 1 16.476151949817623 4.877787018227149 15.495451795285426 -1 1 2
1388 1 18.257275766449197 6.263672999977923 13.90609151395115 0 -2 5
1937 1 21.378330680159653 3.145194174266334 14.320645136914429 1 -1 1
923 1 23.087468103365033 4.781251604992207 15.75770755509341 0 3 -1
270 1 10.497343045615992 14.128578806432563 25.02171294500275 0 2 -4
156 1 22.83057741044592 21.20545700291779 25.12096088483747 1 2 -4
738 1 1.38634506340633 7.752100277099534 15.488303273356166 0 -3 -2
427 1 7.596362944750474 7.787820342383863 15.329019576895487 0 1 1
1861 1 9.2207723566741 9.3734298748443 13.793022388761264 0 0 0
2060 1 13.571221296925156 7.964157493233802 15.51893178223348 1 -1 1
1158 1 19.908889495552103 7.673948361204496 15.431752662628748 0 0 2
597 1 2.9837381274845045 9.34168453165469 13.911273555261516 0 3 1
1566 1 4.454602387614276 11.083822199576698 15.420214898419276 0 -1 -1
98 1 6.408301895662379 12.34698162598798 13.725420132449026 0 1 0
352 1 10.690038920321829 11.108589933831237 15.21576488122113 0 -1 0
432 1 12.107053893746002 12.537915643131845 13.550222546060308 0 -1 0
1342 1 15.34366708784186 9.484209329135213 13.807043719279372 0 0 0
723 1 16.680343095355113 11.236346252071897 15.455347923918174 0 -2 -1
736 1 21.20584975104036 9.342218950683085 13.864353662120728 0 4 3
25 1 22.918760090701007 10.772434998848185 15.390648628115363 0 -1 0
282 1 0.9458714925305391 14.808844032962432 15.351168385854184 -1 1 0
1738 1 2.876772480962891 15.97686071392344 13.917969496806668 1 -1 -1
1259 1 7.585807564046315 14.162913092022198 15.272066774654553 0 -2 -3
842 1 8.961234585336399 15.645817739671626 13.607083319843074 0 1 -1
443 1 13.599185423953601 14.360986526649246 15.360739351095244 0 -2 0
778 1 18.46504883630737 12.719977490793726 13.655622303021344 0 1 -1
1739 1 19.86999391808608 14.096984319114807 15.44224012359691 1 1 -2
1825 1 4.445011631026623 17.41822974246161 15.502757911177424 1 1 0
1615 1 10.51399644786897 17.36510544868228 15.163018948768128 1 -4 0
1 1 15.63537633107105 15.806709816734807 14.021762974739923 0 0 0
1984 1 16.780801062273845 17.596907515696856 15.649226320650474 0 0 -2
1356 1 21.171837762380736 16.154252229361525 14.006762958487906 1 1 -1
416 1 22.96468879643754 17.65069683316616 15.669643569065263 0 -1 0
1893 1 1.2680097460566553 20.724299172492284 15.611571933231502 0 -3 1
1851 1 2.3158876091913854 22.26780021443646 13.691003268228451 0 -1 -1
1834 1 5.895502705200243 19.045600838376842 13.436550834026995 1 -1 2
438 1 7.484905870801172 20.651828372500386 15.03308936983953 -1 -1 1
452 1 11.754065693272425 19.298800162911554 13.652660038321532 0 -1 1
619 1 13.382264888515458 20.720297395977862 15.36907602699578 0 0 0
521 1 15.059494136817932 22.10970077853096 13.824371106012757 0 -1 0
905 1 18.259626647003664 19.06414460505292 13.809065726151108 0 2 -2
745 1 19.852603425293598 20.4026684976023 15.290385557992543 0 -2 1
453 1 4.076950009800045 23.61297471450394 15.118160369598732 -1 -1 0
1804 1 11.656395075178454 25.426441366696704 13.458051923092802 1 -1 -1
761 1 8.817915839787446 22.101207125942707 13.286725505670265 1 -2 0
1111 1 10.296250941291378 23.823441981159704 15.180653729422245 0 -4 2
939 1 16.1248834150891 23.834573054530278 15.670522176940617 0 0 -1
1074 1 21.437613119333125 22.287970694202766 13.99544433444788 0 -2 1
731 1 22.94535471561726 24.196313088559137 15.25543722646002 1 0 0
240 1 4.321521634513939 1.2785802936924544 18.577522758476135 0 2 -1
251 1 10.509997425562318 1.2894196023848326 18.63529611243254 0 4 -2
791 1 12.040553748653727 2.7796087198021926 16.935179593298095 0 1 1
946 1 15.047366352482122 25.557647204322926 17.278281346424198 -1 1 3
73 1 16.669193516804416 1.730189596209214 18.349273246850373 1 1 -1
1916 1 18.55552887559448 3.2522624731950134 17.063976300790817 -1 -2 0
197 1 21.343726616494916 25.394353560771947 17.330582146728386 0 2 0
196 1 22.72059692537887 1.5352741283591977 18.879756561365173 0 0 -4
485 1 0.7486612039919094 4.679468989939115 18.64601562986625 -1 0 -1
1570 1 5.936095794512458 2.980653891311642 16.75769243072049 1 1 -2
162 1 7.559916562989661 4.7211036443359164 18.444700596970012 0 0 0
1669 1 9.230395468244637 6.188492884745098 16.879339894318885 0 -1 -1
920 1 13.54168913076823 4.519984502628467 18.655209553051503 0 3 1
1226 1 14.99398534497 6.370330649402155 17.068844872470137 0 -1 0
820 1 20.114858139200933 4.540098395708641 18.88455379597144 0 -1 0
910 1 21.53883695193189 6.267966419623945 17.2582878572338 0 4 2
381 1 14.853599054643794 25.40396686584528 23.462590949299575 0 -2 0
190 1 2.645548856623642 6.012525206951007 17.07322460896532 0 0 -1
1228 1 3.945790104699105 7.7212513939646525 18.656833907197434 0 0 -1
1299 1 5.876198367018647 9.013520435786608 16.960827598142952 0 0 1
1668 1 11.018206193477692 7.87586778821571 18.499227203812925 0 0 -3
1425 1 16.926277275600974 7.873440555158189 18.632580122327333 0 -1 0
466 1 23.188255586807834 7.6131619159966775 18.841763285439136 0 0 0
992 1 1.0935541844352228 10.989358492776667 18.367331524565905 1 0 -1
1716 1 7.4223718180733425 10.891479743057605 18.37119051844719 0 2 1
663 1 9.106689919400221 12.783673540853986 16.853335793578246 1 0 -1
1032 1 12.043729654632362 9.687556892134234 17.028548516476654 1 0 -1
389 1 13.99202728735316 10.929710455762198 18.730957435343072 0 0 1
575 1 14.831509875903615 12.91398074625464 17.13238447284341 0 2 1
1610 1 18.43888640125821 9.606759611895423 16.94541593122282 0 4 -2
544 1 19.96216699292139 11.05114306270704 18.934286552631264 1 2 0
1774 1 21.718223274366796 12.7310895809484 17.332676184298162 0 1 -3
1521 1 2.562449144615337 12.792370890011306 16.878689045199607 1 0 2
1623 1 4.368655473059214 13.9082778291496 18.570977057439503 1 -1 -1
496 1 10.633177463539338 14.415854868151152 18.620690182783154 0 0 0
200 1 12.247452716381385 16.135518351015605 17.237370233577156 0 0 -2
1011 1 16.563684036004076 14.326526361579445 18.669194678814574 0 -1 0
1304 1 22.994050228902505 14.50130160361054 19.332572481092992 0 2 1
346 1 1.3750879538498406 17.568993520184765 18.94649559701991 1 -1 0
1638 1 6.135296606361755 15.711684194185118 23.043116527754183 1 -1 0
1435 1 5.827974787424097 15.408733661737655 16.616062770502158 0 1 -3
673 1 7.12438988654993 17.47633698818963 18.613930328831373 0 2 -1
24 1 14.005961308569415 17.428273262663556 18.92039188608905 0 1 0
658 1 18.58466142833361 15.908644893761931 17.22306358137846 0 3 -1
101 1 19.692032058704708 17.700647543827834 18.893095525292342 1 0 1
488 1 22.781344314237206 14.534713952665713 25.149407499868047 0 0 0
392 1 16.776828147826834 14.241299897540378 25.19759827009621 -1 -1 0
1190 1 2.5717996801906624 19.021842626497982 17.08932947204995 1 2 -2
1702 1 4.086272700380535 20.721715259797758 18.626738432586105 1 1 -1
228 1 5.828772500215378 21.9510620143153 16.968606216144096 1 0 -1
922 1 8.770263848193146 18.979220943159774 16.777483955118093 1 -1 -1
42 1 10.46467271383384 20.707067499565547 18.41274852217342 0 1 -1
1736 1 11.678971616241125 22.43435341591254 16.86367183414908 1 1 -1
1324 1 14.889426384543835 19.21106194409819 17.15393189111782 0 4 0
382 1 16.471990361461746 20.584021209583646 18.832733644733146 0 -1 -2
385 1 21.137100857186173 18.977303089998838 17.07304880144625 1 0 3
970 1 22.845339050222176 20.67438004889204 18.819351328249553 0 -1 0
1943 1 2.701358014592419 25.184747282284995 16.998720066157713 1 1 0
53 1 1.3517410969990813 23.746287342701383 18.700997690745275 0 -2 1
751 1 7.374320984266341 23.76027590330568 18.566618952702886 0 2 -2
360 1 9.00193992444841 25.593040847801856 16.84235664786003 0 -1 2
379 1 13.126404455515654 23.893049489407495 18.70127431551366 0 -2 -1
169 1 17.971817791873317 22.058255532101494 16.861696917007585 1 1 0
32 1 19.69175480938761 23.497537218191507 18.94542722464095 1 -1 -2
880 1 1.522419154126983 1.3870058074119784 21.888399728867622 0 0 0
275 1 2.7615715933291134 3.0930274916268052 20.0177561918885 1 0 0
467 1 7.538143370949712 1.253591915438763 21.926223830212244 0 1 0
726 1 5.981612148915735 25.470924850567414 20.209454931041943 0 1 0
1180 1 13.618465054967384 1.3931801373309562 21.859615969028376 0 0 -2
1494 1 18.155939625244056 -0.017368948543666135 20.098011036591803 0 1 -2
1222 1 19.65706486005951 0.9549518292627981 21.910026669898343 0 0 0
495 1 1.4510039838613265 23.922264988289783 25.24490121158461 0 0 -1
525 1 4.432276650825703 4.198269285985758 21.816214626721493 0 -2 -1
573 1 5.553780463753391 6.141260256808939 20.177778098343463 0 2 0
363 1 8.988554800132741 2.9589348974728327 20.371236787071343 0 2 1
489 1 10.330717744634418 4.74412009490039 22.30833717856137 0 0 0
1085 1 15.180803696046093 3.029113974431609 20.234532271579248 1 0 -1
1816 1 16.83937276540306 4.33176218576302 21.68843297046785 -1 0 0
97 1 18.383245517675938 6.2182281534302986 20.224232346103296 0 -1 -2
1186 1 21.20544932125255 2.75371924686682 20.65568661534531 0 2 0
833 1 22.651288187301432 4.514083117332459 22.09100116455537 0 3 -1
297 1 7.541991678047318 24.008769430935896 25.04865234010425 1 -2 -2
1162 1 1.0073170499437338 7.8193732812420675 22.0062635251536 1 0 -2
87 1 7.350681931537988 7.643995941254549 21.608819559060805 0 -1 -1
1544 1 12.092519189578578 5.825154914556685 20.61521642473094 1 3 -1
948 1 13.691188121840417 7.564681365920858 22.05879103231654 0 1 -3
1116 1 15.23854222103456 8.98330008531687 20.42210521226561 0 0 -2
40 1 19.800293478170627 8.010474092886847 21.9749267905691 0 0 -2
1462 1 21.82071747367293 9.24738568230186 20.45007165922339 0 1 -1
587 1 11.879173432226635 22.273429520759006 23.37119995244259 0 1 -3
1948 1 2.3793094717950494 9.343596210069286 20.06413481788183 1 2 -2
147 1 4.28319982040229 10.924437469193341 21.716228218007053 0 1 -3
100 1 5.788887022371021 12.37682887246852 20.021673462807325 0 -1 0
1090 1 9.089245388345892 9.241874066458788 19.902200196191895 1 5 2
335 1 10.511698126030069 10.90546703613816 21.666008077130986 0 2 -1
1157 1 16.491947014039685 10.926195628441302 21.94083964574628 0 0 1
314 1 18.06874776428063 12.571213695227167 20.22298641091178 1 -1 -2
1812 1 22.964150361644364 10.958966234563265 22.27465351437704 -1 -1 1
1457 1 1.7416751374188606 14.30124595644703 21.59528825437912 1 -3 -2
639 1 7.329565245075261 14.038233082490027 21.33584650466238 1 -3 2
1072 1 8.730997683536982 16.02800700469629 20.08843112624277 1 -3 -1
227 1 12.272154504341735 12.44127174196183 20.045574746315516 0 3 2
13 1 13.31406982580371 14.274769824807048 21.94443522422059 0 3 -4
179 1 19.418566112866163 14.08374790825887 21.883887689815055 1 0 -2