LAMMPS data file via write_data, version 29 Oct 2020, timestep = 4000000

2060 atoms
1 atom types

0.8211732418134758 98.41136788303088 xlo xhi
0.21124196760967706 25.31574329021762 ylo yhi
0.21124196760967706 25.31574329021762 zlo zhi

Masses

1 18.015

Atoms # atomic

1316 1 5.306571185328158 0.4891118593686663 0.44396237412188677 1 3 4
524 1 6.533219213906297 2.9210463486291838 1.2376773922095021 1 -8 0
256 1 9.292214562345057 2.4413398681009264 2.1927635792233096 2 0 2
1622 1 18.586059062446903 3.1373994359805435 0.5392354667855022 1 4 -9
756 1 23.514038217915708 0.9930845820425684 1.016817522778683 -2 8 -2
1304 1 22.193345972280657 3.2653693657972287 2.6045958736697044 2 -7 -8
1784 1 3.2361706070396346 4.6992948793620934 2.5367208894314004 -1 7 0
684 1 1.2090879346702792 3.4807401993713483 0.888516654793183 0 -6 2
762 1 5.932961174812088 5.68845474495826 1.664781366985628 1 3 2
1075 1 11.298828649500152 4.591614536580123 1.611089673584357 0 -5 7
2008 1 14.08350336036368 4.306419963638356 1.9260583955941013 -1 -24 4
1862 1 25.21396952011296 4.070093129909901 1.9255759206463734 -1 -3 -6
308 1 1.9025836169961599 7.234458538977198 2.9805859304792763 0 1 4
1980 1 5.279358291730941 8.033101576139002 0.21788236774178316 1 -3 5
172 1 4.142438770687341 8.683059115873846 2.7604153423005577 5 -2 4
1807 1 7.9769891559626664 9.023411707530379 0.917368085984277 1 -9 1
1888 1 8.199421402237935 6.529469422053325 2.8409521262586526 -2 -8 13
874 1 10.841008654731299 8.820042464940594 2.2535674318963914 3 1 3
986 1 13.82048144015341 8.844748518750455 2.077626523264204 -1 -2 -1
1634 1 16.73010967958413 6.514736980593488 2.0936946170802075 0 -10 1
831 1 21.47996223572059 6.5642170242165445 2.113485988052111 1 -3 -8
1238 1 19.374122312177345 8.662078093740885 1.189674550545273 -2 -15 2
560 1 23.41922131699881 9.078453216451503 2.63099687884172 -3 3 -7
124 1 3.4843557398944975 11.207856585525194 1.4918997176204063 2 -11 -12
891 1 1.386902173453925 10.755493978290275 3.225958803952124 0 -2 8
1207 1 6.645380815484186 11.143140621292957 1.9152047192804753 1 -5 1
573 1 15.530370806403644 11.557181720248904 2.4835115540161055 2 -1 -3
2027 1 19.919462375503272 12.745479903402927 3.1358184947099095 -1 7 -8
750 1 22.121630721274226 9.97868096800644 0.5800694419283707 -1 -4 12
930 1 22.272564750244026 12.695728498597536 1.4473786761245768 -1 -4 7
980 1 4.3164240063653425 14.201970431790318 2.2199407626600123 0 7 -8
343 1 8.751414672457173 13.559969731281669 2.8539700141438433 3 3 14
237 1 11.576051133670335 13.253431072864956 1.4324387825915927 0 4 4
299 1 12.76041336663627 15.649621885753547 0.5762429672438625 0 8 -12
188 1 15.901605868938493 14.453762464213511 1.7120217509117455 3 -2 5
529 1 18.643887825875023 15.129494986870927 2.581533588132951 4 18 4
1237 1 23.470771158182757 15.499138809162995 1.251714440596556 4 -9 -6
1890 1 2.3218262211090694 18.86710966052319 2.5178990499626095 3 15 21
1841 1 1.8972316456478695 16.16624286353429 1.6383198355554394 -1 0 1
1490 1 4.515699307464734 16.779306730483455 0.576313320979642 -1 -6 1
531 1 7.499886602696831 18.895538982463222 0.5932813541405499 -3 7 -1
714 1 8.81671768040045 16.893392325229655 2.241145884978492 -4 11 18
1580 1 13.622433741962432 16.305933587969786 3.0963043585870578 1 0 -5
526 1 17.118593672500012 17.819515409691164 0.8592969796840823 -2 -13 -11
489 1 20.886299393845032 17.01841244597566 1.8138679099356072 1 -4 12
32 1 2.2244873837407106 20.78068797750066 0.3031831647211959 -2 -11 0
275 1 5.164397410330111 19.927545618454484 1.2175782286253998 -1 3 5
2007 1 7.866752438624893 21.489521665421602 2.5735625105209783 1 6 3
407 1 10.548977611554493 20.599910979506873 0.4816536141452851 -4 7 -13
2057 1 14.404793388154838 20.876700321184373 2.7054768470058934 2 -3 6
1733 1 20.499782094146195 19.799630649180894 1.4429283712006116 2 -3 0
674 1 23.06912798808479 20.322970858456944 0.35392352401173355 0 11 8
1592 1 2.2062167911257067 23.41625995784654 0.48891450054035723 1 -10 -11
60 1 4.112241152980129 24.07540712671629 2.8795435704353154 0 3 -2
1272 1 8.81374925703524 24.248326974164783 2.954161823653639 0 -5 -1
316 1 12.657254457485589 23.01834119618248 1.1425429445732638 5 -2 7
243 1 10.798706902772716 25.143402669123848 1.094916046687433 1 -5 -2
651 1 14.662695049339938 24.876356925729397 2.306842666752895 2 0 -6
948 1 17.919225044436267 23.269894227839178 3.0280596551126537 0 11 -5
1296 1 17.25608497310848 23.62482864591189 0.26827766587517327 2 -3 -10
581 1 20.787628749833033 23.658055663823422 1.0794534972793945 -1 -1 14
2033 1 1.9426609327349034 0.9654004786116396 3.5551234599866293 0 1 3
24 1 3.600532077435354 0.4638596737362535 6.40758369144968 -1 8 8
1944 1 6.42767266014051 0.5502887915747514 3.4270972994019058 -1 21 -4
1868 1 6.212957594889974 2.351915409474607 5.762738535384725 0 -1 5
632 1 11.685244004662126 3.3460010740218427 6.323731497311881 3 5 -3
601 1 12.020586171022849 1.4770752320460276 3.8247378664566223 -1 0 -8
433 1 14.819546111325842 2.3513756058891353 3.4700393897097803 1 -2 -4
1694 1 17.383995232577895 0.4289204183711302 4.059636672189217 2 -8 -13
545 1 19.209116020844025 2.545591234805969 3.4961161589678635 1 -17 18
768 1 21.34085094030236 1.5508144141224631 5.406485904866347 0 12 3
1993 1 23.944826184328182 2.184522488441024 5.378116581226691 1 -6 -6
235 1 3.2025903003126324 3.351643930574439 5.069108650457338 2 -7 -5
847 1 5.21354030975476 5.528983551696303 6.1839972633141596 2 -3 9
1782 1 9.679533905941291 5.566048311192973 5.813088203526902 2 20 10
56 1 8.126642246853162 3.8617073266862096 4.2783930011154 -4 -11 -1
1678 1 13.528988223019637 5.476888029259898 5.805952253409795 2 -2 7
867 1 15.695321048951245 3.648395969993938 5.8425534348474635 -2 9 3
1545 1 19.05978897718984 5.424182185167173 3.6738735680142245 -1 -2 7
105 1 16.92993614399706 6.360933489291967 5.281798719288031 0 9 3
865 1 23.67566309721225 5.407171516278059 4.107372465818698 1 -3 6
1956 1 1.2584069902798267 7.702402668420452 5.757581545499492 1 -6 1
765 1 5.993868600546057 7.854196863146326 4.6823330265017935 -1 -2 -16
1507 1 8.64191647759869 8.926820678868815 5.135604565047671 1 -3 12
1550 1 11.291707470683539 7.761158618514568 4.814441944908356 -2 -4 7
861 1 14.397519815718944 6.632654718245182 3.7629280578976987 0 5 5
1869 1 13.632889973635999 9.497770840630295 5.204501883974546 3 1 10
1273 1 16.02699428024919 9.316924707546471 6.194392930548533 2 1 -2
1314 1 20.241771800778587 9.14626658971245 5.993371266160057 -2 -6 -18
123 1 22.596736193336273 7.7361173664431435 5.720418906597523 1 15 9
171 1 25.103293663198723 8.911473066487558 6.195541938744126 0 2 -15
1748 1 1.4805479850087333 11.032585829032577 6.344370999595677 3 17 -16
1283 1 5.347814559885835 12.047549149310694 4.282962273226124 -1 -1 7
1707 1 4.507220915305654 9.95845521366389 6.391896719753226 1 -12 5
190 1 11.390946210146403 11.599942318675327 6.159756814721145 -1 -14 -10
295 1 10.217033207923434 11.122434454299494 3.7825131992975716 1 -11 1
1396 1 13.12750806599592 12.123530356206098 3.397041950969284 -2 18 -3
1860 1 17.240663150350745 11.122302208632957 4.853309183107883 -2 5 -17
661 1 19.42759068911094 9.868771371682048 3.7067102708578004 1 9 -7
1010 1 23.87117616054209 11.252030720238933 4.238496230801811 2 -18 -3
2018 1 3.533207402702653 13.949459045042461 6.018105616783004 1 10 16
352 1 1.5899590263195669 13.423875344849431 3.404103853510954 3 -5 -3
1065 1 7.425390213784625 13.67129028265126 5.284985656047978 -2 -8 -6
2009 1 10.687745191334987 15.341851555922903 4.2057918184367455 4 8 -11
502 1 13.325714861658422 14.247498634342106 5.047036141268025 2 -1 -7
1752 1 17.46123401091789 13.705294499673142 6.268076217915263 0 -7 5
177 1 21.869735460752388 13.653751446891805 5.141977001179036 4 -13 -6
194 1 2.8811064373639517 16.19628355880087 4.642048079915306 -1 -4 -5
466 1 3.783456555529614 18.779532497964897 5.531418255805822 -1 -5 2
1510 1 10.191235094890981 17.903923897305294 5.9001861463502445 0 1 -16
1726 1 15.465850329881713 18.188584326909833 3.457672805661456 -2 0 2
1810 1 17.353309657049984 16.422676323792018 4.64947569748788 -1 8 5
1725 1 21.468359217640998 17.08325485552184 6.369519205396836 -1 19 -1
841 1 19.3688700215909 18.268171564567005 4.9451466308361045 -1 3 3
804 1 22.92341885617091 15.988660214599483 4.110397110668682 0 -4 -10
1341 1 6.683648851635025 20.094635450182707 5.617407584844994 -1 6 1
205 1 4.746866807537382 21.225490037318448 3.74379259186001 -1 1 7
38 1 9.276469169488829 19.357638290667932 3.8161652209569548 -1 14 -5
185 1 11.630150902798057 21.39705471637922 3.397684476141966 -2 1 12
643 1 12.866580299235126 19.641831143175366 6.068485195740546 1 -5 14
1073 1 15.708573275716978 20.129344743938265 5.941766266261078 1 11 13
730 1 21.315544737778158 20.476516818235634 4.179824804118901 2 1 0
1809 1 23.8181686252619 21.89692735210786 3.9218624984020787 1 8 2
626 1 4.271508272333682 22.71584109481953 5.882289424810001 -1 -2 -1
678 1 7.895488180963921 24.904330496351054 5.932824123460204 2 -2 1
262 1 11.052378008026015 23.93100397106494 4.922210957320784 3 -1 6
405 1 15.657015936025719 22.45954555930542 4.449275747690442 0 -10 1
1895 1 13.804569802354136 24.509276681972835 5.455060036640788 1 6 5
532 1 20.2539761406337 22.92505929009835 4.691465110384551 1 -10 -7
241 1 22.25427901562895 24.498706960116106 3.414482793762109 2 4 -12
1404 1 25.191048170882137 24.865936715705434 4.654249539607066 1 -9 -2
53 1 1.2885742655923282 0.8079716324036917 8.26572688334258 -1 2 -8
440 1 9.062059968895582 1.5798592499354214 7.647105714141129 1 1 -2
1709 1 12.819630194546395 1.9058608516022881 8.598617406639908 2 1 -3
1664 1 10.899011358979413 0.36342347458356494 8.781458869573774 1 7 10
495 1 15.472208387328585 1.2020273177066136 7.150944507100447 -1 10 9
1334 1 19.8744989172202 1.8025967640403138 7.795762046694533 0 -4 4
364 1 24.57735624145467 0.2693523683502926 8.098329434100624 -1 -14 2
305 1 23.54489903034273 2.97774637489484 8.601321584318242 -1 -8 -10
519 1 3.554375999145256 4.055027254308455 8.940336086868086 -1 17 13
1289 1 10.1528263152817 5.0441841651803765 8.909499370022456 2 -11 8
879 1 14.484089431245746 5.728525159852486 8.821124897773474 0 4 -1
457 1 17.84311609059843 3.8831325719397616 7.75719795102286 1 17 6
934 1 22.139180142332673 6.058533854293006 8.289481188954644 -1 5 4
698 1 20.588896208416596 4.291384644499399 9.524101913342705 1 -6 -10
82 1 24.57816832008036 4.6980923626465305 6.636062254726154 2 0 7
976 1 3.607034339840749 7.446919502744553 7.470036738106433 -1 0 -2
979 1 7.390870722706379 6.548291402948898 7.771345195403654 1 15 -11
242 1 7.421375234061314 9.261543389726958 7.846619166500844 2 -2 -3
2040 1 10.137357227357246 7.66950063965421 9.501877987535332 1 -16 -6
216 1 12.51459511886578 7.773365922728033 7.636983929170967 0 7 -6
935 1 16.946923754388123 7.344034036969878 8.8580210862488 -2 -5 -9
1972 1 19.332312544374332 6.54256767806427 7.288604318315702 -1 -5 -4
1178 1 1.8830045476508657 11.779151630403327 9.506671028760069 -2 24 -3
1212 1 4.413498385934497 10.505666921098497 9.361673286131333 2 4 11
484 1 8.691665686462533 11.689476611039185 7.404779099126893 0 4 -6
356 1 15.841087215816865 10.018767268975257 9.158677111475495 3 -6 18
1706 1 13.07287528586295 10.785873843008266 8.381613634951172 4 7 -7
629 1 16.780373716473868 12.674610620623547 8.962285107619344 3 -1 13
743 1 18.76326388345556 10.196792236153092 8.032201793822281 0 14 18
1468 1 21.773911229182517 11.25669414179634 6.795762424705001 -1 16 -12
544 1 23.665779709303212 10.37687278396701 8.25243718627892 0 7 4
107 1 25.18029890530604 12.594449872660501 8.503732972757762 5 0 -1
1676 1 2.8521048271462033 15.081240023047922 8.723190137345796 2 13 -2
710 1 5.542172915253382 12.996378116817125 8.015000587459735 -2 -10 -21
713 1 6.052395729390228 15.204552807549375 9.548959603721215 1 -9 -3
277 1 8.97099258859277 15.803001387162775 6.844972783214867 2 7 9
746 1 11.414102156209491 14.14040631371314 7.600337126752101 1 -7 -1
1936 1 15.149047244209804 15.268324026124118 7.193048838650018 0 -1 9
2019 1 19.894952454174994 15.033528074951223 7.226053715169869 2 -3 -8
723 1 20.987130275758958 13.059693624239229 8.869856982308457 0 2 -5
1496 1 23.92546129425171 14.714409875444522 7.0050274367585095 1 10 7
159 1 0.918500322410158 16.858355409815175 7.063695965182954 0 -13 -14
2005 1 5.951608689107772 17.01751261926342 6.555602743465503 -2 3 -2
1484 1 5.379341439226401 18.0602717119596 9.406400966085311 2 -10 -3
827 1 8.21723884811868 17.938816059206058 9.588725443586407 2 -8 -6
1915 1 12.129394388749942 17.229430685641255 8.438931407706908 2 5 0
13 1 14.844449386678543 17.9082533187047 7.869681758865794 4 9 -10
273 1 18.300634994585444 16.738848720028976 9.00607735782556 -1 -12 1
1478 1 22.78416122034148 16.770255192914316 8.844132449653436 0 -3 3
2053 1 2.1953394807747806 21.607903328659617 6.962787526445732 1 -12 -2
322 1 1.2155068816518282 19.155742737835443 8.628041088951095 2 8 3
1179 1 9.04602929592053 19.6037360391805 7.5230804206813735 -2 -7 -3
639 1 11.549508337564923 20.596690920496375 8.277476073995464 -2 -7 5
1950 1 18.096471413413234 19.29124575992971 7.243543485630469 -3 -9 3
1093 1 21.545439414881834 19.86024887828911 7.170441597827283 -1 -2 6
1491 1 19.53838786488024 21.940121645419246 7.473967869999203 2 -13 5
77 1 24.18074548450203 20.836401871844142 6.7785820885461945 -1 9 -12
350 1 2.3283243521796324 23.025801603643647 9.541493070227968 4 9 -20
1717 1 6.882144869987413 22.507135848704387 7.3295991749933505 0 8 -2
1559 1 4.642139295899577 24.453085156050022 8.923406602301153 -1 6 2
423 1 10.082456262209476 22.915441868160524 7.361918777074701 -1 -5 -13
1352 1 14.167077757444728 22.553353526179528 7.7364361405370685 0 5 9
1880 1 17.81560967147313 24.977477180140365 6.815496337002535 0 -7 -3
1814 1 17.027613635912505 22.255653113494898 8.37647630028687 -1 4 4
815 1 24.9228916255733 22.309246216266267 9.177745046067878 0 2 14
1195 1 1.3925178757945909 2.112836777219358 10.664029083212668 0 -3 -10
226 1 4.612227885802662 1.7451977039750672 9.986225791835777 -2 -2 1
238 1 9.72027771588924 1.6121391235249793 11.309631609536092 2 -10 -6
987 1 7.4473149644762335 2.231297028972994 9.702538614534362 -1 -17 0
173 1 14.182435936747659 1.1596596697317145 11.895829376227663 4 0 0
234 1 18.32938937718118 1.2756516889231333 11.091952037426218 -2 -18 9
1504 1 21.10658157876473 1.4799405075453964 10.384121068777233 -1 7 -1
970 1 23.000245887423862 2.9686176524623313 12.266687521459918 -2 -1 -17
1116 1 1.1631200163533983 5.39929515704084 9.889826257225154 -1 -4 -6
1377 1 4.77243129529481 5.279396600146839 11.056672006510434 1 -1 -3
969 1 7.537514538985457 4.793255837213296 10.295943269739917 2 0 10
1292 1 11.785799877595455 3.6603403113283917 10.761297736595443 1 -1 0
671 1 14.874544935871215 3.7194146363912544 11.601500800274582 1 6 0
839 1 19.04046872693894 6.317366790973274 11.26757533697934 1 -2 3
638 1 17.09619797885545 4.489962534596265 10.2985833920716 -2 -11 -1
975 1 23.58278716834082 5.017676841330982 10.907407166640088 4 5 3
1231 1 3.3976165555082343 7.689942749144733 10.397589927859872 -3 -14 4
1522 1 0.9387849518116164 7.910705315629546 11.884098477811282 -1 15 -2
760 1 4.74606472151056 9.18239611471201 12.619790982704309 -1 8 -5
706 1 9.33014954892421 9.177584532377244 12.702338916094691 -1 4 -1
163 1 7.109289388193924 8.579479475812962 10.678345734022239 1 5 2
1518 1 12.861703748731264 6.646305303505582 11.174358530006023 0 3 -9
1467 1 16.06767470771017 8.483783004282715 11.895381339029523 -2 -6 5
135 1 19.809594303778603 8.778705638421652 10.22084365620838 -1 14 11
1303 1 23.11086871970572 7.623656065717588 12.55857796790986 -2 -1 -11
458 1 22.586904162231644 8.187851942495955 10.055391148851776 1 0 6
1837 1 6.69853680958187 11.784163650254444 11.439088268751435 0 -11 -5
843 1 9.103397089243314 12.539839750099334 10.560445857946226 0 9 -6
1900 1 12.516430649564896 10.273320709062814 12.693668214999903 2 -7 -11
820 1 11.060245545039026 10.312000294271009 10.453521985085908 -1 3 1
2024 1 14.074801733436175 12.661581141391721 12.482442952617792 3 14 10
413 1 19.142343655770247 12.123299909277891 10.607999247965475 1 -8 9
709 1 24.642974818412487 12.400894028818751 12.675921197667732 -2 6 -7
1113 1 2.54038842655386 13.672291584369113 11.423612533626521 0 -6 4
1587 1 5.37966611209267 13.852484737299783 11.99543821184365 3 5 11
1595 1 9.366549211758542 15.41182932432107 9.82942881607727 3 -7 5
1370 1 12.535191278415933 13.276983383155448 10.03017656133832 0 -8 15
1284 1 12.09490021088769 15.827200996454629 11.257959653941386 1 -7 6
1696 1 15.16832796642764 14.513181521104306 10.148049449537847 1 -4 -7
368 1 21.754341106216383 15.10479114966958 12.344591559171462 0 3 -5
927 1 23.49725769212819 14.190199137704628 10.47408437824674 1 9 -4
805 1 2.6020515737502707 17.465714093661894 10.592175019231712 -2 0 8
334 1 0.8551439318793413 16.345601712291273 12.414840740872084 2 2 -1
332 1 10.641644727387606 18.63895584563402 10.891352820467903 0 -5 -7
1800 1 15.79771453546821 16.31287865173774 12.01311353559638 -2 12 -9
345 1 16.124697191040134 18.32466172154519 10.240285521129112 2 -1 -1
1417 1 19.4714723453817 16.62965718446552 11.787655971625782 -2 11 14
1015 1 20.663410637630463 18.59207400818182 9.655496130640168 -1 1 -14
20 1 24.644039144150028 18.303275783358377 9.695067276373374 -2 -8 -11
981 1 3.7114501296989006 21.927802256213162 11.498853679350773 0 10 3
446 1 4.005044006510083 19.22831520417593 12.370995071628522 2 11 5
1795 1 6.922617469674537 19.095639949105006 12.419615095893192 -1 2 2
795 1 11.837394389481743 21.440474162604307 11.009287041695663 1 4 3
901 1 16.92748579580539 21.053063925587338 10.840095463537873 2 10 4
1127 1 20.92855558385896 21.762746199935144 10.128220524168151 -2 -9 4
1986 1 19.228839894468205 21.54600525238396 12.139583059256662 0 -8 0
1608 1 23.48621902333748 20.507252094833266 11.161742601535714 0 8 -1
279 1 6.221054022414501 22.513379914763437 10.184536637921623 -2 -1 5
330 1 7.439904829562725 24.53957235965325 11.67643502359138 -2 -9 -3
1976 1 9.418832085908512 22.840630795355803 12.455544714743302 -2 -6 8
1979 1 13.415657968546169 23.65626236569539 10.434836388351755 1 1 2
1139 1 16.420769150025848 25.125711115811338 9.725620220239875 -1 17 5
1744 1 22.427452826300375 24.027387912257712 10.357665313055506 0 5 24
792 1 2.358361008178843 2.4860642348711792 15.352018067322385 3 -7 12
284 1 4.035754516038166 1.6192902674287064 12.768913276522778 0 12 -16
838 1 6.653522675261953 1.8164329516029565 13.55381759531194 -1 -5 4
1735 1 10.347291070466056 0.2908141366386714 15.51868920666751 1 10 1
35 1 16.306050546876634 1.438517104785709 15.800411740226053 2 -4 0
1476 1 17.58013388690231 3.148205116165153 13.500446300599455 0 -14 10
852 1 19.84670501486266 2.5738465934359067 14.688002607758643 -1 -11 -11
351 1 3.5674976660815045 4.407166575773889 13.4017592710756 -1 10 -4
487 1 6.117026580276885 5.008743795510099 14.531906992446636 1 0 5
616 1 8.117678542262215 4.11267359111763 13.015555718835188 2 1 -2
1117 1 10.936361227677308 5.405163113906566 13.430152763200967 2 -1 -1
1502 1 13.866349494444668 5.003050499976824 13.811572747176305 1 3 7
1418 1 16.809581082765092 5.76112657264771 13.746501520566614 -1 2 15
1480 1 20.922942667867233 6.372603560858295 13.410777127795429 1 -5 3
76 1 22.113339447736703 4.066439917748948 14.497134718982593 -3 0 3
1741 1 1.4001310081690839 6.6702443630837704 14.152540318316952 1 1 -9
1027 1 3.8256811511351585 8.809170988067814 15.63226197199316 -4 8 14
1209 1 6.363830079526441 7.557098777006559 15.375744271551303 -1 7 8
388 1 9.691365058185685 7.452602938401857 14.92414842605645 -1 1 6
1618 1 11.582641281122667 9.591730779994105 15.422162162943817 3 -1 -9
631 1 13.938138431233007 7.861167267712032 13.395267586097948 -1 -10 -14
864 1 18.96055244527471 7.610975221616899 15.346209526341749 1 10 -11
1728 1 1.1800606435104708 9.761829964273494 14.664191368513858 -1 6 10
645 1 2.7837070027486885 11.53016946674716 12.817774306122107 -1 -2 0
587 1 7.226259905354942 10.122002343180398 14.089940028920251 0 -4 -4
837 1 16.812763366854515 12.527889013650576 13.626571942234175 2 -4 2
353 1 17.45877430306473 9.62636504210682 14.014158451327502 1 1 -3
1433 1 19.688218396811163 10.217672293273978 12.781359650325516 1 -3 6
1992 1 22.5578372224622 10.67525449501176 13.624249439851429 1 11 3
397 1 3.642657397907999 12.880179085103396 15.092917511360119 -1 4 -9
892 1 4.462672961681843 15.53436750285765 14.843959153509644 0 -21 5
924 1 7.35459488184254 14.337411926567649 14.149218167743479 1 0 -5
931 1 9.876639172033927 15.672283485763938 12.926249096999276 1 0 2
36 1 10.108136471482469 14.17789319154077 15.619675113671711 0 7 3
399 1 12.686882029632368 13.816522081130987 14.814766038170719 -1 0 -6
726 1 20.59855795454708 12.978798267492007 13.341570632286897 2 7 -16
1616 1 19.259165799891722 14.885007968072127 14.966974266298875 2 16 -1
16 1 23.552937389313154 14.978568530059125 14.561444340159829 1 2 -3
1912 1 3.7781907281643727 18.256006427190293 15.111964306236311 0 -5 -1
1765 1 6.78580923042496 17.234291456837127 14.434393079643906 0 15 16
670 1 10.591389966829016 18.57583378430711 13.553354292536334 1 5 1
1922 1 13.305017485870849 16.992130011336066 13.60726175490198 -1 -3 -20
1358 1 17.604490649906914 17.169131037959808 14.213446429923014 -1 -8 13
1485 1 23.18330706845692 18.16670465609016 15.797488295739493 -1 -18 1
1927 1 22.18776115576169 18.212827371600838 13.085477297736093 3 10 12
414 1 1.2692189816164843 19.380814676409894 13.209105658370365 -4 -5 0
138 1 3.3520220687735365 21.537185360037647 14.640383527348732 4 -2 6
1269 1 7.726923447455168 21.256944472064795 14.324508645531365 1 4 2
1173 1 11.012194434489855 21.514421542399013 14.7279313999121 0 -2 9
435 1 13.353473743363171 20.09239292327774 13.518710505869937 -1 -7 4
1796 1 15.020074355211223 22.14202337351052 12.901568533868636 -1 5 -7
191 1 20.5124528651226 21.70951439927922 15.843543132842568 3 -7 8
1421 1 20.07566248914701 19.591972078005753 13.864916102441262 1 3 3
1847 1 2.5694309716808563 24.62688604593751 13.782037954955374 1 -4 -7
86 1 5.434010987178574 23.053061444014844 13.572204651391193 2 5 4
1793 1 11.411350827178882 24.976812217453503 13.062511844488075 1 2 -9
1917 1 16.503905756252227 22.561391479748806 15.332381599056246 3 4 -1
567 1 16.613070316133026 25.058079335173588 13.228515773427505 2 -5 4
1789 1 20.404283375723406 25.23671453344455 13.093464045163369 5 4 -6
582 1 19.2550524428828 23.336120613112982 14.425798840564179 3 14 17
1220 1 23.6008443673102 22.896323874537877 13.193807885282231 0 19 8
1039 1 1.746011794824497 0.7074724886067641 18.583495762714854 -2 -4 -6
1647 1 6.042307233868677 1.4781928664814423 16.138189914634168 3 1 -1
443 1 10.458392641531427 2.6910642487883036 17.000302652243082 3 25 -9
1948 1 12.791309089787555 1.8986223015942534 18.086190492270887 1 4 -12
844 1 18.002023475450173 0.9104347758936896 17.84469237095368 -2 5 -1
1943 1 20.237421466676324 2.5222631910959894 17.40082231774464 4 -25 -2
960 1 24.07169110508778 1.101418942337737 18.98910329603586 0 -5 2
734 1 3.129602969847684 3.98190505128775 17.72056300915198 0 6 -5
1983 1 6.210319806375524 4.241193303438271 17.11683784776398 2 -3 -1
304 1 8.461966379969102 4.203238169070076 18.89563321205009 -1 9 0
676 1 12.339902671960603 5.07311576867646 16.52209160879386 0 21 5
48 1 14.946603790710181 3.7980413961092494 17.42298971159449 0 3 -7
517 1 17.38999648712807 6.121230305664197 17.05267802862422 -1 -2 7
873 1 19.105921509303382 4.564270770136423 18.6948360951999 0 0 0
102 1 24.84100453471354 5.114980113929475 18.77453038901237 1 -2 1
2058 1 23.073252101073464 5.773185748677425 16.707429631360327 -5 2 5
1852 1 2.9426541602664997 6.674169282749912 17.71263933653836 4 0 -6
1390 1 7.676164250797799 7.308534932843102 17.656491002641143 2 4 14
1194 1 10.598081980322933 7.017383288388887 17.884151191132307 -2 3 -15
1929 1 15.443108854452927 8.307122072472062 18.075446670549578 1 1 3
1261 1 13.5499443848612 7.912243511258054 16.22349397231693 -1 18 6
1819 1 20.12644626773641 9.348929481468197 17.403340174362267 -2 -2 -11
916 1 1.4196672306735127 10.608747569079247 17.675056504241127 -1 -3 1
1824 1 4.710431219130049 11.177611815868266 17.0337888785625 2 2 7
1440 1 8.74778817374973 11.179553660985984 16.155808099923476 -1 10 -18
1397 1 7.633937578275874 9.997057832643215 18.66745535206786 1 -11 0
1029 1 10.918860788133633 11.984883622740417 17.73750527412565 1 1 -7
832 1 13.7449321108133 11.452007094835029 16.117610866285602 1 4 -19
586 1 17.303742604363894 10.476247399649957 17.068696822858456 2 8 -7
708 1 22.556988716242913 10.755508524964005 16.445635255320262 0 1 -7
2010 1 1.1932320374950514 13.149428943558787 17.071974736468633 3 -7 7
373 1 3.331183971905317 15.172386683413649 17.566189170587265 0 -5 -7
1311 1 6.640040835041056 13.279900994437083 16.491015417507672 -2 -7 1
1770 1 14.70750931250379 14.702408611075366 16.896969229861668 4 2 2
733 1 18.719139244838694 14.440615317015924 19.006269659903833 0 -5 -5
759 1 17.37335227080484 13.494536778099365 16.600572740298976 1 4 1
949 1 21.021350086213104 15.585628275478117 16.439655624819355 0 -5 9
302 1 22.163324520153445 13.040655680450937 17.74357537193697 -1 2 -16
1019 1 24.86205831545831 13.995128137810262 18.26522138535447 -1 6 -11
1050 1 1.3495246239381817 17.392832056593058 18.63563518165495 3 -11 -3
1835 1 5.182570337392638 16.4435054989274 18.99419462682446 -1 0 11
1153 1 7.048094708262523 17.946729277763932 17.546501139585093 1 -1 -7
1098 1 12.929419445860121 17.05057670856946 17.5137015795714 -1 -7 -4
1129 1 10.14566747293469 16.499956612104164 17.005825672318203 -2 2 -1
1466 1 17.83804025383392 18.353115908390933 16.68205581180229 4 -14 3
1201 1 21.757571527077488 18.271414401667542 18.08317626925145 -1 4 -9
224 1 2.2902342525696064 20.234588380459794 18.11492571976537 0 -3 -1
2026 1 5.24320433437514 20.100497590500634 16.960947039000608 -5 -1 17
1077 1 7.886080632955138 21.478200209750984 17.338423275265505 -1 -9 -2
816 1 11.59975175133258 21.243279247600906 18.478970605196167 1 -4 0
1218 1 10.070619541198703 19.46845842715313 16.367604531036598 0 2 15
747 1 13.453908766562003 19.781472298814403 16.449830446354028 -1 1 5
669 1 16.051477895983304 20.303644322051174 17.195718763195377 -1 8 -5
365 1 19.607786285810636 20.212030529349313 17.802256034531027 1 -1 -9
231 1 25.14299348887404 20.518122942272715 16.180845347411733 -1 23 17
1893 1 3.7553983452193345 23.093577596985902 18.74206660170427 0 7 11
1441 1 3.713106496370125 25.191426034390393 16.364937694304636 2 -9 3
196 1 7.9969347043513075 24.855593994734235 17.055285362394283 2 2 -23
895 1 11.901714116523182 23.75227678417745 16.8217688552265 -4 -1 6
1151 1 14.582609183272 24.211809070836406 16.561992050374165 -2 -10 -2
1523 1 19.875986054703436 23.70384323557567 18.25695505068634 0 -2 8
1583 1 24.771306397818435 24.619629309759727 16.58561062143129 1 -8 -2
2039 1 23.22174774501454 22.327477531708197 16.290254399471536 -3 4 -3
925 1 2.9864584578316626 2.8895189011371474 20.376479789175185 0 3 -5
223 1 5.4145484117628575 2.7280312256096604 21.807167212035257 0 14 -11
1919 1 9.773573269997076 0.9115130231450461 19.634149748060626 3 -7 4
915 1 8.191223936089655 2.6272749381425404 21.084422078640557 -1 3 0
528 1 12.32696103657537 1.7894711647771124 21.09571479935753 4 -4 5
957 1 14.374894891741247 0.23618422376611647 21.703559264496782 -1 0 3
1593 1 16.742994679012682 3.079768379397638 19.621991756017206 1 1 -5
953 1 19.02412482930135 3.253074381484056 21.730899472004293 -1 12 -2
401 1 20.5761651095212 0.7694933523518365 21.869895157640073 -2 -3 -11
1169 1 21.74375460809377 2.358508544499938 19.868681746575472 2 12 0
2011 1 3.603537340025171 5.926130049255632 21.702900430198515 0 18 -1
1177 1 7.345832134719967 6.017685041844447 20.58728893872919 1 -1 -1
297 1 12.619701314767001 4.359276829813496 20.196064011291476 5 -3 8
694 1 10.437206650872303 4.448939782562212 21.915225665586426 -2 -6 -2
1971 1 15.319175302524235 5.955067887834702 20.014408223690836 1 0 10
1085 1 17.639906791089626 6.0451537562534385 21.272062146916152 -2 -1 2
1413 1 22.707587866872366 4.777860795957506 20.652016226051405 3 -16 11
403 1 5.182776077270507 7.361883887662116 19.776016081848613 2 3 -5
908 1 9.335331483595837 7.028628590180141 22.043967906750595 3 7 -8
1475 1 9.17582251700768 9.446896605796855 20.722979436324696 2 -9 12
1456 1 11.50742858933225 9.135389251790595 19.074337805691812 0 1 -7
1392 1 13.407697974580552 8.28524181692299 20.773472031754565 1 5 -18
566 1 18.88860650145221 8.927418738479085 21.9766783315238 3 2 -9
1579 1 21.254031894810304 6.542713445592127 19.252820445787066 0 -16 14
165 1 20.854653424956275 9.449645665317282 20.010715453087066 3 -14 6
64 1 24.079156874574533 7.973341697657054 20.76834397617266 -3 1 -7
149 1 2.0193673036992656 12.669837997968447 22.045285587013847 -2 -15 -3
378 1 2.1572684332831433 9.83138888158927 21.924176617803365 -2 19 -9
512 1 5.990243803393902 11.424215518575517 22.124842746321125 1 4 -3
1259 1 4.536795647015539 10.390377610950463 19.782464771445316 1 -6 1
1126 1 13.780385131947497 12.20093905172442 19.083053986979383 2 -16 -5
156 1 15.142228570664958 10.47474939113531 20.588694023729236 0 -4 -6
145 1 17.978878207698987 11.293491336469826 20.021256808917066 0 11 -7
1465 1 20.681306910412488 12.63117298687657 20.243640051723006 1 0 6
1685 1 23.117243081901673 10.779854314300298 21.914011694765723 2 6 -2
230 1 3.19325379330991 13.08862513566598 19.563415469039395 2 -17 10
855 1 5.060893387790493 14.568658920751979 21.06353734122843 0 11 12
808 1 6.94148410563306 13.578278512645293 19.071284798640715 1 -2 -13
475 1 9.659882038199749 13.321336818024209 19.68154959891204 -1 -11 2
1230 1 12.257078411222933 13.925790902261744 20.78624104028408 3 -12 -10
1767 1 15.266469391844515 15.577725413752725 19.47251397755762 -1 -1 -1
1680 1 16.214831082782307 13.597106890816512 21.049302779265382 1 -13 -3
721 1 23.214356743913942 15.898630571699899 22.018578057196414 2 -14 -3