LAMMPS data file via write_data, version 29 Oct 2020, timestep = 200000

4608 atoms
1 atom types

-0.30530951306219833 53.70530951306176 xlo xhi
0.04966472223192753 50.8574552777687 ylo yhi
0.04966472223192753 50.8574552777687 zlo zhi

Masses

1 18.015

Atoms # atomic

4217 1 3.4808651478135086 0.4926403623257925 3.7327052620846928 1 1 0
4496 1 8.404485624707272 0.37791578652199953 3.661545407490542 1 1 1
2911 1 2.754895755976748 5.2459035471797515 2.937339349287745 0 1 1
3220 1 17.391555632959683 14.593351518651648 12.171494980301057 1 0 1
2780 1 11.272446763342476 28.46994763369762 24.98976420099834 0 -1 2
1629 1 -0.04995906754036683 16.163057807247434 14.849726021208523 1 2 1
458 1 0.10298047724845166 46.25567214559372 9.456329094859122 0 -1 1
3881 1 12.832969383400282 0.24076824637750094 3.479755389339005 2 0 0
1149 1 11.765190111512672 31.26280048413367 1.1802413829434226 -1 0 0
1154 1 11.132254504377313 42.213836872973275 0.23453970984178174 -1 0 1
162 1 17.559880510396095 43.95620740607674 11.773414310676658 -1 1 1
2484 1 7.024162242882839 4.202217642218858 3.964708121388484 0 1 1
4479 1 9.577378785110858 3.7371095061438404 3.126400082127834 1 0 1
4435 1 15.795937082641377 0.831425005055379 0.8209922245300381 1 1 1
2125 1 -0.007786964414888298 18.952578953103597 2.7412900197944756 1 0 -1
4195 1 8.882571999548587 20.511387868664755 24.542407312200186 0 1 1
3145 1 0.13579054360642656 13.23999634719437 23.15027806905474 0 1 -1
2952 1 6.658922695925284 7.429972189314422 6.034880618290201 1 0 1
2436 1 16.56791791994857 48.88865106506633 1.6921581338680007 0 0 0
625 1 0.037928544059072866 47.90953727372283 2.9053871986891795 0 0 2
4441 1 2.3140672973077256 29.726385433924445 24.295332297190964 2 0 1
616 1 2.2407258022469865 9.931593989868977 1.3494048825414529 0 1 0
3242 1 0.8780479780367896 31.260182042548834 21.040977534474358 1 0 0
1618 1 6.658833940194797 12.204229855093025 1.94626735013115 1 -1 0
158 1 9.581161508343577 11.752289055900084 2.7436637000140798 -1 -1 1
1264 1 12.580233471906947 7.149591044813835 2.042543259952409 0 0 0
979 1 15.387378042811422 7.454097037690789 23.81654799555673 0 1 1
1619 1 0.04252455414892997 25.711730003079527 15.41483031528586 2 1 0
3153 1 17.219418645991706 36.10694944394055 2.0950209413185625 1 -1 0
3222 1 1.6403304887997248 33.74059273512525 15.183922963338185 1 0 1
3142 1 7.855637287440208 33.10474946606081 25.164454443914924 3 0 -1
3472 1 13.615401852890779 11.097305049206778 3.5762118595410897 -1 1 0
2261 1 0.48973393545772226 41.79884626524439 1.8313003595887312 0 0 0
1027 1 4.231273091523224 5.990503494980475 5.0812923825302905 0 -1 -1
676 1 3.9533069293343353 16.398590349159765 1.522761657212709 1 -1 0
2001 1 12.308774274017797 13.643592478049266 2.218437665187561 2 -1 -1
3948 1 13.223466581681773 12.331681788450052 6.490786746265953 1 1 0
3520 1 12.297716379175837 17.344635814237137 3.216360994478661 0 0 0
3126 1 0.10355806991532879 22.008086204808723 4.384452987454026 1 0 0
799 1 6.620778351938224 17.05015656787121 1.4231397648510438 0 0 0
3587 1 -0.01210715187014344 26.79346680459469 8.535835485833623 1 0 -1
3909 1 13.029219158583205 43.34041410394646 23.17236866975606 0 -2 0
2313 1 10.663514302187563 21.037128334104484 1.673597996783934 0 1 2
3685 1 8.988352372574287 48.50087192324317 23.03712749586107 0 0 0
4326 1 16.28418483157405 17.3002017469073 3.0239683952278513 1 -1 1
1919 1 3.54962660176729 0.42111318034724216 23.131621297191256 1 1 0
1211 1 8.901115943175709 24.30512088444115 3.394454021955313 -1 0 1
4271 1 10.299248871087048 23.563061474213466 0.469405688736068 0 -1 1
3699 1 13.420439364639776 22.22892358603552 3.278633509155431 1 0 1
1018 1 16.61234429102094 26.373389902554226 0.932378983770423 1 -1 0
2548 1 7.184203880960291 23.269947817556176 1.2290501139513186 -1 1 0
565 1 1.7273772403290786 33.89321371621514 21.987945800213005 1 0 0
584 1 5.672727350319213 1.8485084999444514 3.2186963237352573 0 1 0
1040 1 8.576704756737097 29.943804972124667 1.0242584839030444 1 0 -1
2103 1 8.299593220064956 14.546910780242522 1.0926595115700792 1 -1 0
2671 1 17.3859499386701 37.269369710921936 6.830128494260303 1 0 1
278 1 6.409656525138175 7.977213923059957 25.341819381836707 0 2 0
729 1 0.9981054387719284 8.799451041269696 9.792916085579812 0 1 0
4527 1 14.770205038110884 42.29872292090887 4.1244126568283805 1 -1 2
3623 1 5.621492696042678 32.74287002067116 2.243991853124181 2 -1 1
3546 1 1.0162109334613367 26.984314106681754 11.150518156442956 0 -1 -1
789 1 0.49507684295535803 27.77483560011968 1.3478342946978394 0 0 1
4594 1 5.141085369237086 35.140954329238994 1.8349669574042433 0 -1 0
1429 1 0.640767326996407 28.946299067947557 15.79844942955358 1 0 0
4535 1 7.834233022363561 32.404065867075545 1.7163288662911322 1 -1 2
985 1 8.917008162185569 34.427963803702156 3.624234501512784 1 -2 -1
3445 1 4.906215221520873 28.084218389998732 1.197226002552031 0 -1 0
825 1 15.563287678453333 12.880661100038276 3.0000445676590144 0 0 2
1636 1 17.5945690132283 46.67547065478938 19.66553629519409 0 -3 -1
2212 1 17.31551824950028 24.5787164758487 21.071767782621343 1 1 0
3740 1 4.689384988377515 37.31660966572325 3.7197213219039846 0 1 -1
3561 1 7.423776615501666 36.647090854580156 2.7628327358281974 1 1 0
1087 1 12.081922405072687 36.50836603552963 2.091352100333747 0 0 1
2339 1 -0.1533039979829297 4.461059043836432 6.721003858716211 1 -1 2
227 1 16.20461940676614 43.630414081679305 19.200365034902028 0 1 0
1156 1 6.459072766664791 44.015317876013654 23.731538145011644 1 -1 0
1351 1 7.931241160145229 41.13864204355163 2.7607601473430106 1 -1 0
2579 1 7.281596416597298 38.730739115376466 0.38873686149650116 0 0 1
3490 1 10.99674649050566 41.38052222627786 3.0720702094441608 1 -1 -2
2150 1 15.555452794052758 37.455147723072145 0.11161434231702938 0 0 1
4145 1 2.992310046814177 49.8376237631516 1.2813328558237225 0 0 2
3696 1 2.4631998953894 45.468988675631934 1.8123998509385808 1 -1 0
1043 1 15.724967981190577 46.366489270019144 23.802092111411582 -1 -1 0
1833 1 6.155057305121904 45.739026597491176 1.75163130306051 1 0 1
1565 1 13.620061105460836 43.39750199788534 1.96405670451315 0 -1 2
1169 1 0.12392474943324128 11.766860714905022 7.394542418032379 -1 0 2
1788 1 4.128166090201192 47.5555137434432 2.4573386030882647 1 0 1
629 1 16.298343149875105 47.43501000321521 11.912208323747395 0 -1 0
1913 1 17.559104001336113 14.849195029379937 6.800438046701191 0 0 0
425 1 17.336861434168554 9.388556112973108 23.682154737343758 1 2 0
1114 1 12.953718475598727 46.29547165507121 3.319936386526821 1 -1 0
4578 1 9.559012517181941 36.366180805728234 0.6501549477353752 2 1 1
2811 1 4.521486332896516 47.38813005173418 5.370576390450092 0 0 2
3709 1 1.5909036905143314 10.43995553051975 17.008994073354145 2 2 1
2695 1 10.180194381921746 48.48748023078308 2.061990846683325 1 -1 1
3452 1 14.297837258135253 47.13445572698865 1.0040758764191517 1 -2 -1
3498 1 2.2611545262171444 46.057479891178886 5.3401226401467135 1 0 -1
4076 1 1.1717213030038365 0.8689151941632163 6.83945656326326 0 0 0
3346 1 3.227256294169574 50.21375665810096 6.274139698206504 1 0 0
4029 1 7.16533824619691 4.639149207086829 8.273891630595505 1 0 1
1164 1 12.111657959766166 1.5686124109022386 5.659003299324203 0 0 1
3404 1 13.623607517509466 1.568192980534179 8.25575992093598 -1 -1 1
1431 1 11.750889200128784 48.66212691324009 4.335854464305546 1 -2 1
4025 1 2.524331021027231 3.2939410359792993 6.396125313627342 1 0 1
2158 1 5.745921368210774 3.154505654844789 6.365824801925958 0 0 -2
4041 1 5.401649463013046 4.923459649281952 1.409493616333304 0 1 2
3387 1 9.647620469592324 5.907309608121074 7.411562244430032 2 0 1
3375 1 10.39127456364427 1.5019927151520984 2.34167206053039 2 1 -1
432 1 10.951818987204751 4.291528335927461 5.525004119015227 0 0 0
75 1 15.397786119112027 6.099093012466763 2.6239807687459025 -1 0 0
1949 1 3.168049773179045 9.000541836119243 4.569137201257411 0 0 0
982 1 3.4442225587236237 5.416132454538228 7.896682368190937 0 0 0
3556 1 12.943974137230128 5.8731329698121035 4.871067372057757 1 2 1
1807 1 12.600911708479158 8.910298958914865 6.303049651374927 0 -1 0
3469 1 15.334388420038502 5.2988303445259755 5.733710818287621 0 2 -1
1555 1 3.937288355211562 30.694123540837484 1.1950014119480077 0 1 0
713 1 1.9378158490032056 13.876957385696308 6.347860224305149 -1 1 0
2446 1 1.5254197217272343 12.513195816280444 2.6888159117901798 1 0 1
1724 1 6.941141010430894 9.881801414743334 3.9964188488606425 0 0 1
2291 1 10.074521902577505 8.083501604835908 5.530111288654777 0 -1 1
4095 1 11.555331785940012 8.91543555842836 9.332555718263686 1 0 0
2985 1 -0.1696975899052793 37.371019127980006 12.705039175028276 1 1 1
4392 1 4.29009463938086 11.508167587641308 3.7825096515450096 0 0 1
2049 1 8.430837412623898 10.019955537538669 6.4041348461823615 1 1 0
2685 1 6.118519755398105 14.06270451673469 4.094532967893305 1 0 2
1344 1 10.548684087847093 12.249476681577113 5.864488414051551 0 0 0
1343 1 0.06646070926000841 15.895445929869506 4.127343731043903 0 2 1
3264 1 5.631346365694276 16.1576382359768 6.81244389825745 1 0 0
4434 1 2.9149312085318217 15.362732395464946 4.257606707010009 0 -1 1
4422 1 7.0457396098779315 16.86439423738121 3.9906710918971617 0 1 1
69 1 9.553100453598926 16.3533185805191 6.277401754062522 -1 0 -2
1026 1 14.476019624872439 15.433500512122537 3.943179380994695 1 0 1
2818 1 12.70231609855968 1.1216520595256088 0.17209615834263842 0 0 0
1037 1 1.6818545556901272 2.4883996856150334 3.4020422065745515 1 -1 1
2703 1 9.22046081996248 4.459762829415411 24.30514653035038 -1 0 0
3747 1 6.160360692551651 20.430290868525805 7.373527148573528 1 0 0
3944 1 1.1333810583922896 7.331183930589495 2.0960331240344074 1 1 0
4090 1 13.769339324124001 14.449090965151116 7.811619493947364 1 -2 0
1102 1 13.099906687679102 19.51753166927191 1.771157450435001 -1 1 0
624 1 0.014433080896026629 15.076986552168199 12.14310088948737 0 0 0
3334 1 2.29556861202075 18.699185418207314 1.3520837455572778 1 1 0
183 1 2.955459514667191 21.353903389195384 5.486836944000523 -1 0 -1
3986 1 3.9693372645567813 20.671105221905442 2.6350446935380787 2 -1 1
3410 1 7.035238592093422 19.67508153690185 1.9197368520048688 0 1 0
669 1 7.809447309679921 22.224938471523107 5.545365684952536 0 -1 0
4165 1 14.175159754690707 24.78132389841705 2.407193726853811 0 -1 1
2835 1 17.305615171687855 11.549997411716797 6.973514700196136 1 2 1
2272 1 6.5121519543521345 29.24503407085339 7.278924425521162 1 0 0
3718 1 5.02212324637641 23.906233717436983 3.2997595911887134 2 1 0
318 1 0.8849104180653651 13.520817491296084 15.408285973241345 1 1 0
1002 1 15.021045077985452 25.490595676451292 4.951896410773393 -1 0 0
1526 1 3.53493952906454 24.713582507948114 16.082148191039764 0 0 0
3790 1 6.419202523785336 32.49033223936671 4.982268656817943 0 0 1
4427 1 8.17442689204194 26.70876562129704 4.305114763060734 1 1 0
1513 1 13.98014371401185 28.01098287250467 4.07054906157102 0 -1 2
3655 1 15.747617619504886 29.9652208734588 3.8689557840133513 0 1 -1
1515 1 13.107465272044674 33.81810475507663 4.6955334181808235 0 0 1
3344 1 14.307261666258894 9.007761911660815 0.8729765874403742 0 1 2
167 1 2.2064913925131266 33.428755741035104 4.053080222639806 0 -1 0
2112 1 6.948366083679031 34.15012984888325 7.479016444326069 0 1 1
2354 1 1.140164861663543 29.391064574993003 7.971764878379182 0 1 1
1046 1 9.848482314125654 28.818492050714294 3.2707355289920566 0 1 1
60 1 8.727414738093357 33.83656182921625 9.65459325788193 1 0 1
4108 1 11.241118785707439 33.60209364084167 2.602959975988247 1 -1 1
1274 1 13.927441817043741 36.06643316206127 6.8994092238896565 -1 1 0
2063 1 14.025956363773814 33.930019991883995 8.583777817177976 -1 -1 0
4233 1 0.9480717930308886 37.08525830948459 4.886461865497617 0 -1 1
1136 1 3.137728512895933 35.92076869236972 5.390973961822417 0 1 0
1184 1 8.555868310732237 38.795997607342386 4.1900433118702685 2 0 -1
2605 1 8.691058102120463 35.90182299340637 6.06780654181166 0 0 2
2700 1 11.365188675834748 38.561492310849985 3.866370527676351 0 -1 2
18 1 11.577985534462734 37.83229945694248 6.367042776426781 0 0 1
1207 1 5.822827464856089 38.53191270702483 6.515890379484553 0 -1 0
3683 1 14.10863810173119 39.344943837743955 3.4472340735237608 0 0 0
3028 1 3.3790174093350887 43.35255625436548 4.513944050226362 0 0 1
4209 1 3.3823059382462115 38.996615826611986 1.6575654079566726 1 0 1
2010 1 4.04860749278436 43.16437663902303 1.436187144881114 1 -1 -1
716 1 3.6717116898216204 40.33281399656238 5.400653189490457 -1 0 1
3303 1 6.1074522526744905 42.3474062548176 4.448066744537711 1 0 0
1304 1 10.336898100108472 43.43075038260507 4.6750088907904095 1 0 1
3448 1 12.75144284900032 43.36507528215837 6.378548465909581 1 1 0
4590 1 3.4369023318356393 44.26968871280067 7.869344611942946 1 -1 1
4262 1 6.041648222408676 47.613973227183564 9.51714360796705 0 -1 2
1199 1 7.525711905226203 44.0534385593331 6.171491437843713 0 0 -1
4113 1 7.524554138034338 45.600194380968404 4.0520310762527245 1 1 1
1257 1 10.054362215117822 45.78110605776105 2.392439322358626 0 -1 1
579 1 14.510924700763827 45.781815115094744 5.445939120615974 -1 1 0
3818 1 1.0459378095560303 47.73468938786206 7.3670790530504355 0 -1 -1
2391 1 6.879440859234106 48.84697914737143 3.1754279495481823 -1 0 -1
1255 1 9.482758572228459 2.125231668862683 7.318786026529272 1 -1 -1
1220 1 0.3480539994223014 6.2490139449894295 15.277888700854513 -1 -1 0
4513 1 9.126459168731675 47.99259398455442 5.313285807256557 1 0 1
3791 1 2.036080275563456 8.071307842154464 24.49044595824252 -1 0 0
2234 1 2.919187003023836 48.962476217671465 8.833931685780849 -1 -1 0
791 1 16.214101202973513 50.553107787456256 18.89854390194689 -1 -1 0
4339 1 5.148707198691063 0.9033415097910535 7.227715014031308 1 0 0
2157 1 8.195990013076008 50.52180820513176 6.529866352903378 1 -1 1
190 1 14.271322347515415 50.01654747676038 7.811845713863992 0 1 0
389 1 3.06321637544951 7.208139936983702 14.094759385813294 -1 1 0
1445 1 3.027541214894845 2.379730263917044 0.7875163654653533 -1 0 2
4058 1 4.244079815139281 1.7488618615285145 10.245076205036836 0 1 0
1940 1 13.931238086626754 4.784687210173362 12.276334652160086 1 1 -1
3425 1 15.442219871230344 3.703697305202993 8.082437762859847 0 1 -1
3099 1 16.772095999335736 50.30310938532902 6.068935431925305 1 0 0
2692 1 1.6302546329138445 7.61839451341998 6.74205167839305 1 1 0
3408 1 11.82960767331777 6.474079214818518 8.68556962528351 0 1 0
3859 1 8.44880255984063 8.850850980796901 8.919864178510903 0 1 0
4054 1 16.57119265049867 7.749470901973015 8.967609684950142 1 1 1
3362 1 5.890643855146128 6.880697090767482 9.180745946188253 -2 -1 1
2186 1 15.302248825144375 8.292845161176144 6.7469752202131295 1 0 0
2506 1 0.17159099670109274 40.47346545334989 16.84898639629236 1 0 1
3248 1 5.282019389307055 16.303055659725363 20.908039772201953 1 0 0
2733 1 4.098629491656677 12.210947953247324 6.445839110375864 1 1 2
3183 1 5.993006795234197 13.300873804702054 7.907620099326806 0 1 1
118 1 10.139885310156139 12.17733785506119 8.717109746287923 -1 0 0
2450 1 12.488202396865098 12.382873120559767 11.95639323796885 0 1 1
3319 1 15.004000255514088 13.160318064480967 9.852875974234873 1 1 0
358 1 16.64061158094398 17.86439799789754 20.388128737672062 -1 0 -1
1567 1 1.1740679934094098 18.89642237384215 7.093846638290021 0 1 1
3690 1 7.859071626066122 13.637022880381762 6.166514830342852 1 -1 0
3204 1 10.67089753001383 14.213583591214805 10.74933899279915 1 0 -1
1032 1 6.121462381982999 14.19900110285354 11.3584948590764 1 1 1
4157 1 15.599317218662556 9.045457958785631 4.055284836370967 0 0 1
3885 1 8.389750740069061 14.687964889806688 12.68561913296254 0 0 1
356 1 5.327518741986619 19.39116950642696 4.949150754300759 0 0 0
2113 1 15.222651534254005 16.15126780781755 6.27412294806694 0 -1 0
2247 1 1.479756098422783 19.306800811035124 10.656108720654858 0 1 0
840 1 2.302169412020855 22.375418321299165 7.916802471311944 0 2 1
664 1 9.034367630619938 20.384412206713233 3.585830229114569 0 2 0
3887 1 10.479141899828418 18.639814311033273 4.936663309834857 1 0 1
2529 1 7.761979775739997 18.138904060105478 7.47925351546967 1 1 1
1226 1 16.084750399739256 18.7621804563975 5.889689784930363 1 0 0
699 1 13.128327026285971 20.070454844523777 10.809592217783731 0 0 1
4024 1 9.949064079034638 18.043325840233393 24.084637948681735 1 0 0
1393 1 5.224261325522893 23.37150768573409 5.76490998232616 0 2 1
1814 1 5.3035488031449045 26.3863209743514 6.415364387636574 0 -1 1
613 1 11.310134840342664 23.586352671038053 4.4297947246568645 1 0 -1
264 1 14.229764891953163 20.712476881633695 5.756903535446527 0 0 -1
4276 1 16.43890435713057 22.367430972650556 10.670440026680986 1 0 0
687 1 17.244126903702842 34.30435639433972 7.624319715607073 1 0 1
3794 1 3.8252818116596794 25.848508936020764 8.943576088229742 1 1 0
2327 1 5.921492704755096 31.69553639427959 8.926267126832107 0 1 3
3008 1 4.654665367295895 21.818171346030137 9.04465364266502 1 -1 0
910 1 16.26760430127717 12.517543238909022 0.23533079671348073 0 0 1
2453 1 10.556567511062028 16.616365617264538 0.9815330130372073 1 1 2
3373 1 7.726510064191226 49.30010894705897 0.48326666997472184 -1 -2 -1
4420 1 15.494336445054252 35.9746320568747 22.637975349936383 1 0 0
767 1 1.889731453549182 25.406439957323844 4.592208518417962 1 0 0
419 1 8.09612069315739 30.154695373725293 5.121457381595783 1 -1 0
2698 1 10.086289622965122 31.931557827042806 6.503814433182498 1 1 1
1251 1 12.295949778855242 29.99098158916223 5.9322150067238635 -1 -1 1
1846 1 6.0507113869861096 24.147261362995287 9.176763688806469 0 -1 1
2518 1 3.677116220229331 33.496191957484484 8.144314387675347 0 -1 0
2606 1 1.4749053012556477 33.45294164277966 9.861753609183287 0 0 1
1272 1 7.40951264694803 34.222191695276166 12.571277247130542 1 0 0
1308 1 11.092457614609812 34.474494738597244 6.7343934094456905 0 -1 1
82 1 11.508479596130538 27.397038312145398 6.759558434675777 0 0 0
1670 1 13.180966580458497 33.7961128649018 15.067621226153339 0 1 0
1527 1 3.7730160895863687 29.72393931802655 18.55034512571399 2 1 1
804 1 4.595408823723219 36.2610729021568 7.811483509326041 0 0 0
1622 1 11.736163539108622 34.6139502842546 9.527137171952326 1 -1 1
2972 1 8.76863128637444 4.871389280921559 0.6579229463610711 0 1 1
2640 1 0.7797512481266313 42.68098282221898 5.2604119082951915 0 1 1
1266 1 0.007456373837651631 37.78991953105424 7.433584434429162 0 0 0
2308 1 1.3673256330587096 39.622939817734235 3.9585408539540716 0 0 0
218 1 9.070091935044951 40.152580467213184 11.16980301409086 1 1 0
1865 1 6.303222675779273 41.48889009184758 11.303237311500574 0 1 0
3846 1 8.014145839513086 37.517451210666934 8.389477820149944 0 1 -1
3522 1 10.463374278528185 38.803756220977945 8.493308486158938 1 -1 0
595 1 13.148916278568105 40.09501229326786 6.616497142377976 -1 0 1
1246 1 3.7380690157669667 41.43341007174895 8.118421211560886 1 1 1
3768 1 0.5463153221856827 42.4851760785637 8.057918958895902 1 0 0
2442 1 3.1275553361083075 39.96067424966995 10.349763046853711 0 0 0
66 1 12.509941654241103 45.27467205812172 10.709195606563 0 1 -1
894 1 10.858034617692317 41.53661654826671 8.546979691715618 -1 1 1
3604 1 13.577094989099045 42.29777238857402 9.516016231288752 0 -1 0
575 1 16.426683948972652 38.79901593822186 16.11201232434513 0 -1 -1
3171 1 16.110221658908873 21.757701455007705 24.36474546881401 0 0 0
359 1 5.578745505740001 45.64951546819299 7.462457468952943 0 -1 0
3985 1 8.358971838450195 43.93382926136236 9.108861860992869 0 0 2
326 1 15.166972456116822 45.08382387831931 11.617430531709337 0 0 0
4086 1 12.698494446320037 45.63660137870161 8.223954352571356 0 0 0
1006 1 10.911509154087808 1.945586953115857 9.857130967998753 0 0 1
4187 1 8.740718277775715 46.81348821325932 10.220082300539701 0 0 -1
1447 1 9.555351201720901 48.84700721208414 8.769552831513577 1 -1 0
2236 1 17.672922882643856 42.75046439170113 15.87971458994985 1 0 0
2929 1 15.432730997425484 46.08168120905552 8.428698811576895 -1 -1 0
4319 1 5.726216835338269 4.7708398614126795 12.049103572375568 1 1 0
1888 1 9.83553564799842 3.8048448928419 11.897666288393916 1 0 0
291 1 3.583912803454143 4.33772683326852 10.359356102367402 0 1 0
2776 1 13.843510508836532 2.0919711514463586 11.457537171673385 0 0 0
2667 1 13.37878925340843 0.9109366052680175 13.748595031007385 0 -1 0
4132 1 3.637914335521774 29.301335576758966 6.274662184862514 0 0 1
1375 1 0.5662649643502079 2.132162523768546 9.499281136326841 1 0 1
2788 1 0.3213472260014113 5.039046837201649 13.065839376065384 0 0 0
2717 1 7.635091529575229 3.3520656687558277 10.689124182085816 0 0 1
1404 1 4.123347989584191 7.756234186489643 11.11070659783107 0 1 1
2898 1 16.798238522968443 50.806284972927045 10.935313633012319 -1 0 0
3601 1 15.5956504098748 3.7190430288465293 0.9305934991023345 1 0 0
146 1 1.677807453308142 47.32870526131693 16.330030781060213 1 1 0
694 1 4.9112342704868235 9.62262421270539 13.213298725601359 -1 0 0
1121 1 14.631379132738987 5.610129046575256 9.50177700629892 0 0 1
2686 1 10.100892869551506 6.544738235625027 10.990031263591387 0 1 1
4413 1 2.3646072749684777 7.699095420678212 16.990845434445077 1 0 0
655 1 7.720159916743118 12.13175533080814 10.117509749299055 0 0 -1
797 1 7.820336270967042 9.532884025070716 11.552650755963612 -1 -1 0
62 1 14.690494101638576 10.740873298166358 8.354522471710675 0 1 1
3431 1 13.459660725367845 10.049485913137344 11.145584193768844 0 0 -1
3519 1 14.431364824282342 40.525827987562366 23.997313242947605 0 -1 1
1737 1 17.030089688380837 45.6476418270136 15.164301532526196 1 -1 0
3321 1 2.0100514788370405 16.137425283314055 8.259950047009122 0 0 0
107 1 3.383977173856897 17.075810024757253 10.305656221717747 1 1 1
2711 1 11.384761069788695 15.436994951250849 8.261881178591803 0 -1 1
3949 1 10.0457461902582 10.64866860771695 13.074489699659857 1 1 0
3919 1 14.575263101827524 14.24276504057937 12.453489641070885 1 -1 0
1268 1 14.04935872333563 18.20022283446066 14.033939186826306 1 0 0
2355 1 0.02234267278631602 20.82021893876975 9.056432501688125 0 0 0
2319 1 4.084797635296739 12.479892443963525 12.399431868113187 0 -1 1
1436 1 5.874155836749737 16.247408673754858 9.625777325272653 0 1 1
854 1 12.470563376863145 16.02016914273437 13.107272679659959 0 -1 -1
59 1 13.221857341104652 18.059146266445552 8.249903143982625 -1 0 0
3039 1 12.449972146590191 4.033893529473712 24.329069303393457 0 0 0
2968 1 16.6158452695141 18.05840747828362 8.970813843029227 -1 1 0
2161 1 4.5877454895525185 18.830017649684944 12.378467207951157 1 1 1
4211 1 8.504248892992138 17.206284262374673 9.78184457736057 1 0 0
2555 1 11.553575618636241 17.791267118056055 10.967230736766371 0 0 1
3908 1 13.934657541972703 22.451764425860752 9.39751293576646 1 -1 2
1457 1 11.886525224008288 19.947402067195434 6.875339284418772 1 0 1
701 1 2.7221355816003867 25.010325387360073 11.553690148393567 0 0 -1
3738 1 10.297043513492579 8.903745047783847 2.91824075756606 0 0 0
2576 1 3.735755837301096 21.069718149383608 11.286211321381595 1 1 -1
4218 1 7.504344108173442 23.02097345518035 11.249421870663395 0 0 0
3554 1 10.152330771711426 22.944538699982434 7.137190878104123 0 -1 0
3628 1 14.784337786156478 23.114814182514294 6.9240318424983585 0 0 0
925 1 1.6445488524094256 24.80744920408276 7.16710324280132 0 -1 0
1727 1 3.9057176493712324 28.638563768922708 13.360802835092745 1 0 0
207 1 3.153942823202043 28.675855588001195 9.66539465814266 1 1 0
1761 1 10.434609103054623 22.87923476038678 10.665890611929262 0 0 -1
504 1 8.527695163216821 25.010047923814405 8.345135961178338 -1 -1 0
1214 1 15.325770809466702 26.964909598676023 10.360937814359474 0 -1 0
2303 1 12.956339981641472 24.257473209934822 10.95467537021324 0 -1 0
4452 1 12.486403052743636 25.122801827095714 6.354590717500684 -1 1 0
2424 1 17.130068299956257 44.002170612887056 23.075626799812078 -1 0 0
4453 1 3.9718635910146505 32.514447142800435 12.121078237828277 0 -1 1
2532 1 8.83694815781115 27.148834574736277 6.868889690428198 1 1 -1
4290 1 4.211939427354899 35.05722069384416 11.310278949419784 0 -1 0
2956 1 12.39231325189035 31.753822934486834 11.112808076189554 0 0 1
4379 1 0.8478523627258991 32.22198942774756 12.862914618108682 0 0 0
1358 1 5.092080983108511 29.81431199139481 10.95162236940784 0 0 1
302 1 1.7229501255033837 36.21263161633523 10.961035901531439 0 1 0
3980 1 14.262435786815715 38.35689007106053 8.899690733370521 1 0 1
3080 1 8.57413220113775 28.70466199700462 9.420896663792297 0 -1 0
841 1 13.636209083360317 30.8648050237928 8.526932817635014 0 0 0
636 1 1.9040425999943964 4.0577139841141845 23.422057178019067 0 -1 -1
939 1 10.186925796312623 14.837519059126889 3.743558218348778 0 1 1
1904 1 17.02827143288921 3.566992454589186 3.8299452636700835 0 1 0
288 1 9.85999932076413 30.834457818893753 9.129001751991426 -2 -1 0
814 1 9.789496513547231 32.165011418952844 12.207155177675496 0 1 2
511 1 9.170214914590181 36.407608474318806 12.899768991390664 -1 0 -1
237 1 11.267006921587056 37.42303423895146 10.871609724621939 0 -1 0
2613 1 16.153032595182353 34.062849223845845 5.005710641784643 0 0 1
2429 1 0.7514175815836452 43.327890573306476 13.410409706042167 1 -1 1
3748 1 0.8359724000496458 42.07678912169082 10.951891080187956 1 -1 0
1508 1 6.491595501805702 36.26431923676083 10.363338383423434 0 0 0
2289 1 4.374124411797588 38.59271582496416 12.466720162934806 1 0 1
235 1 12.834054651926728 39.76134395078621 10.96712248539545 0 1 0
803 1 15.895155151369519 29.649065619630807 9.457031131339448 0 0 1
537 1 1.8426891944590817 46.291126835895184 13.844622458510855 0 0 1
1052 1 2.1264983674788076 44.573042511594736 10.457689690025157 0 -1 0
3191 1 6.616967485042107 43.770416725020496 13.320996784826576 0 0 0
1379 1 5.807571346070201 44.10114541180107 10.175230259773354 1 0 0
4472 1 6.761189219747332 41.256134449817736 7.3326909044142345 0 0 1
2144 1 13.516037398037055 42.24148935591538 15.068104434274677 1 -1 1
3629 1 5.864760511584074 30.82551756903689 19.454395937517738 2 -1 -1
2086 1 0.5728684476076479 48.37214102227853 12.608793814806004 1 0 -1
3378 1 2.349221931677153 37.742247422728454 8.759512450531316 2 -2 0
4030 1 4.086048504701102 46.236959596539194 11.729289939073947 1 -1 -1
1804 1 14.343759599735193 44.892763024891096 14.293826250738027 0 0 0
2616 1 0.05029092356763426 50.816373204638225 13.686495115079289 0 -1 0
971 1 3.058908926751205 48.98573656102502 11.710330563286737 0 0 0
1470 1 2.0714664306299047 1.086779075011364 11.540084695226051 0 0 1
1974 1 6.296376549774968 50.33039319169653 8.877482802118756 0 1 0
993 1 12.828605973852934 49.47380907555795 12.27037733267852 0 0 2
809 1 13.42957002199317 35.486722034351985 21.360610309442468 0 -2 0
3323 1 14.67526757850418 49.3494344555547 10.298787052397017 1 -1 -1
175 1 7.571195000847955 7.433308790565218 2.5300450926880886 -1 1 1
275 1 2.403809624545546 3.3993482613475487 13.460748106101848 1 2 -1
3653 1 7.861040722858439 4.014317748499607 15.887055251661875 -1 1 1
1276 1 10.357515167745175 50.392747745838804 10.97957257236505 1 -2 0
2384 1 16.19885696463525 0.3086380806556932 13.88028034320648 1 1 2
2658 1 -0.1370923011308225 46.06269235465264 0.6510422228175742 1 0 0
4128 1 0.1883953338447823 39.64581007156046 19.379471295832936 1 0 0
2440 1 7.337204738427479 16.436203976223283 22.975428660807694 1 1 0
3460 1 0.0724635623665088 0.24988712254538864 18.441562069497692 0 0 1
619 1 7.156368313466277 0.7501979434485493 11.149072211328862 -1 0 0
4026 1 5.006906303076012 6.441676625592802 16.72604244784433 0 -1 0
1195 1 16.889452629467577 2.5370329616924976 10.587865960103814 1 1 1
1125 1 11.594875222557587 3.0166118042363173 15.27125618262975 -2 0 0
1035 1 14.986577656489036 1.4610931219699899 16.35117479587687 0 1 -1
2048 1 16.85099899058523 3.362388493973016 16.808718822018793 -1 -1 -1
3769 1 4.352436861305049 11.465747322483374 17.6269711264703 1 0 1
1772 1 7.667741412532988 6.840101703964901 12.163663537524423 0 1 0
303 1 16.355555062323806 5.008091112169334 13.372069430869939 0 0 0
995 1 12.273771992837334 5.4919428928809815 16.56815910516694 1 0 1
853 1 13.902292972086371 8.975262587452006 17.051912330094073 -1 0 0
2434 1 17.070381805461874 44.9664924227241 0.40061739472341834 0 1 1
585 1 2.6685699470763877 14.941838618131086 12.052107217877309 -1 0 -1
1765 1 3.3233504267168423 9.98937999829634 7.824131664238964 0 0 -1
3567 1 4.9396754619692995 10.409582752094112 9.951875074073001 0 1 1
4191 1 11.531674658276568 8.393134827294924 12.919453247714248 0 0 1
3851 1 16.180646195144845 9.343775583327368 11.331798265668846 0 1 0
1718 1 5.975664616731972 1.9549346256264617 0.4087204871203991 2 1 1
2514 1 2.3239431841060902 16.880861070109766 16.575552147175024 0 1 0
980 1 9.608254895046036 12.789064381694224 14.44358295653631 0 0 0
54 1 11.278706996510712 14.998037005740947 15.77524478337626 1 -2 1
1371 1 13.211152389271327 10.488139588624072 14.698044413698343 -1 0 1
3371 1 13.848162351207998 13.158274934538808 18.349398312390555 0 -1 0
1832 1 14.810288510650802 10.699413432757503 18.78700952491204 1 0 0
4365 1 0.34650043661268304 29.289285667812702 4.1049895911609475 2 0 0
4101 1 1.0093993336752223 18.709347756831548 13.50814966140176 1 1 1
4328 1 9.260320673935047 19.024826476574223 12.280677343910273 1 0 0
2678 1 15.769451504258875 19.03774617331327 11.95750209633015 0 1 1
3478 1 9.13707369097511 16.63788441061441 13.785196221041646 1 0 0
2136 1 16.08253512179909 13.58441627862022 15.03360047807731 2 1 0
155 1 2.1636541169527743 21.48645644757207 14.477625186082753 0 0 0
2342 1 5.944594758011906 15.244800699164326 15.056556542811641 1 1 0
1459 1 3.3804725761951024 16.700563028814173 13.844854134855503 0 1 0
2181 1 7.407507971265938 22.00244650894632 13.595548517175258 0 0 0
3173 1 12.89952580079572 20.30076052533581 15.367900207567653 0 0 1
2279 1 16.03338823103453 21.622595475452762 12.997642535220184 0 1 0
662 1 16.57585935665401 19.600131355063056 16.716081521887936 0 0 1
383 1 6.893497142703023 19.673398874816314 12.427118696241013 0 1 1