LAMMPS data file via write_data, version 29 Oct 2020, timestep = 100000

8521 atoms
1 atom types

0.30437031478997767 104.35446225942633 xlo xhi
-0.37703825202680363 50.59137399587051 ylo yhi
-0.37703825202680363 50.59137399587051 zlo zhi

Masses

1 18.015

Atoms # atomic

1476 1 3.28265429721928 1.6902075101995293 1.6455649902952065 0 1 0
1934 1 4.947690303208677 0.2949174025374198 0.19952260386508403 0 1 1
2149 1 9.683014348448179 1.9372881050690505 1.965135226853552 0 1 0
1909 1 11.078016031723049 0.15784639635021314 0.35102713464621227 0 1 1
1671 1 17.18521054225418 0.37520556074506317 0.7310049442993778 0 1 1
2144 1 16.05102801952539 2.2515470909604995 1.742317198695814 0 1 0
2504 1 23.3814407066705 0.7429509117380158 0.6783366513193227 0 1 1
2837 1 28.68237538869841 1.9081021252822636 1.9390449785578223 0 1 0
2426 1 29.914006927399303 0.3969174821333571 0.364766002478057 0 1 1
2832 1 34.739468676311965 1.632703332422695 1.9353497393220556 0 1 0
1574 1 1.5766375847619876 3.53303764964243 0.22135211483659667 0 1 1
2047 1 0.3467478565021617 5.818950813635742 1.8118597026298926 0 0 0
1903 1 6.446557172052644 4.469240532871038 1.8430976639844219 0 0 0
1555 1 8.010866200847452 3.220967811334227 0.2024587179377555 0 1 1
1403 1 14.003204478846943 3.3044141414943593 0.6824443777489153 0 1 1
2294 1 20.146826718178612 3.521307344882733 0.2924213093723246 0 1 1
738 1 18.984689236472803 5.832596356891311 2.8064960861621526 0 0 0
2279 1 25.10651140374772 4.662523651860321 1.836828473022745 0 0 0
2265 1 27.023833665019108 2.952849258076797 0.3322540857980001 0 1 1
2219 1 33.29032218665982 3.499293514266962 0.49231142764622793 0 1 1
2835 1 31.761683818491743 5.719001486839339 1.855576628095684 0 0 0
2033 1 4.8624937817797855 7.136588470412072 0.2974530673617396 0 0 1
2140 1 9.541179977506712 8.577256921694287 1.8339079003116385 0 0 0
377 1 12.905905137762412 6.045437592352138 2.7324752780899213 0 0 0
2035 1 11.344462005145086 7.37248301090201 0.14114639792734296 0 0 1
2041 1 17.175376538640027 7.550291962846414 0.9809365461885375 0 0 1
2762 1 23.569662830179464 7.262838140613081 0.4342143967962081 0 0 1
1373 1 21.932852212600814 8.816000753488394 2.87903186694399 0 0 0
2764 1 30.11808557904974 7.0198564543690365 0.3097749007658065 0 0 1
2214 1 34.66604667712028 8.848757913387637 1.5609234739593558 0 0 0
2043 1 1.9866552194071287 10.31175692549684 0.40457320298077926 0 0 1
2044 1 8.029669347698349 10.635322679608937 0.5351221669399223 0 0 1
157 1 12.710371249973546 11.852549312685966 2.806021309224473 0 0 0
2160 1 15.674939431643518 9.434828629765459 1.94397032375455 0 0 0
2046 1 14.348837897608941 10.758814599576478 0.44035924515664326 0 0 1
740 1 19.04817177363334 11.835666427433262 2.7351781965104185 0 0 0
2768 1 20.361356994885885 10.406619270756822 0.4167406818915067 0 0 1
2676 1 25.235434694712183 11.529418620358653 1.8051331661283165 0 0 0
2769 1 26.984945484605998 10.010826847037174 0.604927314325523 0 0 1
2771 1 32.84641994467363 10.766772556981838 0.28893611305024736 0 0 1
2142 1 3.480550664610745 15.10853981213052 1.9678319115957952 0 0 0
2050 1 4.929822088473978 13.452179403276748 0.8422061646062708 0 0 1
2051 1 11.346997430958938 13.365952844593116 0.5470626721161651 0 0 1
2055 1 17.5200427851303 13.46302535521201 0.6496000922783864 0 0 1
2775 1 23.889774351952894 13.357729487326756 0.33805587685856986 0 0 1
2284 1 28.132444935983486 14.899013563405964 1.8768001511372598 0 0 0
2778 1 29.737107046155288 13.524778321906094 0.078023706856588 0 0 1
804 1 34.74018209740333 15.001813705967203 2.759393468378384 0 0 0
2057 1 1.8047525865420289 16.62613271548132 0.7941200393226051 0 0 1
1490 1 6.6413759558203935 18.15169059691996 1.6085281900729187 0 0 0
2059 1 8.336036607881537 16.595933686777798 0.3242627575573055 0 0 1
1429 1 12.589559970204457 18.469401929109605 1.777827650832291 0 0 0
2060 1 14.389966191679571 16.556007436855303 0.38356202905595405 0 0 1
2781 1 20.95265509984789 16.693920870112166 0.9076642085834425 0 0 1
2783 1 26.82728860888602 16.8013429888738 0.5074130577523538 0 0 1
1372 1 25.417377427469987 18.116475279465245 2.83971838818844 0 0 0
1375 1 31.504533104626947 18.17424695335612 2.816173564323075 0 0 0
2784 1 33.25239095295904 16.710283288661778 0.7241683825369263 0 0 1
104 1 3.145376952878512 21.092861568043777 2.7274503942310706 0 0 0
2065 1 4.827375279963512 19.472379063988566 0.2997594797299967 0 0 1
2150 1 9.9165659147571 21.411872177617628 1.485641049265997 0 0 0
2066 1 11.384930915226263 20.0532907410604 0.03326460657082386 0 0 1
1488 1 16.26213575227638 21.297895871422664 1.7299056523960368 0 0 0
2068 1 17.58378169703476 19.21583427667066 0.33822037961123663 0 0 1
2204 1 22.3679858089188 21.27468705005294 1.9585303549278215 0 0 0
2787 1 23.96682594794714 19.929527404849253 0.25054106271818055 0 0 1
2338 1 28.47125266465926 21.319840335103013 1.6828714708198005 0 0 0
2788 1 30.02478683612241 19.482595613236512 0.20011811166503757 0 0 1
1381 1 34.77861425616671 21.06910443098736 2.7413222912878132 0 0 0
2138 1 0.36322316464969406 24.604347621177308 1.9549843817090462 0 0 0
2071 1 2.0505457721155986 23.03093077864006 0.3576422749044186 0 0 1
2074 1 8.462519128819991 23.007207317397622 0.2608728880785802 0 0 1
1458 1 13.155968193272454 24.382662483596906 1.8893474234550705 0 0 0
2075 1 14.628624732091092 22.959338478966764 0.18654678699811034 0 0 1
1380 1 19.479370390799428 24.15199097741299 2.740290929241162 0 0 0
2793 1 20.826313091265057 22.522657014183686 0.3529060796658946 0 0 1
2592 1 25.332747497756223 24.174540396037766 1.3735885648954622 0 0 0
2795 1 27.004194222333158 22.89514499231188 0.004938321931603151 0 0 1
2658 1 31.414903502369576 24.36295481255784 1.7336389779192163 0 0 0
2798 1 33.20195232522206 23.073056738718957 0.44244698372821567 0 0 1
2079 1 4.9526093465244 26.19280494481174 0.6351940375609109 0 0 1
34 1 10.056773581247716 27.355255558528143 2.857192742097818 0 0 0
2082 1 11.490051454230297 26.0886066575385 0.31628333117603513 0 0 1
2077 1 17.80866397234566 25.610824718140204 0.6606165473758732 0 0 1
762 1 22.6667467753757 27.32877772825251 2.875254266594283 0 0 0
2800 1 23.91472958215917 25.99931196696807 0.20600786588316422 0 0 1
2685 1 28.203035820377494 27.862475554181326 1.5427770740242053 0 0 0
2802 1 29.771303458482112 26.22963222946863 -0.05044294368587621 0 0 1
2684 1 34.67119487113874 27.750651882527247 1.6420980259357076 0 0 0
2086 1 1.6418085072638677 29.007458403841092 0.9620163537050832 0 0 1
2091 1 8.150372535435434 29.05561836303954 0.9316301411825152 0 0 1
2084 1 14.462558161573039 28.85327108193958 1.0499098272962386 0 0 1
840 1 19.280353371433986 30.564732266354195 2.880896155194608 0 0 0
2806 1 21.252168642201116 29.273156902110347 0.734050891047149 0 0 1
2773 1 25.420722656055943 30.976227041575143 1.9492666114948394 0 0 0
2803 1 27.032250322031874 29.801698975275276 0.21711455204121488 0 0 1
2841 1 31.855088239855398 30.67830338435756 1.9992415889618966 0 0 0
2810 1 33.130274718634574 29.55707802802242 0.06626059521511224 0 0 1
73 1 3.5657319328861874 33.962443463622094 2.843975778146476 0 0 0
2090 1 5.035510333007897 32.461975714787414 0.6025033352990393 0 0 1
2093 1 11.078666692008527 32.285097453912826 0.9713604682798018 0 0 1
2095 1 17.87768106369641 31.944906817447556 0.6688781134153761 0 0 1
2840 1 21.987788670019956 33.907626153242504 1.9997386908699295 0 0 0
2807 1 23.397040808832795 32.10597512152799 0.46814856706618 0 0 1
2843 1 28.871999703112902 33.84785475513577 2.0027858114191863 0 0 0
2809 1 30.45534086924137 32.57792606722336 0.33316086371960196 0 0 1
6462 1 0.8743162750947063 45.52344073306405 19.63861411566143 2 -1 0
2097 1 1.7287573338885418 35.37488944153458 0.5358134707537472 0 0 1
2143 1 6.637641710141619 37.49074712156445 1.9523730025883346 0 0 0
2100 1 8.109800749986729 35.53720254312768 0.9067613029161916 0 0 1
2147 1 12.614014450247572 37.00467486301437 1.788423486869989 0 0 0
2101 1 14.452153362538752 35.45518768461933 0.4823270265147289 0 0 1
2081 1 19.081553102918605 37.14379930335005 1.716600819942332 0 0 0
2814 1 20.599899590760426 35.49573564986353 0.3913828298132104 0 0 1
2287 1 25.457910765016898 36.95319370728758 1.8008574176104513 0 0 0
2816 1 27.27995575555425 35.231189001243166 0.21852909608258786 0 0 1
2791 1 31.9158162071471 37.16335599195098 1.8486667681631332 0 0 0
2818 1 33.558731851708195 35.44822712610737 0.19493877257309422 0 0 1
727 1 3.3984451303469414 40.32138150045381 2.839455906309878 0 0 0
2106 1 5.0497262005522465 38.762918204985084 0.4393821314410382 0 0 1
1455 1 9.596845856980645 40.10807837216704 1.8690182663888373 0 0 0
2108 1 11.25017326497298 38.399938214763665 0.12724225629882535 0 0 1
78 1 16.016312705271776 40.034534782889395 2.7566199945546463 0 0 0
2109 1 17.325034403116927 38.504305168809154 0.36719584137192607 0 0 1
2845 1 21.861473550631615 40.0836797582228 2.0083403086982066 0 0 0
2821 1 23.921255464945418 39.08785839571843 0.44620281876345125 0 0 1
2823 1 30.148979543396884 38.69290605445052 0.39359473706255765 0 0 1
1374 1 34.77548452774242 40.27921880589264 2.8340717341567285 0 0 0
2103 1 1.5526139004453707 41.53543594945957 0.5537125973901857 0 0 1
1402 1 6.528721575710763 43.40613873877773 2.0158831202943674 0 0 0
2078 1 8.036546590523631 41.917219455944036 0.02770873905026222 0 0 1
1480 1 12.962990489611816 43.03897746335335 1.70979429245704 0 0 0
2062 1 14.48172735223166 41.709070981626866 0.2747455288604731 0 0 1
2825 1 20.35324177977815 42.1276478459946 0.4527318725035482 0 0 1
2829 1 26.884501016196985 41.642634971226414 0.5234746412800174 0 0 1
1377 1 25.305380554951974 43.04848446009491 2.896104961731867 0 0 0
2352 1 31.57716891358399 43.55710639156975 1.8968704042307079 0 0 0
2824 1 33.49615671910273 41.918169088611464 0.6221847274472999 0 0 1
1623 1 3.3432417912732344 46.549893348446375 1.6976363502875023 0 0 0
1281 1 28.499392950007056 49.665662695620966 24.71209347748128 0 0 0
1959 1 4.619827042359786 44.8987020065113 0.24019137415826608 0 0 1
1422 1 9.558617038364796 46.260901359934266 2.016546988766703 0 0 0
1838 1 11.560767684476545 45.01480637593755 0.5031961147258124 0 0 1
1763 1 17.636002497263306 44.888817402175405 0.5146279910690836 0 0 1
543 1 16.21269620026686 46.3488178688592 2.826997806757616 0 0 0
2468 1 22.08191032275946 46.33563543565522 1.7676479048616307 0 0 0
2804 1 23.80359736687311 44.75472657247562 0.11310412452338664 0 0 1
948 1 28.069855917605146 46.69051376011434 2.8290995052984753 0 0 0
2776 1 29.611356691237862 44.96979208898756 0.553830073245009 0 0 1
2089 1 1.561077679649031 48.27637019996003 0.12994155421469467 0 0 1
2110 1 6.482791643890871 49.492426266067824 1.8676728575183628 0 0 0
2017 1 8.228160502512182 47.96435302504601 0.4329207037785855 0 0 1
2162 1 12.677777251206019 49.686457612014905 2.0063582710106673 0 0 0
1998 1 14.307255180258005 47.99351118788765 0.653633703283145 0 0 1
719 1 19.062075345831918 49.76488290513302 2.7694933862316504 0 0 0
2828 1 20.398425114607605 47.72533771290688 0.40671020648927014 0 0 1
2274 1 25.218222411587146 49.845025828727785 1.8959442805111766 0 0 0
2813 1 26.772088662007462 48.14880823656203 0.39477860537808007 0 0 1
797 1 31.46166034998505 49.8555434276674 2.774574468442511 0 0 0
2700 1 33.01582716228572 47.97634936045475 0.65267719720479 0 0 1
106 1 1.5639063473241501 0.07354953573247142 4.262275444402753 0 1 0
6015 1 0.8572562645387433 34.47273648521036 18.659771027476687 0 -1 -1
117 1 6.070868760465481 1.9096768118605518 5.890254536505482 0 1 0
108 1 7.95653301769389 0.2529714630706298 4.379484110425505 0 1 0
121 1 12.81356180794903 1.9182573296861753 5.434661657926421 0 1 0
110 1 14.581444433421694 0.4769043234441237 4.189472642633551 0 1 0
831 1 20.933128044918334 0.47936159936525424 4.437896309674719 0 1 0
724 1 18.992840427741164 1.7836976579392396 5.536700756437769 0 1 0
1236 1 21.46012075149975 2.3764153388807117 2.9406686631990997 0 1 0
835 1 26.573602845820385 0.5072418153986149 4.469052550981244 0 1 0
841 1 25.32276368923926 1.9790953478688147 5.970099232001754 0 1 0
836 1 33.165967290578074 0.12091250702587653 4.254914617329395 0 1 0
116 1 3.2607435540762575 5.76495557939145 5.641074734629931 0 0 0
118 1 4.579182580580291 3.2064227361118847 4.033892964459628 0 1 0
6 1 9.380234988690678 4.8869021944849225 5.84583717720617 0 0 0
120 1 11.052500006555443 3.4113311257631223 3.941067777144209 0 1 0
123 1 17.446134125520754 3.4848561464855163 4.192100639501943 0 1 0
122 1 15.92876442725776 4.948786697722113 5.962941433482136 0 0 0
842 1 23.701029113242594 3.603255763732455 4.301687150521443 0 1 0
839 1 22.237711903059513 4.749174386472276 5.977232042712611 0 0 0
843 1 30.426950682274025 3.0660290716490053 4.263377266401393 0 1 0
745 1 28.44615145703553 4.729750574862282 5.732908917961756 0 0 0
844 1 34.62327816528349 4.649178596474512 5.864474567178489 0 0 0
103 1 3.6222158269465146 8.778042375677547 2.9167938579468378 0 0 0
1 1 1.9348442936822592 7.244341209636092 4.04033167069264 0 0 0
11 1 6.583479020363154 8.469437596031964 5.753632288368963 0 0 0
5 1 7.772491268436095 7.252067329385378 4.077728709907751 0 0 0
8 1 13.120873421303388 8.879232269332554 6.067027452632272 0 0 0
7 1 14.589255030742134 7.6348582155054725 4.219657617121559 0 0 0
742 1 20.598899153229663 7.119345427994823 4.427269020369591 0 0 0
732 1 18.989472388177386 8.741123281830216 5.940921335039517 0 0 0
744 1 26.79704725917309 6.72702970545796 4.351683860292501 0 0 0
743 1 25.495453514150565 8.553615005117749 5.604293317088308 0 0 0
771 1 28.71515277126643 8.107026404547364 3.16271404398309 0 0 0
747 1 33.426249073958516 7.197145498350607 4.241676055409649 0 0 0
748 1 32.091877321348775 8.698472528961247 5.954749282576832 0 0 0
10 1 3.1237281308437264 11.974879849795279 5.958375622671355 0 0 0
98 1 6.1550154945427265 11.723384178508956 2.9129870322946743 0 0 0
12 1 4.943379170503972 10.39778857124469 4.6351582631360575 0 0 0
14 1 9.745802215487291 11.842541706786855 6.003204896615475 0 0 0
15 1 11.275394056820582 10.261829025903106 4.180815499452897 0 0 0
16 1 17.586096090683256 10.664589196193363 4.389648354059089 0 0 0
24 1 15.865068797389341 12.190286688410032 5.951716547608985 0 0 0
750 1 23.611261948981408 10.308660584948578 4.525382705931851 0 0 0
1378 1 31.253284527313134 12.146996357715318 2.9246464270449013 0 0 0
753 1 30.02181364460363 10.462215661485972 4.448146697097377 0 0 0
752 1 28.43874606056526 11.984328283474486 5.88966708394934 0 0 0
754 1 34.737211803820976 12.109598696998388 5.838499551803658 0 0 0
18 1 1.982823353072989 13.600249898921911 3.960549680082636 0 0 0
20 1 6.336905769279049 15.167944263916327 5.9109974293079075 0 0 0
2 1 9.652360748761694 15.082983015920124 2.969986018873153 0 0 0
21 1 8.007852145631965 13.25364510307557 4.618986997350499 0 0 0
22 1 14.041270809869209 13.598914803229778 4.32598143683731 0 0 0
23 1 12.3545927469993 15.18477925371664 5.852418601342909 0 0 0
102 1 15.68665345204189 15.051727221168482 2.9776053556701174 0 0 0
756 1 20.834704809502647 13.277741473550464 4.636059763374018 0 0 0
1356 1 22.398040430152584 14.853757878876587 3.0834382101293936 0 0 0
759 1 26.863691312361606 13.408038127409274 4.079719635241133 0 0 0
758 1 25.435440079154507 14.853571266081945 5.994310694523636 0 0 0
761 1 31.197658174940795 15.250297637240767 5.797558252002765 0 0 0
760 1 32.969671847250694 13.435763108373855 4.120134363323897 0 0 0
3514 1 1.2997718237052522 3.177648223897371 4.097569401184743 2 -1 2
26 1 5.060880677907597 16.754144582335744 4.056358431201894 0 0 0
28 1 9.519493833367518 18.26463830690657 5.994155803001082 0 0 0
29 1 11.119664092862456 16.889199029791165 4.195667946782727 0 0 0
31 1 17.485321732722877 16.51706476252629 4.379271638261088 0 0 0
32 1 15.94867401521618 18.323475403048768 5.7901447088420435 0 0 0
496 1 19.1089755739463 18.00378516647042 3.0518459051189772 0 0 0
764 1 23.578473041424985 16.76999309867476 4.598546844273895 0 0 0
763 1 21.66917233163083 18.292494711893664 5.977797507090541 0 0 0
766 1 29.736484100405203 16.4975826052749 4.052961368900198 0 0 0
767 1 28.54130283762466 18.455149351722202 5.475863159337821 0 0 0
768 1 34.93318422877412 18.27307072799591 5.805017751995886 0 0 0
33 1 1.8465464713012516 19.792463227252423 4.848213714701286 0 0 0
35 1 6.432026317795912 21.410615707001632 5.6199518935609385 0 0 0
36 1 8.203945867881579 19.947102931051532 3.9209890367945723 0 0 0
39 1 12.833783618426033 21.239127794388224 5.701180371660688 0 0 0
38 1 14.237204552866343 19.66587262395485 4.0264619676195155 0 0 0
769 1 20.31263710125677 20.315462419592833 4.296390602199395 0 0 0
733 1 19.004436704389857 21.461729741400237 6.036397512755546 0 0 0
773 1 26.854798343431717 19.99901903889645 3.9809502255186873 0 0 0
772 1 25.1134283131503 21.332691456343056 5.716506780338785 0 0 0
775 1 33.21413467330557 19.591906944243537 4.247090507217354 0 0 0
776 1 31.826357447028737 21.577908278565644 5.6086885953975925 0 0 0
40 1 3.5173020495248446 24.476087769985018 6.02599650904676 0 0 0
80 1 6.396422660777425 24.346952314733063 2.949109960730768 0 0 0
41 1 4.774032939649082 22.79077407328811 4.041792793710745 0 0 0
42 1 9.871682441410845 24.22407035563091 5.975044874666938 0 0 0
43 1 11.394524610136527 22.82442235337028 4.071029860618059 0 0 0
46 1 16.188195878784697 24.65470118427143 5.7045389435281875 0 0 0
45 1 17.75974588125381 22.9245457461998 4.558076067603919 0 0 0
778 1 24.10986409493793 22.74398486663963 3.800708125277918 0 0 0
777 1 22.559948768289026 24.253010174312077 5.6060594154110905 0 0 0
779 1 29.903923955631868 22.974383808347124 4.077854820970689 0 0 0
780 1 28.067158234555574 24.577437978734345 5.246056550205607 0 0 0
781 1 34.45542525877091 24.774209911702933 5.459091957664088 0 0 0
19 1 3.4500767047096366 27.906650162452184 2.9820991780082413 0 0 0
49 1 1.8727138216597172 26.54150046292486 4.41322942795448 0 0 0
51 1 6.38610637914899 27.649198895982583 5.583537069036408 0 0 0
52 1 8.234771919860133 25.870199790019225 4.3123019823021895 0 0 0
54 1 13.934579818793631 26.083831239945273 4.227769090557418 0 0 0
55 1 12.929669526880854 27.82775512976584 6.078009780992766 0 0 0
87 1 16.086474809476 27.117464703021703 3.110589059417125 0 0 0
782 1 21.04720429980965 25.988395652458895 4.438646865219406 0 0 0
757 1 19.59467107487547 27.53839982324634 5.986369588544207 0 0 0
786 1 26.491390306331937 26.072424264933268 3.616362202791759 0 0 0
785 1 25.342935027478408 27.666960162963267 5.6080749924261815 0 0 0
788 1 31.27462929090638 27.94322264617892 6.071142135455058 0 0 0
787 1 32.552932185416566 26.36758297689439 4.091991800258952 0 0 0
130 1 6.24386739285654 30.96240789448565 3.014728264133242 0 0 0
59 1 4.816363713494305 29.486418970571616 4.70815519467224 0 0 0
60 1 9.573952933444136 30.534151462751364 5.837139819856619 0 0 0
261 1 12.800452224219642 30.659311358198718 3.111479218154729 0 0 0
53 1 11.257679471121971 29.041775275442816 4.530867096018565 0 0 0
64 1 16.000380797947564 30.621067184072373 5.8761346581103435 0 0 0
56 1 17.708681375131434 28.84700091686092 4.586539363526259 0 0 0
792 1 23.85705233795857 29.47573570760809 4.186770322121718 0 0 0
793 1 29.857566409606793 29.442749800994296 4.031170318345542 0 0 0
794 1 28.550759995428287 30.841621541831078 5.92081888470034 0 0 0
889 1 34.77014838053605 30.75231451602495 5.7153518099660445 0 0 0
58 1 1.879389040619479 32.22727784743961 4.604402022095489 0 0 0
649 1 0.436485078821405 34.0229276035744 6.052655214695455 0 0 0
13 1 9.352449504351117 33.77574612421657 3.0323586933896727 0 0 0
61 1 7.791983400846346 32.23021784790234 4.7400094924509 0 0 0
69 1 12.709186887084678 33.73318001193189 5.950494205661267 0 0 0
115 1 15.995291787159621 33.6407565358372 2.9009136532379602 0 0 0
62 1 14.318179406648714 32.207473990606616 4.610400497192862 0 0 0
791 1 20.73422267037387 32.733374136842286 4.434011240137449 0 0 0
845 1 19.172802070441954 34.107750799326695 5.780287048201454 0 0 0
795 1 26.952000747866332 32.625493914488075 4.494257616743497 0 0 0
798 1 25.443353848496418 34.04545117125818 6.018808262177391 0 0 0
796 1 33.410737771885 32.25005993338098 4.045979965406236 0 0 0
802 1 31.71172035815622 33.991687772902296 5.296551053066909 0 0 0
685 1 9.890448397869417 50.07944390003085 24.393454712465573 0 0 0
67 1 5.552126728235443 35.78822086916533 4.629653837542021 0 0 0
71 1 3.8439900466629755 37.17118849022877 6.06159206389373 0 0 0
76 1 9.747899048347424 37.22900636121268 5.944097927536394 0 0 0
74 1 11.156638923447552 35.27306166694656 4.115760570866538 0 0 0
70 1 17.4964243063588 35.47413100533181 4.155975157905297 0 0 0
79 1 15.744070362212234 36.825553495087135 5.643665225705784 0 0 0
799 1 23.778900843272478 35.63370790671296 4.042445165925337 0 0 0
806 1 22.017816061285362 36.82148832874583 5.952765507980019 0 0 0
800 1 30.230501628518418 35.73504526227889 4.2643091098599015 0 0 0
808 1 28.833492826513652 37.15238817344155 5.948971855778002 0 0 0
811 1 34.69786414486717 37.091607451090695 5.530526626086328 0 0 0
72 1 1.8477881877404185 38.679261612325575 4.385633801500797 0 0 0
82 1 6.651830654249556 40.39090954972477 5.737107020254662 0 0 0
75 1 8.302601510321628 38.86157641963672 4.293595015014868 0 0 0
84 1 12.89318950544643 40.01192631065419 5.573266031182813 0 0 0
77 1 14.309658084085525 38.45342606667995 3.9525593155559857 0 0 0
805 1 20.652990385984594 38.48045389065956 4.365341917323983 0 0 0
807 1 26.896431455914474 38.66295442538292 4.407579746255219 0 0 0
813 1 25.269722234324504 40.2895080854576 5.972130115231198 0 0 0
1379 1 28.557697064504257 40.13268314434325 3.038865113333601 0 0 0
809 1 33.23433799764498 38.744012482827216 4.209593649490466 0 0 0
89 1 3.605947032081618 43.317028695042524 5.997845988483207 0 0 0
4660 1 34.969720034420156 33.40407582141111 1.7711767808654981 0 0 0
81 1 4.990668280548501 41.85632956281319 4.365389586905609 0 0 0
92 1 9.760328960569083 43.71532782401822 5.849157844261989 0 0 0
83 1 11.265711643460874 41.79401757565438 3.941636239180961 0 0 0
85 1 17.51968480673984 41.53412360920821 4.224549898035334 0 0 0
95 1 15.934226630049729 43.42656705353248 5.456093433828399 0 0 0
683 1 18.70223999162439 43.373555593071444 2.9130035512186936 0 0 0
812 1 23.5965478905213 41.43851137733593 4.359435317614759 0 0 0
814 1 30.365757336654326 41.67929909066929 4.3461961602898125 0 0 0
820 1 28.47964772835112 42.9722074580817 5.603018743677917 0 0 0
823 1 34.72930937775498 43.37632806606176 5.7905083049407375 0 0 0
88 1 1.7361042753623344 45.15443468134872 4.523806162603344 0 0 0
97 1 6.335198211603257 46.69103196522711 5.844121963604037 0 0 0
90 1 8.003992093624355 45.14726431976375 4.476528720833312 0 0 0
100 1 12.685397021495993 46.680328675047065 5.35153794507516 0 0 0
93 1 14.301807967828955 44.925840264175264 4.279207621481727 0 0 0
817 1 20.570780219378168 44.716932743653246 4.306818066472852 0 0 0
983 1 19.222127946750597 46.65532879596698 5.794055731795508 0 0 0
819 1 26.59682542564709 44.67944421626862 4.082614845657652 0 0 0
826 1 25.349272036218967 46.642215839000215 5.648163401955164 0 0 0
828 1 31.09388603241294 46.68070738411163 5.686546794836868 0 0 0
1370 1 34.572278113499706 46.63006917801495 3.0283760592082603 0 0 0
822 1 33.138582557078074 44.885412011295315 4.6464138113549165 0 0 0
105 1 3.186995057459877 49.78448940772573 5.544351146780888 0 0 0
96 1 5.041021560216037 48.022201510656984 4.167100006658541 0 0 0
109 1 9.51356519231227 49.68173048604051 5.894603745400758 0 0 0
99 1 10.924876240512063 48.29014314392762 3.9430237280908695 0 0 0
112 1 16.10731436822212 49.679516220323194 5.646155519955316 0 0 0
101 1 17.65432877822492 48.1645675283726 4.35033479697929 0 0 0
825 1 23.565173598274207 48.28205475446913 3.8236736030611294 0 0 0
830 1 22.158936199805407 49.444117290642566 5.764979781385396 0 0 0
827 1 29.68968098139154 48.47471683307943 4.252252726627514 0 0 0
838 1 34.39944518797379 49.482825136442685 5.786878411754644 0 0 0
212 1 3.2580120585700887 1.9885704772780168 8.671778999851403 0 1 0
630 1 5.372160665227041 48.09404563559035 23.124791218418803 0 0 0
208 1 4.514904980826782 0.272149742346283 7.198222413444463 0 1 0
214 1 9.206508542021622 1.9527554535309894 9.146240914758616 0 1 0
209 1 11.164784946654922 0.47547302317472695 7.4794330949316565 0 1 0
211 1 17.576513605384942 0.4897221102021405 7.433989310369543 0 1 0
217 1 16.11666846263063 1.9285715877237597 8.830346360754458 0 1 0
923 1 23.674606183067013 0.0336048127041112 7.348909583923953 0 1 0
928 1 22.23144541721528 1.917914116400937 8.80582193319878 0 1 0
924 1 30.260546835059504 -0.1279099890627115 7.860220972091366 0 1 0
930 1 28.567978832142412 1.5507968537544465 8.878414765168003 0 1 0
837 1 31.70638232874124 1.0641072247405456 6.0918376715094515 0 1 0
934 1 34.66737651996215 1.733989278202393 9.185445164423625 0 1 0
213 1 1.5712084270812334 3.7040140741406518 7.073870455664138 0 1 0
125 1 6.239265677817025 5.797342046369116 8.985234768040488 0 0 0
215 1 7.742824272892603 3.5826462967223143 7.502346295994427 0 1 0
216 1 14.197137560806786 3.6244943733844677 7.3605588362087415 0 1 0
929 1 20.386754920811995 3.150761377329217 7.372673052585719 0 1 0
931 1 26.87124381632231 3.3239505778482026 7.483066341838529 0 1 0
932 1 31.475065048928975 4.775505607377928 9.218651950527065 0 0 0
933 1 32.873695342961966 3.024307240389387 7.631128617753927 0 1 0
131 1 3.265759188617153 8.498183948706581 9.036412382443801 0 0 0
124 1 4.786890052384134 7.0498801728069935 7.486106238065549 0 0 0
127 1 9.831173880586228 8.602766180154722 9.068087046730263 0 0 0
126 1 11.21866911880517 6.962444235219681 7.275403177951681 0 0 0
129 1 17.50941110836265 7.22985209724468 7.48334266033736 0 0 0
847 1 24.146447775216814 7.098513845079283 7.562840541148232 0 0 0
853 1 22.222497451224555 8.225302132161291 8.844191780461522 0 0 0
849 1 29.978924915522498 6.933855450953563 7.69268814081784 0 0 0
850 1 28.5045746842198 8.416198042748784 9.030027588474823 0 0 0
851 1 34.77991799193568 8.289708430652375 8.881681863646735 0 0 0
132 1 1.802845173106189 10.20992673647085 7.782716920248022 0 0 0
134 1 7.971842767887983 10.15207263736615 7.528687146508458 0 0 0
136 1 12.931941906774965 11.864603299353796 8.831677872305638 0 0 0
135 1 14.834486563542603 10.519160402527397 7.675126411032842 0 0 0
854 1 20.548024327489376 9.92788310239733 7.632548047908356 0 0 0
801 1 19.43987350842474 11.935418389152932 9.089517531200858 0 0 0
749 1 22.151201517373657 11.531470445151266 6.370191061105267 0 0 0
856 1 26.848525877894815 9.979436666179726 7.284561153387145 0 0 0
855 1 25.65518862204765 11.34103325506576 9.22059777771843 0 0 0
857 1 33.61606544353049 10.466497658962144 7.828049211300758 0 0 0
858 1 31.72966621292449 11.693991833624942 8.892620278356626 0 0 0
138 1 3.5783716403705585 14.621456264351377 9.168333737738458 0 0 0
709 1 3.4975386282263803 49.9266569975228 24.67719812015422 0 0 0
139 1 4.864704836878339 13.354032186218753 7.280142652124864 0 0 0
140 1 9.653259442413288 15.205293416645508 8.802589542430017 0 0 0
141 1 11.409547865742685 13.570424469899896 7.506329772546687 0 0 0
143 1 17.521779923749353 13.548711547588008 7.697383002479588 0 0 0
142 1 15.888776906618022 15.401573904287174 8.959356598249647 0 0 0
734 1 18.885538874365484 15.036275778494698 6.164551851996748 0 0 0
860 1 23.767670682730973 13.121354272013823 7.67060974016715 0 0 0
859 1 22.281561142531952 15.135811061920162 9.169191976698752 0 0 0
862 1 29.936804654268403 13.648023375579536 7.5691326259405125 0 0 0
861 1 28.46035952218463 14.965670000233063 8.796424382278726 0 0 0
863 1 34.27790074463514 15.245282819951345 8.848641240970375 0 0 0
25 1 3.340483444185092 17.99338322079377 6.265018346745477 0 0 0
144 1 1.86670562546032 16.15368218230177 7.472327703199971 0 0 0
1295 1 23.579671215341314 48.04661791646228 23.22531925163727 0 0 0
146 1 8.05771282852232 16.689844556342685 7.416785739848793 0 0 0
147 1 14.345848661917824 17.081583179429963 7.524382493873127 0 0 0
864 1 20.546000366903666 16.32170213148217 7.582680687327709 0 0 0
1038 1 19.175264090019205 18.22058556976644 8.981913059812141 0 0 0
866 1 27.148037318223263 16.783217167437805 7.236266350788324 0 0 0
865 1 25.446610733273772 18.25441973035408 8.909663235439533 0 0 0
868 1 31.301719457122108 18.192995105046002 8.528967973415424 0 0 0
867 1 33.09185844081954 16.65982310272928 7.24230327486291 0 0 0
150 1 3.3238170052604636 21.478801500448554 8.736984216921043 0 0 0
151 1 5.093634969844478 19.899388185797743 7.6943098300817905 0 0 0
152 1 9.184163047495273 21.038883489486423 8.708145930210582 0 0 0
153 1 11.059658200087144 19.934524746862763 7.40519220113875 0 0 0
148 1 12.44576108620622 18.6577768027839 9.165808061434353 0 0 0
155 1 17.475055409510823 19.885773600799375 7.3877854850320155 0 0 0
154 1 15.908958362927212 21.175649733188422 9.093414157231436 0 0 0
870 1 23.65484633269076 19.320693183967933 7.269631122123986 0 0 0
869 1 22.43279915742414 21.276242597689862 8.986827313855537 0 0 0
872 1 30.269091987835047 19.78820087619514 7.023498463774898 0 0 0
871 1 28.619355895961487 21.56032490435463 8.775195981146375 0 0 0
873 1 34.90958336862154 21.18617767949793 9.01070149994329 0 0 0
156 1 1.7514108408345705 22.918193700133184 7.388803397998858 0 0 0
158 1 6.793896950557378 24.55049214833222 8.952326078101748 0 0 0
159 1 8.084188800316545 22.885413316067076 7.270919358933237 0 0 0
161 1 12.841428718660486 24.47417792749588 8.997852477191481 0 0 0
160 1 14.634675284366013 22.99435951708022 7.62829396951228 0 0 0
874 1 21.101218129945508 22.676387466493086 7.408450135708326 0 0 0
609 1 19.02786753203386 24.176657513543752 8.89582233249329 0 0 0
876 1 26.803273916663212 22.89146263234508 7.00760206749979 0 0 0
875 1 25.43834100237215 24.638849739752434 9.088772526243249 0 0 0
877 1 33.36925701018304 22.991149965611655 7.2988321006797365 0 0 0
878 1 31.81741255899285 24.93577101666724 8.636890994649168 0 0 0
162 1 3.468988705729452 27.634117463822662 9.131127528562043 0 0 0
163 1 5.075551741357762 25.938284641721776 7.347520337227745 0 0 0