LAMMPS data file via write_data, version 29 Oct 2020, timestep = 0

9216 atoms
1 atom types

0.41762755034562815 104.24120502386836 xlo xhi
-0.3215597669631225 50.53589551080665 ylo yhi
-0.3215597669631225 50.53589551080665 zlo zhi

Masses

1 18.015

Atoms # atomic

5 1 2.085553296635476 1.9534181273614635 1.696668019411304 0 0 0
36 1 9.786268909683056 9.77499540472674 0.6286524835453993 0 0 0
1826 1 19.22607006790514 28.335437501634814 9.991062867562183 0 0 0
26 1 0.4674199218818276 9.45638667804501 3.7672957417767368 0 0 0
13 1 7.910491858620597 1.961127427539718 1.7339836461991323 0 0 0
11 1 9.514735560647063 50.45856647628379 3.4982429851897154 0 -1 0
21 1 14.712415695181509 2.3430849873884583 1.8756035776999198 0 0 0
18 1 13.247230716109758 3.584750069744288 3.7189517348688597 0 0 0
626 1 0.5812119005951106 15.82879156789957 22.561381347773715 0 0 0
27 1 3.27184896315176 6.673658502155786 3.610536437248829 0 0 0
10 1 6.724068060740258 3.1758475092901652 3.4062388241102637 0 0 0
8 1 5.087538667601616 5.100000512227191 2.2901996891066774 0 0 0
108 1 9.487010564617398 28.427064831065913 0.6908893742957057 0 0 0
35 1 9.87950695665219 6.541608456004182 3.6552681189742873 0 0 0
16 1 11.405768914460246 4.964336947445795 1.8368460183586057 0 0 0
24 1 17.702732706416587 5.366220318828166 2.045224249016575 0 0 0
505 1 0.7856169053124564 31.368811221549457 12.948915408852992 0 0 0
29 1 2.13342790680304 8.295490160972006 1.6170597122174422 0 0 0
76 1 3.5974870842615183 22.57074574573548 0.640739272633426 0 0 0
34 1 6.478031593512205 9.859771694192169 3.563261385037648 0 0 0
37 1 8.14534036101963 7.94963991517582 2.2740636277661634 0 0 0
45 1 14.165624422373813 8.294157971750359 1.9816959330954853 0 0 0
42 1 12.4826182158398 9.876570034636805 3.504810081729109 0 0 0
43 1 15.985452046880775 6.888596405421539 3.603891858827486 0 0 0
51 1 3.4881324055485443 12.679059740493289 3.916511607713072 0 0 0
32 1 5.204784377135708 11.442518893834134 1.7126598900602912 0 0 0
745 1 0.48379715060677597 44.744554668062925 19.404499718268685 0 0 0
59 1 9.653691242270888 12.949724311008412 3.646238725012504 0 0 0
40 1 11.250377970773172 11.57727933110522 1.8516661322786097 0 0 0
458 1 0.6146818307765293 22.615172992137154 16.17496945128528 0 0 0
48 1 17.602177731734916 11.205955190916837 2.034870123071698 0 0 0
67 1 16.06887525822067 13.0084333202504 3.4426717579484905 0 0 0
53 1 1.9974476964250572 14.47422319437124 2.502791324234889 0 0 0
84 1 10.18980134545664 22.0205515141976 0.5161047549381339 0 0 0
58 1 6.572945066952592 16.088852996280572 3.272849448207991 0 0 0
61 1 8.341007192097269 14.628526251368347 1.577585191469129 0 0 0
698 1 0.5205752125803815 35.0833432357988 22.575553279377047 0 0 0
69 1 14.361131622469166 14.347908175679185 1.682828510337989 0 0 0
66 1 12.960765900617215 15.917738408601716 3.3539010939242795 0 0 0
75 1 3.6645660811673064 19.14765160256531 3.678010114630452 0 0 0
56 1 4.91856109929385 17.4660067920133 1.6981259616009325 0 0 0
83 1 10.005113144443305 18.896182823874252 3.627169400695789 0 0 0
64 1 11.524640123514526 17.499581820622765 1.7272993801381131 0 0 0
649 1 0.9424888130021774 19.115649832622402 19.2469279998473 0 0 0
72 1 17.876004465696518 17.59948724730815 2.213285299603646 0 0 0
91 1 16.30787568862882 19.32587617987624 3.3572523542641988 0 0 0
554 1 0.6332735439285554 47.81830631600794 16.225923846529575 0 0 0
674 1 0.6747026613537017 28.49414938428177 22.40953976206796 0 0 0
77 1 2.0235580811102993 21.208567943266832 2.0687539874986838 0 0 0
2113 1 19.21902023617018 0.4376110953527761 19.268648405212687 0 0 0
82 1 6.527125094873932 22.313854944292004 3.2365138978538286 0 0 0
85 1 8.371766136525302 20.538728675286666 1.9680462583936724 0 0 0
88 1 11.388092892975143 23.703399719491145 2.18613556127523 0 0 0
93 1 14.05916569494138 20.75189505484224 1.8836973926591807 0 0 0
90 1 13.056443067825363 22.492022465580295 3.729910154972239 0 0 0
96 1 17.825051125738426 23.50904937986111 2.2416866316364334 0 0 0
99 1 3.5012068211949687 25.470677835818908 4.027646989039118 0 0 0
101 1 2.030218768283926 26.881967531346906 2.2595104036408076 0 0 0
80 1 4.960799720093166 24.147075436317987 2.3630377081323943 0 0 0
107 1 9.7080317862362 25.192527040831884 3.489564561771351 0 0 0
109 1 7.929941557141545 26.88490113150189 2.3948226598945226 0 0 0
117 1 14.441930196001948 26.86220678701857 2.265495820206418 0 0 0
481 1 0.5489001666203048 25.32871155291823 12.749457839532898 0 0 0
115 1 16.12046947656672 25.27925354878225 3.5284745092291456 0 0 0
766 1 14.78417522523011 49.40970725451945 24.218993889942137 0 0 0
106 1 6.754298048117034 28.834902188099022 3.967642034442532 0 0 0
104 1 5.694960996988521 30.435158468377512 2.284707246511008 0 0 0
290 1 0.7016347775361279 28.827464204086095 9.680889812886814 0 0 0
114 1 12.836440413272408 28.384591384154838 3.602672177887852 0 0 0
120 1 17.613256135343004 30.121752370393715 1.8120597536187937 0 0 0
123 1 3.9905428866330612 31.81511540320897 3.7135281788367727 0 0 0
125 1 1.9986867096783836 33.31990548749866 2.041218436039569 0 0 0
100 1 3.712890533872923 28.613355734991842 0.5029165639895208 0 0 0
112 1 11.287272308069388 29.921120754974392 1.771932712739382 0 0 0
133 1 8.439448063649362 33.50182339999499 1.949380015710654 0 0 0
131 1 9.881599224758794 31.872807406124906 3.596289824302172 0 0 0
141 1 14.433427424147316 33.09456158023949 1.6090867425164064 0 0 0
140 1 16.136366700524533 34.67222826196518 0.4157509517742086 0 0 0
139 1 15.86471702229833 31.47023284688363 3.2965111570166235 0 0 0
81 1 6.537418918212454 19.018797271998977 0.6078218720643663 0 0 0
128 1 5.134724830425539 36.49005703980937 2.021018292597776 0 0 0
130 1 6.792270894813504 35.0278272097678 3.3897495310947865 0 0 0
136 1 11.396107579474815 36.4278807042996 1.5981874454076632 0 0 0
138 1 13.020042462493803 34.649669007813095 3.2262652197949038 0 0 0
144 1 17.636465998190168 36.168552520577954 1.8804852082392913 0 0 0
313 1 0.4196856959275621 31.9630023377818 6.783347591131009 0 0 0
92 1 16.20637606356754 21.783278323490006 0.7689494347555001 0 0 0
149 1 1.8872459304092093 39.7809822652521 2.1790899993369877 0 0 0
147 1 3.753018085794024 37.9475762662346 3.649920877052199 0 0 0
157 1 8.141488712250696 39.77382751336218 2.131915479385545 0 0 0
650 1 0.5826720577568225 22.55100362162693 22.3181693046111 0 0 0
155 1 9.894002077370367 38.34500830787901 3.501556423235605 0 0 0
165 1 14.425594397398593 39.55288549245585 1.9350239431765002 0 0 0
2234 1 19.22247780873796 35.143623281053934 21.975578361578428 0 0 0
163 1 16.05445932465333 38.056876162432026 3.1093477042808386 0 0 0
152 1 5.184968492251468 42.64250603725682 1.8231603838519035 0 0 0
154 1 6.4763277531470465 41.31423441492975 3.496531505565026 0 0 0
33 1 6.29653728939503 6.422710330711188 0.571777582348183 0 0 0
160 1 11.056014166748872 42.909864368228355 1.5995719137887525 0 0 0
162 1 12.812702337630789 41.303554425546984 3.0050198302347715 0 0 0
168 1 17.77081685308722 42.78456212767685 2.0059962765758677 0 0 0
44 1 15.807425107318196 9.743807653065758 0.6362552332349495 0 0 0
4 1 3.7692514638959254 3.4837804639796666 0.5755761206356219 0 0 0
52 1 3.2934506562374746 15.771790600206007 0.38664485294716855 0 0 0
171 1 3.3349781592368757 44.40095747725331 3.1974132823799013 0 0 0
173 1 1.7154228729921595 45.655692366960864 1.9181286270274298 0 0 0
2090 1 19.003457260364538 47.067584714690554 15.67644466216484 0 0 0
181 1 8.094132953551686 45.834723697209895 2.035082132689367 0 0 0
179 1 9.64777550772018 44.29842225919333 3.5469033897740254 0 0 0
189 1 14.70462210133688 46.05816906129732 1.8454843151531308 0 0 0
714 1 13.251967615503691 35.169855085752424 21.750941282862104 0 0 0
187 1 16.227170255110586 44.296212813877084 3.298996029957341 0 0 0
718 1 14.61743723722279 36.51776563313404 24.044037179284626 0 0 0
710 1 8.304184057371351 36.32640047106859 23.905587074244384 0 0 0
116 1 16.115391544429507 28.292369111675587 0.5597304867378124 0 0 0
3 1 3.4085661072040274 0.47725308296478586 3.293926305375385 0 0 0
178 1 6.212573740672357 47.48782243952239 3.542563648998622 0 0 0
176 1 4.7241349246267506 48.78174538003626 1.6902433300822512 0 0 0
734 1 8.42992815366984 43.240712605817585 23.863780500419114 0 0 0
184 1 11.183360099018213 48.98620768920298 1.597620220898717 0 0 0
186 1 12.940588112520416 47.49638427777327 3.087962584823719 0 0 0
19 1 16.04900901294182 50.52031625849194 3.6150923084026334 0 -1 0
192 1 17.563075434982487 49.05957264777815 1.8481065909374192 0 0 0
7 1 4.931390222413149 1.7593804273892635 5.134941220960643 0 0 0
201 1 6.380604062108864 0.5095690454065042 6.630806185284159 0 0 0
15 1 11.349167465228255 1.6721348356711876 4.924696856185684 0 0 0
204 1 9.964692769752752 3.308885840390254 6.713478096616744 0 0 0
209 1 12.714133319820327 50.42463470114586 6.983207795229956 0 -1 0
23 1 17.62621466540084 1.9389605574084214 5.1321836594724575 0 0 0
105 1 6.385195759328702 25.619851168928037 0.6732973260465978 0 0 0
196 1 3.4135708228329005 3.2045312818676117 6.681872387289222 0 0 0
6 1 1.953841534872966 4.9125476480110875 5.430906189039697 0 0 0
225 1 6.605077283478107 6.3329650708962015 6.9333555950562 0 0 0
14 1 8.109409374799432 4.854819495845575 5.177429431821055 0 0 0
22 1 14.957113365013006 5.221108120041446 5.323549901696244 0 0 0
233 1 13.058710500805892 6.563622021030774 6.4775835791052465 0 0 0
212 1 16.32481159968698 3.45167422993864 6.943797253607468 0 0 0
220 1 3.725502725027394 9.314473385456433 6.8135065530637755 0 0 0
31 1 5.009035606050355 8.049808458126986 4.9294260126411436 0 0 0
228 1 9.78716564690135 9.897039538742025 6.448558573802736 0 0 0
39 1 11.53963067386571 8.265729661170859 5.15512072930832 0 0 0
236 1 16.009108544144873 10.092892728627142 6.604984351627178 0 0 0
47 1 17.638556554183154 8.244064007352115 5.345758041095047 0 0 0
30 1 2.017562964605207 10.843363685561997 5.121192681623558 0 0 0
249 1 6.638230599856424 12.69253306234227 6.937766542444746 0 0 0
38 1 8.195092498440705 11.37835884740468 5.065771631749959 0 0 0
46 1 14.469539215988613 11.769244665219308 5.173134150307902 0 0 0
257 1 12.573588083832691 13.342006954124999 6.810986375094029 0 0 0
706 1 6.832804741871247 34.986394962523036 22.194123821505556 0 0 0
244 1 3.4715022490482794 16.156890350945034 6.383096069460989 0 0 0
55 1 5.237467363791175 14.580915379932565 5.342691558917399 0 0 0
252 1 9.319090463207791 15.717930030587965 6.354320562985854 0 0 0
63 1 11.190502709339547 14.61597544957406 5.054203331886465 0 0 0
260 1 16.02924606592324 15.854398537566869 6.73875007062637 0 0 0
71 1 17.59193375805412 14.56733043354721 5.036834509768982 0 0 0
54 1 1.9025191738677245 17.593149029487765 5.03785020676461 0 0 0
41 1 12.837622197831639 6.551594275592554 0.46504472100575395 0 0 0
273 1 6.934027916315742 19.221894004425227 6.597969136747575 0 0 0
62 1 8.22151083269965 17.56044000750617 4.920222798330204 0 0 0
70 1 14.75773707003805 17.669149035340144 5.276819413240093 0 0 0
281 1 12.96839435765741 19.145745917755995 6.643396425994808 0 0 0
268 1 3.616357914323881 22.298806344036006 6.776381340882214 0 0 0
79 1 5.219423502044819 20.60666530795492 4.996657018193645 0 0 0
276 1 9.930291577036607 22.321598389080194 6.265405662022915 0 0 0
87 1 11.552932319757039 20.63678544366335 5.133697695113272 0 0 0
95 1 18.022846319404387 20.603511968693162 5.259736382873533 0 0 0
284 1 16.320848602114822 22.13035030346565 6.895334427227867 0 0 0
78 1 1.6941483971044646 23.92073894461028 5.4762937753645975 0 0 0
297 1 6.923156734265961 25.729362158194025 6.769512665300384 0 0 0
103 1 5.072200647846666 27.186794197548735 5.4840202732111925 0 0 0
86 1 7.949063121382797 23.754963861713435 4.988330802272508 0 0 0
111 1 11.2829110686985 26.912175199560565 5.136975642105219 0 0 0
94 1 14.47610306113341 23.924890206326076 5.31168801979665 0 0 0
305 1 12.826876362445097 25.33331402877142 6.653696548991782 0 0 0
702 1 2.158011343252288 36.900532683884585 23.754946575442702 0 0 0
292 1 3.611991991153595 28.767065579705744 6.907937052223653 0 0 0
102 1 2.1546185545476892 30.30296018132665 5.222339630966374 0 0 0
110 1 8.631492536675932 30.435617908952544 5.1348919269091455 0 0 0
300 1 9.94240430351926 28.70516393481816 6.657698047076469 0 0 0
118 1 14.537825671045887 30.19265780831837 4.842951580808617 0 0 0
119 1 17.705903405066834 27.0456072452647 4.7725633535583 0 0 0
308 1 16.055805301735134 28.391691578705597 6.413457303562417 0 0 0
321 1 6.977256703332988 32.01355237048785 6.887982848724666 0 0 0
127 1 5.4187074447543235 33.56523947166583 5.288546915665538 0 0 0
135 1 11.364437103710697 33.52844341473457 5.217057443544972 0 0 0
329 1 13.056808481600248 31.931395079652493 6.4913098540042125 0 0 0
143 1 17.30733750718471 33.02383099585713 5.26043949681627 0 0 0
126 1 1.9742882737787872 37.095452688565665 5.503343526568349 0 0 0
316 1 3.4603164971394094 34.99735151394045 6.766474930398642 0 0 0
134 1 8.2274998507657 36.77468502305989 5.498612482690912 0 0 0
324 1 9.810806461911591 35.02601605636533 6.972971044169248 0 0 0
142 1 14.39349342856565 36.54742985542741 4.6612535862430935 0 0 0
332 1 15.855020411525157 34.95342542169153 6.662841747720913 0 0 0
2089 1 19.168724942435826 44.30684224582702 12.7439319133078 0 0 0
345 1 6.129696967318224 38.296788393316874 6.852631821995867 0 0 0
151 1 4.9258846342448654 39.77791703609506 5.123494832897864 0 0 0
159 1 11.67237245559284 40.08364086362092 4.839445544146466 0 0 0
353 1 13.123117600032582 38.40285985042899 6.523288228762886 0 0 0
167 1 17.680653289232392 39.59793820101848 5.026340666657904 0 0 0
340 1 3.347044240078001 41.45705171860825 6.735480456784699 0 0 0
150 1 1.8779874385910351 43.1652722137814 4.909949634050162 0 0 0
158 1 8.186561492328044 42.60673189544426 5.065117504311765 0 0 0
348 1 9.70305677651059 41.08202665514915 6.770901661852716 0 0 0
166 1 14.5720880064744 42.70956819584693 4.705731796593558 0 0 0
356 1 15.968913204841499 41.5705462931661 6.402737023185014 0 0 0
2041 1 18.934129553111756 31.519119681556223 12.691576847666171 0 0 0
369 1 6.5743327404039285 44.27909916889888 6.521153960243499 0 0 0
175 1 4.659997255614797 45.853860225847704 4.847684112289785 0 0 0
183 1 11.295400597584925 46.05674087693354 5.128282605093744 0 0 0
377 1 13.20821182192439 44.514529931632595 6.12522347785362 0 0 0
191 1 17.693171081949032 46.07095894405278 5.082937750524098 0 0 0
364 1 3.4058405580958664 47.56654435538615 6.318032802532838 0 0 0
174 1 1.7227090563026186 49.27825347405679 4.723602865639438 0 0 0
372 1 9.341387312146308 47.53080730005647 6.791461825611449 0 0 0
182 1 7.880889447391125 49.15714991128103 5.15114592468559 0 0 0
190 1 14.321151855258087 49.198906885718074 5.009667132685591 0 0 0
380 1 16.236503985887566 47.50667608192643 6.476254966221203 0 0 0
197 1 1.4547124065399824 1.7977097694551327 8.47221848734635 0 0 0
195 1 3.508291604941314 50.402169857872195 9.83451019060823 0 -1 0
205 1 7.99657308414839 2.1842249739641737 8.081514642149266 0 0 0
203 1 9.37567783772353 0.575001284318511 9.897279844921 0 0 0
213 1 14.391047983038309 1.7287878901689495 8.198262449710267 0 0 0
210 1 12.837538095992342 3.4147976907957025 9.87399356259544 0 0 0
211 1 16.142734147871977 0.39264817660129125 10.119426283778688 0 0 0
219 1 3.2008262326212313 6.710387732022259 9.943587271341876 0 0 0
202 1 6.450147580476803 3.738351581855849 9.89385082381778 0 0 0
200 1 4.73623530496715 5.095956044519987 8.265224027337915 0 0 0
208 1 11.395108872328112 4.97989270586236 8.217914185177705 0 0 0
227 1 9.81446823110339 6.4584350794364545 9.607617781752252 0 0 0
216 1 17.896507966847818 5.050908678115027 8.667874844233275 0 0 0
235 1 16.234335637263584 6.963617903503108 9.913563322007619 0 0 0
730 1 6.686388303007286 41.419383258437094 22.62446077766945 0 0 0
221 1 1.9503870750151915 8.2683610336126 8.158002893046447 0 0 0
226 1 6.569622967154007 9.853152241293866 9.931424222535753 0 0 0
229 1 7.965838677132043 8.302942944777474 8.085761333160084 0 0 0
231 1 11.441244075602768 8.134337311144058 10.824438133350188 0 0 0
237 1 14.596645053575655 8.409901897950546 8.239397895972639 0 0 0
234 1 13.091658673956891 9.751825953757473 9.711796566925093 0 0 0
243 1 3.1919579921394488 13.055891759556602 9.661657411544967 0 0 0
224 1 4.982613103138858 11.427122162836609 8.170711719159431 0 0 0
251 1 9.67558766650072 12.660044966987442 9.576736131275073 0 0 0
232 1 11.50992587681234 11.133091737589574 8.172607004990233 0 0 0
259 1 15.924327359242863 13.217915690907443 9.726391468100664 0 0 0
240 1 17.60762272075871 11.815469177824735 8.401300261797141 0 0 0
245 1 1.7179314085548363 14.62815117711913 8.046662496052715 0 0 0
250 1 6.655562838764842 16.333974674034557 9.810634575879265 0 0 0
247 1 4.816934875770441 14.614332526046931 11.107987631463182 0 0 0
253 1 8.115245234748006 14.424151353077464 8.351309824097894 0 0 0
255 1 11.00837041377826 14.356057708160812 11.588868991282832 0 0 0
261 1 14.119803311540272 14.750809905796297 8.424131911045015 0 0 0
258 1 12.441353973120252 16.122899773603713 9.70996190202011 0 0 0
625 1 0.8057342092645978 13.266099066423827 19.122784981110076 0 0 0
267 1 3.2968174299020316 19.293589239076365 9.666492788546192 0 0 0
248 1 4.897230855456415 17.68798468907889 8.011716177301537 0 0 0
275 1 9.30579852040915 19.134394522943843 9.89129819245652 0 0 0
256 1 11.319619600164266 17.513476088817008 8.09230509834942 0 0 0
262 1 14.482610637754485 17.544856512537056 11.194939180135286 0 0 0
264 1 17.53220477657197 17.507870706817393 8.54509564858706 0 0 0
283 1 16.082665001742818 19.564035415460623 10.333606060192869 0 0 0
269 1 1.8619978905184997 21.05309828546334 8.430362125607903 0 0 0
113 1 12.927507068029847 25.317414466289602 0.7698376556395825 0 0 0
274 1 6.661790751630063 22.431728485480498 9.91403881544629 0 0 0
272 1 5.068691237184107 24.100893514403047 8.427132877137824 0 0 0
277 1 8.19499146037111 20.940037981360785 8.297329878256749 0 0 0
285 1 14.433734021057367 20.71890176263448 8.232885433724292 0 0 0
282 1 13.179912691989866 22.39070550310691 9.755834389103299 0 0 0
291 1 3.328371060862493 25.413861864999653 10.05956578127244 0 0 0
293 1 1.981663889602751 27.098961921346504 8.24598636512005 0 0 0
280 1 11.4392584192207 23.90437706980314 8.140488889548248 0 0 0
299 1 10.147147476756745 25.697467079899926 9.869086809194188 0 0 0
288 1 17.648156170479716 23.91064824516606 8.629465827383331 0 0 0
307 1 15.907181651054678 25.445453111865678 9.731658205788406 0 0 0
553 1 0.6755169706525859 44.399055238753796 12.900583142477842 0 0 0
298 1 6.947076140016136 29.026789971681083 10.050449616926203 0 0 0
296 1 5.51367836093539 30.527122765750853 8.403094002235461 0 0 0
301 1 8.399247437343956 27.336116274860817 8.54452583564155 0 0 0
304 1 11.371269547916881 30.551075036631733 8.309298673541239 0 0 0
309 1 14.492038162665628 27.155062469432988 7.96477120836139 0 0 0
306 1 13.199451796847036 28.780783436270394 9.719695034508133 0 0 0
310 1 14.93893618206639 30.256743482151567 11.494858422280018 0 0 0
312 1 17.508872253849315 29.912160408882226 8.33500319598404 0 0 0
315 1 3.4272104412569537 32.03565910165804 9.618903945615662 0 0 0
317 1 1.851975205316879 33.664305455831695 8.033515594366328 0 0 0
325 1 8.374500351685201 33.58287477908532 8.502488574754269 0 0 0
323 1 9.916766181152692 32.40557458462604 9.893421277762267 0 0 0
333 1 14.545226311830838 33.3689559336985 8.20657479952108 0 0 0
331 1 16.264953982112218 31.846330780826253 9.709071167294825 0 0 0
1850 1 19.20099649640759 34.884357079799734 10.022993474512012 0 0 0
320 1 4.903804726004916 36.40649856920295 8.500430509898859 0 0 0
322 1 6.4656762454910535 35.06958129591186 10.003780163463489 0 0 0
328 1 11.52666540621123 36.85150741430898 8.273993324517127 0 0 0
330 1 12.91014107534507 35.05578938482043 9.306758065482835 0 0 0
336 1 17.51720401954305 36.414929868222536 8.16684646744104 0 0 0
587 1 9.874360939969943 0.6102892138467804 22.292231271230023 0 0 0
339 1 3.3976395323232507 37.986894025591525 9.99352463524818 0 0 0
341 1 1.4459601735982914 39.67535237101028 8.484789364676127 0 0 0
349 1 8.386552619367958 39.165823108510374 8.171153791893806 0 0 0
347 1 9.890866097487711 37.99805405119941 9.898963068130039 0 0 0
357 1 14.545630421699576 40.00866737123103 8.431816080278216 0 0 0
355 1 16.3208106174421 38.24976103294719 9.690906190609594 0 0 0
359 1 17.868049523857653 39.56018498816866 11.331515542571337 0 0 0
346 1 6.508537876955067 40.792838573717944 9.402540046661375 0 0 0
344 1 4.91628044205698 42.95201533973177 8.285505740578174 0 0 0
352 1 11.610876115878215 42.97024435767017 8.01555167652692 0 0 0
354 1 12.833684629934265 41.336775203989525 9.949410648101061 0 0 0
360 1 17.859149223584872 43.057983289212466 8.08255722304715 0 0 0
758 1 8.39538841414667 49.48757378807699 24.024153157525717 0 0 0
363 1 3.5156172810812367 44.575163727194386 9.657775163580467 0 0 0
365 1 1.8219353317507474 45.96629832010508 7.939545436792689 0 0 0
373 1 7.8338425539998555 45.90805471045742 8.174282770901083 0 0 0
371 1 9.756549232866444 44.386725199861175 9.495851431474518 0 0 0
381 1 14.418024559328751 46.09764302045769 7.9231558993156375 0 0 0
379 1 15.985992961358605 44.484720556438226 9.728622134563988 0 0 0
383 1 17.5822054224848 46.17501323448847 11.320961277065356 0 0 0
370 1 6.101277540317258 47.28829405521455 9.453949628822013 0 0 0
368 1 4.968970982845464 48.95957756208495 7.779419766728563 0 0 0
376 1 10.779896407108467 49.25782656546014 8.461761391702401 0 0 0
378 1 12.73868055243047 47.60195502653476 9.319882934589101 0 0 0
384 1 17.390255854980516 49.07898715385869 8.398277722464893 0 0 0
742 1 14.88416331532012 43.03886671802592 23.82690927879952 0 0 0
388 1 2.930195533962214 3.309001734789735 13.153357783039237 0 0 0
199 1 4.936936427083312 2.0590977764213667 11.415147545131461 0 0 0
397 1 7.355122235028507 2.333484041673639 14.679049696192395 0 0 0
207 1 11.274041378147972 2.142941808309523 11.440655559540074 0 0 0
396 1 9.59766167792607 3.3689399651520504 12.97641426162331 0 0 0
405 1 14.563156508094458 1.6910492189479562 14.390391264578321 0 0 0
215 1 17.583144395767437 2.0168324033083795 11.760704863448032 0 0 0
404 1 15.90142657204716 3.753610557439667 12.981960359081716 0 0 0
198 1 1.6309351405039683 4.807351994557877 11.286868850925858 0 0 0
392 1 4.523513636536336 5.353002507325031 14.144833916737609 0 0 0
417 1 6.716996278556152 6.694482251716281 12.70047188220178 0 0 0
206 1 8.4289419680979 4.946830611200911 11.408547084148912 0 0 0
400 1 11.287608480052429 5.466830853065007 14.115474183156236 0 0 0
214 1 14.198941569219082 5.204211119869642 11.204989454768333 0 0 0
425 1 13.143467527996371 7.002403887097671 12.637204163972614 0 0 0
408 1 17.594647843343274 5.137891481283171 14.376620811620187 0 0 0
721 1 0.7272076568175619 38.061612765038376 19.253991364837475 0 0 0
412 1 2.981126770074688 9.81549222637861 12.638263846885945 0 0 0
413 1 1.4742730939446755 8.043413096954355 14.526250784548614 0 0 0
223 1 4.934304049226503 8.286140139253789 11.264308031158105 0 0 0
420 1 10.11584101729434 9.849708411803364 12.561853625035365 0 0 0
421 1 8.39986692048645 8.65037423006527 13.90468298254164 0 0 0
429 1 14.764472495483227 8.077685129058564 14.427739046376013 0 0 0
239 1 17.93050282077012 8.444875510757218 11.60491966964042 0 0 0
428 1 16.14552143074502 9.833082284142964 12.789125873794545 0 0 0
222 1 1.3475914556134554 11.266161497710454 11.095885365611021 0 0 0
441 1 6.411164590525332 13.136997449740326 12.564473626878572 0 0 0
416 1 4.81680935398313 11.54856314668714 14.185308773819166 0 0 0
230 1 8.201767399858987 11.600382339584868 11.284169204285297 0 0 0
424 1 11.537761388048464 11.622360698132535 14.253125247898145 0 0 0
238 1 14.687310611859738 11.443041219742359 11.064514739376818 0 0 0
449 1 13.276627549814853 13.15707699939353 12.810061670702575 0 0 0
432 1 17.759057211482475 11.581127504389894 14.291738199374302 0 0 0
436 1 3.304513289652734 16.269845389654733 12.387786213552186 0 0 0
444 1 9.716380305379896 16.287987692335264 12.846913623363417 0 0 0
445 1 8.38783269835901 14.182956193384932 14.077318337026844 0 0 0
453 1 14.581877312175493 14.726744098319024 14.279137286512173 0 0 0
263 1 17.570194506480686 14.60111865727157 11.17702096459946 0 0 0
452 1 16.332095468706612 16.24871838180318 13.072383300626479 0 0 0
456 1 17.850399049131024 17.921692916805718 14.675347620009525 0 0 0
246 1 1.635162605790085 17.666075784475165 10.860619568852437 0 0 0
722 1 0.8514593571341325 41.3741803466611 22.675064474577898 0 0 0
465 1 6.60690283438869 19.32894603758007 12.711798280882869 0 0 0
440 1 5.072537525951521 17.458735178543638 14.252060626078695 0 0 0
254 1 8.197193004876343 17.59588631160911 11.415544591899689 0 0 0
448 1 11.244661994999078 17.928406668065495 14.185624651610457 0 0 0
473 1 13.055098904112832 19.225196661131307 12.416595194762513 0 0 0
460 1 3.7186886286288536 22.606236818667984 13.163657565922772 0 0 0
461 1 1.932604772144393 20.539960565875155 14.494957635245008 0 0 0
271 1 4.844464490431888 20.83019441747155 11.61557647906426 0 0 0
279 1 11.241007833145582 20.766777882168743 11.066390748681323 0 0 0
468 1 9.885777934636614 22.48417651996462 13.062633678525609 0 0 0
469 1 8.274354151406612 20.884784386493564 14.362920130997047 0 0 0
477 1 14.416126061172857 20.563971474759278 14.63750633567978 0 0 0
287 1 17.89003311206198 20.82499338206896 11.917776319527897 0 0 0
476 1 16.140667633518504 22.298489796245317 13.386544512115623 0 0 0
17 1 13.032730413193942 0.7571244935356133 0.3916587977578622 0 0 0
270 1 2.069635786062622 23.698493862881648 11.340488437948384 0 0 0
485 1 2.096315218042141 26.70730071954722 14.452034363209917 0 0 0
489 1 7.221468977657613 25.576080970937493 12.88233163637895 0 0 0
464 1 5.768794743111927 24.00857296870338 14.29623061688233 0 0 0
295 1 5.387829071934207 27.497737947427073 11.449117490202333 0 0 0
278 1 8.607593806646348 23.874023025754017 11.349678171325323 0 0 0
493 1 8.49958037205123 27.06876228572042 14.816466216538903 0 0 0
472 1 11.588534782124587 24.00535947961873 14.751742230811452 0 0 0
303 1 11.86615561370538 27.13434778450907 11.710372048252342 0 0 0
286 1 14.64548285745066 23.84071781692017 11.525478263201304 0 0 0
497 1 13.06951924127874 25.418601036632595 13.266565091509671 0 0 0
754 1 7.002737700633352 47.6232895338673 22.113934039623913 0 0 0
480 1 17.556572432127634 24.10339811271945 14.91866529232723 0 0 0
294 1 2.0128098481016297 30.064666342063784 11.284754181462862 0 0 0
484 1 3.55456209978672 28.772760161565166 13.075722593642107 0 0 0
488 1 4.975314535260395 30.444908993395007 14.43349657928301 0 0 0
302 1 8.382447871309893 30.618403128946657 11.61674492797964 0 0 0
492 1 10.080554543353465 28.67362983780683 13.407936271641882 0 0 0
501 1 14.063545332189841 27.22800763926232 15.076373477310968 0 0 0
311 1 17.498145199400714 26.95595747784476 11.316088528488429 0 0 0
500 1 16.215598962636143 28.344761828543817 13.075130959763927 0 0 0
504 1 17.558732711813683 30.209807742468513 14.61274171242451 0 0 0
759 1 11.4704006900935 46.047601142290695 23.794340059582577 0 0 0
509 1 2.140477578106233 33.16177079388555 14.395372157557249 0 0 0
319 1 4.923486468326973 33.42894626108788 11.165455750547366 0 0 0
513 1 6.478369434794705 32.16838036594468 12.938828206828731 0 0 0
327 1 11.654302595267401 33.59504879972401 11.237955439466418 0 0 0
521 1 12.973880950997223 32.08765815659096 13.372054962948074 0 0 0
525 1 14.789439416170556 33.68142460598957 14.807053123225213 0 0 0
335 1 17.616450314396634 33.327168065036275 11.39591634969286 0 0 0
318 1 1.6954570712981722 36.42463070735757 11.527333024659638 0 0 0
508 1 3.4521550354407133 34.98474071590771 12.879530463259332 0 0 0
326 1 8.566174356028924 36.567192682084595 11.736860072519786 0 0 0
516 1 9.99604334614998 34.98647055723591 13.305866667691317 0 0 0
520 1 11.625975481800136 36.51531296981771 14.686391971091274 0 0 0
334 1 14.656680746343827 36.255974476469866 11.102327389027547 0 0 0
524 1 16.21368515969128 34.87041290529077 12.854382356007205 0 0 0
528 1 17.793878610342514 36.15143881500222 14.391847947029001 0 0 0
751 1 5.233897503279331 46.20651172127013 23.67362031981234 0 0 0
343 1 5.254064562082498 39.42090161846872 11.3604860705099 0 0 0
537 1 6.669923062552559 37.92704705048377 13.0617441873094 0 0 0
351 1 11.314169115329728 39.77050403114565 11.506254140356603 0 0 0
541 1 7.856143156918329 39.76249093028436 14.512845326831961 0 0 0
545 1 12.862375477216634 37.98506110685738 12.748149102091862 0 0 0
549 1 14.450795082680585 39.3295026211861 14.479044774421476 0 0 0
1754 1 19.161797726465647 10.091640782529852 9.862393861884962 0 0 0
342 1 2.1161877364797617 43.00269154791506 11.080592883559016 0 0 0
532 1 3.5493616055225625 41.41954907700495 12.701450122046776 0 0 0
561 1 6.497090691240437 44.38214038236103 12.754043147697638 0 0 0
350 1 8.165344364910347 42.665092797367386 11.175394365211984 0 0 0
540 1 9.592468770597272 41.24294899065266 12.765504894550327 0 0 0
544 1 11.3043358541411 42.68797046800212 14.278826747181038 0 0 0
358 1 14.477986290267932 43.05967254935198 11.43895584354813 0 0 0
548 1 16.10599694874046 41.42184373756001 13.161580811703173 0 0 0
552 1 17.700943759318875 42.701588457299096 14.476241375582378 0 0 0
556 1 3.616771335197798 47.821735942238206 12.932431095800835 0 0 0
367 1 4.799453525326803 45.82065088806474 11.316739127103986 0 0 0
375 1 11.123921212368199 46.19706902726605 10.933674393349666 0 0 0
565 1 8.433542759943343 45.830674076160726 14.271084206141255 0 0 0
569 1 12.782567841045926 44.56220408031411 12.641528052992173 0 0 0
573 1 14.324674175263633 46.03856377596549 14.395128260691292 0 0 0
726 1 2.4184002874668713 42.97265520709398 24.035658578543057 0 0 0
366 1 1.8040775210656912 48.6172727611702 11.219713190070642 0 0 0
393 1 6.182455816653561 50.52054047963978 13.006672027345164 0 -1 0
560 1 4.872084130896294 48.96774274783837 14.701148329717483 0 0 0
374 1 7.631709850030066 49.273438883903154 11.27641386427591 0 0 0