
# Import phase coexistance setup
#
read_data           data.coexist_${TEMP}K_${PRES}atm_mW
read_data           data.coexist_278K_${PRES}atm_mW
read_data           data.coexist_278K_-500atm_mW
Reading data file ...
  orthogonal box = (0.30437031 -0.37703825 -0.37703825) to (104.35446 50.591374 50.591374)
  3 by 1 by 2 MPI processor grid
  reading atoms ...
  8521 atoms
  reading velocities ...
  8521 velocities
  read_data CPU = 0.016 seconds

# Define potential
#
pair_style 	    sw
pair_coeff	    * * /data/emrosky-sim/Freezing_Simulations/Melting/mW_fancy/mW.sw mW
Reading sw potential file /data/emrosky-sim/Freezing_Simulations/Melting/mW_fancy/mW.sw with DATE: 2019-02-27

# Reset velocity/set timestep
#
velocity	    all create ${TEMP} 120598 rot yes dist gaussian
velocity	    all create 278 120598 rot yes dist gaussian
timestep	    10.0

# Define output
#
compute	            1 all msd
compute             2 all orientorder/atom nnn NULL degrees 2 4 12
thermo              1000
thermo_style        custom step temp press vol etotal ke pe c_1[4]

# Neighbor lists
#
neigh_modify        delay 0 every 1 check yes

# Set fixes
#
fix                 1 all momentum 10 linear 1 1 1 rescale
fix                 2 all nph iso ${PRES} ${PRES} ${PCOUPL}
fix                 2 all nph iso -500 ${PRES} ${PCOUPL}
fix                 2 all nph iso -500 -500 ${PCOUPL}
fix                 2 all nph iso -500 -500 10000.0
fix                 3 all temp/csvr ${TEMP} ${TEMP} ${TCOUPL} 837492
fix                 3 all temp/csvr 278 ${TEMP} ${TCOUPL} 837492
fix                 3 all temp/csvr 278 278 ${TCOUPL} 837492
fix                 3 all temp/csvr 278 278 5000.0 837492

# Run very short equilibration
#
dump		    1 all atom 50 eq.${NAME}.dump
dump		    1 all atom 50 eq.melt_278K_-500atm_mW.dump
run	            500
Neighbor list info ...
  update every 1 steps, delay 0 steps, check yes
  max neighbors/atom: 2000, page size: 100000
  master list distance cutoff = 6.3065
  ghost atom cutoff = 6.3065
  binsize = 3.15325, bins = 33 17 17
  2 neighbor lists, perpetual/occasional/extra = 1 1 0
  (1) pair sw, perpetual
      attributes: full, newton on
      pair build: full/bin/atomonly
      stencil: full/bin/3d
      bin: standard
  (2) compute orientorder/atom, occasional, copy from (1)
      attributes: full, newton on
      pair build: copy
      stencil: none
      bin: none
Per MPI rank memory allocation (min/avg/max) = 4.600 | 4.601 | 4.603 Mbytes
Step Temp Press Volume TotEng KinEng PotEng c_1[4] 
       0          278   -782.67066    270299.15   -79431.969    7060.2275   -86492.196            0 
     500    325.18019   -543.48024    263055.21   -81221.103    8258.4393   -89479.542    17.797402 
Loop time of 1.77333 on 6 procs for 500 steps with 8521 atoms

Performance: 243.609 ns/day, 0.099 hours/ns, 281.955 timesteps/s
99.7% CPU use with 6 MPI tasks x no OpenMP threads

MPI task timing breakdown:
Section |  min time  |  avg time  |  max time  |%varavg| %total
---------------------------------------------------------------
Pair    | 0.93067    | 1.2104     | 1.5001     |  20.1 | 68.25
Neigh   | 0.10743    | 0.14254    | 0.16728    |   6.3 |  8.04
Comm    | 0.067371   | 0.38184    | 0.69663    |  39.4 | 21.53
Output  | 0.0085438  | 0.0090853  | 0.0096001  |   0.4 |  0.51
Modify  | 0.023328   | 0.024103   | 0.025086   |   0.4 |  1.36
Other   |            | 0.005408   |            |       |  0.30

Nlocal:        1420.17 ave        1429 max        1407 min
Histogram: 1 1 0 0 0 0 1 0 1 2
Nghost:        2229.33 ave        2250 max        2200 min
Histogram: 1 1 0 0 0 0 0 1 2 1
Neighs:        0.00000 ave           0 max           0 min
Histogram: 6 0 0 0 0 0 0 0 0 0
FullNghs:      45631.3 ave       46087 max       44872 min
Histogram: 1 0 0 0 1 0 1 1 0 2

Total # of neighbors = 273788
Ave neighs/atom = 32.130971
Neighbor list builds = 83
Dangerous builds = 0

reset_timestep      0
undump              1
unfix               2
unfix               3


################################################
#######         Run Simulation         #########
################################################

log                 log.run_${NAME}
log                 log.run_melt_278K_-500atm_mW
