
# Create simulation box of size 50 x 50 x 50 Angstrom
#
lattice	            sc 1
Lattice spacing in x,y,z = 1.0000000 1.0000000 1.0000000
region 	            all block 0 ${X} ${YZ_LO} ${YZ_HI} ${YZ_LO} ${YZ_HI} units box
region 	            all block 0 53.4 ${YZ_LO} ${YZ_HI} ${YZ_LO} ${YZ_HI} units box
region 	            all block 0 53.4 0.37122448919505047.0 ${YZ_HI} ${YZ_LO} ${YZ_HI} units box
region 	            all block 0 53.4 0.37122448919505047.0 50.53589551080665.0 ${YZ_LO} ${YZ_HI} units box
region 	            all block 0 53.4 0.37122448919505047.0 50.53589551080665.0 0.37122448919505047.0 ${YZ_HI} units box
region 	            all block 0 53.4 0.37122448919505047.0 50.53589551080665.0 0.37122448919505047.0 50.53589551080665.0 units box
create_box          1 all
Created orthogonal box = (0.0000000 0.37122449 0.37122449) to (53.400000 50.535896 50.535896)
  3 by 1 by 2 MPI processor grid

# fill box with 4175 randomly distributed atoms
#
create_atoms        1 random 4608 63782 all
Created 4608 atoms
  create_atoms CPU = 0.000 seconds
mass                1 18.015

# Define potential
#
pair_style          sw
pair_coeff          * * /data/emrosky-sim/Freezing_Simulations/Melting/mW_fancy/mW.sw mW
Reading sw potential file /data/emrosky-sim/Freezing_Simulations/Melting/mW_fancy/mW.sw with DATE: 2019-02-27

# Run minimization
#
minimize            1.0e-8 1.0e-8 10000 1000
WARNING: Using 'neigh_modify every 1 delay 0 check yes' setting during minimization (../min.cpp:187)
Neighbor list info ...
  update every 1 steps, delay 0 steps, check yes
  max neighbors/atom: 2000, page size: 100000
  master list distance cutoff = 6.3065
  ghost atom cutoff = 6.3065
  binsize = 3.15325, bins = 17 16 16
  1 neighbor lists, perpetual/occasional/extra = 1 0 0
  (1) pair sw, perpetual
      attributes: full, newton on
      pair build: full/bin/atomonly
      stencil: full/bin/3d
      bin: standard
Per MPI rank memory allocation (min/avg/max) = 4.236 | 4.254 | 4.260 Mbytes
Step Temp E_pair E_mol TotEng Press 
       0            0      4750899            0      4750899    3378087.4 
     675            0   -52170.327            0   -52170.327    386.92561 
Loop time of 2.17302 on 6 procs for 675 steps with 4608 atoms

100.0% CPU use with 6 MPI tasks x no OpenMP threads

Minimization stats:
  Stopping criterion = max force evaluations
  Energy initial, next-to-last, final = 
      4750899.00744459  -52169.8511605731  -52170.3267774724
  Force two-norm initial, final = 1.0875476e+08 5.2891467
  Force max component initial, final = 57447196.0 1.9508663
  Final line search alpha, max atom move = 0.037538489 0.073232572
  Iterations, force evaluations = 675 1000

MPI task timing breakdown:
Section |  min time  |  avg time  |  max time  |%varavg| %total
---------------------------------------------------------------
Pair    | 1.8175     | 1.92       | 2.0542     |   5.8 | 88.35
Neigh   | 0.044934   | 0.046055   | 0.048213   |   0.5 |  2.12
Comm    | 0.049939   | 0.18464    | 0.28687    |  19.0 |  8.50
Output  | 0          | 0          | 0          |   0.0 |  0.00
Modify  | 0          | 0          | 0          |   0.0 |  0.00
Other   |            | 0.02236    |            |       |  1.03

Nlocal:        768.000 ave         787 max         748 min
Histogram: 1 0 2 0 0 0 0 1 1 1
Nghost:        1699.00 ave        1721 max        1675 min
Histogram: 1 0 1 1 0 0 1 0 0 2
Neighs:        0.00000 ave           0 max           0 min
Histogram: 6 0 0 0 0 0 0 0 0 0
FullNghs:      25947.3 ave       26852 max       25026 min
Histogram: 1 0 1 1 0 1 0 0 1 1

Total # of neighbors = 155684
Ave neighs/atom = 33.785590
Neighbor list builds = 39
Dangerous builds = 0

# Add velocity/set timestep
#
velocity            all create ${TEMP} 120598 rot yes dist gaussian
velocity            all create 278 120598 rot yes dist gaussian
timestep            5.0

# Define output
#
compute	            1 all msd
thermo	            100
thermo_style        custom step temp press vol etotal ke pe c_1[4] density

# Neighbor lists
#
neigh_modify        delay 0 every 1 check yes

# Set fixes
#
fix                 1 all momentum 10 linear 1 1 1 rescale
fix                 2 all nve
fix                 3 all temp/csvr ${TEMP} ${TEMP} 500.0 928347
fix                 3 all temp/csvr 278 ${TEMP} 500.0 928347
fix                 3 all temp/csvr 278 278 500.0 928347
fix                 4 all press/berendsen iso ${PRES} ${PRES} 1000.0 modulus 20000
fix                 4 all press/berendsen iso -500 ${PRES} 1000.0 modulus 20000
fix                 4 all press/berendsen iso -500 -500 1000.0 modulus 20000

# Run 0.5 ns equilibration
#
dump                1 all custom 1000 eq.${NAME}.dump id type x y z vx vy vz
dump                1 all custom 1000 eq.liq_278K_-500atm_mW.dump id type x y z vx vy vz
run                 100000
Per MPI rank memory allocation (min/avg/max) = 3.504 | 3.507 | 3.510 Mbytes
Step Temp Press Volume TotEng KinEng PotEng c_1[4] Density 
     675          278    1685.5781    134380.79   -48352.666    3817.6605   -52170.327            0    1.0257903 
     700    121.17123    936.98377    136263.34   -47937.565     1663.995    -49601.56   0.16918024    1.0116185 
     800    193.77496   -293.87137    138119.11    -46516.68    2661.0325   -49177.712   0.59159507   0.99802641 
     900    216.96977   -315.50138    138914.32   -45583.037    2979.5573   -48562.595     1.082396   0.99231324 
    1000    235.38559   -530.73994    139261.81   -44942.921    3232.4542   -48175.375    1.6668721   0.98983718 
    1100    250.22832   -312.11544    139426.73   -44491.017    3436.2834   -47927.301    2.3301715   0.98866634 
    1200    263.04414    -442.7626    139660.88   -44119.756    3612.2779   -47732.034    3.0897664   0.98700877 
    1300    264.48025   -543.43257    139624.05    -43826.37    3631.9993   -47458.369    3.9456775   0.98726916 
    1400    265.12482   -318.04715    139635.52   -43686.188     3640.851   -47327.039    4.9900178   0.98718805 
    1500    269.88008   -687.31928    139644.18   -43485.347     3706.153     -47191.5    6.0897111    0.9871268 
    1600    271.09765   -511.08242    139584.08   -43424.349    3722.8734   -47147.222    7.4123928   0.98755184 
    1700    274.15467    -478.6267    139482.54   -43388.641    3764.8542   -47153.495    8.6187909   0.98827078 
    1800     277.9446   -491.17878    139561.23   -43239.488    3816.8998   -47056.388     9.995586   0.98771351 
    1900    270.69553    -478.5356    139416.76   -43147.684    3717.3512   -46865.035    11.187353   0.98873708 
    2000    281.84819   -474.61471    139551.29   -43084.614    3870.5062   -46955.121    12.683741   0.98778386 
    2100    276.15075   -641.35608    139167.78   -43141.449    3792.2655   -46933.714    14.069801   0.99050596 
    2200    277.23534    -554.5652    139191.89   -43148.158    3807.1598   -46955.318    15.354549   0.99033437 
    2300    278.66135   -287.71735    139378.29    -43087.48    3826.7426   -46914.222    16.587589   0.98900993 
    2400    279.32728   -424.13785    139400.01   -43121.675    3835.8876   -46957.563    17.886848   0.98885586 
    2500    274.23837   -318.65645    139448.32   -43081.692    3766.0037   -46847.696     19.09638   0.98851326 
    2600    279.01183   -329.98516    139938.83   -42941.189    3831.5555   -46772.745    20.317043   0.98504834 
    2700    283.96213   -590.88577    140075.45   -42934.816    3899.5361   -46834.352    21.811743   0.98408762 
    2800    276.65223    -563.7174    139685.08   -43062.754    3799.1522   -46861.906    23.219007   0.98683776 
    2900    276.46361   -386.28579    139591.68   -42994.633    3796.5619   -46791.195    24.670543   0.98749807 
    3000    278.76301   -558.89401    139583.57   -42957.778    3828.1387   -46785.917    26.058271   0.98755549 
    3100    279.63537   -352.22712    139491.07    -42976.57    3840.1184   -46816.689    27.535564   0.98821037 
    3200    280.04266   -539.84342    139507.93   -42964.848    3845.7115   -46810.559    28.767563   0.98809087 
    3300    277.78399   -536.29531    139506.68   -42982.918    3814.6942   -46797.612    30.489265   0.98809976 
    3400     285.8893   -397.09507    139443.38   -42970.232    3926.0011   -46896.233    31.838646   0.98854834 
    3500    282.07529   -615.27732    139342.48   -42940.804    3873.6249   -46814.428    33.323125   0.98926416 
    3600    281.79579   -476.41105    139160.83   -42955.626    3869.7866   -46825.413    34.870496   0.99055543 
    3700    282.23435   -439.38457    139129.33   -42949.499    3875.8092   -46825.308      36.4952   0.99077971 
    3800    279.47184   -538.86573    139066.38   -42969.291    3837.8727   -46807.164    38.346264   0.99122819 
    3900     276.2979   -440.10506    138859.43   -43092.324    3794.2863    -46886.61    39.920252   0.99270548 
    4000    278.26382   -516.67686    138867.66   -43085.488    3821.2834   -46906.771     41.79233   0.99264667 
    4100    274.01048   -335.72166    138841.59   -43026.194    3762.8741   -46789.068    43.533806   0.99283304 
    4200    279.90052   -501.41851    138628.27   -43004.779    3843.7596   -46848.539    44.984547   0.99436082 
    4300    284.21944   -495.91659    138569.68     -42948.3    3903.0696   -46851.369    46.457184    0.9947812 
    4400    283.50352   -462.72206    138911.44   -42938.003    3893.2381   -46831.241    47.958679   0.99233377 
    4500    278.77501   -746.29491    139010.76   -42940.836    3828.3034   -46769.139    49.267462   0.99162481 
    4600    278.55355   -401.11488    138775.97   -43002.636    3825.2623   -46827.898    51.033738   0.99330252 
    4700    276.01828     -297.747    138962.02   -43057.525    3790.4464   -46847.971    52.604932   0.99197262 
    4800    282.54822   -740.96801    138841.68   -43033.135    3880.1194   -46913.254    53.802308   0.99283239 
    4900    276.96296   -550.11755    138786.95   -43017.841    3803.4193   -46821.261    55.162467   0.99322391 
    5000    281.46479   -540.41601    139042.76   -43118.871    3865.2411   -46984.112    56.641693   0.99139658 
    5100    270.31177   -391.57096     139033.6   -43077.448    3712.0812   -46789.529    58.145583   0.99146189 
    5200    279.40161   -666.97019    139050.69   -43122.579    3836.9083   -46959.487    59.544868   0.99134007 
    5300    275.34907   -514.29942    139109.37   -43120.476    3781.2564   -46901.732    61.367116   0.99092187 
    5400    277.16679    -447.3074    139376.91    -42994.12    3806.2184   -46800.339    63.166995   0.98901977 
    5500    279.96571     -572.228    139319.51   -42949.867    3844.6549   -46794.522    64.637728   0.98942722 
    5600    281.03443   -295.79325    139242.66   -42881.955    3859.3311   -46741.286     66.28489   0.98997333 
    5700    284.26081   -645.31073    139287.16   -42928.257    3903.6376   -46831.895    67.525672   0.98965702 
    5800    285.61327   -584.97372    139394.86   -42884.481    3922.2105   -46806.691    69.016651   0.98889237 
    5900      280.446   -514.95007    139477.57   -43056.327    3851.2504   -46907.578    70.089829   0.98830598 
    6000    273.26426   -684.69329    139574.51   -43104.001    3752.6266   -46856.627    71.569612   0.98761958 
    6100    272.82722   -620.71255    139255.79   -43087.866    3746.6248   -46834.491    72.685539   0.98987994 
    6200    277.01841   -668.47152    139213.08   -43097.214    3804.1808   -46901.395    74.464807   0.99018365 
    6300    277.19265   -643.78394    138924.84   -43095.158    3806.5736   -46901.732    75.405775   0.99223806 
    6400     272.8223   -632.77622    139093.35   -43103.724    3746.5573   -46850.281    76.954358     0.991036 
    6500    274.11723   -671.05873    138700.02   -43061.088      3764.34   -46825.428    78.305567   0.99384639 
    6600     273.3017   -374.61488    138705.56   -43087.255    3753.1408   -46840.396      79.8559   0.99380669 
    6700    272.97479   -369.96447    138990.57   -43055.502    3748.6514   -46804.154    81.450912   0.99176887 
    6800    278.26841   -379.54483    138882.04   -43136.575    3821.3466   -46957.921    82.740135   0.99254389 
    6900      281.077   -479.02623     139215.5     -43105.8    3859.9157   -46965.715    84.149774   0.99016643 
    7000    278.50063   -669.50251     139214.6   -42998.241    3824.5354   -46822.777    85.387543   0.99017281 
    7100    271.81549   -476.46261    138952.46   -43120.256    3732.7312   -46852.987    86.772523   0.99204088 
    7200    274.24732   -398.75258    138662.51   -43148.494    3766.1266   -46914.621    87.793665   0.99411525 
    7300    276.18486    -535.6771    138768.58   -43126.874     3792.734   -46919.607    89.056018    0.9933554 
    7400    273.44894   -649.42884    138755.72   -43181.904    3755.1627   -46937.067    90.158611   0.99344747 
    7500     275.0868   -343.88533    138875.64   -43084.544    3777.6548   -46862.199    91.571252   0.99258962 
    7600    276.88039   -542.86543    138919.77    -43055.88    3802.2855   -46858.166    93.589258   0.99227427 
    7700    275.41536    -571.2041     138838.4    -43029.99    3782.1668   -46812.157    95.005396   0.99285587 
    7800    277.35159   -418.37743    138832.15   -43030.712    3808.7562   -46839.468    96.461936   0.99290054 
    7900     272.5054   -502.46277    138631.99   -43174.696    3742.2055   -46916.901    98.064534   0.99433408 
    8000    271.43192   -338.45911    138883.59   -43150.878    3727.4638   -46878.342    99.649284   0.99253277 
    8100    279.18616    -447.4393    138975.34   -42998.919    3833.9496   -46832.869    101.69851   0.99187752 
    8200    274.81048    -434.8125    139155.83    -43040.86    3773.8602    -46814.72    103.08972   0.99059106 
    8300    278.23139   -664.22342     139193.7    -43008.49    3820.8382   -46829.328     104.4324    0.9903215 
    8400    276.32158   -715.56842    138985.96   -43056.065    3794.6115   -46850.677     105.6076   0.99180174 
    8500    276.86809   -309.72064    138881.21   -43090.732    3802.1164   -46892.849    107.25832    0.9925498 
    8600    278.22965   -343.04511     138952.4   -43048.943    3820.8143   -46869.757    108.82998   0.99204126 
    8700     271.7866   -405.20325    139153.94   -42998.272    3732.3345   -46730.606     110.6556   0.99060445 
    8800    279.17744   -602.83288    139404.13   -42961.436    3833.8299   -46795.266    112.64412   0.98882666 
    8900    280.12893   -677.62407    139322.24   -42998.967    3846.8963   -46845.864    114.40133   0.98940784 
    9000    283.74795   -503.04975    139201.38   -42913.042    3896.5948   -46809.637    116.01012   0.99026689 
    9100    273.77701   -464.57941    139462.57   -42952.894    3759.6679   -46712.562    117.71754   0.98841225 
    9200    278.24234   -420.04715    139431.82   -42981.488    3820.9885   -46802.477    118.84307   0.98863029 
    9300    272.64749   -471.19812    139399.35   -42992.587    3744.1567   -46736.743    119.91182   0.98886054 
    9400    276.87559   -635.36168    139296.32   -43023.449    3802.2195   -46825.669    121.48248   0.98959195 
    9500    276.40961   -438.63886    139117.48   -43106.623    3795.8204   -46902.443    122.64624   0.99086407 
    9600    277.94875   -806.28348     138903.5   -43112.236    3816.9568   -46929.193    123.71166   0.99239054 
    9700      273.707   -486.48644    138759.77   -43045.439    3758.7066   -46804.146    124.85761   0.99341843 
    9800    274.79311   -634.38075    138757.57   -43038.926    3773.6216   -46812.548    126.22263   0.99343422 
    9900    279.39952   -557.22122    138943.97   -42934.125    3836.8795   -46771.004    127.59599   0.99210148 
   10000    275.24218   -661.13969    138588.15   -43118.605    3779.7886   -46898.393    128.30926   0.99464866 
   10100    279.27389   -394.97123    138687.17   -43056.442    3835.1543   -46891.596    129.26953   0.99393847 
   10200    278.19636   -542.04544    138842.82   -43112.804    3820.3571   -46933.161    130.29265   0.99282423 
   10300    278.52143   -574.04944       139041   -43055.689    3824.8212    -46880.51    131.87841   0.99140912 
   10400    285.80006   -542.18271    139118.99    -42983.41    3924.7756   -46908.185    133.56663   0.99085338 
   10500    280.76405   -571.96588    139432.21   -43019.263    3855.6182   -46874.881    135.47772   0.98862747 
   10600    282.10049    -508.3588    139303.63   -42975.923    3873.9709   -46849.894    137.21722   0.98954002 
   10700    280.94959   -507.42191     139242.3    -43009.81    3858.1661   -46867.976    138.54185   0.98997586 
   10800     282.4209   -720.84504    139068.95   -42991.623     3878.371   -46869.994     140.1248   0.99120987 
   10900    285.58568    -380.9414    138953.45   -42900.848    3921.8316   -46822.679    141.68258   0.99203377 
   11000    280.11554   -540.70883    139050.39   -42936.635    3846.7124   -46783.347    143.25464   0.99134215 
   11100    278.20775   -362.70838    139094.61   -42996.633    3820.5135   -46817.146    144.83694   0.99102704 
   11200    279.66711   -451.04016    139055.47    -42984.76    3840.5543   -46825.315    145.99334   0.99130597 
   11300    273.88375   -509.25329    139308.14   -43028.682    3761.1338   -46789.816    147.48452   0.98950801 
   11400    276.77397    -315.0906    139324.44   -43027.106     3800.824    -46827.93    149.56339   0.98939219 
   11500    271.51846   -484.91696    139320.19   -43143.818    3728.6522    -46872.47    151.32129   0.98942239 
   11600    273.15214   -420.99752       139300    -43148.12    3751.0869   -46899.207    152.72583   0.98956582 
   11700    280.46538    -760.8489    139273.52   -43048.681    3851.5166   -46900.198    154.19902   0.98975394 
   11800    278.22118   -395.23799    139325.02   -43050.225    3820.6979   -46870.923     155.8146    0.9893881 
   11900    276.31628   -449.10044    139313.51    -43143.53    3794.5387   -46938.069     157.1574   0.98946987 
   12000    275.53854   -485.30947    139452.95    -43121.05    3783.8583   -46904.908      158.361   0.98848043 
   12100     274.7406   -622.47513    139202.01   -43135.325    3772.9006   -46908.226    159.58694   0.99026241 
   12200    279.28914   -532.97798    139035.03   -42982.091    3835.3638   -46817.455    160.87182   0.99145168 
   12300    282.24036   -525.10057    139098.86   -42921.926    3875.8917   -46797.818    162.55917   0.99099674 
   12400    280.27385   -303.47134    139096.97   -42910.507    3848.8863   -46759.393    164.75999   0.99101023 
   12500    281.57772   -551.89008    138989.95   -42930.606    3866.7919   -46797.398    166.40862   0.99177324 
   12600     278.8587   -579.47814    139124.97   -42978.385    3829.4528   -46807.838    167.46855   0.99081073 
   12700    277.42971   -624.37949    139018.67   -42938.871     3809.829     -46748.7    169.22568   0.99156839 
   12800    273.66969   -625.61866    138855.62   -43019.756    3758.1941    -46777.95    171.07323   0.99273268 
   12900     278.8605    -707.9462    138806.39   -43009.894    3829.4774   -46839.371    172.45901   0.99308478 
   13000    277.57997   -420.87499    139151.45   -43072.594    3811.8924   -46884.486    173.54964   0.99062223 
   13100    278.68699   -423.15426    139137.41   -43048.312    3827.0947   -46875.407    175.26148   0.99072215 
   13200    279.00356   -554.26998    139085.38   -43010.547    3831.4421   -46841.989     176.7691   0.99109282 
   13300    281.73626   -478.90723    139237.15   -42985.234     3868.969   -46854.203    178.98794   0.99001249 
   13400    277.20159   -514.19621    139198.34   -43048.793    3806.6963   -46855.489    179.75231   0.99028853 
   13500    279.53715   -559.59544    138998.27    -43058.92    3838.7697    -46897.69    180.79099    0.9917139 
   13600    279.49455   -319.87853    138991.28   -43070.645    3838.1846    -46908.83    182.48199   0.99176376 
   13700    277.38679   -504.71095    139117.26   -43101.355    3809.2396   -46910.595     183.7381   0.99086567 
   13800      271.226   -673.60925    138950.04   -43139.605    3724.6359   -46864.241    185.22313   0.99205816 
   13900    272.69786   -663.63899    138949.38    -43133.71    3744.8484   -46878.558    186.36806   0.99206282 
   14000    271.54649   -483.47226    138809.55    -43201.51    3729.0371   -46930.547    187.30199   0.99306222 
   14100    278.35075   -425.01435    138839.76   -43162.164    3822.4773   -46984.642    188.28955   0.99284615 
   14200    271.96252   -487.72696    139121.59   -43110.514    3734.7503   -46845.265    189.44073    0.9908348 
   14300    277.03563   -561.08409    138871.36    -43107.47    3804.4173   -46911.888    190.45073   0.99262019 
   14400    272.94856   -394.25527     139029.4   -43091.204    3748.2912   -46839.495    192.01381   0.99149186 
   14500    277.07646   -361.42098    139119.48    -43099.11     3804.978   -46904.088    193.62888   0.99084983 
   14600     284.3297    -444.5143     138993.7   -43030.918    3904.5837   -46935.501    194.70191   0.99174648 
   14700    280.01716   -225.33818    139112.58   -43014.233    3845.3614   -46859.595    196.97358     0.990899 
   14800    277.53602   -505.00012    139150.09   -43048.932    3811.2889   -46860.221    199.02315   0.99063186 
   14900    279.80631   -576.98564    139504.25   -43050.749    3842.4659   -46893.215    201.09384   0.98811695 
   15000    278.51589   -606.93871    139221.74   -43088.095    3824.7451    -46912.84    202.69632   0.99012204 
   15100    277.46653   -486.36851    139054.98   -43080.711    3810.3346   -46891.045    204.33776   0.99130949 
   15200    278.06294   -543.53974    138927.04   -43124.558    3818.5249   -46943.083    205.11635    0.9922224 
   15300    278.07587   -509.05657    138986.07   -43048.693    3818.7024   -46867.396    206.51469   0.99180096 
   15400     282.9533   -457.29643    139146.67   -42983.859    3885.6822   -46869.541    207.74044   0.99065622 
   15500    279.01785   -492.84766    139426.33   -43025.679    3831.6383   -46857.317    209.63303   0.98866917 
   15600    275.59038   -581.00912    139473.14   -43059.702    3784.5703   -46844.272    211.32601   0.98833737 
   15700    278.61708   -349.33189    139351.24   -43059.319    3826.1347   -46885.454     212.5204   0.98920196 
   15800    284.73027   -510.53534    139032.12   -43069.817    3910.0846   -46979.901    213.31747   0.99147244 
   15900    275.63047   -444.31335    139190.15   -43033.418    3785.1208   -46818.539    215.66637   0.99034675 
   16000    273.49479    -476.5192    139036.31    -43114.26    3755.7923   -46870.052    216.63906   0.99144256 
   16100    278.45648   -614.62413    138939.33   -43084.845    3823.9292   -46908.774    218.24308   0.99213461 
   16200    277.62628    -379.3824    139043.01   -42963.909    3812.5285   -46776.438    219.62159   0.99139479 
   16300    280.54362   -275.78399    139027.86   -42940.183     3852.591   -46792.774    221.21514    0.9915028 
   16400    281.29257   -556.74459    139109.27   -42896.126     3862.876   -46759.002    222.74947   0.99092256 
   16500     275.9458   -573.62457    139180.69   -42867.815     3789.451   -46657.266    224.47572   0.99041408 
   16600    281.35678   -512.04219    139157.78   -42910.933    3863.7579   -46774.691    226.10387   0.99057714 
   16700    276.95805   -673.49868    138898.79   -42951.915    3803.3519   -46755.267    226.59763   0.99242419 
   16800    280.23183   -754.10705     138763.9   -42957.409    3848.3093   -46805.718    228.18508   0.99338893 
   16900    285.37106   -460.20976    138752.73   -42939.102    3918.8842   -46857.987    230.05524   0.99346883 
   17000    281.32798   -612.27308    138970.03   -42998.888    3863.3624    -46862.25    232.62617   0.99191539 
   17100    279.66896   -226.37845    139138.18   -43006.167    3840.5798   -46846.747    234.11455    0.9907167 
   17200    280.53753   -578.21058    139288.29   -42950.682    3852.5074   -46803.189    236.03157   0.98964903 
   17300    282.48194   -330.37271    139367.24   -42906.288    3879.2092   -46785.497     237.7306   0.98908839 
   17400      275.341   -448.01954    139301.37   -43008.355    3781.1455   -46789.501     238.8647   0.98955609 
   17500    279.05883   -479.58232    139185.34   -43012.441    3832.2011   -46844.642    240.14915   0.99038103 
   17600    276.91886   -750.62814    139261.63   -43092.944    3802.8137   -46895.758    242.14229   0.98983846 
   17700     273.9651   -603.98885    138905.89    -43081.33    3762.2509   -46843.581    243.11447   0.99237345 
   17800    277.39903   -491.98463    138940.44   -43055.249    3809.4077   -46864.656    244.58357   0.99212665 
   17900    274.59833   -556.19401    138936.94   -43109.244    3770.9468   -46880.191    245.91595   0.99215164 
   18000    277.47398   -388.82742    139044.41   -43157.421    3810.4369   -46967.858    247.56487   0.99138482 
   18100    274.78658   -384.34882    138930.19   -43159.863    3773.5319   -46933.395    249.21511   0.99219985 
   18200    283.52904   -594.14243    139351.79   -43050.978    3893.5886   -46944.566    251.36936   0.98919805 
   18300    278.45294   -549.24914    139056.24   -43128.354    3823.8806   -46952.235    252.19923   0.99130045 
   18400    273.09874   -466.56393    139057.48   -43192.314    3750.3536   -46942.667    253.96266   0.99129163 
   18500    278.76228   -449.45713    139203.21   -43070.362    3828.1286    -46898.49    255.19871   0.99025389 
   18600    276.10085   -355.05953    139261.12   -43074.868    3791.5802   -46866.448     256.1893   0.98984211 
   18700     280.3039   -330.98726    139533.14    -42965.45    3849.2991   -46814.749    258.17324   0.98791237 
   18800    279.28287   -616.55741     139329.9   -42967.571    3835.2777   -46802.848    258.71805   0.98935347 
   18900    279.84048   -518.04935    139262.94    -43016.66    3842.9351   -46859.595    260.69357   0.98982912 
   19000    278.72556    -613.1267    138887.36   -43031.262    3827.6243   -46858.887    262.18151   0.99250586 
   19100    276.82555   -466.65677    138789.79   -43115.712    3801.5323   -46917.245      263.144   0.99320358 
   19200    275.54292   -534.63901    138850.09   -43047.509    3783.9185   -46831.428    264.30505   0.99277229 
   19300    279.35084   -535.11015    138761.37    -43041.12     3836.211   -46877.331    265.63893     0.993407 
   19400    276.02961   -375.17175    138683.21   -43070.397     3790.602   -46860.999    266.82707   0.99396684 
   19500    277.30859   -330.96879    138671.61   -43007.519    3808.1656   -46815.685    268.05582      0.99405 
   19600    280.67673    -260.0892    138731.57    -43024.93    3854.4189   -46879.349    269.21281   0.99362041 
   19700    275.04497    -250.9881    138949.97   -43022.854    3777.0803   -46799.934    270.95369   0.99205862 
   19800    279.58779    -635.0274    139266.54   -42975.801    3839.4651   -46815.266    272.50383   0.98980355 
   19900    281.54992   -649.82092    139439.32    -42990.29    3866.4101     -46856.7     274.2983   0.98857711 
   20000    279.03786   -580.95547    139130.14    -42963.04     3831.913   -46794.953    275.50335   0.99077391 
   20100     275.5317    -438.2745    138935.35   -42999.825    3783.7643   -46783.589     276.6304   0.99216305 
   20200    279.79768   -429.93802    139157.52   -42936.089    3842.3474   -46778.436    278.77932   0.99057897 
   20300    281.13497   -533.23907     139069.4   -42905.982    3860.7119   -46766.694    280.48872   0.99120669 
   20400    276.39885   -348.12683    139119.53   -42971.077    3795.6726    -46766.75     281.7488   0.99084949 
   20500    282.97469   -681.30183    139278.99   -42884.558     3885.976   -46770.534    282.69251   0.98971509 
   20600    280.92642   -609.97072    139139.17   -42952.375    3857.8478   -46810.222    283.20398   0.99070963 
   20700    279.18939   -550.45928    139089.93   -43009.172     3833.994   -46843.166    283.83407   0.99106034 
   20800    275.52581   -308.03361    138960.29    -43040.95    3783.6836   -46824.634    285.17631   0.99198494 
   20900    278.30737    -482.6354     139039.5   -43039.093    3821.8816   -46860.975    287.33558   0.99141983 
   21000    281.84477   -607.83394    139010.94   -42997.244    3870.4593   -46867.703    289.09072   0.99162349 
   21100    279.47419   -633.16101    139110.36   -43043.795     3837.905     -46881.7     290.4136   0.99091482 
   21200    273.72881   -516.00619    139241.81   -43142.963     3759.006   -46901.969    292.17599   0.98997935 
   21300    274.19657   -524.22395    139198.64   -43172.139    3765.4297   -46937.568     293.8387    0.9902864 
   21400    277.77201   -574.00044    139468.86    -43050.83    3814.5297   -46865.359    296.10366    0.9883677 
   21500    280.52993   -524.32031    139454.92   -42948.997    3852.4031     -46801.4    297.70618   0.98846649 
   21600    277.80928    -562.0674    139188.56   -43004.976    3815.0414   -46820.017    298.67954   0.99035808 
   21700    279.06167   -545.98028     138875.2   -43000.931    3832.2401   -46833.171    300.25718   0.99259274 
   21800    279.85285   -521.12207    139062.88   -42942.036     3843.105   -46785.141    302.01448   0.99125311 
   21900    282.09156   -596.88095    138949.03   -42942.435    3873.8483   -46816.284    303.74777   0.99206534 
   22000    280.72477   -516.59545    138830.78    -42955.03    3855.0787   -46810.109     305.4816   0.99291033 
   22100    282.25943   -510.46835    139128.48   -42910.156    3876.1536    -46786.31    307.31746   0.99078574 
   22200    283.71896   -511.39801     138942.1   -42887.002    3896.1967   -46783.199    308.22371    0.9921148 
   22300    278.62017   -494.91179     139060.8   -42926.391    3826.1771   -46752.568    310.60501   0.99126797 
   22400    270.91479   -512.54519    138773.04   -43055.799    3720.3622   -46776.161     311.7033   0.99332348 
   22500    278.26373   -522.52095    138888.38    -43018.78    3821.2823   -46840.063    312.88843   0.99249858 
   22600    276.29484   -266.36753    139105.92   -42992.153    3794.2443   -46786.398    313.90825   0.99094647 
   22700    276.28157   -579.55413    139343.65   -43009.092     3794.062   -46803.154    315.68187   0.98925583 
   22800    273.44256   -613.82704    139248.38   -43103.096    3755.0751   -46858.171    316.70592   0.98993261 
   22900    276.94867   -512.67302    139062.05   -43163.169    3803.2231   -46966.392    317.61409   0.99125906 
   23000    277.92879    -548.1174    139118.42   -43037.957    3816.6827    -46854.64    319.03403   0.99085741 
   23100    280.07108   -711.61354    139087.78   -43019.945    3846.1018   -46866.047    320.38278   0.99107571 
   23200    281.29388    -459.8425    139026.45   -43063.868     3862.894   -46926.762    321.36512    0.9915129 
   23300    275.23109   -575.12863     139180.2   -43077.278    3779.6362   -46856.914    322.93874   0.99041757 
   23400    282.75487   -651.24949    138981.48   -43059.564    3882.9573   -46942.521    324.11513   0.99183369 
   23500    277.71169   -459.04675    139201.98    -43032.46    3813.7013   -46846.162    326.17875   0.99026261 
   23600     274.2381   -522.02039     139394.2   -43062.202    3765.9999   -46828.202    327.93086   0.98889708 
   23700    273.53106   -616.99704    139123.83   -43097.972    3756.2904   -46854.262    328.92843   0.99081888 
   23800    268.71847   -216.88283    139206.91   -43080.852    3690.2011   -46771.053    330.35536   0.99022756 
   23900    279.57254   -531.56873    139210.91   -43014.257    3839.2555   -46853.512    331.26022   0.99019909 
   24000    280.96639   -572.62397    139108.25   -42935.386    3858.3967   -46793.783    332.68282   0.99092988 
   24100    278.55475   -404.18147     139002.5   -42977.014    3825.2788   -46802.292    334.47985   0.99168375 
   24200    282.88228   -514.72009    139198.89   -42877.717    3884.7069   -46762.424    336.58546    0.9902846 
   24300    282.04802   -348.40335    139055.29    -42940.82    3873.2504    -46814.07    337.75564   0.99130723 
   24400    283.81202    -466.2353    139411.22   -42904.382    3897.4747   -46801.857    339.65003   0.98877631 
   24500      277.219   -549.48116    139096.02    -42988.49    3806.9354   -46795.425    341.26219   0.99101696 
   24600    274.26682   -520.79427     138905.1    -42957.63    3766.3943   -46724.024    342.07186   0.99237908 
   24700    281.25753   -498.49115    138775.01   -42917.804    3862.3949   -46780.199    343.13137   0.99330939 
   24800    283.23674   -471.05669    139032.22   -42902.104    3889.5745   -46791.679    344.92332   0.99147174 
   24900    278.17755   -754.49662    139231.33   -43044.063    3820.0988   -46864.162     346.7369   0.99005389 
   25000    276.13611    -504.8482    139427.52   -43051.063    3792.0646   -46843.128    348.47488   0.98866072 
   25100    281.88242   -611.53428    139314.87   -43030.887    3870.9763   -46901.864    349.41178   0.98946017 
   25200    276.27058    -499.5147     138942.8   -43075.894    3793.9111   -46869.805    349.58797   0.99210984 
   25300    277.93551   -309.24286    138795.56   -43142.323    3816.7749   -46959.097    350.96033   0.99316231 
   25400    273.66952   -320.50163    139250.35   -43093.276    3758.1919   -46851.468    353.37733   0.98991866 
   25500    280.61517   -425.18788    139156.79   -43085.557    3853.5736   -46939.131    354.37942    0.9905842 
   25600    271.52579   -430.45343    139130.62   -43152.594    3728.7529   -46881.347    354.91547    0.9907705 
   25700    280.25411    -544.1361     139056.6    -43185.11    3848.6153   -47033.725    356.28903   0.99129794 
   25800    271.91468   -469.91394    139262.75   -43202.856    3734.0933   -46936.949    358.42284   0.98983053 
   25900    273.48323   -406.09483    139085.35   -43287.541    3755.6336   -47043.175     359.9537   0.99109297 
   26000    274.63494   -531.01742    139257.89   -43127.008    3771.4495   -46898.457    361.72625   0.98986501 
   26100    275.26843   -408.69551    139004.72   -43122.185     3780.149   -46902.334    362.84555   0.99166788 
   26200    278.48212   -447.76017    139248.32   -43008.815    3824.2813   -46833.096    365.00918   0.98993309 
   26300    280.46921   -534.76358    139437.02    -42916.63    3851.5692   -46768.199    367.58124    0.9885934 
   26400    279.44955   -411.61972    139254.04   -43024.745    3837.5666   -46862.312    369.17101   0.98989241 
   26500    280.65119   -704.18693    139151.02   -42868.978    3854.0683   -46723.046    369.81069   0.99062529 
   26600    279.41879   -534.33697    139454.37   -42932.119    3837.1442   -46769.264    371.22314   0.98847036 
   26700    281.92789   -480.02472    139378.21    -42956.85    3871.6007   -46828.451    372.58631   0.98901056 
   26800    281.70789   -592.90551    139396.65   -42916.414    3868.5794   -46784.994    375.00299   0.98887971 
   26900    280.68656   -628.33852    139028.64   -42996.504     3854.554   -46851.058    375.84723   0.99149728 
   27000    277.51885   -399.05991    138978.55   -43047.497    3811.0531    -46858.55    377.22963   0.99185465 
   27100    282.12669    -589.6431    138961.43   -42998.697    3874.3306   -46873.028      378.235   0.99197679 
   27200    280.35109   -375.17438    139064.51   -42976.714    3849.9471   -46826.661    380.00334   0.99124152 
   27300    281.92594   -517.33155    139303.63   -42940.354    3871.5739   -46811.928    382.45122      0.98954 
   27400    275.40402    -508.8065    139498.38    -42915.72     3782.011   -46697.731    384.15534   0.98815858 
   27500     281.8528   -692.15187    139148.84   -42945.809    3870.5694   -46816.379    384.34013   0.99064081 
   27600    286.57137   -398.75575    139073.66   -42910.673    3935.3677   -46846.041    385.59553   0.99117633 
   27700    283.29462    -453.6956    139211.71   -42956.267    3890.3694   -46846.636    386.99104   0.99019339 
   27800    281.34895   -619.15767    139139.33   -42943.921    3863.6503   -46807.571    388.43667   0.99070853 
   27900    281.57635   -348.06454    138866.63   -42954.876    3866.7731   -46821.649    389.64389   0.99265399 
   28000    286.52149   -424.51636    139022.11   -42870.523    3934.6827   -46805.205    391.54859   0.99154384 
   28100    283.51067   -578.59119    138775.16   -42937.967    3893.3363   -46831.303    391.90333    0.9933083 
   28200    273.99349   -772.63343    138667.92   -43074.857    3762.6408   -46837.498    392.48787   0.99407646 
   28300    274.14547   -404.62572    138617.23   -43115.605    3764.7279   -46880.333    394.47115   0.99444001 
   28400    280.77881   -542.06613    138641.14   -42956.712    3855.8208   -46812.532    395.15092   0.99426849 
   28500    276.13666   -581.28014    138901.11   -42968.571     3792.072   -46760.643    397.33478   0.99240758 
   28600    281.18762   -688.25531    138726.06   -43052.463    3861.4348   -46913.897    398.99844   0.99365985 
   28700    275.02538   -372.53928    138595.72   -43138.624    3776.8113   -46915.435    400.36941   0.99459434 
   28800    281.23218   -452.74726    139088.02   -43097.776    3862.0467   -46959.822    404.07091   0.99107398 
   28900    277.03972   -326.69798    139138.35   -43077.184    3804.4734   -46881.657    405.27792   0.99071547 
   29000    279.99121   -526.78056    139257.24   -43056.263    3845.0051   -46901.268    407.48998   0.98986968 
   29100    281.21029   -564.47076    139290.93   -43042.524    3861.7462    -46904.27    408.72304   0.98963025 
   29200    279.58757   -600.20306    139233.95   -43107.779     3839.462   -46947.241    410.19063   0.99003525 
   29300     274.7312   -569.62182     139106.4   -43115.266    3772.7714   -46888.038     411.3977   0.99094299 
   29400    270.89388   -499.18387    138802.45   -43098.061    3720.0752   -46818.137    412.92175   0.99311297 
   29500    277.03794   -411.96574    138691.28   -43082.881     3804.449    -46887.33    414.51245   0.99390903 
   29600    281.35048    -374.5336    138832.93   -43070.113    3863.6713   -46933.784    415.21933   0.99289496 
   29700    274.23556   -387.42093    138824.25   -43064.238     3765.965   -46830.203     417.3065   0.99295706 
   29800    280.67586   -404.65406    139061.97   -43009.542    3854.4071   -46863.949    419.59023   0.99125962 
   29900    281.39835    -347.1424    139154.63    -42948.45    3864.3287   -46812.778    421.55378    0.9905996 
   30000    278.07027   -327.29806    139534.07   -42978.832    3818.6255   -46797.458    423.12838    0.9879058 
   30100     280.7453    -648.4539    139404.33   -42933.532    3855.3606   -46788.893    424.27759   0.98882524 
   30200     274.5637   -673.51862    138896.08   -43022.251    3770.4712   -46792.722    424.97604   0.99244355 
   30300    281.03176   -701.12298    138800.94   -42932.777    3859.2945   -46792.072    425.47933   0.99312379 
   30400    279.50982   -612.65372    138797.43   -43042.481    3838.3943   -46880.876    426.67469   0.99314893 
   30500    271.36996   -477.36672    139006.22   -43056.025    3726.6129   -46782.638    427.64179   0.99165721 
   30600    279.93864   -523.41094    139376.56   -43040.822    3844.2831   -46885.105    429.39495   0.98902222 
   30700    274.90084   -429.50549    139337.75   -43053.164     3775.101   -46828.265    431.00882   0.98929772 
   30800    282.57757   -536.88408    139254.39    -43023.84    3880.5224   -46904.363    432.32292   0.98988989 
   30900    279.14505   -401.46022     139339.9   -43017.038    3833.3851   -46850.423    434.27357   0.98928247 
   31000    280.22555   -469.33689    139181.88    -42943.26    3848.2232   -46791.483    435.85479   0.99040561 
   31100    274.23639   -397.42355       138885    -43134.82    3765.9765   -46900.797    436.62818   0.99252272 
   31200    273.16169   -315.46746    138877.62   -43136.032    3751.2181    -46887.25    437.75701   0.99257549 
   31300    275.83576   -674.59719    138920.08    -43046.71    3787.9399    -46834.65    439.69372   0.99227207 
   31400    275.41455   -319.76801    138893.67    -43089.49    3782.1557   -46871.646    441.20711   0.99246076 
   31500    283.38516   -573.31101    138882.17   -42966.041    3891.6128   -46857.653    443.36202    0.9925429 
   31600    281.91765   -400.24674    139100.48   -43013.863      3871.46   -46885.323    445.42262   0.99098522 
   31700    274.08055   -509.16066    139407.24    -43034.94    3763.8363   -46798.776    448.26912   0.98880458 
   31800    280.74942   -430.85039    139511.55   -42986.169    3855.4173   -46841.586    449.84927   0.98806527 
   31900    278.58747   -467.86322    139288.96   -43004.937     3825.728   -46830.666    451.16074   0.98964423 
   32000    281.71231    -347.1029    139352.77   -42965.845    3868.6402   -46834.485    452.66571   0.98919109 
   32100    272.88086   -562.48405    139489.15   -43021.629    3747.3615    -46768.99     454.9223   0.98822395 
   32200    280.60721   -786.18359     139244.8    -42979.08    3853.4643   -46832.544    455.28391   0.98995807 
   32300    278.13251   -219.91705    139256.04   -42995.359    3819.4803    -46814.84    456.36995   0.98987822 
   32400    283.24479   -453.43864    139392.09   -42930.547    3889.6851   -46820.232    457.49257   0.98891203 
   32500    277.10289   -530.67265    139415.54   -43057.719    3805.3409    -46863.06    458.09544   0.98874568 
   32600    279.46459   -735.07723    138950.84   -43065.198    3837.7732   -46902.971    458.30029    0.9920524 
   32700    280.65815   -495.26537    138853.72   -43020.277    3854.1639   -46874.441    459.60717   0.99274628 
   32800    272.73217   -546.38273     138860.9   -43066.998    3745.3196   -46812.318    460.81074     0.992695 
   32900     273.8589   -610.09641    138835.51   -43138.997    3760.7925    -46899.79    461.81951   0.99287651 
   33000    275.38084   -547.55997     139120.5   -43102.425    3781.6927   -46884.117    463.66931   0.99084262 
   33100    275.45253   -584.88932    139313.42   -43113.026    3782.6772   -46895.703    464.99835   0.98947047 
   33200    274.35144   -281.24072    139248.44   -43042.003    3767.5563    -46809.56     465.9481   0.98993223 
   33300    276.04458    -506.8274    139535.48   -43013.454    3790.8076   -46804.261    468.32147    0.9878958 
   33400    276.43427   -457.13365     139154.2   -43055.396     3796.159   -46851.555    468.86222   0.99060266 
   33500    280.20774   -411.41682    139129.09   -42968.336    3847.9786   -46816.314    469.99671    0.9907814 
   33600    276.80589   -525.01181    139216.12   -42992.978    3801.2624   -46794.241    471.07172   0.99016203 
   33700    275.79887   -391.26749    139135.49   -43053.396    3787.4333   -46840.829    472.58639   0.99073585 
   33800      278.003   -406.08722    139421.26   -43035.323    3817.7018   -46853.025    474.56686   0.98870515 
   33900    273.57774   -572.85659    139201.25     -43074.7    3756.9315   -46831.632    475.13433   0.99026778 
   34000    277.14111    -359.7329    139384.67   -43054.913    3805.8658   -46860.779    476.99117    0.9889647 
   34100    276.86351   -425.32882    139260.14   -43079.131    3802.0536   -46881.185    478.33978   0.98984904 
   34200     277.2741   -384.40712    139269.43   -43062.619    3807.6921   -46870.311    480.52908   0.98978302 
   34300    283.08139   -388.13049    139281.99   -43036.567    3887.4413   -46924.008    481.64996   0.98969378 
   34400    276.40962   -422.39406    139414.66   -42934.419    3795.8205    -46730.24    483.17416   0.98875197 
   34500     281.1457   -458.27929    139469.58   -42867.494    3860.8592   -46728.353    484.82188    0.9883626 
   34600    279.47035   -286.80955    139526.49   -42887.584    3837.8523   -46725.437    485.76022   0.98795943 
   34700    279.06416   -422.49431    139465.23   -42983.503    3832.2742   -46815.777    487.50267    0.9883934 
   34800    276.05438   -476.82615    139443.84   -43069.671    3790.9421   -46860.613     488.8571   0.98854502 
   34900    277.59454   -545.82115    139464.67       -43019    3812.0925   -46831.092    490.03705   0.98839742 
   35000    281.44088   -568.71809    139294.63   -43074.607    3864.9128    -46939.52    491.10222   0.98960396 
   35100    281.93846   -507.93616    139294.68   -43054.937    3871.7458   -46926.682    492.05573    0.9896036 
   35200    287.14937   -409.32793    139455.81   -42928.585    3943.3051    -46871.89    493.61694    0.9884602 
   35300    282.51104   -558.02664    139851.28   -42978.843    3879.6088   -46858.452    495.44604   0.98566501 
   35400    278.13522   -331.40159    139788.16    -43075.33    3819.5175   -46894.847    496.33147   0.98611011 
   35500    276.47643   -617.94057    139421.91   -43064.084     3796.738   -46860.822    496.17346   0.98870056 
   35600    276.25808   -388.00889    139501.09   -43071.326    3793.7394   -46865.065    498.58814   0.98813935 
   35700    279.56257   -532.56284    139565.74   -42996.128    3839.1187   -46835.247    501.06367    0.9876816 
   35800    279.13288   -673.93994    139341.48   -43033.957    3833.2179   -46867.174    502.17031   0.98927122 
   35900    277.86299    -373.2824     139395.2   -43027.698    3815.7791   -46843.477     504.2768      0.98889 
   36000    275.20755    -421.2173    139427.49   -43060.249     3779.313   -46839.562    505.10121   0.98866099 
   36100    278.52541   -526.79446    139339.24   -43084.864    3824.8758    -46909.74    506.48753   0.98928712 
   36200    277.83706   -388.51328    139103.64   -43064.217    3815.4229    -46879.64    507.41136   0.99096265 
   36300    279.27639   -413.43005    139370.02   -43056.828    3835.1887   -46892.016    509.53435   0.98906868 
   36400    277.99262   -632.22555    139450.13   -42967.875    3817.5593   -46785.434    511.90366   0.98850045 
   36500    281.73305   -396.61133    139489.45   -42876.362    3868.9249   -46745.287    513.06177   0.98822179 
   36600    282.52957   -546.37423    139295.43   -43005.541    3879.8632   -46885.404    515.29033   0.98959829 
   36700    278.01246    -461.3462    139279.24   -42996.482    3817.8316   -46814.314     517.1702   0.98971328 
   36800    279.11397   -529.40642    139039.85   -43057.705    3832.9583   -46890.663    518.66684   0.99141731 
   36900    276.43207   -502.47004    138709.55   -43144.309    3796.1288   -46940.438    519.14806   0.99377813 
   37000    274.28356   -429.20602    138714.12    -43063.45    3766.6242   -46830.074    521.22722   0.99374539 
   37100    277.47494   -216.02377    138682.29   -43102.618    3810.4501   -46913.068    523.54062   0.99397347 
   37200    279.08828   -443.30511    138801.34    -43114.12    3832.6054   -46946.726    525.10653    0.9931209 
   37300    279.03781   -390.65779       139042   -43098.777    3831.9123    -46930.69    528.08719   0.99140197 
   37400    274.29382   -264.41906    139020.59   -43165.172    3766.7651   -46931.937    528.90135   0.99155467 
   37500     272.5229   -360.07542    139136.53   -43162.202    3742.4458   -46904.648     531.5396    0.9907284 
   37600    275.40921   -546.24606    139142.11   -43121.984    3782.0823   -46904.066    533.82313   0.99068868 
   37700    273.81016   -421.70867    138910.85   -43117.044    3760.1232   -46877.167    535.51669   0.99233799 
   37800    280.59107   -594.96915    138814.45   -43113.018    3853.2426    -46966.26     537.6886   0.99302713 
   37900     273.8368   -637.42277    138952.29   -43158.151    3760.4891    -46918.64    539.29852   0.99204207 
   38000    274.59447   -428.53882    139085.69   -43137.887    3770.8938   -46908.781     539.4864    0.9910906 
   38100    271.92293   -422.11121    139098.34   -43144.562    3734.2067   -46878.769    540.96005   0.99100047 
   38200    274.40935   -402.89033    139175.84   -43159.461    3768.3516   -46927.812      541.612   0.99044863 
   38300    270.03821   -402.33678    139181.45   -43211.712    3708.3246   -46920.037    542.86632   0.99040866 
   38400    273.78303    -631.3469    139328.96   -43245.047    3759.7507   -47004.798     544.7357   0.98936013 
   38500     273.7641   -326.34357    139296.47   -43291.457    3759.4906   -47050.948    546.40759   0.98959085 
   38600    275.12325   -427.70114    139134.29   -43188.138    3778.1553   -46966.294    548.29381   0.99074436 
   38700    276.54539   -416.14564    139017.71   -43199.223     3797.685   -46996.908    548.74775   0.99157523 
   38800    282.52351   -509.39596    139287.65   -43085.805    3879.7801   -46965.585    550.64189   0.98965356 
   38900    282.60174   -485.22953    139188.78   -43031.423    3880.8543   -46912.278    551.58433    0.9903565 
   39000     279.2569   -367.17124    139350.83    -43056.44     3834.921   -46891.361    553.54675   0.98920488 
   39100    274.63719    -556.7993    139405.56   -43025.912    3771.4804   -46797.392    555.45818   0.98881646 
   39200    278.45215   -590.58711     139472.9   -43028.232    3823.8697   -46852.102    556.88907   0.98833909 
   39300    281.83593   -435.56871    139240.48   -42995.126    3870.3377   -46865.463     557.7451    0.9899888 
   39400    282.58967   -659.60483    138783.92   -43021.125    3880.6886   -46901.813    557.85971   0.99324559 
   39500    282.30217   -404.43939    139023.63    -42973.09    3876.7404    -46849.83    561.21093   0.99153302 
   39600    277.11106   -463.47863    138936.46    -42933.95    3805.4531   -46739.403    563.60241   0.99215509 
   39700    273.70944   -561.97845    138862.38   -43023.358    3758.7401   -46782.098    564.02358   0.99268436 
   39800    276.35845   -682.98151     138682.9   -43014.086    3795.1178   -46809.204    565.80276   0.99396907 
   39900    270.75473   -460.23541     138548.3   -43167.188    3718.1641   -46885.352    566.61922   0.99493477 
   40000      273.605   -585.77892    138707.07   -43087.174    3757.3058   -46844.479    568.63571   0.99379592 
   40100    275.69046   -456.49716    138925.21   -43052.209    3785.9446   -46838.153    570.70377   0.99223545 
   40200    277.40821   -403.93994    138827.57   -43013.778    3809.5337   -46823.311     570.9594   0.99293328 
   40300      276.301   -542.37029    139031.24   -42982.601    3794.3289    -46776.93    573.01783   0.99147875 
   40400    281.10001   -670.34449    138992.92   -43005.535    3860.2317   -46865.767    574.43078   0.99175207 
   40500    277.97774   -553.93592    139000.48   -43054.104    3817.3549   -46871.459    575.97074   0.99169816 
   40600     277.8642   -495.81262    139258.19   -43024.348    3815.7956   -46840.144    577.19299   0.98986289 
   40700    277.76874   -607.18235    139409.92   -43048.549    3814.4848   -46863.034    579.01778   0.98878558 
   40800     273.7755   -468.48527    139520.79   -43045.476    3759.6472   -46805.124    580.36826   0.98799982 
   40900    272.35757   -567.23829    139736.98   -43057.694    3740.1753   -46797.869    583.41581   0.98647129 
   41000    278.36917   -713.73722    139621.69   -43084.284    3822.7301   -46907.014    585.00297   0.98728586 
   41100    279.71602   -424.58395    139269.11   -43084.245    3841.2259   -46925.471    585.57148   0.98978531 
   41200    282.98765    -530.8496    139471.97   -42944.752    3886.1538   -46830.906    586.88236   0.98834563 
   41300     280.3054    -350.1328    139709.77   -43080.022    3849.3196   -46929.342    588.88129   0.98666337 
   41400    274.99674   -560.88982    139666.87   -43085.076     3776.418   -46861.494    589.84252   0.98696649 
   41500    271.42057   -256.18416    139541.37   -43114.205    3727.3079   -46841.513    590.34129    0.9878541 
   41600    275.65203   -539.80549    139787.46   -43011.087    3785.4168   -46796.504    591.33819   0.98611501 
   41700    272.92428   -607.67106    139334.12   -43137.264    3747.9577   -46885.222     591.7489   0.98932349 
   41800    275.89455   -426.30295    139140.29   -43041.375    3788.7473   -46830.122    593.20039   0.99070167 
   41900    281.22951   -672.45199    139225.11   -42979.421    3862.0101   -46841.431    593.83286   0.99009811 
   42000    280.38244   -770.05024    138787.56    -43037.37    3850.3776   -46887.748    594.04695   0.99321955 
   42100      277.314   -370.35531    138901.68   -43061.329      3808.24   -46869.569    596.64904   0.99240353 
   42200    278.37572   -416.32023    139175.12   -42999.372    3822.8202   -46822.192    599.51783   0.99045373 
   42300    277.28946   -294.32016    139230.35    -43084.36     3807.903   -46892.263    600.76425   0.99006085 
   42400    276.59503   -602.94654    139058.96   -43089.423    3798.3666   -46887.789    600.91633   0.99128107 
   42500    273.24325   -603.32514     139023.9   -43073.925    3752.3381   -46826.263    602.70299   0.99153105 
   42600    275.02431    -415.9318    139018.04   -43096.157    3776.7966   -46872.954    604.23479   0.99157289 
   42700    272.34883    -552.4514    138895.83   -43114.865    3740.0553   -46854.921    605.64318   0.99244529 
   42800    273.82245   -392.41311    138995.18    -43174.75     3760.292   -46935.042    606.86411   0.99173592 
   42900    277.26766     -498.201    139051.79   -43126.084    3807.6036   -46933.688    607.50658   0.99133221 
   43000    276.20951   -687.84272     139101.9   -43069.533    3793.0725   -46862.606    610.21509    0.9909751 
   43100     277.2349   -643.15184    139125.55   -43053.423    3807.1538   -46860.577    611.72634   0.99080665 
   43200    280.79293    -720.8394    138789.95   -43072.188    3856.0147   -46928.203    611.77248   0.99320243 
   43300    282.63433    -314.8445    138970.28   -43066.374    3881.3018   -46947.676    612.86472   0.99191361 
   43400    280.53243   -570.72738    138980.98   -43186.792    3852.4374    -47039.23      613.685   0.99183725 
   43500    278.79663   -576.81328    139299.34   -43105.135    3828.6004   -46933.736    616.09509   0.98957049 
   43600    279.83212   -735.38467    139445.08   -43097.123    3842.8203   -46939.943    617.35582   0.98853624 
   43700     272.6827   -682.85097    139301.59   -43085.521    3744.6402   -46830.161    617.48787   0.98955451 
   43800     282.9057   -572.56766    138967.83   -42990.464    3885.0285   -46875.492    618.16264   0.99193115 
   43900    276.34956   -376.70443    138793.58   -43069.732    3794.9957   -46864.728    620.50496   0.99317647 
   44000     284.2472   -454.11914    138826.67   -43029.125    3903.4508   -46932.576    623.10704   0.99293977 
   44100    283.14739   -687.81277    138981.36   -42987.324    3888.3476   -46875.672    624.77062   0.99183454 
   44200    276.76894   -569.85811    139176.58   -43055.666    3800.7549   -46856.421    627.01508   0.99044332 
   44300    273.63197   -615.46569    138924.97   -43158.208    3757.6762   -46915.885    627.92607   0.99223713 
   44400    274.13565   -208.46534    138770.43   -43122.947     3764.593    -46887.54    627.95022   0.99334215 
   44500    274.15271    -473.3641    138787.42    -43196.24    3764.8273   -46961.067    629.55486   0.99322056 
   44600    272.04472   -400.74438    138956.94   -43195.832    3735.8792   -46931.711    631.53811   0.99200885 
   44700    276.58713   -570.32536    138984.36    -43248.78    3798.2581   -47047.039    633.67497   0.99181319 
   44800    276.15943   -412.25861    139000.55   -43162.784    3792.3848   -46955.169    634.99266   0.99169761 
   44900    276.32747   -440.99036    139101.18    -43157.24    3794.6924   -46951.932    636.58822    0.9909802 
   45000    275.30019   -407.08988    139222.44   -43163.683    3780.5852   -46944.268    638.48522   0.99011711 
   45100     276.3421   -510.61569    139290.78   -43114.001    3794.8933   -46908.894    639.30512   0.98963128 
   45200    277.98125   -513.82522     139382.2   -43165.169     3817.403   -46982.572    639.43369   0.98898219 
   45300    273.97759   -585.17806    139306.32   -43156.381    3762.4225   -46918.803    639.29893   0.98952089 
   45400    276.24105   -501.03498    139432.61   -43163.582    3793.5056   -46957.087    640.59695   0.98862468 
   45500     275.4125   -696.94607    139486.56   -43094.187    3782.1274   -46876.315    641.10365   0.98824225 
   45600    273.21369   -588.81598    139615.25    -43075.24    3751.9322   -46827.172    643.63549   0.98733136 
   45700    274.94122   -293.66426    139637.22   -43073.576    3775.6556   -46849.232    645.27745   0.98717605 
   45800    283.45075   -642.99659    139848.53   -42992.872    3892.5134   -46885.385     647.1243   0.98568443 
   45900    281.30887   -676.93112    139562.39   -43043.855    3863.0999   -46906.955    647.59824    0.9877053 
   46000    280.99467   -374.10625    139360.63   -43115.608    3858.7851   -46974.394    647.61819   0.98913532 
   46100    277.38841   -489.64134    139579.65   -43101.212    3809.2619   -46910.474    649.36065   0.98758321 
   46200    279.61493   -564.27611    139353.75   -43100.905    3839.8377   -46940.743    649.76158   0.98918409 
   46300    278.40174   -419.14955    139405.81   -43111.769    3823.1774   -46934.946    652.37182    0.9888147 
   46400    271.92909   -762.29539    139147.22   -43075.183    3734.2912   -46809.474    652.75312   0.99065231 
   46500    276.63492   -451.42375    139097.22   -43037.605    3798.9145    -46836.52    654.27617   0.99100842 
   46600    278.84949   -309.55785    139186.91    -42995.79    3829.3262   -46825.116    657.02092   0.99036985 
   46700    279.13379   -530.33981    139207.53    -42975.74    3833.2305    -46808.97    658.93443   0.99022311 
   46800    279.02229   -511.71883    139171.38   -42899.707    3831.6992   -46731.406    661.40196   0.99048033 
   46900     275.0797   -577.36923     139070.1    -42929.09    3777.5573   -46706.647    663.17427   0.99120171 
   47000    280.96921   -492.44991     138944.1   -43001.489    3858.4355   -46859.925    664.34702   0.99210051 
   47100    283.20233    -468.1435    138913.95   -42971.057     3889.102   -46860.159    664.60959   0.99231588 
   47200    277.34506   -423.48401    139127.77   -43038.221    3808.6665   -46846.887    665.53193   0.99079083 
   47300    277.85659   -335.04296    139337.32   -43021.641    3815.6912   -46837.332    667.68613   0.98930079 
   47400    281.85164   -448.76275    139499.98   -42964.153    3870.5536   -46834.707    669.24646   0.98814721 
   47500    278.60905   -595.79458    139476.05   -43038.966    3826.0244   -46864.991    670.02473   0.98831677 
   47600    281.40034    -423.4196    139426.38   -43018.627     3864.356   -46882.983    671.08864   0.98866882 
   47700    279.32182   -423.71947    139416.59   -43078.721    3835.8126   -46914.533    672.54731   0.98873825 
   47800    274.75509   -539.21338    139419.53   -43077.715    3773.0995   -46850.815    673.58203    0.9887174 
   47900    276.40182   -544.03632    139542.15   -43045.014    3795.7134   -46840.728    674.73787   0.98784862 
   48000    276.68569   -606.82168    139225.56    -43111.78    3799.6117   -46911.391    674.71516   0.99009492 
   48100    273.41908   -548.74815    138907.29   -43137.751    3754.7526   -46892.503    675.34155   0.99236344 
   48200    280.20579   -584.75346    139046.89   -43086.631    3847.9518   -46934.583    677.94823   0.99136712 
   48300    280.70209    -458.1157    139146.21   -43047.139    3854.7673   -46901.907    680.77978   0.99065955 
   48400    276.46129   -522.87748    139328.54    -43012.71    3796.5301    -46809.24    682.76991   0.98936313 
   48500    279.90511   -677.53442     138894.1   -43108.232    3843.8226   -46952.054    682.45062    0.9924577 
   48600     274.6808   -480.34574    138962.98   -43114.664    3772.0793   -46886.744    684.67325   0.99196574 
   48700    274.49354    -480.9528     138977.1   -43189.169    3769.5078   -46958.677    686.04435   0.99186494 
   48800    271.77767   -459.96638    138824.61   -43170.348    3732.2118    -46902.56    687.80886    0.9929545 
   48900    280.07033   -566.49311    138900.83   -43098.988    3846.0916    -46945.08    688.91279   0.99240957 
   49000    277.24482   -426.28908    138984.79   -43090.374      3807.29   -46897.664    690.04365   0.99181006 
   49100     273.4163   -536.11668    138936.17   -43098.698    3754.7144   -46853.412    691.67751   0.99215718 
   49200    270.68404   -633.60361     138690.3   -43188.054    3717.1935   -46905.247    693.25182   0.99391603 
   49300    276.34504   -336.34025    138918.08    -43175.66    3794.9337   -46970.594    695.11583   0.99228637 
   49400     279.1511   -499.52055    139166.42   -43120.817    3833.4682   -46954.285    697.47151   0.99051567 
   49500    274.05186   -451.32962    139090.08   -43091.091    3763.4424   -46854.534    699.64445   0.99105933 
   49600    272.80195   -438.41037    138943.63   -43090.478    3746.2779   -46836.755    701.05408   0.99210389 
   49700    279.57287   -384.38185    138747.13   -43083.744    3839.2602   -46923.004    701.21977   0.99350896 
   49800    275.69534   -447.39821    138904.72   -43036.437    3786.0116   -46822.449    703.63409   0.99238179 
   49900    272.79533   -618.96478    138953.46   -43078.255    3746.1869   -46824.442    704.70369    0.9920337 
   50000    274.51342   -322.93107    138991.47   -43110.127    3769.7808   -46879.908    706.51589   0.99176244 
   50100    275.45093   -542.03398       139100   -43147.203    3782.6551   -46929.858    708.77244   0.99098862 
   50200    280.53191    -570.3342     139171.8   -43107.971    3852.4303   -46960.401     711.2312   0.99047735 
   50300    274.45919   -493.09301    139139.91   -43056.584     3769.036    -46825.62    712.84776   0.99070437 
   50400    272.78709   -572.08299    139316.31   -43055.954    3746.0738   -46802.028    713.81876   0.98944998 
   50500    282.44657   -530.28837     139314.7   -43093.441    3878.7234   -46972.165     714.6396   0.98946139 
   50600     277.7247   -513.91978    139156.47   -43111.258      3813.88   -46925.138    716.27483    0.9905865 
   50700    277.38016   -429.20432    139066.32   -43036.019    3809.1485   -46845.167    716.85096   0.99122862 
   50800    277.46959   -351.67351    139148.82   -42992.442    3810.3766   -46802.818    719.03263   0.99064095 
   50900    281.71038   -586.12823    139109.68   -42988.667    3868.6136   -46857.281    721.01106   0.99091965 
   51000    278.89818   -540.00496    139087.55   -43071.075    3829.9949    -46901.07    722.09952   0.99107733 
   51100    274.98093   -405.00782    138895.29   -43070.445    3776.2009   -46846.646    722.77508   0.99244917 
   51200    281.42896   -609.35783    138949.31   -42975.627     3864.749   -46840.376    724.30751   0.99206332 
   51300    282.02946    -345.0864    138985.54   -42942.078    3872.9955   -46815.073    726.30813   0.99180475 
   51400    276.99661   -481.84891    139125.95   -43135.063    3803.8813   -46938.945    728.14344   0.99080376 
   51500    274.99696   -664.18852    138978.25   -43157.622     3776.421   -46934.043    730.21713   0.99185676 
   51600    275.83725   -514.38491    138759.52   -43170.093    3787.9604   -46958.053    730.47917   0.99342024 
   51700    278.35839   -472.29034    138740.91   -43073.332    3822.5822   -46895.914    731.39948   0.99355353 
   51800    276.11963   -528.69526    138849.03   -43155.017    3791.8382   -46946.855    732.77164   0.99277983 
   51900    276.58563   -490.66437    138792.62   -43159.622    3798.2376    -46957.86    734.17754   0.99318332 
   52000    280.28376   -557.49147    138625.94    -43130.84    3849.0225   -46979.863    735.11472   0.99437752 
   52100    274.04453   -627.72024    138886.61   -43133.921    3763.3417   -46897.263    738.17562   0.99251122 
   52200    272.18548   -697.99817    138855.62   -43118.871    3737.8121   -46856.683    739.35891    0.9927327 
   52300    275.64572   -588.29813    138736.31   -43069.132    3785.3302   -46854.462    741.24933   0.99358643 
   52400    283.45991   -409.87411    138750.85   -42953.768    3892.6393   -46846.407    743.22519    0.9934823 
   52500    277.58281   -376.39001    139017.35   -42986.329    3811.9314    -46798.26    745.34816   0.99157779 
   52600    278.62503   -596.66501    139157.77   -43070.558    3826.2438   -46896.802    746.32192   0.99057722 
   52700    273.61703   -523.54327    139170.46   -43071.718     3757.471   -46829.189    747.08699   0.99048686 
   52800    273.81245   -404.50313     139087.7   -43162.387    3760.1546   -46922.541    748.40853   0.99107625 
   52900    275.49812   -432.97084    138965.76   -43191.462    3783.3033   -46974.766    747.82286   0.99194587 
   53000    272.44401   -589.85215    138715.73   -43280.151    3741.3624   -47021.513    748.45913   0.99373383 
   53100     276.1643   -529.44826    138688.35   -43257.999    3792.4516   -47050.451    749.66377   0.99393004 
   53200    278.74848   -541.73058    138793.24   -43131.164    3827.9392   -46959.103     750.8527    0.9931789 
   53300    277.02828   -590.63226    139311.32   -43130.709    3804.3163   -46935.025    753.61196    0.9894854 
   53400    280.31508     -523.964    139111.75   -43037.249    3849.4526   -46886.702    753.56403   0.99090491 
   53500     279.8802   -534.14033    139402.31   -42986.867    3843.4806   -46830.348    756.06359   0.98883956 
   53600    281.04829   -671.74885    139241.83   -43012.345    3859.5214   -46871.867    757.18699   0.98997921 
   53700    274.15154   -452.56698    139364.95   -43021.993    3764.8112   -46786.804    759.78394   0.98910463 
   53800    276.33739   -255.62812    139312.01   -43123.238    3794.8286   -46918.066    760.05616    0.9894805 
   53900    281.25176    -502.1185    139472.73   -43152.794    3862.3157    -47015.11    761.69593   0.98834031 
   54000    276.42154   -499.66367    139349.22   -43093.843    3795.9843   -46889.828    763.89525   0.98921629 
   54100     277.1019   -767.13057     139004.8   -43124.751    3805.3273   -46930.079    763.81127   0.99166735 
   54200    276.24763   -329.66296    139192.88   -43084.641    3793.5959   -46878.237    765.11129   0.99032732 
   54300    279.16761   -390.00175    139153.56    -43071.87    3833.6949   -46905.565     765.0879   0.99060721 
   54400    276.79954   -501.72816     139411.5   -43122.047    3801.1751   -46923.222    767.82537   0.98877434 
   54500    276.65403   -574.90999    139592.06   -43117.312     3799.177   -46916.489    769.53225    0.9874954 
   54600    278.30826    -521.1736    139627.84   -43137.081    3821.8938   -46958.974    771.09675   0.98724233 
   54700    276.69195   -641.91729    139430.81   -43111.096    3799.6976   -46910.794    772.08929    0.9886374 
   54800    279.61376   -483.46627    139078.73   -43122.872    3839.8216   -46962.694    772.48114    0.9911402 
   54900    278.09636   -249.74802    139202.86    -43048.38    3818.9838   -46867.364    774.27142   0.99025637 
   55000    276.84486   -534.12867    139499.22   -43010.385    3801.7975   -46812.182    777.01501   0.98815259 
   55100    279.76174   -769.65891    139431.08   -42969.203    3841.8538   -46811.057    779.37716   0.98863549 
   55200    275.56877    -490.9348    139495.15   -43036.611    3784.2735   -46820.885    781.42899   0.98818143 
   55300    282.73216   -467.72327    139455.34    -43000.21    3882.6454   -46882.855    782.89602   0.98846352 
   55400    278.66911   -430.35475    139365.52   -42971.916    3826.8492   -46798.765    784.32133   0.98910061 
   55500    285.02019    -483.0626    139483.97   -42985.953     3914.066   -46900.019    786.44733   0.98826064 
   55600    283.10433   -588.37645    139480.46   -42950.572    3887.7563   -46838.328    788.15458   0.98828553 
   55700    281.32866   -501.83126     139189.3   -42968.995    3863.3717   -46832.367    788.01473   0.99035285 
   55800    276.51549   -610.31014    139283.33   -43040.837    3797.2744   -46838.111     789.5783   0.98968427 
   55900    274.28259   -410.59266    138881.44   -43133.876    3766.6109   -46900.487    789.33724   0.99254816 
   56000    265.37782   -511.25166    138634.46   -43201.966    3644.3254   -46846.291    789.59489   0.99431636 
   56100    279.06741   -566.39216    138866.89   -43108.224    3832.3189   -46940.542     792.4074   0.99265217 
   56200    275.97406   -287.65029    138908.67   -43104.416    3789.8391   -46894.255    794.59115   0.99235361 
   56300     273.1417   -485.51092    139029.44   -43014.634    3750.9435   -46765.578    796.65995   0.99149156 
   56400    284.42002   -540.11722    138950.42   -42969.023     3905.824   -46874.847    797.38138   0.99205542 
   56500    280.71253   -352.96814    139246.65   -42987.198    3854.9107   -46842.109    800.39874   0.98994492 
   56600    276.73503   -384.61209    139295.98   -42955.697    3800.2892   -46755.986    802.26793   0.98959437 
   56700    280.43108   -722.06147    139291.11   -42953.267    3851.0456   -46804.313    804.87121   0.98962897 
   56800    280.77754   -496.92529    139224.29     -42925.1    3855.8034   -46780.903     805.9579   0.99010391 
   56900     276.8487   -500.39667    139423.61   -43012.827    3801.8502   -46814.678    807.56348   0.98868847 
   57000    273.94216   -289.26754    139387.45   -43049.454    3761.9359    -46811.39    808.47517   0.98894499 
   57100     279.7271   -382.14443    139664.56   -43107.931    3841.3781    -46949.31    810.04811   0.98698275 
   57200    272.90719   -740.07724     139363.5   -43214.774    3747.7231   -46962.497    810.17407    0.9891149 
   57300    275.81382   -547.57695    139103.33   -43220.644    3787.6386   -47008.283    810.67451   0.99096487 
   57400     275.7188    -380.9082    138941.38    -43200.09    3786.3338   -46986.424    811.11999   0.99211998 
   57500    272.22123   -627.77168    138978.01   -43169.579     3738.303   -46907.882    812.04197   0.99185844 
   57600    277.55715   -597.86264    138922.46   -43191.795    3811.5791   -47003.374     813.6543    0.9922551 
   57700    276.08456   -443.68296    139102.53   -43200.369    3791.3566   -46991.726    815.52597   0.99097057 
   57800    278.42562   -450.28778    139207.14    -43071.77    3823.5054   -46895.275    817.46936   0.99022594 
   57900    273.35317   -363.22867    139310.47   -43126.097    3753.8475   -46879.945    820.08046   0.98949141 
   58000    270.65666   -628.53848    139398.46   -43169.549    3716.8174   -46886.367    821.48683   0.98886689 
   58100    272.92234   -367.81942     139384.5   -43049.214    3747.9311   -46797.145    823.30246   0.98896589 
   58200    276.42229   -702.92653    139348.75   -43134.404    3795.9945   -46930.398    823.72537    0.9892196 
   58300    273.00449   -491.57448    139385.05   -43164.929    3749.0592   -46913.988    825.65523   0.98896202 
   58400    278.29217   -382.31098    139523.64    -43064.87    3821.6728   -46886.543    827.58965   0.98797966 
   58500    276.82663   -545.18515    139580.58    -43034.45    3801.5471   -46835.997    829.53186   0.98757658 
   58600    273.40803   -537.61224    139154.13   -43102.339    3754.6009    -46856.94     829.4263   0.99060314 
   58700    272.24141   -428.65516    138755.43   -43072.991    3738.5802   -46811.571    829.62989   0.99344954 
   58800    276.13145   -477.52387    138849.64   -43065.931    3792.0005   -46857.931    831.83733    0.9927755 
   58900    278.17642   -457.75026    139035.46   -42972.928    3820.0832   -46793.012    835.04108   0.99144862 
   59000    271.76979   -362.24578    139099.54   -43060.498    3732.1036   -46792.601     836.1031   0.99099188 
   59100    278.75284   -488.03069     139104.5   -43057.086     3827.999   -46885.085    837.42646   0.99095658 
   59200     283.8707   -533.50319    138956.51    -43080.11    3898.2805    -46978.39    838.51905   0.99201191 
   59300    278.00031   -260.18902    138936.61   -43112.055    3817.6648    -46929.72    840.36692   0.99215404 
   59400     277.3898   -437.96401    139133.08   -43090.503     3809.281   -46899.784    842.57139   0.99075301 
   59500    276.52588   -162.73965    139612.56   -43095.193     3797.417    -46892.61    846.60846   0.98735037 
   59600    281.66452   -637.59352    139691.95   -43013.425     3867.984   -46881.409    848.58351   0.98678926 
   59700    278.65125   -391.44984     139585.4   -43060.006    3826.6039    -46886.61    849.29053   0.98754252 
   59800    276.30339    -396.0634    139621.02   -43031.102    3794.3616   -46825.463    850.65772   0.98729056 
   59900    281.83306    -611.9392    139216.35   -43154.257    3870.2983   -47024.556    851.02882   0.99016041 
   60000    273.65557   -521.16196    139156.27   -43111.313    3758.0002   -46869.313    853.61081   0.99058792 
   60100    274.38953   -329.06196    139240.72   -43053.058    3768.0794   -46821.137    854.99591   0.98998711 
   60200    275.47573   -612.86843    139423.19   -43138.503    3782.9958   -46921.498    856.92088   0.98869142 
   60300    278.31015   -636.88969    139614.43   -43102.546    3821.9197   -46924.465    858.54013   0.98733721 
   60400    276.78407   -663.18441    139477.01   -43081.474    3800.9627   -46882.437    859.08423   0.98830991 
   60500    273.69695   -430.40698    139362.83    -43149.65    3758.5685   -46908.219    860.36575   0.98911966 
   60600    279.74111   -596.77306    139500.63   -43119.112    3841.5706   -46960.683    861.68544   0.98814258 
   60700    276.16724    -350.5033    139632.54    -43125.26     3792.492   -46917.752    863.44135   0.98720912 
   60800    281.67694   -455.28759    139620.62   -43112.254    3868.1545   -46980.409    864.24194   0.98729339 
   60900    279.88403   -347.78631    139573.08   -43086.664    3843.5332   -46930.197    863.64786    0.9876297 
   61000    278.27001   -469.32672     139638.5   -43014.152    3821.3685   -46835.521    866.14094   0.98716698 
   61100    280.58809    -682.8419    139642.35   -42931.957    3853.2017   -46785.159     866.5833   0.98713977 
   61200    279.63719   -477.41561    139480.56   -42989.867    3840.1434   -46830.011    867.57778   0.98828477 
   61300    277.03302   -611.66864    139236.09   -42946.776    3804.3814   -46751.157    865.93106      0.99002 
   61400    282.77669   -448.99204    139455.85   -42835.877    3883.2569   -46719.134    867.48971   0.98845992 
   61500    284.67034   -509.81269     139177.3   -42904.726    3909.2616   -46813.988     867.4184   0.99043822 
   61600    277.90766   -526.48374    139198.94   -42973.619    3816.3925   -46790.012    868.93103   0.99028422 
   61700    278.07279   -527.33767    139242.51   -43025.309    3818.6602   -46843.969    870.66932   0.98997437 
   61800    275.90154   -603.10894    139400.06   -43071.963    3788.8432   -46860.806    871.22721   0.98885549 
   61900    274.53431   -326.16187    139376.65   -42993.979    3770.0676   -46764.047    871.45568   0.98902157 
   62000    277.65918   -393.37769    139538.91   -43009.834    3812.9802   -46822.814    872.12866   0.98787154 
   62100    278.05164   -498.28995    139248.02   -43024.675    3818.3697   -46843.045    872.56925   0.98993521 
   62200    275.82236   -430.38176    139367.53   -43077.825     3787.756   -46865.581    875.00036   0.98908633 
   62300    279.34125   -338.09314    139441.74   -43054.403    3836.0794   -46890.483    876.91597   0.98855994 
   62400    277.52265   -521.53071    139406.05   -43131.834    3811.1053   -46942.939    877.66666   0.98881304 
   62500    275.62902   -568.31182    139282.92   -43161.195    3785.1009   -46946.295     878.4242   0.98968713 
   62600    273.58665   -459.00536    139369.85   -43123.706    3757.0538    -46880.76    880.24543   0.98906986 
   62700    282.48616   -539.29741    139517.36   -43089.484    3879.2672   -46968.751    882.26018   0.98802414 
   62800    272.99283   -524.88388     139318.5   -43136.998    3748.8991   -46885.897    880.93791   0.98943443 
   62900    277.52012   -488.78462    139179.02   -43081.521    3811.0706   -46892.592    881.80087   0.99042599 
   63000     279.6301   -675.01959    139174.71   -43108.899     3840.046   -46948.945    882.49855   0.99045668 
   63100    279.81979   -494.73041    139102.49   -43076.573     3842.651   -46919.224     883.5972    0.9909709 
   63200    278.86126   -525.94426    139112.03   -43038.831    3829.4879   -46868.319    885.00385   0.99090289 
   63300    276.62328   -504.24423    139482.61   -43146.265    3798.7546   -46945.019    888.09027   0.98827025 
   63400    273.22071   -516.18665    139147.96     -43204.4    3752.0285   -46956.429    888.02607   0.99064704 
   63500    279.96444   -478.29701    138870.63   -43076.275    3844.6374   -46920.913    888.97669   0.99262538 
   63600    275.19734   -534.94828     139058.9   -43091.314    3779.1728   -46870.486    891.33984   0.99128153 
   63700    273.98475   -655.94607    139155.04   -43134.108    3762.5208   -46896.629    893.31898   0.99059662 
   63800    279.24366   -671.09814    139024.74   -43111.656    3834.7392   -46946.395    894.99175   0.99152511 
   63900    276.65495   -588.77686    139266.98   -43039.402    3799.1896   -46838.592    897.17521   0.98980042 
   64000    273.45712   -519.71028    139260.95   -43129.503    3755.2751   -46884.778    897.84833   0.98984327 
   64100      276.213   -399.54527    139180.72   -43167.572    3793.1204   -46960.692    900.14804   0.99041386 
   64200     281.3756   -498.89974    139366.75   -43155.003    3864.0163   -47019.019    901.49181   0.98909187 
   64300    274.87547    -404.8132    139091.91   -43224.612    3774.7526   -46999.365    901.61318   0.99104627 
   64400    277.82095     -417.211    139186.81   -43232.881    3815.2017   -47048.083    902.36818   0.99037057 
   64500    271.03897   -558.07415    139180.38   -43251.708    3722.0676   -46973.776    904.03673   0.99041628 
   64600    274.84809   -650.01956     139008.1   -43171.911    3774.3766   -46946.287    904.17344   0.99164378 
   64700    279.22392   -608.98612    138944.69   -43072.345    3834.4682   -46906.814    905.73925   0.99209635 
   64800    276.49317   -485.93909    138859.11     -42999.9    3796.9678   -46796.868    906.56164   0.99270777 
   64900    282.09721   -845.08259     139278.8   -43008.674    3873.9259     -46882.6    909.61682   0.98971642 
   65000     278.0915   -386.10849    139378.68       -43012    3818.9171   -46830.917     911.0817    0.9890072 
   65100    273.72039   -561.07798    139115.59   -43133.599    3758.8905    -46892.49    911.11373   0.99087756 
   65200    279.05147   -534.00379    139107.89   -43121.171    3832.0999   -46953.271    913.47234   0.99093238 
   65300     272.5388   -236.46139    138969.12   -43148.632    3742.6641   -46891.296    915.67234   0.99192195 
   65400    274.42303   -496.88007    139054.41   -43193.478    3768.5395   -46962.018    917.91517    0.9913135 
   65500    274.71656    -505.9451    138965.26   -43101.456    3772.5704   -46874.027    918.68677   0.99194945 
   65600    277.43523   -592.42435    139066.48   -43021.723    3809.9048   -46831.628    919.84173    0.9912275 
   65700    276.49423   -405.81321    139017.63   -42994.594    3796.9824   -46791.576    920.72873    0.9915758 
   65800    278.34634   -537.16858    139032.67   -43099.777    3822.4167   -46922.194    920.80849   0.99146854 
   65900    276.82908    -531.1209    139008.27   -43030.538    3801.5808   -46832.119    921.83319   0.99164253 
   66000    274.24497   -536.87777    138809.19   -43049.308    3766.0943   -46815.402     922.3314   0.99306474 
   66100    275.93516   -431.64625    138990.51   -43035.442     3789.305   -46824.747    923.96974   0.99176925 
   66200    278.86745   -500.38114    139115.59   -42961.812    3829.5729   -46791.385    925.71105   0.99087758 
   66300       285.79   -526.25595    139098.06   -42959.942    3924.6374   -46884.579    926.37231   0.99100242 
[...]
   84600    273.20815   -426.64267     138957.5   -43146.643     3751.856   -46898.499     1179.871   0.99200487 
   84700    276.64511   -554.20925    138994.13   -43196.509    3799.0544   -46995.563    1181.1994   0.99174347 
   84800    272.55856   -404.99081    139002.54   -43132.956    3742.9355   -46875.892    1182.5629   0.99168342 
   84900    275.23881   -610.03979    138961.14   -43083.339    3779.7422   -46863.082    1183.9277    0.9919789 
   85000    276.55792   -637.41345    138934.04   -43066.775    3797.8571   -46864.632    1185.2099   0.99217236 
   85100    276.69832   -511.33325    138975.14   -43059.707    3799.7851   -46859.492    1187.4124   0.99187895 
   85200    281.00357   -437.12947    138909.14   -43067.353    3858.9073    -46926.26     1188.416   0.99235025 
   85300    276.04496   -509.65277    139076.56   -43070.781    3790.8127   -46861.593    1190.8477   0.99115565 
   85400    281.25411   -491.46072    139212.53   -43032.598     3862.348   -46894.946    1194.5613   0.99018757 
   85500    276.18406   -438.23178    139184.13   -43087.421     3792.723   -46880.144    1195.9875   0.99038962 
   85600    280.92241   -457.22475    139143.96   -43057.018    3857.7928   -46914.811    1198.7589   0.99067554 
   85700    278.81932   -738.12296     139177.3   -43088.434    3828.9119   -46917.346    1200.2175   0.99043819 
   85800    273.53474   -582.52267    138796.69   -43120.905     3756.341   -46877.246    1199.4775   0.99315423 
   85900    273.72633   -439.32504    138705.71   -43176.929    3758.9719   -46935.901    1199.8725   0.99380567 
   86000    273.62218   -572.03277    139192.04   -43110.253    3757.5418   -46867.795    1204.6845   0.99033336 
   86100    276.30589   -477.30065    139311.97   -43106.811    3794.3961   -46901.207    1205.8881   0.98948078 
   86200    275.02315   -689.75112    139039.34    -43091.56    3776.7806    -46868.34    1205.6067   0.99142097 
   86300    278.68966    -579.5811    138957.64   -43081.657    3827.1313   -46908.789      1208.03   0.99200387 
   86400    280.06577   -344.54011    139251.81   -43075.472    3846.0289   -46921.501    1212.1265   0.98990827 
   86500    279.28983   -503.15463    139115.92   -43066.695    3835.3733   -46902.068    1213.5136    0.9908752 
   86600    277.27453   -560.52273    139208.88   -43088.433     3807.698   -46896.131     1213.877   0.99021352 
   86700    276.62357   -438.90827    139043.27   -43071.217    3798.7586   -46869.976    1214.0167   0.99139296 
   86800    279.26337   -419.95914    138981.85   -43014.415    3835.0099   -46849.425    1213.8375   0.99183104 
   86900    280.28142   -544.70324    139250.16   -43001.847    3848.9903   -46850.838     1216.387   0.98992001 
   87000    277.50977   -636.67101    139196.17    -43065.22    3810.9284   -46876.148    1217.5924   0.99030397 
   87100      274.398   -499.51956    139185.63   -43112.633    3768.1958   -46880.828    1217.5966   0.99037894 
   87200    272.00349   -508.76296     138925.1   -43134.951    3735.3129   -46870.263    1218.9331   0.99223621 
   87300    281.18212   -585.73853    139138.15   -42971.453    3861.3593   -46832.812    1221.5709   0.99071688 
   87400    278.79565   -413.39305     139062.6   -43006.935    3828.5869   -46835.522    1220.3042   0.99125511 
   87500    275.89712   -522.43269    139018.08   -43101.684    3788.7826   -46890.467    1222.6525    0.9915726 
   87600    274.50729   -548.30061    139188.28    -43098.08    3769.6965   -46867.777     1224.344   0.99036009 
   87700     278.9494   -488.65453    139382.72   -43088.879    3830.6982   -46919.577    1225.9846    0.9889785 
   87800    277.54989   -426.12672     139573.7   -42981.451    3811.4793    -46792.93    1228.1063   0.98762527 
   87900    278.81156   -613.92148    139464.39   -43022.787    3828.8053   -46851.593    1229.6992    0.9883994 
   88000    276.31534   -411.85645    139265.29   -42973.554    3794.5258   -46768.079    1229.4592   0.98981243 
   88100    277.74578   -521.87561    139222.48   -43039.118    3814.1694   -46853.287    1229.7768   0.99011682 
   88200    280.79453   -473.33411    139187.73   -42973.598    3856.0367   -46829.635      1230.39   0.99036397 
   88300    284.57819   -531.50266    139060.34   -42986.279    3907.9961   -46894.275    1231.3471   0.99127127 
   88400    274.97721   -522.15223    138862.66   -43045.763    3776.1498   -46821.912    1230.3711   0.99268236 
   88500    276.57321   -294.56469     138607.9   -43095.667     3798.067   -46893.734    1231.4476   0.99450696 
   88600    275.48421   -359.28802    138773.23   -43058.939    3783.1122   -46842.051    1233.5356   0.99332207 
   88700    275.69281   -473.97353    138892.82   -43081.502    3785.9769   -46867.479    1236.4813   0.99246682 
   88800    276.73531   -630.82524    138949.31   -43061.251    3800.2931   -46861.544    1238.4392   0.99206335 
   88900    279.45284   -428.09715    139080.15   -43108.579    3837.6118   -46946.191    1241.0372   0.99113005 
   89000    279.14547   -577.84329    139258.98   -43087.767    3833.3908   -46921.158    1243.1277   0.98985731 
   89100    280.64105   -478.74258    139194.02   -43052.319     3853.929   -46906.248    1244.2305   0.99031924 
   89200    278.13765   -538.80377    139112.69   -43128.357    3819.5508   -46947.908    1245.9409   0.99089821 
   89300    278.66961   -595.09955    139111.11   -43123.189     3826.856   -46950.045    1248.6836   0.99090949 
   89400    273.04243   -570.28712    138895.52   -43044.269    3749.5803    -46793.85    1249.5793   0.99244754 
   89500    278.60897   -396.00229    138881.08   -43139.756    3826.0232   -46965.779    1249.7494   0.99255069 
   89600     276.5053   -506.32381    139103.08   -43061.861    3797.1344   -46858.995    1254.1919   0.99096668 
   89700    279.55799   -477.05886    139249.37   -43024.078    3839.0558   -46863.134    1255.9947   0.98992562 
   89800    276.26679   -511.73433    139161.41   -43083.775     3793.859   -46877.634    1256.1403   0.99055129 
   89900    279.22462   -511.66186    139192.39   -43092.516    3834.4777   -46926.994    1258.7212   0.99033081 
   90000    277.37199   -431.08922    139214.73   -43067.659    3809.0364   -46876.696    1260.0679   0.99017193 
   90100     275.8602   -617.87699    139271.47   -43008.499    3788.2756   -46796.775    1262.1102   0.98976849 
   90200     269.7082   -554.00656    138854.12   -43157.454    3703.7927   -46861.247    1261.7945   0.99274343 
   90300    272.49374   -443.01566    138766.39   -43146.765    3742.0453   -46888.811    1263.7202   0.99337109 
   90400    278.30273   -389.18588    139009.34   -43051.819    3821.8178   -46873.637    1267.7255   0.99163496 
   90500    281.66877   -498.21838    139243.88   -42975.056    3868.0423   -46843.099    1272.1462   0.98996462 
   90600    281.65247    -419.9641    139236.98   -43026.289    3867.8184   -46894.108    1274.5925   0.99001371 
   90700    279.58065   -511.85733    139212.63   -43055.069     3839.367   -46894.436    1275.5405   0.99018683 
   90800    278.89759   -520.30077    139158.78    -43002.68    3829.9867   -46832.667    1276.8872      0.99057 
   90900    275.56109   -454.13386    139009.63   -43095.893    3784.1681   -46880.061    1277.1734   0.99163289 
   91000    282.30228   -458.70841    138943.85   -43041.954     3876.742   -46918.696    1276.6323   0.99210236 
   91100    279.96688   -452.04902    139014.67   -43020.095     3844.671   -46864.766    1277.2821   0.99159688 
   91200    274.35938   -384.14825    139107.88   -43070.113    3767.6654   -46837.779    1278.9813   0.99093247 
   91300    277.84055   -584.05713    138955.43   -43108.171    3815.4709   -46923.642    1279.8593   0.99201964 
   91400    276.26365    -552.7784    138704.84   -43152.882     3793.816   -46946.698    1280.0817   0.99381184 
   91500    279.13586   -458.45268     138885.1    -43137.43    3833.2588   -46970.688    1282.4502   0.99252201 
   91600    273.45573   -482.43166    139085.06   -43138.376    3755.2559   -46893.632    1284.2609   0.99109504 
   91700    273.57786   -444.81129    138911.94   -43158.241    3756.9332   -46915.174     1283.143   0.99233022 
   91800    272.88993   -413.60682    139168.38   -43242.317    3747.4861   -46989.803    1286.0313   0.99050169 
   91900    274.68233   -430.23855    139144.82   -43186.845    3772.1003   -46958.945    1286.5323   0.99066944 
   92000    276.88324   -493.56283    139266.57   -43105.517    3802.3246   -46907.841    1289.9169   0.98980331 
   92100    276.81925   -337.97602    139511.63   -43051.657    3801.4458   -46853.103    1292.1408   0.98806472 
   92200    282.32113   -506.57275    139543.73   -42954.898    3877.0008   -46831.899    1293.9376   0.98783737 
   92300    279.99168   -494.82684    139520.55   -43013.272    3845.0114   -46858.283    1294.4922   0.98800155 
   92400     279.5514   -442.64672    139493.05   -43034.653    3838.9653   -46873.618    1296.8017   0.98819628 
   92500    279.10982   -492.98518    139293.12    -42976.52    3832.9013   -46809.421    1296.7552   0.98961471 
   92600    282.94817   -554.09645    139147.48   -43033.604    3885.6117   -46919.215    1295.1464   0.99065048 
   92700    278.07515   -567.29463    139289.94    -43039.11    3818.6926   -46857.802      1298.43   0.98963729 
   92800    276.78746   -601.37268    139121.45   -43054.211    3801.0092    -46855.22    1299.8745   0.99083583 
   92900    282.97978   -407.62667       139131     -43041.4    3886.0459   -46927.446    1301.1399    0.9907678 
   93000    275.73591   -368.28776    139418.88   -43020.759    3786.5688   -46807.328    1305.3896   0.98872204 
   93100    273.69433   -406.01751    139584.08   -43011.149    3758.5326   -46769.681    1306.1046   0.98755183 
   93200    281.69839   -507.77953    139356.27   -42976.599     3868.449   -46845.048    1306.5631   0.98916624 
   93300    284.18625   -538.82633    139291.21    -42894.81    3902.6139   -46797.424    1306.9937   0.98962824 
   93400    279.83048   -597.75574    139128.97   -43032.729    3842.7978   -46875.527    1308.7108   0.99078225 
   93500     279.9101   -580.92696    139024.76   -43105.351    3843.8911   -46949.242    1309.2526   0.99152495 
   93600    275.37772   -392.53244    139066.39   -43120.901    3781.6498   -46902.551    1310.6917   0.99122809 
   93700    275.03497   -368.62766     139150.5   -43097.193     3776.943   -46874.136    1311.7903   0.99062895 
   93800     277.9352   -594.72965    139038.46   -42993.873    3816.7706   -46810.644    1312.2992   0.99142726 
   93900    276.15033   -532.19321    139021.54   -43091.517    3792.2598   -46883.777    1312.8674   0.99154787 
   94000    275.71115   -637.04885    138911.97   -43095.094    3786.2287   -46881.323    1314.2199   0.99232998 
   94100     274.3861   -585.82754    138960.18   -43126.225    3768.0324   -46894.257    1314.8682   0.99198574 
   94200    275.40365   -597.56125    138854.41   -43142.101     3782.006   -46924.107    1315.1487   0.99274139 
   94300    272.37903    -620.6614    139015.26    -43085.01      3740.47    -46825.48    1315.1878   0.99159269 
   94400    277.15558   -449.61762    139076.84    -43092.22    3806.0645   -46898.285    1316.9637   0.99115361 
   94500    277.03394   -643.79228    139251.83   -43078.226     3804.394    -46882.62    1319.8066   0.98990811 
   94600    273.70243   -575.61984    139234.51   -43206.068    3758.6438   -46964.711      1322.92   0.99003122 
   94700    277.90844   -417.78662    139017.24   -43121.191    3816.4032   -46937.594     1324.067   0.99157859 
   94800    274.51671   -453.52375    139260.54   -43058.387     3769.826   -46828.213    1327.9969   0.98984622 
   94900    278.31114   -575.21931    139154.71   -43028.255    3821.9334   -46850.189    1328.4733   0.99059897 
   95000    278.31187   -603.07526     138852.9   -43057.231    3821.9433   -46879.174    1328.7131   0.99275218 
   95100    272.22208    -420.1888    138908.99   -43014.375    3738.3147    -46752.69    1330.1983   0.99235127 
   95200    285.58091   -512.88314    138874.37   -42980.951    3921.7661   -46902.717    1331.1181   0.99259868 
   95300    280.18235   -358.61678    138865.99   -43040.557    3847.6299   -46888.187    1333.2755   0.99265858 
   95400    279.92595   -332.63472    139191.23   -43047.644    3844.1089   -46891.753    1335.5981   0.99033911 
   95500    278.84022    -529.8438    139194.64    -43017.65     3829.199   -46846.849    1337.0515   0.99031483 
   95600    272.90103   -677.75148    139090.05   -43141.183    3747.6384   -46888.821    1337.5405   0.99105949 
   95700    276.06527   -549.36373    139114.39   -43083.237    3791.0917   -46874.328    1338.8633   0.99088614 
   95800    275.94389   -410.38733     138965.3   -43047.674    3789.4248   -46837.098    1340.1342   0.99194917 
   95900    277.73658   -485.53523    139050.06   -43073.244    3814.0431   -46887.288     1342.489   0.99134452 
   96000    277.62161   -249.70014    139321.77    -43020.61    3812.4643   -46833.074    1346.6403   0.98941117 
   96100    276.98859   -596.16856     139286.7   -43009.837    3803.7712   -46813.609    1347.2442   0.98966028 
   96200    275.10733   -366.04164    139219.99    -43015.77    3777.9367   -46793.706    1348.3121   0.99013451 
   96300    279.30806   -563.09528    139143.34   -42987.284    3835.6236   -46822.908    1349.9953   0.99067995 
   96400     274.2148   -482.09173    139507.57   -43069.613      3765.68   -46835.293    1352.9872   0.98809346 
   96500    275.30634   -571.90475    139259.88   -43011.319    3780.6696   -46791.988    1353.8581   0.98985089 
   96600    280.97809   -367.25574    139464.97   -42938.788    3858.5574   -46797.345    1356.5695    0.9883953 
   96700    280.13105   -518.29732    139539.76   -42926.176    3846.9254   -46773.102    1358.7479   0.98786549 
   96800    284.11702   -581.43257    139202.85   -42920.378    3901.6631   -46822.042    1357.9488   0.99025646 
   96900    279.79155   -389.76157    139260.41   -42974.119    3842.2632   -46816.383    1360.8033    0.9898471 
   97000    279.22408   -507.97969    139458.97   -43016.413    3834.4704   -46850.884    1362.9437   0.98843781 
   97100    274.65677    -465.1354    139454.99   -43006.456    3771.7494   -46778.205    1364.6241   0.98846603 
   97200    277.69461   -416.20726    139334.94   -42970.068    3813.4667   -46783.534    1366.1141   0.98931767 
   97300    273.38551   -465.27936    139541.17   -43010.679    3754.2916   -46764.971    1368.1674    0.9878555 
   97400    275.49397   -396.31299    139426.33   -43000.773    3783.2463   -46784.019     1369.624    0.9886692 
   97500    281.25758   -496.81723     139334.1   -43027.376    3862.3956   -46889.771    1370.8104   0.98932362 
   97600    281.86877   -637.22031    139277.51   -43031.396    3870.7888   -46902.184    1372.4729   0.98972563 
   97700    280.35564   -552.84397    138960.91   -43091.627    3850.0096   -46941.637    1372.6939   0.99198053 
   97800    277.68122   -438.84391    138925.48   -43088.652    3813.2829   -46901.935    1373.7707   0.99223353 
   97900    278.66893   -367.36569    139123.09   -43007.527    3826.8467   -46834.374    1377.0574   0.99082415 
   98000    283.61627   -518.31351    139127.75   -42970.271    3894.7864   -46865.057    1378.1214   0.99079099 
   98100    277.90424   -425.35725     139433.1   -43043.227    3816.3455   -46859.573    1382.6978   0.98862118 
   98200    278.48766   -558.19569    139208.18   -42984.124    3824.3573   -46808.481    1381.2464    0.9902185 
   98300    280.35655   -459.81526    139141.56   -42945.306    3850.0221   -46795.328    1381.7651    0.9906926 
   98400    275.12716   -498.74012    139344.58   -42970.399     3778.209   -46748.608    1384.6178   0.98924924 
   98500    275.20687    -490.2881    139240.82     -43020.6    3779.3036   -46799.904    1386.6133    0.9899864 
   98600    278.29131   -578.52121    139065.21   -43004.243     3821.661   -46825.904    1386.6485    0.9912365 
   98700    276.00427   -396.87094    139024.34   -43040.637     3790.254   -46830.891    1387.1759   0.99152797 
   98800    274.73477    -565.0633    138875.48   -43025.729    3772.8205    -46798.55      1388.71   0.99259073 
   98900    276.38317   -583.08909    139059.02   -43004.486    3795.4573   -46799.944     1391.116   0.99128068 
   99000    284.71187   -288.23394    139061.02   -42900.552     3909.832   -46810.384    1392.4048   0.99126643 
   99100     280.4363   -650.86855    139146.32   -42941.996    3851.1173   -46793.114    1395.1692   0.99065873 
   99200    278.95881   -419.81721    139017.51   -42956.205    3830.8275   -46787.033    1395.7668   0.99157662 
   99300    279.06239   -499.48548    139301.17   -42983.077    3832.2499   -46815.327    1398.1194   0.98955748 
   99400     283.2507   -654.97571    139498.14   -42951.122    3889.7663   -46840.888     1401.917   0.98816024 
   99500    278.15026   -704.16198    139443.43   -43002.533    3819.7239   -46822.257    1403.0376   0.98854796 
   99600    273.58276   -715.26011    139264.21   -43061.062    3757.0004   -46818.063    1403.2325   0.98982015 
   99700    274.22339   -382.19349    139096.12   -43018.356    3765.7979   -46784.154    1403.1904   0.99101624 
   99800     281.8252   -388.65412    139080.92   -43037.357    3870.1904   -46907.547    1402.5124    0.9911246 
   99900     276.9191   -535.21422    139063.53    -43035.09     3802.817   -46837.907    1403.7466   0.99124851 
  100000    277.45652   -597.82421    139005.46   -43050.643    3810.1971    -46860.84    1403.7241   0.99166262 
  100100     277.2697   -384.17006    138869.54    -43062.07    3807.6316   -46869.701    1405.0895   0.99263322 
  100200    278.57192   -330.41003    139281.12   -43039.499    3825.5145   -46865.014    1409.0332   0.98969996 
  100300    277.25336    -631.7919    139494.74   -43050.418    3807.4073   -46857.825    1412.7261   0.98818434 
  100400     274.7786   -550.95628    139657.88   -43062.592    3773.4224   -46836.014    1417.3415   0.98702999 
  100500      275.571   -458.36882    139636.62   -43060.312    3784.3041   -46844.616    1418.3372    0.9871803 
  100600    278.67409   -569.14865    139445.55   -43109.849    3826.9176   -46936.766    1417.3053   0.98853293 
  100675    277.95104   -533.48941    139615.69   -43056.795    3816.9882   -46873.784    1419.6234   0.98732829 
Loop time of 183.674 on 6 procs for 100000 steps with 4608 atoms

Performance: 235.199 ns/day, 0.102 hours/ns, 544.443 timesteps/s
99.3% CPU use with 6 MPI tasks x no OpenMP threads

MPI task timing breakdown:
Section |  min time  |  avg time  |  max time  |%varavg| %total
---------------------------------------------------------------
Pair    | 161.1      | 162.86     | 167.59     |  16.9 | 88.67
Neigh   | 7.5667     | 7.6372     | 7.8813     |   4.0 |  4.16
Comm    | 5.7463     | 10.423     | 12.335     |  66.5 |  5.67
Output  | 0.17361    | 0.1744     | 0.17773    |   0.4 |  0.09
Modify  | 1.8434     | 1.9315     | 2.0375     |   4.4 |  1.05
Other   |            | 0.6431     |            |       |  0.35

Nlocal:        768.000 ave         776 max         759 min
Histogram: 1 1 1 0 0 0 0 0 2 1
Nghost:        1672.00 ave        1680 max        1657 min
Histogram: 1 0 0 0 0 1 1 1 0 2
Neighs:        0.00000 ave           0 max           0 min
Histogram: 6 0 0 0 0 0 0 0 0 0
FullNghs:      25438.0 ave       25762 max       25024 min
Histogram: 1 0 0 1 1 0 1 0 0 2

Total # of neighbors = 152628
Ave neighs/atom = 33.122396
Neighbor list builds = 7123
Dangerous builds = 0

undump              1
unfix               2
unfix               3
unfix               4


################################################
#######         Run Simulation         #########
################################################

reset_timestep      0
log                 log.run_${NAME}
log                 log.run_liq_278K_-500atm_mW
