LAMMPS data file via write_data, version 29 Oct 2020, timestep = 200000

4608 atoms
1 atom types

-0.038969836767893895 53.438969836768685 xlo xhi
0.014613584307216598 50.892506415693646 ylo yhi
0.014613584307216598 50.892506415693646 zlo zhi

Masses

1 18.015

Atoms # atomic

349 1 0.9396254792497546 50.54269489767978 14.282797572101728 0 0 1
3790 1 1.3757473915884135 38.073323338889224 23.072490690111803 1 0 -1
4409 1 6.336781415775141 50.63093790595188 3.2289372938745347 2 -1 0
3346 1 5.502249098679854 3.3787840240054807 2.9296301691081705 0 1 0
3157 1 12.164015672757339 47.62989319720336 0.5023525882126783 1 -1 0
3329 1 1.017254813044549 17.607356924864636 1.7359878224973586 1 0 0
2061 1 0.35504810023876876 44.21333657196715 13.064114282172497 1 1 0
182 1 7.636727305600942 1.9735323079694564 4.2797627388097075 0 0 -1
2029 1 5.514092069492094 5.541694931869937 1.3536473630403285 0 0 -1
2484 1 10.17268544236727 5.504169655253502 2.9658230527333873 0 2 0
1414 1 11.230458332455493 0.35722193464366675 2.884295864819818 0 1 1
973 1 1.6855007655455554 3.4301267568883262 3.6724653068615765 0 -1 0
2646 1 1.7188981489221073 3.9166085001056277 0.7148626194225911 1 0 0
250 1 8.84012094542808 6.53301748647011 5.138823046893661 0 1 0
23 1 1.515625550817596 30.253994065114547 2.3239492776865758 0 1 1
3335 1 9.55791407023964 9.004804429883864 2.357024245674801 0 1 -1
3270 1 0.15305960886018313 15.512267745926803 0.0561060481333717 1 0 0
1025 1 2.521386643041233 9.235408041769652 2.9118641178905915 -1 -1 1
2773 1 7.4336505124460395 8.695473988768258 3.993075837875873 0 0 0
1958 1 11.760361488076127 36.260127496938665 2.8927908059373664 0 0 1
3380 1 11.007675067243616 10.716951951401244 6.154883224426117 1 0 0
452 1 10.519311871467789 16.038452698107957 1.8046746981619817 0 0 0
2096 1 1.4300641586598137 13.04163849154004 0.0933855993206664 1 0 -1
2265 1 13.12532528209542 4.147612105446653 0.3062724588021212 0 -1 1
130 1 14.749948018087613 12.417048763187344 1.569332773346836 0 0 0
3689 1 8.008690852837075 12.975371222318092 2.4859326084732487 1 1 0
1701 1 12.183243230265305 13.702509712402405 4.048829231110838 0 1 -1
4187 1 14.874323050026893 14.13475402298262 4.352169604598904 0 0 -1
1895 1 2.2113765046259135 19.788357187912315 20.254162070168697 -1 -1 0
4131 1 1.465490012510051 40.99461369675468 17.903043088108483 2 0 -1
89 1 3.1096455370771765 9.70910650612408 12.397460642791856 0 1 0
1902 1 0.9277651148860081 15.044683600602514 16.26935450431505 1 0 0
1162 1 0.044240346291005136 38.65682474268387 13.25503903741751 0 1 2
3720 1 1.8695943353175621 25.72158772177139 0.9367904580194705 2 1 0
1728 1 5.112918110758786 44.85597563685326 25.350329190465644 1 1 0
2444 1 5.6420588383554415 20.311544531868748 3.2563779052910355 0 1 1
4484 1 0.812386969016793 12.387171778636793 23.37002555880935 1 0 0
703 1 4.120056945391942 22.458784053328344 1.8249496299020573 -1 0 -1
2518 1 8.703103568995243 21.395151964650687 2.709617411576671 1 0 0
1734 1 11.991389507220234 17.913722442863854 3.2716609213588943 1 0 0
1916 1 0.7095574364545202 32.536907178484626 0.7269949668870428 -1 0 1
4337 1 11.61207013748174 20.321529552922872 1.902852527613948 2 0 1
3088 1 7.138718234894747 22.185944631225404 0.5375815146551554 0 2 2
958 1 10.177376947770245 11.500808033821448 1.8288258538337876 1 0 0
1105 1 15.508311006409254 20.183992894940797 1.2962557183705852 0 0 0
3404 1 12.068567688413893 34.529815276361774 0.10878926783348312 1 0 0
2022 1 4.164545960647011 30.58853041526688 2.9956866395051067 1 0 -1
1043 1 14.131611035926502 36.86406984694983 1.4226348363801344 0 0 0
719 1 3.9226767973657184 27.40467008224968 1.496774773038664 0 0 0
81 1 9.618168972375862 23.92136168600516 2.189330442165688 0 0 0
3216 1 12.648935717242265 27.43912056260355 1.0941593383301047 1 0 -1
4105 1 4.953814759045894 47.50618824794374 0.5651102373183365 1 1 2
3850 1 16.413716069968018 47.394900930349976 18.57818198094241 1 -1 1
3764 1 1.5319004323180019 28.803352510019195 6.805166174037952 1 0 1
2288 1 13.305938274201674 6.110020368774582 25.04760295963692 2 0 0
2415 1 5.5452338101138965 25.54317935422677 2.4607574812408175 0 1 0
2694 1 1.8920467794129527 44.87366639719791 1.451132050708643 0 -1 0
2104 1 -0.03327491436519561 15.121545987518546 4.925284415274988 1 1 0
4097 1 7.496327019430388 10.657709320785234 24.30406268716003 1 1 1
2957 1 4.018490626959299 50.08197125896807 0.3952066748334162 0 1 2
1179 1 3.18049776064386 19.322875913015487 24.24325587924695 0 1 1
4512 1 5.155201419208032 28.89210884248507 5.153768958148357 1 -1 1
4286 1 7.495368089969173 32.8408812909273 2.9850692641377488 0 1 0
1623 1 12.768674379426134 32.463764823928685 1.8529522921606105 0 -1 0
4460 1 0.5407654588100589 24.570661205268145 16.62163039830025 0 0 1
3715 1 15.523223693352154 31.45534206041448 1.491898963327363 1 -1 0
4598 1 12.966879777324731 9.505423838821855 0.9984332958472526 0 0 1
2764 1 0.11164978846001467 19.983585004289043 3.3917188079916816 0 0 2
4392 1 3.6164001087656628 32.420193151304346 5.475077812046827 0 1 0
3440 1 11.314240796230013 26.18124109634325 23.982693400317263 1 0 0
369 1 2.5690403910136097 29.809000998586153 21.995373768199173 2 0 0
1252 1 16.249876437026227 32.751407259918494 3.983078878554945 1 0 1
1992 1 0.9412630636176579 19.33105601815378 22.64559341073928 0 1 -1
3577 1 16.591489651115815 1.7040244098834525 22.44471379027441 2 1 -1
3385 1 5.282777045768624 34.32625426036883 3.613102713408214 -1 -1 0
1683 1 10.821536182277722 38.94639378788399 3.234335985864362 0 0 0
2609 1 14.155080002996588 24.942484385687152 1.9635387999527232 0 1 0
246 1 13.479333671936889 33.89360780783093 4.207741042187693 0 2 0
4188 1 0.22536901160042233 40.78254035411763 21.84889654243363 1 0 1
2560 1 7.779181785623229 41.760704852357605 1.5108803745851724 0 0 1
4110 1 8.303013490149139 40.52372938732864 4.226236638916306 0 0 1
1267 1 15.121115219284949 39.0881627849201 2.9643439652499053 -1 0 0
3317 1 10.560764147915009 45.38806870678914 1.463420247641609 0 -1 -1
368 1 1.2911049850039038 9.272759262846737 14.4488381500892 -1 1 0
2488 1 13.479489426606468 1.3426313425766658 24.569011189473965 -1 -1 1
2665 1 10.079402379345348 49.33959349597116 0.9625717828304959 0 -1 0
3100 1 7.815448255670602 48.365287673603916 4.654542074115107 0 0 1
3625 1 2.677823795521809 34.118737022480744 20.646378541360207 0 -1 0
3390 1 5.65230308429181 1.5654936835564537 0.9193186000716613 3 0 1
2995 1 15.665514275838214 42.86688656765601 4.348302995662166 0 0 2
3213 1 15.72406821851663 46.12916552013873 1.1487039580737033 1 1 2
4602 1 15.989974529066394 13.978743750104467 24.08491625160144 1 1 1
2193 1 0.5434367295843381 7.072142905292579 18.25465721691053 0 0 0
665 1 7.377769615430266 49.74543712163448 0.3304966381138178 -1 0 -1
374 1 13.571887651291208 44.818505927415046 1.681414881184834 0 0 0
4272 1 10.359563383882426 42.4389599631572 0.5292041374222891 0 0 0
2319 1 12.957171458669318 23.766608483389142 23.822411570677836 0 -1 2
3500 1 0.5938023567238044 21.26681964467007 7.697375106650943 1 0 0
3900 1 3.3823002034765777 45.27762784615591 7.413391892111495 0 0 1
1838 1 0.6307573637023094 5.941016214559145 10.919960810756521 0 1 -2
2277 1 4.080463147682113 3.9709099776720254 5.160474479826327 1 1 1
3498 1 8.734443750438533 3.19055247309 6.672541932373897 0 0 1
2619 1 13.600279181147204 1.1073450930574746 1.5308107828412525 0 1 0
3089 1 0.9141751011057979 35.22142612182938 1.602054543878759 1 0 0
2177 1 9.863997306564187 45.88956919656145 19.293745238605478 -1 1 0
3079 1 11.540502213888187 0.5664562770229331 5.688102588105516 1 0 0
1832 1 4.4099488253341175 6.554118076807266 6.604577363547796 0 0 -1
2237 1 4.893524184994002 7.475630982635905 3.385815296798214 0 1 -1
2575 1 12.611302805358756 3.8242341747101642 2.8906205819416804 1 0 1
3447 1 16.82230316786038 6.651403129840534 1.2717662698479408 0 -1 1
4003 1 0.3171566040292296 13.250048564478925 3.0478375273038676 1 0 -1
2068 1 -0.037426077523246885 5.8133365044525185 3.7611336902036303 0 0 0
1289 1 2.312359210486702 11.483692549570188 4.418540570792999 -1 -1 1
1232 1 8.238571319901132 10.458770515639038 6.7441741838778375 0 -1 0
2751 1 8.916592550131385 8.59715650627302 8.611882575794283 -1 2 -2
1865 1 12.030253641746139 7.788812848407294 3.2974702829452873 0 1 -1
675 1 14.760680615939359 10.886048228029916 4.386439138359011 0 0 0
712 1 14.413683653326354 12.87856583986237 6.873592219200941 1 1 -1
1236 1 4.730267445528076 12.673962442113272 5.6417706256254565 -1 -1 0
1612 1 7.321606061846379 14.54948774919471 9.422571187212013 0 0 -1
316 1 13.058600153838745 15.51919301142686 7.759176716917847 0 1 -1
3043 1 1.9629901604388915 16.587394324358243 4.267717216320339 0 1 -1
898 1 6.94935477010172 17.95919935783656 2.433716437604489 0 0 2
2883 1 6.080304095594374 15.643929244533668 3.2855693411005866 1 0 1
3903 1 5.211144268544711 17.240975866004003 9.5397225695132 1 1 1
1782 1 8.95896039886524 15.284013446381362 3.863905219526179 0 0 1
3031 1 11.475981285999246 15.895893209759157 5.4275809495278 0 -1 0
4149 1 15.528938835774644 16.649811028222466 5.633548398001388 1 1 0
1034 1 13.853442596866767 18.864320776597097 5.054214973623437 0 0 1
925 1 8.52043416279733 31.23242121325336 0.6652564098640388 0 -1 0
3450 1 3.1569058911335137 23.416311029670634 4.264624170927136 0 0 1
1831 1 5.453678853373182 20.77809366013363 7.344422969596789 0 0 0
1247 1 9.103475821718927 18.400622868829416 3.8323237024883756 0 0 0
1980 1 15.329022661261838 21.32722206471213 4.839349854091332 0 0 0
701 1 9.851242998560588 19.14920732611855 6.391178505302402 1 -1 1
3785 1 3.043912293352037 27.593165039988254 3.9351399613994302 0 0 0
1198 1 6.992573103548945 22.549023686299325 6.317714595879813 1 0 0
1816 1 9.507904124836232 21.781610025887883 5.838798092799487 -1 0 0
2121 1 0.1722887030353307 28.741142499680382 4.742624613247111 2 -1 0
245 1 12.383797792132993 42.32818170734494 2.71152973241319 1 1 0
1712 1 5.711290262562096 24.671478876128376 5.064959582850305 1 0 0
663 1 11.44419825572856 23.451054806168848 4.4930930324370575 0 0 0
1619 1 13.746606394228195 22.27261635279411 2.8513475898792477 1 -1 0
4440 1 15.036511850635238 25.79387551066876 4.566934375119022 0 0 0
4076 1 0.38845311651628733 4.77419006948534 24.794629723574015 1 0 0
1885 1 8.040953060095832 27.035711145309048 5.250871811920002 1 1 -1
879 1 4.789539865003919 26.495231074565993 6.914372883347072 0 -1 0
133 1 7.876389240175395 24.17811755805188 8.334765305697626 1 0 -1
344 1 8.111842723320903 26.05861907030595 1.75599813122701 1 0 0
2043 1 10.986868415722345 26.647057588912407 3.2024130023422965 1 0 1
331 1 10.270944808954024 27.969043002211112 6.636948513134521 0 1 0
4291 1 14.437824313895083 29.32651580690355 2.3814034184386355 0 0 0
4482 1 0.23177907128632225 50.64211677444587 3.618968521136036 0 -1 2
2197 1 4.468328446818661 32.85034767491375 8.096143679407987 1 0 0
3369 1 7.497648519174879 30.596738650474247 4.512405958876541 0 1 0
2332 1 8.911540545419621 28.762572557428395 2.6190100092226403 0 0 0
755 1 1.0465692407765443 21.526226591624322 1.2092744417541785 0 0 0
1433 1 0.8998579928881255 32.25850488434985 6.538498933028034 0 0 0
964 1 15.784143604335817 47.05682412022374 8.212253103935558 1 -1 1
3107 1 9.084805472073787 31.275755293447205 6.70821900306897 1 0 -1
649 1 9.60091140505264 34.576814349986634 4.010532430160246 1 -1 1
3060 1 10.353484113053034 36.09143588512943 6.223065789370934 0 0 0
3869 1 14.931310099573565 34.32243270920675 7.041364320889099 1 0 0
4180 1 16.39540142671475 43.417294504158406 10.296790833873036 1 -1 1
1291 1 8.410632446342529 39.01322904449961 23.638612444764433 0 -1 0
273 1 6.3606462210025345 36.00904957270048 5.601622771449605 1 -1 0
214 1 8.583268586148238 38.244564249944645 5.922214162929396 0 0 1
3424 1 12.830054209568488 40.111923042308234 4.572543314141946 0 0 0
2448 1 13.302614570991302 36.26265668717694 6.124969210790341 -1 -1 -1
3314 1 1.2737751017638235 30.478118471341 13.960383718005378 2 1 0
4420 1 6.171515379963227 47.01711110775874 21.80140861712113 0 -1 0
1655 1 5.859966856995508 43.733346273086084 2.555017024086776 0 -1 1
4244 1 10.96715524464198 46.23911425762796 4.36521321060999 1 0 0
4279 1 11.8796861975343 42.23489121054783 6.394825275928187 0 -1 1
727 1 2.64446163565748 46.80168961296705 2.936598778554859 0 0 0
348 1 8.984036036221084 42.56004579997459 6.189495249283141 1 -1 0
697 1 13.052587419557687 44.418786953876776 4.920706331357382 -1 -1 0
3848 1 17.477392346003267 28.158111079003888 15.554479728873766 0 0 1
2636 1 9.61588135545628 2.6481070029150526 2.459557951956459 1 1 0
2603 1 1.3615046561235054 45.22866085879298 5.362040335710224 1 -1 0
4213 1 6.036617281083485 45.598188910009284 6.021712220941945 2 0 2
43 1 8.818518137076296 45.610353850836205 6.372445677509305 0 -1 0
1915 1 6.06297659060376 48.399564809690816 6.660427207915143 0 -1 0
2140 1 10.419554191431164 48.861609505800246 5.605794196281565 0 -1 0
2 1 9.27385459554225 45.96401888799045 9.066441129909709 0 -1 1
3884 1 13.420458438011183 48.14203392886448 4.9594510813389245 -1 1 0
2590 1 2.755821770652697 50.49448847835632 8.666415698678017 0 0 0
2991 1 7.866614928255113 49.923065691274786 8.187573478205238 1 -2 1
2772 1 10.449099641473696 48.71558470230849 8.407804272429905 0 -1 -1
3321 1 15.484049332554928 1.3515237274686869 3.859943701934484 1 0 0
310 1 12.587030134326097 48.832737097430424 10.49361167527991 0 0 -1
1353 1 16.90505983716526 4.72767930113476 9.52047513902353 0 -2 1
1212 1 4.378299744020762 1.4251412224549875 6.6558343609727375 0 2 1
1561 1 4.712095053596786 50.16998515467192 4.949585627600049 0 -2 0
3581 1 16.516890608319912 50.213367981509606 2.2507941982402637 2 0 0
3354 1 7.0427984914418555 1.6758514996094878 8.404844901776096 1 1 -1
3411 1 13.379390342959432 2.8530403057221054 5.691432363156052 0 1 0
1792 1 13.54933034906687 2.212493626864273 9.765180549117293 1 0 -1
1854 1 12.500301817285742 0.044726519961634875 8.16263510847404 0 1 0
2235 1 9.76896270836598 6.635340110001685 0.42034097985154467 0 1 -1
4045 1 15.583233825410948 10.062471130233323 7.399662018198604 2 0 2
3846 1 4.239372044460584 8.813785443449007 8.03795616112909 1 1 1
462 1 7.162911326714336 6.2443722671715935 7.795642378745987 0 0 0
2452 1 11.221017166446687 4.646497576314046 6.790063630465091 0 0 -2
3957 1 16.718894617437613 7.684073488243955 5.833833037749109 1 1 1
338 1 15.024473685859588 8.02229758400106 3.3708555965302245 0 0 0
805 1 3.87123737821342 11.575407098181648 8.067628883222815 0 1 1
4024 1 6.728623454460423 11.481000650030033 8.901365821980676 2 0 0
863 1 9.513787065310158 12.205801686548517 9.163040576204391 0 -1 0
3839 1 11.25345463161017 7.951976349517156 6.113398273061302 0 0 1
2457 1 13.789647587750661 6.369570776967297 6.787172008372538 -1 0 2
4183 1 12.199226685980754 11.081047440049465 3.6646600285797057 1 1 0
814 1 3.6025530545997633 33.06890840492659 0.08219884065109768 -1 1 1
2213 1 4.798892131703981 16.759782705354663 5.240318503134009 0 0 0
1501 1 2.6432440805854993 14.188374777869933 8.658525533453856 -1 0 0
1491 1 2.9532303099910298 15.978940248375515 10.876235994837115 0 1 1
4277 1 8.725130517748479 16.936968001144415 9.496099543589729 0 0 0
1961 1 7.689374327790358 18.97243851557096 7.826018499524015 1 0 2
2799 1 10.84303245462606 14.962832177121891 9.42815049669765 2 0 0
3664 1 12.575573404461235 18.034391327745816 10.0292644616492 0 0 0
2511 1 16.083070165046365 15.952590314376105 8.66274383532668 1 0 2
3939 1 4.150430919148606 19.377432774171854 5.237212197023622 0 0 1
125 1 14.623443317961481 49.457303186529046 6.977184060484388 0 -1 0
2078 1 5.103797441595795 14.884358511236805 7.623894225004623 -1 1 -1
1317 1 7.079475762811307 17.10784417170045 12.470618457745084 1 -1 0
1149 1 8.371161925078333 20.106376908652905 10.588688894325779 0 0 1
1532 1 12.603426248975168 19.029447203312547 7.411420715311953 -1 -1 -1
1113 1 17.125109682523313 18.866961156970156 8.390349682667347 0 0 1
4090 1 17.477961771153605 11.629372585638388 5.781452258219703 2 -1 1
3001 1 6.893298328568931 22.494542647855592 12.84855488107514 1 1 0
1496 1 15.953251653831634 5.131071499922063 25.21269298912329 0 -1 1
2595 1 3.328014207057791 4.199369580704038 23.512390303381874 1 1 0
1602 1 3.5058733137765805 22.348633714636147 10.541762972970597 1 0 0
4064 1 5.91210836423778 23.85090257793503 10.508733756295664 0 -1 0
2074 1 11.67050258002614 22.904032676749384 7.612822767253512 1 1 1
1445 1 17.118555707791128 38.26120389109437 16.45946096325334 0 -1 1
2455 1 1.5353527163123397 23.700937691048736 8.733170685733965 0 0 3
498 1 6.57444467147413 26.195553055375637 11.937277542057156 0 0 1
1356 1 8.899201401041443 29.126258075565417 8.689943287867916 0 0 2
1795 1 9.454251791778788 22.39819863186538 9.190971038525992 1 1 0
2294 1 12.528414460206175 25.83139512043295 5.638914172254894 1 0 0
2440 1 2.840663653692214 26.31082895454635 8.425288287158049 0 0 2
2872 1 3.667542173123864 27.145451914869923 11.337281019285044 0 0 0
1087 1 12.438369690587901 31.707712480902984 10.343850347350621 0 0 1
3415 1 13.306818802883708 28.84924242868861 5.796321903912352 0 0 1
1950 1 16.015231673718677 28.460014627062183 4.5720573055804925 0 -1 -1
4298 1 17.7638111255044 27.754610245360283 11.054994325368156 0 -1 0
422 1 5.922616389051848 28.64848920522823 10.130207514200702 0 -1 1
177 1 6.199637217358887 30.61754033507188 7.708466455912873 0 0 -1
4034 1 1.9871012794640661 31.999962948648076 9.486167442924973 1 0 1
98 1 9.729569686919694 32.4821010818234 9.700916839215353 0 0 0
266 1 11.75215979727369 29.836341344854528 3.7946946850454926 0 0 0
1903 1 13.840022330888251 41.758603338977906 24.088528419134743 -1 1 0
1515 1 12.965841878149241 32.198625530611224 7.6558475537147626 0 1 0
1039 1 1.5343274724189626 34.968458632014446 6.365817841460574 1 0 1
1146 1 9.63417418744955 2.778939951823476 21.746696480822955 0 0 1
1187 1 4.784836064799783 35.50762426428196 9.025783948334706 0 0 1
2594 1 7.386712716946937 33.572260101059726 7.013091841894772 1 0 0
882 1 9.173576662752657 34.93846180997282 8.648174490568623 0 0 1
4363 1 14.910331245675367 35.84191370766143 12.07703702197451 0 0 0
1303 1 11.914828728462341 23.314922855144903 0.6801958997051347 0 1 0
4210 1 2.499210884128446 40.4590781069254 5.613505016328351 1 0 1
3364 1 3.9429954536646235 36.64985693886172 6.827454743111667 1 -1 2
1362 1 7.186770388645513 36.54753278360788 9.82206729570623 0 -1 1
1688 1 8.924807261704805 38.931956439987474 8.670481512064027 -1 1 0
762 1 10.77152012990351 37.21082316839855 9.684087005030035 -1 -1 0
4556 1 16.123712062953192 38.93284402335706 10.414477892678278 1 0 1
4361 1 3.6583427313958343 42.9042095958753 1.5192688469707039 1 -1 0
1124 1 6.006471132336611 42.855600955502695 4.994200720766243 1 1 2
512 1 7.6807390315850945 41.37521069158743 8.43308112422368 0 -1 0
2521 1 11.768664971233457 42.242904811072975 9.21458671863371 0 0 0
4542 1 17.41955421207452 13.029496730745073 10.906782443048689 0 0 1
3316 1 4.373259945983655 42.229911288167884 7.363301461537632 0 -1 -1
2898 1 5.31269738093 42.40487303896565 9.845822080520188 -1 0 1
1983 1 4.546276731671556 45.09636812603276 10.27124598573022 2 0 0
975 1 8.34396327133242 42.98893501326927 11.096645842540708 0 0 -1
2342 1 11.787100314700725 44.81725150022227 9.112563466942213 1 -1 1
2402 1 13.667732194809735 45.912635189209425 7.276942727632984 1 1 1
293 1 0.07299245906735062 19.307046156294636 11.887739792607626 0 0 0
1164 1 0.7371766112811987 48.18316697885277 9.145472506030467 -1 -2 1
3355 1 2.9758881663346366 49.53463326444805 2.723516905729023 1 -1 0
1876 1 6.3729272778040995 50.01065922324345 10.504758776823417 1 0 0
2922 1 8.686767897122785 49.463820568901355 14.314446029521731 0 -1 2
3460 1 5.96686251045001 37.11948554932948 24.40820508032707 -1 0 0
3929 1 4.816652290492875 48.26738719442736 12.49060091967777 0 -1 0
1506 1 8.58297366407765 0.18566838638387856 11.808032086216238 0 0 0
2355 1 13.994377067957805 7.931698750455047 9.45487096256501 1 0 0
218 1 15.367286738554201 3.194985002031563 7.80888484708235 0 1 1
2570 1 6.435143167284501 4.612616756356923 10.089157575664087 1 1 1
476 1 4.195856150177177 2.902570163688287 9.74417645042821 1 1 -1
1584 1 4.016169873864494 0.5082271681769395 10.760752582560874 1 0 1
2240 1 7.898461463956809 2.239843731327935 13.490116719034017 0 -1 -1
601 1 12.453714829967995 8.656232285074335 13.062943686674808 0 1 1
3339 1 14.516185709752605 5.728033630472524 11.292839053781094 1 0 0
317 1 4.558028707165677 6.374068073392605 11.175048305794448 0 0 0
26 1 4.858684194423848 7.248465665418637 14.110413157710562 0 -1 1
1677 1 8.783982601082474 2.7788323807729283 10.381038260292975 0 0 0
2681 1 11.670919477524423 5.549688705528126 11.910362175787737 0 1 0
3153 1 11.240891451944261 3.6990646510930256 9.606528577508866 1 0 0
1342 1 12.058583569511345 10.46418100491784 14.981699199302073 0 1 0
2103 1 16.242791267517617 10.073404651281493 14.709602482134656 1 0 0
4444 1 6.078996916222232 10.891804587542875 11.700446472134589 1 -1 0
2309 1 11.379169298537379 7.038503248667891 9.1514847221717 1 0 0
2451 1 9.756257157088145 8.105815415287259 11.723436944525394 -1 1 1
3413 1 10.308482387575504 10.92683199999203 11.233527519160527 1 1 -1
679 1 2.8416622733560155 12.461915720214188 11.37014433081782 1 0 -1
3956 1 6.505141316296499 14.132199682511507 11.839607371772933 1 1 2
1452 1 11.724155427794953 13.594710217164867 11.732430349580143 0 1 -1
2759 1 12.120933339500866 11.814784994216394 8.330634067114467 0 1 0
2742 1 13.0981011679565 10.287611080464563 10.555596310044647 1 1 1
1005 1 6.709820045754078 48.45940742608214 18.76236420680183 0 1 1
3580 1 3.7813168315129375 14.111235536268508 13.470934099171355 1 1 0
2927 1 1.0972513885856263 15.47171773409017 13.22628511342725 1 -1 0
2540 1 9.866139253000943 18.315614221801823 11.540006895315697 0 1 1
3290 1 10.855088741977244 20.33856200025687 13.752859341528229 1 1 0
3218 1 14.905653306578438 16.21042631663786 10.765527880178196 1 0 0
2099 1 17.278735196291482 18.261597857822213 11.251908160305737 0 1 1
2201 1 1.753059439097229 19.190885978051337 9.581357401328011 1 1 1
3896 1 4.587736693505131 20.135185374811254 10.039004794062922 1 -1 0
3255 1 6.154002593306226 19.86558922788588 12.264595414928765 0 -1 -1
705 1 9.599540648273196 23.003533754271142 13.514134709470493 0 0 0
4077 1 14.417960865049263 23.59738637355062 8.913234823848578 0 1 1
185 1 15.084797436977716 20.658008994892402 9.763509145942827 1 1 -1
4135 1 17.437383936894644 21.91515802599908 10.948441872358842 1 1 0
1822 1 0.7673086398861253 44.22747981616685 23.903787908523636 0 -1 -1
1482 1 9.307595146063797 50.64054893029076 21.66349835331461 -2 0 1
3514 1 2.690357178184158 22.574076070359038 13.06580579770111 1 -1 -1
2120 1 10.639192358008218 24.1017435335466 11.063061162539418 0 1 -1
4214 1 15.962122869716708 23.595779058665766 6.369266083763384 1 0 0
3542 1 9.476100188680427 41.83580735288808 21.72969555795162 0 -1 -1
8 1 1.623803738537378 25.719527169971453 12.855837044575045 0 0 0
4115 1 7.225344252210226 26.781635957514993 8.202128841463807 0 0 1
2315 1 16.85807904662309 31.294689260486646 20.96637410288311 1 0 1
1952 1 13.136469512868858 27.52327875700533 9.116179752401246 0 1 0
4303 1 9.932506799774343 26.779008890483585 11.956193724072637 0 0 1
1419 1 15.497126524504033 26.247878642514756 8.63358619353982 0 0 1
2727 1 5.363928977879034 47.648131212909846 24.387282208237984 0 0 1
2695 1 15.34964136078293 41.86318939707742 1.252299027497347 0 0 0
3259 1 4.4394529944920755 29.413874364516637 13.79799058988394 1 -1 0
821 1 11.046352337966841 25.893313408017246 8.030337304042405 0 0 1
4266 1 14.385036518311303 29.931456953435443 8.304732465216974 1 0 0
730 1 16.83727276271065 30.051959676120173 9.786864342111224 0 0 0
778 1 4.021139544142117 31.07059288787722 11.011682335273365 0 0 0
2624 1 3.4975599635691426 35.36785623498699 1.485339941449839 1 0 3
607 1 6.198279712282953 32.371123803440426 13.33728907554354 0 0 1
1265 1 4.071010653481861 34.028234285831545 11.807070398289902 0 0 1
3987 1 11.191580049105978 32.35335669220896 5.3083531766683505 1 0 1
2214 1 16.16516399221137 31.03850378421536 12.418188067866252 -1 0 1
1789 1 5.3907545320163415 31.177259288725462 0.7347151276277308 1 -1 2
2136 1 0.4693310756452038 31.797446859743687 21.449993468964397 1 -1 0
1498 1 1.570186769597013 34.34359502452138 10.987408424805757 0 0 0
2223 1 1.6523322946358106 35.296314120082144 13.593910677374739 -1 -1 0
924 1 11.013367075707361 34.30296220329076 11.76867309633139 -1 1 0
4172 1 13.402812322027357 37.6774125962104 8.756778604689314 0 0 1
4427 1 15.848646928507884 4.089157582885754 0.22173433730386127 1 1 1
4434 1 1.0252687308231365 36.40806253192257 9.063561380342385 1 1 2
3615 1 2.7247576000971683 37.62713699697173 12.333074872822758 0 -1 1
2983 1 8.268673792609187 37.450844344169525 14.28143690780795 2 -1 0
2848 1 8.7818626232046 36.148378062498495 11.912324202805713 1 0 1
2566 1 13.242104460981215 38.235479604512406 11.526850438196746 0 0 0
1495 1 10.83843111027423 38.69703202594225 12.68968295147871 0 -1 1
4257 1 3.4236708656356947 40.7378764597365 10.883422773479046 1 -1 0
3437 1 3.1890410525864983 37.9236688142895 9.79930277779935 1 -1 1
1678 1 6.43426177497164 42.40388654337383 12.99832252620289 0 0 2
1826 1 9.939658834319397 40.71421389624635 10.97116897391174 1 -1 -1
3583 1 11.600349762133462 46.45111445624224 13.304940526781728 1 0 0
4255 1 14.692243288819759 41.325635205478974 9.645203477767094 0 0 1
277 1 13.084370783575688 41.33691373341206 12.087920944659677 2 0 1
1199 1 3.8450142784387893 40.871236769171304 13.530621622003453 1 0 2
4586 1 6.274544872928674 45.14577674843423 12.96508841912626 1 0 1
4 1 6.952549535328908 46.80286420953625 10.353931812356935 0 0 1
4033 1 9.703424546602504 48.06849703453442 11.635589985983254 1 1 0
1132 1 11.015001411041357 48.354112197519086 15.59961278180006 -1 -1 1
2905 1 13.36905544580102 46.03109225798978 10.951973951346583 -1 -1 0
234 1 9.441488736993339 44.30265315694852 23.552073569877603 0 -1 0
2769 1 1.7466410818690117 46.62454839714228 11.993319114682931 1 -2 0
76 1 2.658025998512387 42.865498855670424 14.982416695527982 0 -1 -1
4454 1 6.713162333234404 50.541010290034095 17.061553769830653 0 0 1
3138 1 15.324207202873906 49.49970788086914 10.682322083924548 -1 0 0
3462 1 3.151075042346443 47.957418575613175 6.901314118110179 1 -1 0
657 1 0.5163665287442747 40.37996153898477 1.0624375009436233 1 -1 -1
298 1 3.296096834068237 49.404893637568534 14.768313045291018 -1 -1 0
2480 1 3.1941017633425313 3.985950912489762 12.323762923416025 2 1 0
3629 1 4.13003826219445 0.96104549401299 16.26437889194896 1 1 0
1632 1 8.703225203038919 1.0198444150310342 15.867489265486414 2 0 0
1538 1 14.095039907562036 2.3701199945864 15.980710758222287 0 1 0
2525 1 14.24749503616697 0.9398043331823303 12.14547201727707 1 1 0
4211 1 16.17757948123629 46.84293806715101 11.130898909273435 1 -1 1
2895 1 1.103733299938318 4.232104554939347 8.937025620100751 1 1 0
2974 1 5.170574431251714 2.6872386652012925 14.090145998161864 1 1 0
572 1 9.952425748516447 4.178252151768488 13.832763938882596 0 0 0
2985 1 13.029807238782627 6.92198464235503 15.490013529810446 -1 0 1
1647 1 11.603007326134495 50.74315082682813 12.602561917031618 0 0 1
1256 1 14.021092950384926 9.51840226891654 16.386318958632888 1 0 1
2944 1 14.973329218235781 4.873833357297162 15.509157118009444 0 0 2
2180 1 16.392647657800975 5.360361330872284 13.396656663155092 2 0 0
1053 1 1.9100100067162908 6.574071321815776 14.059208723682021 0 1 0
3333 1 4.28083357328104 5.374317897132831 17.230760983727745 1 0 0
815 1 8.701720346401764 6.057430485669928 15.496265848057748 0 1 1
3923 1 13.881249659057879 49.64309667617455 23.848678127471103 1 1 0
2083 1 6.34186492567414 8.409782743477955 9.756667965042315 1 0 1
3465 1 5.512446619891095 9.72287266561475 14.336148564472207 1 0 0
3856 1 3.1565956256109975 10.674998486539055 16.084383549023894 1 1 0
2065 1 8.225176882093685 8.36413753913081 13.88591993458352 -1 1 -1
3763 1 8.312425298665167 11.34675108837137 13.537641879223017 2 0 1
3161 1 15.031886527843705 14.688163479324068 15.829683963551055 0 0 -1
2218 1 11.293547875862595 13.107947717034367 14.481458306628863 0 0 0
1471 1 15.469222925370124 12.657832858562337 14.075606473697166 -1 0 1
1341 1 17.4326023041505 0.3248718637170065 24.989316963624276 1 0 0
78 1 1.2157820871635463 44.95196362499438 9.63585975286297 0 -1 0
1691 1 3.5678654343341183 13.554653799611831 16.228018901684177 -1 -1 0
2640 1 8.825394652795342 14.278005207455807 13.488076812558031 -1 1 1
3078 1 10.284223525494147 16.796065796141956 13.900432072951336 0 0 -1
2437 1 12.093536581040022 15.328423135366643 16.08429084500143 0 0 0
3563 1 5.11902381209129 14.804250093612772 18.30163653633584 0 0 0
4071 1 6.90228547291338 17.03158233052464 15.32599815134642 1 1 0
3528 1 9.033627207125084 18.873173737056653 15.637135240163678 0 0 -1
1864 1 12.576466331782923 18.451130388362735 15.431393667519314 1 1 1
1654 1 14.44541253941184 13.20527342360402 11.522260598032698 0 0 0
1040 1 14.787424741644791 16.655630849125828 13.739582808839042 0 1 0
415 1 4.080834697362374 17.159468630553008 13.708349994042862 2 0 0
32 1 9.64158405524665 24.74132135208034 15.738442053304066 0 0 0
4229 1 12.59295170171123 24.14419251845964 14.248336628599288 -1 0 1
357 1 11.524240840975871 20.356519216425134 17.66217356750313 0 1 -1
696 1 13.121232975810775 20.139858997872206 11.938843964561313 -1 0 1
319 1 7.13731175840568 34.47419697898586 24.64881312271778 1 -2 0
3343 1 5.111345695349562 23.560936331331693 14.399946577820312 0 1 -1
1525 1 2.7169246138819445 19.656950791903505 12.773996206715548 0 -1 0
1543 1 13.037457242217194 23.081542919229282 11.476051715915071 1 0 1
1645 1 1.076198032038042 10.885700270416374 9.71198722107795 1 -1 1
961 1 16.029682028757392 27.25943938683629 13.451999839316253 0 0 1
690 1 2.089199489432218 27.92111822200765 14.571581628110566 0 0 0
38 1 9.215806350615406 30.093086958114668 13.100469125195117 -1 0 0