LAMMPS data file via write_data, version 29 Oct 2020, timestep = 100000

8540 atoms
1 atom types

-0.2631748775528777 104.60760663327112 xlo xhi
-0.13440932300073527 51.041529323000816 ylo yhi
-0.13440932300073527 51.041529323000816 zlo zhi

Masses

1 18.015

Atoms # atomic

2045 1 2.925238881925678 1.2239127775878074 2.2648778960361886 0 0 1
1956 1 1.408062710751618 2.868977631714635 0.6873208557355792 0 0 1
1958 1 7.619162182835237 2.591879763863279 0.7142403509759367 0 0 1
2047 1 11.094488986685056 2.6076348335071735 3.5965046531074916 0 0 1
1959 1 9.361125638021864 1.005764920798158 2.1951614140010305 0 0 1
2049 1 17.490098058065666 2.4699461132232208 3.330813696554562 0 0 1
2043 1 15.886901539588894 0.724847382150472 1.7803693770651372 0 0 1
2622 1 20.802907353039252 2.4062593884648735 0.6537907752895261 0 0 1
2623 1 22.301681541038867 0.8065357829801283 2.4797553421472522 0 0 1
2705 1 28.26332845152978 1.264681432996864 1.7570755410101313 0 0 1
2706 1 30.145982787459744 2.8394240828891735 3.47302768765833 0 0 1
4210 1 34.617292590172546 1.0538168205729888 2.304565077523948 0 0 1
2625 1 33.09537657128136 2.8866450502591667 0.7891193097596456 0 0 1
2052 1 5.872709085875914 4.229445171960727 2.5533550627626327 0 0 1
1963 1 4.116873122605086 5.929186262350185 1.040801874844526 0 0 1
1964 1 11.232815886165666 5.600264380777896 0.7020534944945956 0 0 1
1961 1 12.797781222772485 4.086594176686512 2.041433788640351 0 0 1
2709 1 20.66015211106881 5.915127438116623 3.6007117331992364 0 0 1
2633 1 19.157683237456947 4.0529742499696395 1.819049000477766 0 0 1
2629 1 24.96283284010335 4.652942296340017 2.029098335699852 0 0 1
2628 1 23.2937283256538 5.942666747908114 0.680403941991931 0 0 1
2707 1 31.350747110500606 4.589681748322479 2.001076798053684 0 0 1
2631 1 29.67216644765682 5.9924015294194835 0.5905810675204837 0 0 1
1962 1 2.680336543707667 7.745528159733879 2.3216625067860233 0 0 1
1968 1 7.811528938083022 8.88514671893858 0.6586200430666875 0 0 1
1969 1 9.407219307206175 7.265995595756803 2.0477384342813516 0 0 1
1965 1 15.778907587571474 7.123677576824032 2.1020929060510745 0 0 1
2635 1 21.887509661428396 7.567612610599457 2.102064135755827 0 0 1
2711 1 28.122119796439858 7.648034494830436 2.076152164975847 0 0 1
2637 1 26.741374013368116 9.056598183579307 0.4744885124778464 0 0 1
4868 1 34.64135788345017 7.038630739706452 2.667707895655846 0 0 1
2640 1 33.42029977134097 8.800262274063575 0.8647664134593487 0 0 1
1967 1 1.0025636961608186 9.247844700148066 0.7772548456133681 0 0 1
1973 1 5.936680646325384 10.460925939122808 1.961794332193445 0 0 1
2064 1 7.594853291154003 11.961190240149968 3.576064358017646 0 0 1
1971 1 12.448748735404084 10.678172170074214 2.3678599259846997 0 0 1
1970 1 13.943675260810545 9.137774313896372 0.8473573843185059 0 0 1
2130 1 18.71562169823374 10.579534248313742 1.975678193296273 0 0 1
1977 1 17.135785776560354 12.041845180205923 0.5280324511836897 0 0 1
2715 1 23.51206077760519 9.187971900478368 3.4996027601906325 0 0 1
2638 1 25.23533535459408 10.988390271432904 2.0980964582775194 0 0 1
2643 1 29.908512201268913 12.109690250178843 0.6570665456976328 0 0 1
2719 1 31.997856806022654 10.843085189501299 2.206522620569877 0 0 1
1978 1 2.9109573237595074 14.051336860435438 2.175795137462088 0 0 1
1972 1 4.5082064610555985 12.48765223643158 0.6546335318494011 0 0 1
1981 1 9.178404848491512 13.76731029735802 2.2186250858343346 0 0 1
1974 1 11.079727547969316 12.511369254552479 0.6796742147346887 0 0 1
2073 1 15.532296924343909 13.6085370536369 2.194308355475467 0 0 1
2717 1 20.285021302635727 12.227351166938083 3.590243984207056 0 0 1
2645 1 22.23986414885958 13.814669893727087 1.8595066685075796 0 0 1
2718 1 26.974135585104644 12.49415895981606 3.485083238308104 0 0 1
2647 1 28.591432387126495 13.903856216226485 1.9243887119269534 0 0 1
1979 1 1.0587561527019302 15.737526465746942 0.5612690787959788 0 0 1
2071 1 6.151951658816969 16.910200909297302 2.547864803170887 0 0 1
1980 1 7.876914291457243 15.777071495982034 0.6519826716227125 0 0 1
2074 1 12.699041016041347 16.984780616922112 2.68540646445451 0 0 1
1983 1 14.326468258047752 15.564419098635554 0.846743621625672 0 0 1
1875 1 18.580917157466835 16.826696557003277 2.0597089994587368 0 0 1
2644 1 20.494101855519936 15.402682385061063 0.483505445213119 0 0 1
2722 1 23.754303589631512 15.37165769422517 3.4478670900524953 0 0 1
2654 1 25.194123532693027 17.088401111713612 1.4740636447963782 0 0 1
2656 1 31.714229376404646 17.309379107361497 2.352838469549489 0 0 1
2649 1 33.1009477199887 15.514306618904742 0.5771358635594883 0 0 1
1984 1 3.1546372996949748 20.528176953040116 2.565276842006129 0 0 1
1985 1 4.3326268036476385 18.56269870974687 0.9057545601353931 0 0 1
2078 1 9.46177314098798 20.23602598439062 2.342092550405323 0 0 1
1987 1 11.200266393188578 18.621272982691746 0.772547532397173 0 0 1
1988 1 15.566919275948312 20.391767316757583 2.438155934282332 0 0 1
1989 1 17.069664939234897 18.825880330814503 0.6502670744107474 0 0 1
2652 1 21.965438175072897 20.11353316598609 1.9739898031992609 0 0 1
2729 1 26.743908919850004 18.713060761877696 3.4287796789730267 0 0 1
2733 1 28.254640256465652 20.191899930627102 1.8399310092921823 0 0 1
2730 1 33.523063541648135 18.964359932646055 3.5304154536167696 0 0 1
1990 1 1.3885811117254239 21.766202819821856 0.5994375298302537 0 0 1
1991 1 6.105994283208334 23.79992742092309 2.1514694078974794 0 0 1
1992 1 7.542922230550627 21.993454756448084 0.6043139365351576 0 0 1
1998 1 12.4321474030307 23.310782234438953 2.0815090433534826 0 0 1
1994 1 13.992220963858202 21.75944359847473 0.5914849133802684 0 0 1
2059 1 18.261906172578424 22.93506067789555 2.045358718429532 0 0 1
2658 1 20.325525543004893 21.898818115654866 0.5258723845316178 0 0 1
2737 1 25.195226360328792 23.46257414714654 2.048666108256518 0 0 1
2734 1 30.06831035826724 21.757037425881567 3.3479137107259227 0 0 1
2739 1 31.93841954394938 23.547991551533165 2.303585213876912 0 0 1
2661 1 33.311590248991656 21.783436796020098 0.4929546823248502 0 0 1
2087 1 2.520425518221073 26.248291652741592 1.8120911905969248 0 0 1
1996 1 4.460961199234913 25.15441976552354 0.5447831534911688 0 0 1
2002 1 9.460369280159988 26.65490636363081 1.9853147791377244 0 0 1
1997 1 10.932797806920615 24.879328137648088 0.4223970748224879 0 0 1
2090 1 14.033419454602024 25.499735885823384 3.525888498973184 0 0 1
2095 1 15.806717163618533 27.04653534711056 1.9466873032366818 0 0 1
1999 1 17.04766970034356 25.047754756324398 0.6529713498733898 0 0 1
2736 1 20.208936206754288 24.587512711251865 3.515473378106359 0 0 1
2667 1 21.616424969174513 26.38061522715282 1.8778173477291875 0 0 1
2742 1 28.31571667726871 26.318084648570675 2.1267096244255326 0 0 1
2091 1 4.365826595234917 27.997957251507817 3.264068426479179 0 0 1
2099 1 6.0400034795438025 29.919297707159046 2.136728940126335 0 0 1
2001 1 7.807452841643181 28.51518782159312 0.6180962593346297 0 0 1
2093 1 10.757182554618183 28.314219457066304 3.609149674989409 0 0 1
2092 1 12.503841237086169 30.05429995570636 2.2370661128191607 0 0 1
2004 1 14.15686544412619 28.64809586853569 0.4934366582808787 0 0 1
2165 1 19.153203295513425 29.797590372873398 2.1517912735657956 0 0 1
2666 1 20.187275692247123 28.042382102875784 0.43397135787896235 0 0 1
2741 1 23.518981853054843 27.745835800925843 3.6139405676618686 0 0 1
2673 1 25.00561812965615 29.718574136784817 2.2843443668566965 0 0 1
2668 1 26.798691865189813 28.187344329998986 0.6660811891902717 0 0 1
2743 1 30.406650307069288 27.824213611894677 3.17959918552228 0 0 1
2670 1 32.17117067963643 30.00700348752469 1.7861718407689167 0 0 1
2669 1 33.66425522389827 28.222884329482046 0.44943841757514813 0 0 1
2098 1 1.5304586205427921 31.811410390044834 3.3058542900138446 0 0 1
2005 1 4.525642327882049 31.633771671248518 0.4404625964493515 0 0 1
2006 1 10.907942896099883 31.625094125539157 0.7649203977695596 0 0 1
2009 1 15.74917704203201 33.10973854866785 1.9620405418579616 0 0 1
2008 1 17.421567690045787 31.427315673270588 0.5273146388903399 0 0 1
2747 1 22.21754269222551 33.011152213203786 2.0518675082216435 0 0 1
2749 1 28.607088586285137 33.17204586251751 1.9231216996662326 0 0 1
1549 1 -0.12832990777341957 36.10642152578433 1.9906081862236604 0 0 1
2011 1 1.8102450899872053 34.433755294648535 0.7085587563746464 0 0 1
2013 1 3.4107911460021234 33.25104953948163 2.3111778671931154 0 0 1
2014 1 7.738061153059288 35.085960596944815 0.8211069698161898 0 0 1
2007 1 9.193268458963505 33.352756020195855 2.3190376285093763 0 0 1
2016 1 14.347825205276267 34.977171712781484 0.8736655602466454 0 0 1
2157 1 19.134172145217686 36.14095751609284 2.167138329132588 0 0 1
2676 1 20.606340618964296 34.50053016304827 0.7404064767025694 0 0 1
2650 1 30.269624540675824 34.71064141123608 3.5534086490859815 0 0 1
2714 1 31.799213624776385 36.20007744392868 2.2020395212979667 0 0 1
2104 1 5.888882628985994 36.73101428453192 2.1810781610666643 0 0 1
2105 1 12.376917712036974 36.36084349894067 2.260126825604959 0 0 1
2021 1 10.956995825879787 38.02032965587554 0.6999990576633393 0 0 1
2110 1 15.517227860599277 39.20093643084702 2.2604707579304635 0 0 1
2022 1 17.29812820540631 37.542812911026346 0.6297101887159443 0 0 1
2681 1 23.28949900687862 37.80500635726352 0.8346704350059627 0 0 1
2682 1 25.30421829127452 36.226532794319425 2.022895731127403 0 0 1
2684 1 30.05413586509108 37.79419289697498 0.46020007282233155 0 0 1
2094 1 2.5993275738095827 39.52151492525823 2.1012407434316334 0 0 1
2020 1 9.297109172614364 39.55449721017605 2.396475556070905 0 0 1
2025 1 7.45698375179696 40.95401675404729 0.8109720941628666 0 0 1
2731 1 23.75403164819193 41.30929592625546 3.58056760145631 0 0 1
2604 1 22.019913302251155 39.744143779188136 2.1121492561896527 0 0 1
2687 1 26.708598182501206 40.72604119831992 0.4263837291668058 0 0 1
2675 1 28.631851827718993 39.45495279685281 2.144914366134293 0 0 1
2746 1 31.641399340584524 42.102883380808905 2.1173096124708284 0 0 1
2039 1 1.5066240875983932 44.12693821365518 3.461959404716938 0 0 1
1938 1 5.809747198275729 42.63226824643313 2.3959235516159256 0 0 1
2030 1 4.516836780209723 44.38524397370519 0.4968841579933694 0 0 1
2026 1 12.284595719162338 42.70403805568999 2.117540234084567 0 0 1
2031 1 10.497655637041525 44.09382131412394 0.5558077722829924 0 0 1
1815 1 13.834968322040892 44.325954322279784 3.3104342689212487 0 0 1
2082 1 18.7616737605299 42.622206655504115 1.7470059650455838 0 0 1
2032 1 17.083313570103375 44.302421496750284 0.6350565560144718 0 0 1
2726 1 20.51719923312643 43.966388888884126 3.4745969504642487 0 0 1
2721 1 25.208741470413095 42.82322784908183 1.4813573651016414 0 0 1
2662 1 33.599719731142706 43.93511788626259 3.471851734846335 0 0 1
2034 1 1.3214768778230708 47.5759447789776 0.7585059681393216 0 0 1
2029 1 3.025286591914224 46.035658422329035 2.059945231375593 0 0 1
2036 1 9.204550068591132 45.89328946239188 2.0014713542958447 0 0 1
2035 1 7.454510022813937 47.53491386024497 0.5657672130913899 0 0 1
1829 1 15.345585228472027 45.88531535455559 1.9370479965236473 0 0 1
2627 1 23.851667664121223 47.49262001712087 3.546164857800417 0 0 1
2724 1 22.059431577786473 45.83620400732545 2.1614489900716007 0 0 1
2698 1 27.07683389144928 47.281397383346444 0.5884131684756747 0 0 1
2696 1 28.632354321687103 45.26419162385409 1.9175243924560603 0 0 1
2735 1 34.56847687708473 45.86793376004577 2.1247541373429537 0 0 1
2700 1 32.900276309062484 47.57319119375504 0.43241427025823 0 0 1
2040 1 4.237623648432983 50.77162495086438 0.43810683657630556 0 0 1
1655 1 6.199296643093554 49.435000624224784 1.9910739083974707 0 0 1
2042 1 12.368229075403075 48.814869409194 2.0330486456342336 0 0 1
2041 1 10.625150138319635 50.57186411914029 0.6212758754983101 0 0 1
1409 1 14.234780882070705 50.36634130396776 3.521845447715781 0 0 1
2120 1 18.59050495324937 48.41844499093891 2.031539679651668 0 0 1
2455 1 20.239183416505572 50.383182155967006 3.543982785606835 0 0 1
2701 1 23.513057918789812 50.779511951250214 0.43693521951253556 0 0 1
2348 1 26.948284513086794 50.844660379260404 3.5798377349468717 0 0 1
2354 1 25.389056979161698 49.283452954152295 1.9830807016887886 0 0 1
2225 1 31.371303196532363 48.98331149745019 2.215943347815434 0 0 1
1239 1 33.28589939850647 50.704866129468556 22.86712071084515 0 0 0
2046 1 4.3382120416738434 2.743110506650514 4.099266938705782 0 0 1
739 1 6.14696935235381 0.8370112474074906 5.372715095149673 0 0 0
3 1 8.097421786878963 2.8218854457064815 6.788081541567417 0 0 0
1413 1 12.511330902147327 0.7921303733583225 5.037770749303595 0 0 0
4 1 14.049555694216007 2.270020943915577 6.3973818294420965 0 0 0
2752 1 18.92627820693514 0.792198419939343 5.242758885911252 0 0 0
770 1 20.341165042377618 2.5913393194785637 6.691172385779553 0 0 0
2704 1 23.81106825320772 2.7309378776437403 3.8407766630783606 0 0 1
1377 1 25.624063701408822 1.3653677763800205 5.3785314529409485 0 0 0
2235 1 31.36291162398964 0.9173831569880233 5.164597909530454 0 0 0
774 1 33.22285203618759 2.281218882180521 6.397894319160267 0 0 0
557 1 2.765641639722207 4.727175774671803 5.356586285962514 0 0 0
2053 1 7.733104065177777 5.872930274618443 3.7079944566111576 0 0 1
1425 1 9.517870582483079 4.193851695972543 4.898304391336016 0 0 0
10 1 10.912479335674705 5.533066398955376 6.515831400308944 0 0 0
2055 1 14.153189470038171 5.901453673862175 3.718146259784984 0 0 1
1854 1 15.692641247962962 3.8181355170019424 5.102612499049698 0 0 0
1373 1 22.182074235481778 4.447111364201106 5.340857844578024 0 0 0
2230 1 28.25867128516774 4.34428227342407 4.6532287298854556 0 0 0
777 1 29.85715433381551 5.631122612626242 6.747238125850483 0 0 0
2712 1 32.7375734722126 5.6903865913277265 4.022677582113142 0 0 1
4211 1 34.607895618995215 4.001852932185221 5.0774050866270555 0 0 0
2050 1 0.936173667996046 6.597188848974849 3.895262872699175 0 0 1
2058 1 4.265704873473772 9.079540961418516 3.912841451644211 0 0 1
1466 1 6.229548143775119 7.667732345201877 5.264284368223863 0 0 0
17 1 7.692720809988922 9.096933198576613 6.728180754965371 0 0 0
2060 1 10.816051637878125 8.989115572697111 3.841025433642469 0 0 1
636 1 12.506401818504369 7.4284431399688495 5.359218304667712 0 0 0
2062 1 17.078953153264187 9.107823081155733 3.8545022509042832 0 0 1
635 1 18.565543957410785 7.516693319146817 5.413803940091779 0 0 0
2710 1 26.33147849119712 6.201621676171279 3.853678844209696 0 0 1
848 1 25.236669036378114 7.909448774336278 5.393566960923296 0 0 0
1367 1 31.40464530207249 7.4588061358389295 5.557575681167353 0 0 0
71 1 2.599767622159321 10.699847910089451 5.430182515342275 0 0 0
2145 1 9.242933166018611 10.863619447341964 5.214979377977371 0 0 0
67 1 15.536940919698655 10.74896717283453 5.628836803873082 0 0 0
2211 1 21.48445886617202 10.69626645862599 5.083268588358416 0 0 0
2758 1 28.361822961902817 10.849246032336891 5.245420023520822 0 0 0
2716 1 29.855336944589656 9.309075962560819 3.7108339801677515 0 0 1
3448 1 34.63312821818146 10.509390796322878 5.427240671766688 0 0 0
2063 1 1.2132313385403863 12.686878789938877 3.8670194946148797 0 0 1
164 1 6.097106227773394 13.41067487898029 5.668169881468499 0 0 0
2065 1 13.977259808878769 12.191388073661097 3.888917982962467 0 0 1
742 1 12.507415983348686 14.004187980282266 5.35108999325956 0 0 0
2124 1 18.79408930011602 13.960295206312232 5.271275217355521 0 0 0
783 1 23.635782822074137 12.139156814821169 6.668007172500376 0 0 0
2559 1 25.315942369142526 13.924609354272967 5.108971153672661 0 0 0
2720 1 33.42084770186811 12.664279811447445 3.7271676539093064 0 0 1
2761 1 31.617828900769922 13.921590478721532 5.1480267070675785 0 0 0
87 1 2.8855624411753857 17.26020551754276 5.637340086261928 0 0 0
2070 1 4.65590998863641 15.340086845680009 4.111696131250848 0 0 1
2072 1 10.894962895678514 15.274091924413106 3.7617859850566053 0 0 1
413 1 9.482906187285385 16.910008019326426 5.68235643434061 0 0 0
2075 1 16.9942792191268 15.200618683455781 3.6502653542310446 0 0 1
296 1 15.6883198400112 17.092966604153492 5.365905238251905 0 0 0
2185 1 22.132357760479128 16.758186755464006 5.171862707541834 0 0 0
2703 1 28.192594545688124 17.29710250325036 5.127796941812043 0 0 0
2723 1 30.07084133341081 15.574298898452817 3.67831217378673 0 0 1
789 1 33.330363896957486 15.472424154161057 6.532533215995403 0 0 0
2076 1 1.3035848640715368 18.803686780077786 3.6336581710434595 0 0 1
2077 1 7.955898278614033 18.58665952629749 4.147963748013236 0 0 1
743 1 6.4117644881159475 20.113336625172984 5.548521281024049 0 0 0
2079 1 13.995616321192689 18.804696730166818 4.086582932161986 0 0 1
117 1 12.57504556879959 20.551330663589745 5.556386590488236 0 0 0
2728 1 20.423276610019094 18.227868393170112 3.696396689498968 0 0 1
1375 1 19.004504352661517 19.938400708599623 5.38745258737453 0 0 0
790 1 23.38618350210088 18.542300858393478 6.719525682764181 0 0 0
2192 1 25.08875990645103 19.916954570347396 5.167815600830389 0 0 0
793 1 30.00282561731561 18.87594742979603 6.81313739404123 0 0 0
2262 1 31.791201522316953 20.346884898700743 5.190909341481417 0 0 0
2080 1 4.909672446460506 21.98710831815305 4.089588830990336 0 0 1
765 1 3.161236225974155 23.28131056969 5.51090908802041 0 0 0
766 1 9.104043329330779 23.584888750178045 5.546565170897839 0 0 0
2081 1 10.579269823451616 21.940273036583886 3.79806778536868 0 0 1
2083 1 17.222543665128736 21.50882408107729 4.048019192035334 0 0 1
1543 1 15.675242948037994 23.465722420082276 5.184438735372897 0 0 0
2475 1 21.872019802965138 23.13118560611453 5.174265174486821 0 0 0
2732 1 23.642194365918566 21.854893532921448 3.628497043420801 0 0 1
797 1 26.71919517438722 21.440613748593034 6.495682477232065 0 0 0
2270 1 28.586769959147635 23.259688308414667 5.231811511012427 0 0 0
798 1 33.66460912971882 21.580253714034733 6.7748054612649256 0 0 0
2085 1 1.3417400219928708 24.57600261071473 3.92441161769922 0 0 1
1464 1 5.9228004808842805 26.461539918047574 5.224401078236538 0 0 0
2089 1 7.7731522419706405 25.328164760192475 3.6397687151699 0 0 1
1723 1 12.474823368666641 26.9145211838571 5.053769245408171 0 0 0
54 1 17.115102840075753 25.05110315301293 6.768176676136397 0 0 0
2402 1 18.918772323159608 26.421910606364513 5.299962363134769 0 0 0
2760 1 25.08878800609428 26.52538122346224 5.320502245100422 0 0 0
2738 1 26.601626372920485 24.701877215232425 3.8491775359786033 0 0 1
804 1 30.116859065229953 25.051720008363212 6.652506767627216 0 0 0
2740 1 33.81703077598454 25.060797652102654 3.8242726028360607 0 0 1
2191 1 31.93656039858697 26.43194539441509 5.225937775097976 0 0 0
56 1 1.6094326658279905 27.958296696408855 6.583391116028877 0 0 0
1473 1 3.0263443855751566 29.604187150407867 5.117352560521598 0 0 0
58 1 7.5079249857850625 28.181643411838504 6.801265410048662 0 0 0
1468 1 9.3064002830912 29.81891985036718 5.302041799550871 0 0 0
60 1 14.270771537414602 28.11953053206192 6.632619704849579 0 0 0
2096 1 17.39366377311447 28.403300475481764 3.9015226873706075 0 0 1
806 1 20.46331415822704 28.157851873947173 6.78928316839187 0 0 0
2765 1 21.991914454493088 29.684119405075375 5.227201821448108 0 0 0
809 1 26.915701311057326 28.414002275684812 6.578196205048941 0 0 0
2387 1 28.68983233126807 29.540610387754533 4.744218238286526 0 0 0
812 1 33.50227897538059 28.27461670962319 6.729970728419531 0 0 0
2665 1 30.290230146169947 25.18909984399751 0.387557721074857 0 0 1
2100 1 7.381446042697103 31.6787046159084 3.9143248253033516 0 0 1
468 1 6.152978300405801 33.123423489219434 5.609446910482931 0 0 0
580 1 12.136509102917923 33.00858324397963 5.578123164074841 0 0 0
2101 1 14.055757265118654 31.760372945925955 3.715054720591434 0 0 1
2149 1 15.539213799621807 30.317787498082907 5.290606932431244 0 0 0
2745 1 20.66904223124759 31.354307475189025 3.684687597972976 0 0 1
1374 1 19.071196246461632 33.00610742047148 5.459599124063502 0 0 0
2318 1 24.851158919149274 33.115609141678064 5.063749884693486 0 0 0
2748 1 26.785872019209375 31.582581920565897 3.699984086752543 0 0 1
816 1 29.814174669506603 31.177766921889408 6.631967871602002 0 0 0
2750 1 33.5565344868399 31.24879756899986 3.7609031818529766 0 0 1
2763 1 31.680996845156994 32.85639550788761 5.147442527235341 0 0 0
532 1 2.6843345758309995 36.19133408942447 5.537540156430099 0 0 0
2103 1 4.672316997342669 35.035817832931656 3.9785523880088762 0 0 1
2106 1 10.990699528074826 34.59952279534512 3.8270405803776724 0 0 1
2134 1 15.557540345297756 35.7939975403369 5.295304029679165 0 0 0
2107 1 17.417144987937593 34.39392247162429 3.6588039422863456 0 0 1
2727 1 23.538204665849996 34.82979893885408 3.676124017841164 0 0 1
819 1 26.940385584371086 34.5204310315613 6.5238122832070875 0 0 0
2108 1 1.3423418287240618 37.937961054517075 3.7907593315422377 0 0 1
2109 1 7.730905461935129 38.1391258205569 4.275272775815326 0 0 1
755 1 9.355776395151244 36.31793893212675 5.6603483785645485 0 0 0
2097 1 14.232669369116493 37.946151611918836 4.266620814479632 0 0 1
79 1 17.048355943420784 37.749568699768574 6.7915208310210895 0 0 0
2615 1 20.65687237428129 38.0681458931886 3.77084803240866 0 0 1
1368 1 22.070503374158104 36.30830514916086 5.376057500193083 0 0 0
823 1 23.678596104303043 38.23218081010596 6.786663051206915 0 0 0
2708 1 26.93085423313569 37.83658250328499 3.631577569180324 0 0 1
2167 1 28.553414689566303 36.291389456350245 5.185531284452464 0 0 0
2657 1 33.27143319051287 37.862622156051415 3.908646361086407 0 0 1
2113 1 -0.11261054643307891 39.72643898680822 5.285717915227137 0 0 0
2088 1 4.346038461081258 40.88185360910683 3.8389361512093267 0 0 1
223 1 5.946558739262622 39.646306164243526 5.571297964654805 0 0 0
2069 1 11.084667963738353 41.011899638645545 3.646978348875412 0 0 1
65 1 12.482792345967587 39.77060554295153 5.6645055056004985 0 0 0
2067 1 17.248362165784563 41.115501073550504 3.738932479483589 0 0 1
1396 1 18.68904013728468 39.32571513510261 5.194673448469999 0 0 0
829 1 20.217455530161214 41.003735832985 6.684957273101669 0 0 0
2182 1 25.36359490884283 39.528132594149284 5.0724464781270395 0 0 0
2713 1 30.095358618499247 40.88037936312797 3.9426734496668603 0 0 1
771 1 31.6252680689646 39.40247228128783 5.693904063920422 0 0 0
768 1 2.773882414878475 42.597949301629086 5.512700447630024 0 0 0
88 1 4.55606228557517 44.143047015848595 6.79084647648943 0 0 0
2018 1 7.669526029455798 44.251037760643456 3.8015666325302555 0 0 1
2150 1 9.408639837899068 42.62515707458718 5.123404237092174 0 0 0
1449 1 15.54418697150124 42.74005597480442 5.012298492005606 0 0 0
1370 1 22.13372060410658 42.66757759562992 5.334355347414702 0 0 0
2744 1 27.038730650204432 44.120154882248855 3.7345988674384096 0 0 1
984 1 28.348502406024217 42.50943652785155 5.584794911692535 0 0 0
1905 1 0.10777181186544349 45.767478519279706 4.943428211115629 0 0 0
91 1 1.7408945194960417 47.2125264416166 6.6415955933568736 0 0 0
1706 1 4.740589579390643 47.558979789897705 3.669095553324109 0 0 1
2139 1 6.090930912129046 45.848009205412126 5.288592944226121 0 0 0
1649 1 10.828382095082548 47.31988673810075 3.6757512439575684 0 0 1
1407 1 12.390810568814054 45.654631048136764 5.217227241354575 0 0 0
96 1 14.247244723282773 47.16655911088668 6.708453673934276 0 0 0
1604 1 17.065960527912615 47.2282978045525 3.827389222815935 0 0 1
2762 1 18.943900116009463 45.472298870988595 5.275902035284316 0 0 0
839 1 20.468729981247577 47.33510771827417 6.756539451773073 0 0 0
1361 1 25.801543406845447 45.748882757702034 5.467200747021738 0 0 0
2583 1 29.823623512397443 46.992586668349645 3.7138641258754417 0 0 1
2764 1 32.084795794569786 45.4769293893774 5.133672105951783 0 0 0
1516 1 1.2000161155097695 50.71443297152027 3.8710867055512015 0 0 1
769 1 3.0800521985138167 49.207686443164505 5.3471495840075365 0 0 0
1415 1 8.012940145633758 50.57481183954407 4.149010842002112 0 0 1
255 1 9.288815001763755 48.53602838671365 5.516812866763065 0 0 0
102 1 11.076730623143415 50.51378611496419 6.739015935008168 0 0 0
767 1 16.054566760026166 49.10844979124877 5.45242641004433 0 0 0
1379 1 22.289482061236612 49.04325507144907 5.43738037814948 0 0 0
845 1 23.972852869915787 50.771096656045245 6.715704082034373 0 0 0
2205 1 28.476234289421225 48.79674080456988 5.0906122621498975 0 0 0
847 1 30.233655131902594 50.32386944112571 6.665355041801714 0 0 0
2174 1 33.04969245284473 50.473854376035135 3.7948282042866626 0 0 1
1 1 1.3689989140043262 2.3938015354895565 6.8481614118756875 0 0 0
198 1 2.8132226084420844 1.0978977342485825 8.7562941205372 0 0 0
105 1 4.701634648000287 2.704121764848174 9.93838419433099 0 0 0
100 1 9.543843611060092 0.9642440105676537 8.35845573981996 0 0 0
107 1 11.539525050430724 2.4888313346902593 9.797139631254216 0 0 0
5 1 15.589224470307917 1.0257253281301748 8.089482669603758 0 0 0
109 1 16.931690223225043 2.5937590334608354 9.902168799662814 0 0 0
849 1 22.25283009845936 1.2641223424458097 8.514187212178149 0 0 0
772 1 27.29349858480458 2.7763997427026053 6.851199150066354 0 0 0
851 1 28.554544416002518 0.6387317143590738 8.25945605102863 0 0 0
853 1 29.85080294155245 2.497654691289308 9.982155739934534 0 0 0
110 1 1.335519359209119 5.544605082960853 9.964494123835022 0 0 0
9 1 6.242749292656537 4.354506940214797 8.40376366138055 0 0 0
11 1 12.942157220819286 3.994884153539253 8.051384705254673 0 0 0
12 1 16.840233976976027 5.787706897928655 7.116567126397486 0 0 0
792 1 18.88091469028786 4.138347432802911 8.467551285004427 0 0 0
852 1 25.18817821654332 4.193510160976623 8.317273953697939 0 0 0
857 1 26.543952055594783 5.963173758349528 9.900035549104553 0 0 0
858 1 31.505895806570845 4.04432822539196 8.138300910313362 0 0 0
859 1 33.09097039219345 5.589228212554215 9.839401001190794 0 0 0
7 1 2.8697933435509793 7.550299622772982 8.564685533881107 0 0 0
6 1 4.591801552027228 6.23139166029457 7.029930402620853 0 0 0
16 1 9.424737480353343 7.267050904892264 8.436205268355708 0 0 0
13 1 15.542105212403177 7.56046868343579 8.827209497788873 0 0 0
854 1 20.057494344482162 6.186911542057977 9.970382625975333 0 0 0
855 1 21.65796255020066 7.899195420861874 8.750517844223113 0 0 0
776 1 23.658439895163582 6.359635586680244 7.071244449303572 0 0 0
864 1 28.550516013139553 7.248241933691506 8.622569230138653 0 0 0
781 1 33.274846417557846 8.913030150169858 7.096858615448412 0 0 0
14 1 1.2069327043901914 9.140086568825936 6.949908198070758 0 0 0
20 1 4.352226253452891 11.987395380669422 7.147162941324906 0 0 0
15 1 6.270023971527566 10.44918988383225 8.441666884185615 0 0 0
24 1 12.346588813245086 10.6627381412394 8.737246892143492 0 0 0
18 1 13.868542712479288 9.148449263023867 7.091834902221768 0 0 0
747 1 18.779787159725377 10.811318606637562 8.538815498314149 0 0 0
779 1 20.048247890523324 9.285243001509118 6.873459886368556 0 0 0
780 1 26.817571876209833 9.244878915498258 7.033367008953882 0 0 0
861 1 25.278173889636857 10.768720943065887 8.496445429650418 0 0 0
870 1 31.57675880017583 10.669399458565413 8.50665326736249 0 0 0
19 1 2.713568555772704 13.824802867554869 8.633063332896047 0 0 0
22 1 10.704855621022112 12.215455214174346 6.877156297677403 0 0 0
23 1 9.463857202381138 13.77143762183928 8.558233382450952 0 0 0
129 1 15.453988208121357 13.986669151388872 8.84553083470777 0 0 0
26 1 17.084880260205214 12.394980881423542 6.919705002075258 0 0 0
874 1 22.20669598668046 13.717180310015305 8.435194827094977 0 0 0
868 1 26.928756007144596 12.540748582470947 9.936753101733467 0 0 0
784 1 29.972686765608362 12.58994777996587 6.850463552820955 0 0 0
788 1 28.399361514225557 14.000850752097296 8.286730785062009 0 0 0
871 1 33.402864383206165 12.23801167261179 9.862809715057216 0 0 0
29 1 1.079334793776146 15.552018145866551 6.985455361986213 0 0 0
130 1 4.4090620420715805 15.486274703508053 9.940069939687776 0 0 0
30 1 7.8230721504257374 15.202726479680338 7.221158032005807 0 0 0
31 1 6.439817213036992 17.007593759885562 8.798440753908174 0 0 0
32 1 14.003905204449683 15.492172872409434 6.907490315624689 0 0 0
33 1 12.699435492537011 16.855849419644997 9.045413838144343 0 0 0
707 1 18.810501388846987 17.0914871061192 8.50298249906713 0 0 0
786 1 20.547513485830855 15.51092081676077 7.162058812852441 0 0 0
791 1 24.81490616233028 17.092696717817045 8.597849108129067 0 0 0
787 1 26.512270400702068 15.678107248990779 6.915551221250534 0 0 0
876 1 29.943098192695206 15.763568513383053 9.80853132887903 0 0 0
877 1 31.710212775408163 17.21100982528501 8.254404048142074 0 0 0
36 1 4.609240908273041 18.70017444337829 7.033720169358187 0 0 0
34 1 3.084945629651002 19.942807472276154 8.66289716722433 0 0 0
137 1 7.656044299076883 18.869966174398378 10.01080943968653 0 0 0
39 1 11.27162046361882 18.36360184491509 7.3288366810696 0 0 0
142 1 9.578520036067017 20.299871818508425 8.497122157387338 0 0 0
47 1 15.614413958339979 20.352286172269945 8.486829369998576 0 0 0
40 1 17.06628830042005 18.961004180188493 7.091582563416826 0 0 0
878 1 20.361130135247812 18.60993662853494 10.001930914833016 0 0 0
884 1 21.63359721724661 20.331231978413896 8.450701754567792 0 0 0
880 1 26.81080364248894 18.428080219743645 9.97560887945033 0 0 0
881 1 28.330438339706678 20.222742367147386 8.447006849813116 0 0 0
42 1 1.8046644377314198 21.77901381982194 7.0204263374675016 0 0 0
28 1 0.20005788327213309 23.2931698471367 8.62485687012541 0 0 0
50 1 5.838303150117733 23.00426493486606 8.749774965584875 0 0 0
44 1 7.637014038531648 21.783743295977857 7.322683745592338 0 0 0
46 1 14.213571904504358 21.945513593807114 6.823114708588442 0 0 0
45 1 12.506893333342 23.63113496730045 8.392606959324636 0 0 0
795 1 20.247726693228703 21.834722652341945 6.947086469783499 0 0 0
803 1 19.02409048011447 23.68465656527734 8.53968642326905 0 0 0
885 1 23.700435507526862 21.69342820354238 9.81121284763267 0 0 0
802 1 25.239789422348217 23.08924641866064 8.330067361848853 0 0 0
886 1 30.100839705492188 22.06797297782686 9.857266030222494 0 0 0
800 1 31.769976383577017 23.64645944417161 8.164760742117393 0 0 0
49 1 2.9173068258107846 26.3796746387998 8.382608822433701 0 0 0
48 1 4.560369656152951 24.75265311137843 6.965372320523553 0 0 0