LAMMPS data file via write_data, version 29 Oct 2020, timestep = 200000

4608 atoms
1 atom types

-0.0149227294748151 57.28543272947602 xlo xhi
-0.013264648423113812 50.92038464842422 ylo yhi
-0.013264648423113812 50.92038464842422 zlo zhi

Masses

1 18.015

Atoms # atomic

5 1 1.7174142047042105 1.277322006985296 1.5030886076182781 0 0 0
860 1 16.029122169952494 22.264536835361586 25.366338821519207 0 0 0
13 1 8.413981771319063 1.7033791801334808 1.4432931817792147 0 0 0
21 1 14.337935664988942 1.1541274470479148 1.0544432135266786 0 0 0
19 1 15.870314973500072 50.84937216954091 2.7385329058302252 0 -1 0
8 1 4.924958680898092 5.096743296237051 1.6839970242023732 0 0 0
27 1 3.2111032148845795 6.409406969694157 3.2114859512326728 0 0 0
98 1 0.348155573315134 28.026780385462715 3.365829144391772 0 0 0
10 1 6.568090110500339 3.2287445719845116 3.0513259534879777 0 0 0
16 1 11.21571160245331 4.4017242131044485 1.172331992150651 0 0 0
18 1 13.23578010188246 2.870824397380631 2.700615313961614 0 0 0
24 1 17.115401652231025 4.65515913222142 1.770223571713474 0 0 0
43 1 15.823418798837796 6.419527885561793 3.4727670115019125 0 0 0
29 1 1.5561152876397868 7.991667166758912 1.6043536798823188 0 0 0
34 1 6.595235659073021 9.294572612247462 3.0890497258045695 0 0 0
35 1 9.735013369884914 6.127499275531301 3.0836139676606664 0 0 0
37 1 8.011196826433308 7.948718103499577 1.3836759917843227 0 0 0
45 1 14.157779678134837 7.99999026829283 1.7456084407389016 0 0 0
51 1 3.0556180638018393 12.65420396291274 3.279540019743462 0 0 0
32 1 4.686517636911212 10.825495569310146 1.800674532627878 0 0 0
434 1 0.07705320877618081 16.026801274244562 16.012857826573132 0 0 0
40 1 11.009070869569472 11.052475667492317 1.5319462189081177 0 0 0
59 1 9.773947881983084 12.601091371686147 3.2050643471188374 0 0 0
42 1 12.643031376480941 9.50710983850076 3.3832303283066207 0 0 0
857 1 12.876651709696922 18.4963786671699 25.294520944320247 0 0 0
48 1 17.358889672605695 11.231151381457767 1.5742934790689918 0 0 0
766 1 14.400007385868323 49.46963818568554 23.874824174658634 0 0 0
74 1 0.5540074537337466 22.077743538566153 3.2713724099688135 0 0 0
53 1 1.429121481523599 14.373241846207534 1.6397325479257092 0 0 0
61 1 8.140931026427593 14.025603880035556 1.874319298080664 0 0 0
58 1 6.764225024873897 15.821926126575201 3.4441344714783027 0 0 0
69 1 14.292501304671855 14.313679906534965 1.5621366223043816 0 0 0
66 1 12.994207524767186 15.670900210625515 3.6899382767635767 0 0 0
75 1 3.4252368756549507 18.743243249303763 3.3092326076092977 0 0 0
820 1 3.087570930939904 15.893735982221978 25.35375780775682 0 0 0
56 1 4.9423154715791195 17.50649339042018 1.687768848520751 0 0 0
828 1 8.789846663992044 15.714074387135996 24.95375708989244 0 0 0
873 1 6.524015455177747 25.54525721915172 25.10562744180189 0 0 0
64 1 11.573152398709807 17.171514274324792 1.9814881491715286 0 0 0
72 1 17.34038573531697 17.766088244806603 1.7453572966166393 0 0 0
876 1 9.401067185432213 28.533319891760026 25.40527278983087 0 0 0
77 1 2.1510170966753783 20.570756190286474 1.6745379554639146 0 0 0
170 1 0.36593473986067043 47.46223271343189 3.137955809572181 0 0 0
85 1 7.955753795275638 20.575463275027104 1.9753643443905922 0 0 0
90 1 12.802576944639556 22.414108583556516 3.0402220721548416 0 0 0
93 1 14.501175350568426 20.73646768128264 1.4781604864151978 0 0 0
91 1 15.895385203442803 19.150783297454083 3.1339983925926598 0 0 0
80 1 4.893675597410899 23.530316968625893 1.6197445883930706 0 0 0
99 1 3.2583917474708457 25.149635462213325 3.0302712708311543 0 0 0
82 1 6.165558793467743 21.79020642892033 3.395699088351028 0 0 0
88 1 11.227502544450221 24.027682421465286 1.5220239057460616 0 0 0
314 1 0.12911780056077266 35.16719361924969 9.54589977834141 0 0 0
290 1 0.18023043290204627 28.757033070256785 9.396247830763219 0 0 0
96 1 17.388969165522195 23.82735401680639 1.4234825547152605 0 0 0
115 1 16.09132400647601 25.339598269074155 3.361902868087185 0 0 0
101 1 1.9567096376463562 26.72078363031375 1.2395718505313726 0 0 0
746 1 0.41940602631764534 47.76854584353619 22.46697884414271 0 0 0
109 1 7.827275906748043 26.943072924389007 1.456414632042288 0 0 0
241 1 0.17180973427603702 12.418302477320903 6.268965911897285 0 0 0
117 1 14.558104175318443 26.881254114239148 1.2885673696108702 0 0 0
849 1 5.970205754325121 19.083696089755374 25.209555282513808 0 0 0
104 1 4.620581039549014 30.217459447421227 1.4821409475303402 0 0 0
385 1 0.0224924317611368 50.54276397643312 12.674336407244684 0 -1 0
112 1 11.16161871164378 29.875043923331177 1.6457997462251972 0 0 0
161 1 12.778590061914715 38.477167823627724 0.3250366477839456 0 0 0
120 1 17.76104439779566 30.15882112189973 1.574382448952288 0 0 0
44 1 15.818278956161906 9.592930624023243 0.289536817343074 0 0 0
698 1 0.20361257207344166 35.01908605574073 22.346120120808536 0 0 0
125 1 1.1867111837244653 33.35162424090558 1.5730267996365945 0 0 0
133 1 7.916565260458062 33.62127458687333 1.682956651831475 0 0 0
28 1 2.942355913743163 9.544043913421614 0.09182304538221664 0 0 0
141 1 13.990415598896146 33.328105805215046 1.8167952379764067 0 0 0
138 1 12.78421506452436 35.137946795537474 3.3789044861431035 0 0 0
697 1 0.19583143787412358 31.89161493999592 19.194034943599824 0 0 0
128 1 4.605349967225538 36.50427770933857 1.7047355624617269 0 0 0
801 1 6.435593872224175 6.211083837471953 25.43285805356669 0 0 0
155 1 9.41581220177868 38.27377034977846 3.6179112901118624 0 0 0
136 1 11.060330074604295 36.74435154461722 1.7586800932238196 0 0 0
144 1 17.322538277964036 36.46569945567535 1.4467161881276855 0 0 0
149 1 1.3965479794372673 39.76521074471955 1.848019791211139 0 0 0
361 1 0.13545997467541326 44.931483195598744 6.176927436675065 0 0 0
157 1 8.095588630379611 39.7434267645863 1.852376380007923 0 0 0
162 1 12.918048392110697 41.31639324804877 3.023149936195591 0 0 0
165 1 14.686128240881448 39.766244325324664 1.677252579496435 0 0 0
163 1 16.15246275493009 38.08082816442099 3.130328838550051 0 0 0
836 1 15.531276715006513 15.607879974374288 25.40984510028899 0 0 0
52 1 3.22679765468154 16.073341909327024 0.2979998414595489 0 0 0
152 1 4.889388619815759 42.828908240000246 1.4460450262862539 0 0 0
160 1 11.284066458585727 42.79797766096186 1.6177902448877015 0 0 0
168 1 17.276078236699206 42.77632714952071 1.6587212386036416 0 0 0
173 1 2.0875490932146836 45.88385540330255 1.2975007623242512 0 0 0
457 1 -0.010244578934459111 18.768857815877166 12.83605494869571 0 0 0
171 1 3.6122398557873243 44.39506297937535 3.1191868340573565 0 0 0
181 1 7.97253825821587 45.71241239633535 1.8431453537821911 0 0 0
179 1 9.949298987036066 44.331563984877164 3.2746840622599063 0 0 0
189 1 14.534688747447314 45.83810570208429 1.3640423074108745 0 0 0
187 1 15.720420515488883 44.257215179364024 3.342554386850156 0 0 0
758 1 7.859451522991727 49.12762143223917 23.63161696429434 0 0 0
176 1 4.906753429321314 49.48704211703465 1.8232421325454315 0 0 0
11 1 9.853555599906098 50.78818193151176 3.006232539508601 0 -1 0
186 1 13.119395046594116 47.90993335953155 2.658079045672822 0 0 0
184 1 11.379185252254851 49.16948546478929 1.3944598733310596 0 0 0
194 1 0.20309736817426938 3.039599214357539 9.445691427685947 0 0 0
192 1 17.87538683719444 49.1432609202477 1.6801233687913157 0 0 0
7 1 5.034271778800789 1.5861730442146629 4.578680919455822 0 0 0
196 1 3.2233189013247516 3.215713756672445 6.126408549351647 0 0 0
15 1 11.839788607653217 1.3719018934197345 4.438105070117764 0 0 0
209 1 13.019106279070979 50.793288279346044 6.348864119129928 0 -1 0
23 1 17.206424904480905 1.4763328184235474 4.542636984357072 0 0 0
6 1 1.6840931568120179 4.413208267916895 4.60466723309678 0 0 0
225 1 6.56009456716036 6.102894094086062 6.573302565347072 0 0 0
14 1 8.187341475938146 4.638734150547548 4.738692743163172 0 0 0
204 1 9.84605864371226 2.721812246204663 5.9134920008218 0 0 0
22 1 14.475530261293368 4.397990558238616 5.107667252156719 0 0 0
233 1 12.78631742933807 6.0774972960245615 6.381927557475772 0 0 0
212 1 16.168927406247295 2.9626831821666415 6.573328986567567 0 0 0
89 1 12.870406517509648 19.348885424811822 0.21742961505748976 0 0 0
289 1 0.004608975576357338 25.19267876077303 6.317480816313212 0 0 0
31 1 5.068156119169214 8.000836762270383 4.829468951692622 0 0 0
228 1 9.556439331002593 9.099849726837414 6.174739262143616 0 0 0
39 1 11.262197533415959 7.420895658942219 4.685930363187219 0 0 0
47 1 17.248186441856983 8.019615224014267 4.998288140871385 0 0 0
30 1 1.808694876770459 10.57756066598064 4.843778293762692 0 0 0
220 1 3.2854751701628353 9.237727097163999 6.614170556523256 0 0 0
38 1 8.054286195667286 10.941022478195825 4.898304411634144 0 0 0
249 1 6.5344052173389295 12.763077117833339 6.289633715235531 0 0 0
257 1 12.543112122902102 12.556243980531734 6.674739100770219 0 0 0
46 1 14.091867671490679 11.196511976927376 4.974201066047892 0 0 0
67 1 15.735718979119143 12.815303900733193 3.491001607172618 0 0 0
55 1 4.743084339967193 14.307809662152911 4.580358683754555 0 0 0
244 1 3.2295857496880505 15.70549838977111 6.6101486302161225 0 0 0
252 1 9.716705978008328 16.064942697810185 6.387621391154743 0 0 0
63 1 11.311071769698993 13.906092637581631 4.983585671467464 0 0 0
260 1 15.801435105396731 16.140377207978258 6.489703447310592 0 0 0
71 1 17.591978188786445 14.633810128061437 5.102981010117868 0 0 0
54 1 1.8787020993126236 17.163836318414983 4.809480142724628 0 0 0
62 1 7.974693958217614 17.675481252883483 4.650763271920298 0 0 0
70 1 14.365719847292938 17.693017560526023 4.697820942207179 0 0 0
529 1 0.0667627169437498 38.12552641485546 13.186082568450326 0 0 0
79 1 4.65052466068013 20.26927382438967 4.987502267304377 0 0 0
268 1 3.3104298697342687 22.146912097151112 6.374485818882206 0 0 0
83 1 9.888067851501473 19.098617096242844 3.1442424494095884 0 0 0
87 1 11.38248507522196 20.760537496125316 4.805379175766722 0 0 0
95 1 17.588189822253554 20.909587271406817 4.866710480727218 0 0 0
78 1 1.824124071076748 23.68598504007139 4.8263549467283156 0 0 0
530 1 0.05338374442826861 41.582222284782574 15.963582154276763 0 0 0
86 1 8.013369398564466 23.97917341793734 4.462182309283463 0 0 0
94 1 14.276892842011804 23.848055918517172 4.796136004498343 0 0 0
674 1 -0.009892226257591119 28.782740630964998 22.16545735531618 0 0 0
103 1 4.874437111415331 26.92292251150514 4.4445490549384425 0 0 0
292 1 3.2195246200968106 28.32632196369285 6.311106373261159 0 0 0
106 1 6.386192860442093 28.675004193764376 3.1544210798683983 0 0 0
107 1 9.424583876616294 25.613298955001394 2.8538179640187287 0 0 0
111 1 11.057010828587826 27.027239398674787 4.367467923222358 0 0 0
114 1 12.903913713120026 28.375943931970664 3.056384512457427 0 0 0
308 1 16.294896314075206 28.554362167034036 6.361733701914385 0 0 0
119 1 17.778605304627266 27.157941423951605 4.7164465590535 0 0 0
102 1 1.8578387985180997 30.45638576992562 4.788152332257148 0 0 0
123 1 3.2883629916405135 32.057977796392265 2.9070239651584253 0 0 0
110 1 7.997825323625118 30.43166089220816 4.868414048140299 0 0 0
131 1 9.58590328663823 31.894907980658036 2.963111264651468 0 0 0
118 1 14.396572647306394 30.01529831291786 4.776462667083843 0 0 0
139 1 15.812259640040924 31.753757221258812 3.2539260118727813 0 0 0
57 1 6.423136583793355 12.242036637951745 0.3286836748901955 0 0 0
127 1 4.592390486680928 33.24741983484117 4.990837212492034 0 0 0
130 1 6.132796338430731 35.021062980382865 3.648837684295419 0 0 0
135 1 11.224308774206504 33.305561619103685 4.562117663414198 0 0 0
324 1 9.416179437306674 34.92447578617869 6.534103089709037 0 0 0
143 1 17.607919305549842 33.14244841583107 4.814911556873509 0 0 0
147 1 2.996673037402967 38.13026715811553 3.22422066646849 0 0 0
126 1 1.421050876406854 36.56940717432175 4.831668076436776 0 0 0
266 1 0.20898905093050077 22.283416057007447 9.640471591465719 0 0 0
134 1 7.818510027692114 36.719081992197644 5.071571992037151 0 0 0
142 1 14.634376943744872 36.484635308997156 4.8400442249606845 0 0 0
332 1 16.150416368535105 34.72700702642781 6.483481919132633 0 0 0
265 1 0.32609804743526694 18.88608642707244 6.236105043335614 0 0 0
340 1 2.85796727603998 41.708718789043175 6.532957292696841 0 0 0
151 1 4.242866949276576 39.99333600850842 4.843334499555962 0 0 0
345 1 6.045278734912562 38.418745250442754 6.761657893232487 0 0 0
159 1 11.40450757287413 39.81002193283712 4.613173515115103 0 0 0
167 1 17.42945433078168 39.44681472757368 4.978234119359771 0 0 0
150 1 1.666252146960981 43.25999749529413 4.6550188858881265 0 0 0
154 1 6.5680628956888025 41.27425849877197 3.4291885795294954 0 0 0
158 1 8.09835773009146 42.85030237301494 4.80084835600967 0 0 0
356 1 15.791671289019014 41.28681410743775 6.594906117275243 0 0 0
166 1 14.05243116053746 42.88275468182704 4.867047847039111 0 0 0
833 1 12.218031258269683 12.817200484929613 24.77037308324931 0 0 0
175 1 4.665313355620838 46.10244593004683 5.170554052907673 0 0 0
178 1 6.36677867790736 47.29698992767602 3.2646423811452014 0 0 0
372 1 9.582900860399713 47.78760604878174 6.358121056668799 0 0 0
369 1 6.652614213088685 44.49968400925707 6.391878757014624 0 0 0
183 1 11.466807324212368 46.42113480852015 4.334153736593462 0 0 0
377 1 13.048727791697493 45.16558370331998 6.1122456122055135 0 0 0
191 1 17.420372520448964 46.05899283779006 4.536471861555838 0 0 0
750 1 1.8316811015738397 49.597390339379686 24.003227795223154 0 0 0
174 1 1.8715323760018183 49.05020921018274 4.909640665874738 0 0 0
364 1 3.4327018121961568 47.764732944807236 6.805226110226734 0 0 0
3 1 3.1548003104585294 -0.012446417027959455 3.4021873787631765 0 0 0
182 1 8.033949941740035 49.18407640610491 4.535237580881886 0 0 0
380 1 16.27518446677913 47.97141269196334 6.344909437867986 0 0 0
190 1 14.398899973791986 49.42905030936109 4.782008272378288 0 0 0
197 1 1.8248235735509206 1.5510278169113758 7.861883554448943 0 0 0
195 1 3.1197146735593884 50.865914349913396 9.645437851992645 0 -1 0
201 1 6.329778068472321 50.67640688114129 6.139987894007299 0 -1 0
205 1 7.9850986438600025 1.668404965717929 7.584294390521941 0 0 0
213 1 14.615240577600698 1.5164694125397835 7.955319367332444 0 0 0
313 1 0.14799127300312875 31.74081810099364 6.370502294427471 0 0 0
200 1 4.573489340063503 4.643640457725928 8.101410620516964 0 0 0
202 1 6.344653008318094 2.775593648771605 9.362257444710115 0 0 0
208 1 11.124401038485436 4.413464391805673 7.75968103898583 0 0 0
210 1 13.026920588200824 3.293964693003377 9.562585706533824 0 0 0
235 1 15.783374960835586 6.599956820858131 9.641608280312807 0 0 0
216 1 17.336705784737553 4.964285257596176 8.032991116108084 0 0 0
217 1 0.07447202357904849 6.029223217367371 6.225684561446527 0 0 0
221 1 1.3849570603989942 7.893018052161503 8.012742935153938 0 0 0
219 1 2.767182892575734 6.180316928981781 9.653963620033268 0 0 0
229 1 8.053740837938154 7.748965190731232 8.040174418909544 0 0 0
226 1 6.515304298127528 9.450098963812279 9.577614215661885 0 0 0
227 1 9.347524097236963 5.875130330966467 9.510237952753846 0 0 0
234 1 12.373758117808947 9.49444929861675 9.593521293537561 0 0 0
237 1 14.14468756315094 7.944462746595537 7.753922525311633 0 0 0
26 1 0.08454600618844665 9.407101269511445 3.3705331373284255 0 0 0
153 1 6.273301853152106 38.35345693271829 0.23227039223525284 0 0 0
224 1 4.932982825656286 11.029222010513898 8.224933798861558 0 0 0
251 1 9.579325694130384 12.740234918145983 9.498868962578449 0 0 0
232 1 10.914561586770146 10.996382463658762 7.944094199793417 0 0 0
236 1 15.83932132784003 9.577655519295869 6.440469701189196 0 0 0
240 1 17.47968005256674 11.217996606584618 8.014083505299967 0 0 0
245 1 1.661645003795576 13.97131727883583 8.039179751013627 0 0 0
767 1 17.395928760125635 46.35653155433137 23.539892705719907 0 0 0
253 1 8.122393095829896 14.456426998214857 7.943214412690583 0 0 0
250 1 6.311244793240555 15.804105773520256 9.47110596790832 0 0 0
261 1 14.103758249823793 14.449720434735296 8.037300306138274 0 0 0
248 1 4.853497820687907 17.522383116547225 8.102581972517125 0 0 0
275 1 9.460828412788926 19.31326261747515 9.885338639919988 0 0 0
256 1 10.946612662289233 17.948487267008993 8.031987777947093 0 0 0
281 1 13.131269853821335 19.087287010660276 6.646797477715943 0 0 0
264 1 17.463153651484863 17.769990208092224 8.08734045491908 0 0 0
269 1 1.7682377125665154 20.56256135232792 7.817596641397694 0 0 0
273 1 6.797645311974091 18.95017441587493 6.599874615714332 0 0 0
277 1 7.760032683060297 21.041524833422724 8.065109191196768 0 0 0
276 1 9.548867793635758 22.3761532324944 6.221209252807185 0 0 0
284 1 16.10337712790535 22.689096561173145 6.426340618131789 0 0 0
285 1 14.66747831745994 21.214933958274827 7.944040938069334 0 0 0
2138 1 18.72505263165664 9.682455074262245 21.936353942941867 0 0 0
272 1 4.607368624329941 23.73007661778154 8.131773594174607 0 0 0
297 1 6.550952029649074 25.22568960494535 6.457867164441519 0 0 0
280 1 11.484066614480342 23.749207354100577 7.864389036320748 0 0 0
305 1 12.577962682949506 25.62242766745335 6.246465695397664 0 0 0
288 1 17.744374507019845 24.128545043109046 7.887003983535798 0 0 0
293 1 1.6031488407022239 27.032263647529405 8.003929568252161 0 0 0
301 1 7.947844212437564 26.96561083879904 7.8108220902275445 0 0 0
309 1 14.458949692206343 27.23312898323304 7.785114914814375 0 0 0
307 1 16.080886001847805 25.590688225199795 9.178996172815337 0 0 0
180 1 9.599734407950116 47.20109130944853 0.1780432507029096 0 0 0
296 1 4.533465414984731 29.837866552705684 7.966514671740635 0 0 0
298 1 6.538235849765669 28.64703128197667 9.406417326683737 0 0 0
300 1 9.683941808565686 28.82380159547223 6.280290976807193 0 0 0
304 1 11.186214358852979 30.424953205255132 7.871400693744829 0 0 0
329 1 12.843613964998553 31.740594337119692 6.182290049239794 0 0 0
331 1 15.973726945761577 31.771600104223094 9.63261046307848 0 0 0
312 1 17.865231494324846 30.31789571010082 7.784623429422341 0 0 0
317 1 1.4468782278644676 33.39634910856543 8.09707370459508 0 0 0
321 1 6.3869812913580715 31.72983805582406 6.595784519089549 0 0 0
315 1 3.1412913748948643 31.597671094249037 9.401273031190344 0 0 0
325 1 8.051560614492784 33.34296723872244 8.304636108515309 0 0 0
333 1 14.428838434208528 33.370709868154805 7.98853801472438 0 0 0
316 1 3.0256700054399293 34.81021050030219 6.5736050583023165 0 0 0
320 1 4.95495563071568 36.13794112471274 8.256004400122988 0 0 0
339 1 3.6000236565043275 38.33328490538322 9.459918761790275 0 0 0
322 1 6.827076482703486 34.99353694797594 9.78640073271785 0 0 0
353 1 12.701054726489692 38.25729393653637 6.2622925546667085 0 0 0
328 1 11.349115638057416 36.47890452336942 8.003493305956436 0 0 0
330 1 12.9856823516031 34.89239556990276 9.4358334130175 0 0 0
482 1 0.03221376690456168 28.846053560306856 16.29590308552746 0 0 0
336 1 17.812495848444613 36.359295769664726 7.926947571922026 0 0 0
844 1 2.596577063035308 22.122725867270074 25.302724536497212 0 0 0
341 1 1.598432044783035 39.813011711636676 8.338359674271784 0 0 0
346 1 6.27745720549137 41.653289976132285 9.766895213088493 0 0 0
349 1 7.801341069888633 39.80473685574076 8.2354474690596 0 0 0
348 1 9.698417900379573 41.19302779083206 6.2611314996902 0 0 0
347 1 9.731500507344794 38.471476485439595 9.55048670142091 0 0 0
355 1 16.06158172657494 38.142050307347574 9.28142510577603 0 0 0
357 1 14.158219867263265 39.593629510749054 7.8719737176274425 0 0 0
344 1 4.9056380506630575 43.04832901515721 7.969888031868248 0 0 0
352 1 11.23284477870704 43.36390793787545 7.787545556948614 0 0 0
360 1 17.5402418936928 43.095598779634656 7.8647842170393565 0 0 0
73 1 0.032629941888539876 19.189660464374803 0.2514615121627911 0 0 0
365 1 1.4779061054609874 46.07340721724434 8.228914421223935 0 0 0
363 1 3.1646967766322533 44.45930160173231 9.593247149707125 0 0 0
370 1 6.347145068695325 47.96118653374329 9.93331476965659 0 0 0
373 1 7.707729285372909 46.63768370741728 7.95074866346202 0 0 0
378 1 12.841048260846637 47.57974672638653 9.284584509132387 0 0 0
381 1 14.667325383323714 46.34948598759836 8.030590569327831 0 0 0
379 1 16.278708061377355 44.764830445662966 9.385655518332598 0 0 0
68 1 15.968941182239542 15.906894778336817 0.027850085126461407 0 0 0
368 1 4.871468132800919 49.5222020916184 8.259423112934192 0 0 0
376 1 11.16346053897536 49.22635478819663 7.9671443488032745 0 0 0
203 1 9.933075308522891 0.2860827371600772 9.386851603922073 0 0 0
384 1 17.66370606781241 49.588896142060946 7.885340692575108 0 0 0
211 1 16.11848177171907 0.15626334565026936 9.716467583403821 0 0 0
199 1 4.948500856924641 1.246471666272214 10.979997860543254 0 0 0
207 1 11.50453925335347 1.6687055293299047 11.18272717662478 0 0 0
215 1 17.362059012498285 1.7930263398784712 11.514940517578644 0 0 0
404 1 15.864989735733651 3.4915332419270317 12.994451661804817 0 0 0
198 1 1.1006634254903567 4.734872432568414 11.548595404449976 0 0 0
206 1 7.696701334841799 4.513987739276581 11.264209860353331 0 0 0
396 1 9.663342117954732 3.0655141357567413 12.607735254454306 0 0 0
214 1 14.68895650067596 4.785210986632575 11.280778123317507 0 0 0
762 1 12.843561916155187 47.92021566769796 22.0599777761478 0 0 0
223 1 4.708008705327275 7.874313245053325 11.237391708624784 0 0 0
231 1 10.85996963236654 7.766345323496376 11.186250629509905 0 0 0
239 1 17.355627085360815 8.020885906502178 11.059992695390605 0 0 0
222 1 1.5084706453045444 11.037457764383245 11.35939572532363 0 0 0
412 1 3.15804286413497 9.23993029190448 12.831317293815518 0 0 0
230 1 8.073259714568314 11.029336894148738 11.247520170314102 0 0 0
441 1 6.281451137695526 12.756331917142093 12.567903191682847 0 0 0
238 1 14.215371532018334 11.101564248050154 10.842873755383685 0 0 0
243 1 2.8907467816770294 12.138987759435457 9.545800029037434 0 0 0
247 1 4.6683269010513 14.030037647707461 10.842685920525645 0 0 0
436 1 3.174299886714018 15.468439659515907 12.772798083066501 0 0 0
449 1 12.361679459566117 12.790310595299502 12.832576603826933 0 0 0
255 1 11.083061272938226 14.888868280346061 11.179830418227139 0 0 0
259 1 15.911576322323674 12.819589736514407 9.65146747836615 0 0 0
263 1 17.5488198268056 14.041919050962774 11.262195758557635 0 0 0
506 1 0.031576089796933715 35.154688730063455 15.880767263040404 0 0 0
267 1 3.265612039373401 18.93777687592171 9.714623859728704 0 0 0
246 1 1.6615536641658575 17.21180362085759 11.201772241473664 0 0 0
465 1 6.405479447829002 19.035180187343546 12.889210934834825 0 0 0
254 1 7.696038803438977 17.531909772148126 11.107665470301349 0 0 0
444 1 9.02615754532816 15.90137571644761 12.89669087192043 0 0 0
258 1 12.773398737420107 16.465300597445108 9.569330359837387 0 0 0
262 1 14.798849048228602 17.84376053928447 11.153998213656745 0 0 0
283 1 16.36697289984235 19.807557525153488 9.84795745761234 0 0 0
460 1 2.7813289015497444 22.17184269731544 12.938626087565229 0 0 0
271 1 4.755074046267496 20.59834373081911 11.528327250034593 0 0 0
274 1 6.027050287507398 22.1407920951508 9.660126640598223 0 0 0
282 1 12.985323269518817 22.506807465777147 9.752875729922346 0 0 0
473 1 13.004584557985748 19.3554776549546 12.889712469702342 0 0 0
279 1 11.35694415531023 20.895123843008324 11.22041816032866 0 0 0
287 1 18.130704382585098 21.261065942902285 11.306926495557049 0 0 0
476 1 16.443834971752544 22.875472548077376 12.886469227200882 0 0 0
270 1 1.5975891281799046 23.89056012908958 11.316898109164649 0 0 0
278 1 8.009834345068851 23.674187896439893 11.051490925848258 0 0 0
299 1 9.486076114531489 25.202765189562445 9.215227601875846 0 0 0
286 1 14.586929250361539 24.265014661654977 11.261152978178162 0 0 0
755 1 9.599866201502332 44.79232074816302 22.20022656925049 0 0 0
291 1 3.330127986217323 25.331319210067576 9.70205150598953 0 0 0
295 1 4.984085432369219 27.127168303629812 11.050371960273303 0 0 0
303 1 11.102920039167765 26.91895213233734 10.505565426463146 0 0 0
311 1 17.38461535719313 27.497984467678915 11.063836683070022 0 0 0
294 1 1.5946000967703358 30.33401599647898 11.036619469295761 0 0 0
484 1 3.233431076681082 28.65474395538026 12.50485989762164 0 0 0
302 1 7.885731072203556 30.133882333304125 11.39505180049655 0 0 0
323 1 9.487479660909257 31.786512662776865 9.772458430559228 0 0 0
306 1 12.926245399916768 28.815115999772697 9.266752044263958 0 0 0
492 1 9.368206254447543 28.422344874266305 12.568376942935744 0 0 0
310 1 14.10201662201275 30.613264056478478 10.981305676090445 0 0 0
702 1 1.6631166687719348 36.935411123264174 24.1097319912601 0 0 0
319 1 4.834244449330376 33.28196128808446 10.88681418848965 0 0 0
327 1 11.322484741279466 33.33824176338794 11.17191615767362 0 0 0
516 1 9.776252791123062 35.116449518499394 12.557673634614888 0 0 0
335 1 17.5980774045711 33.581170508986546 11.143910126014681 0 0 0
146 1 0.08704715389874583 41.57953628578106 3.4957666451422704 0 0 0
318 1 1.6408394145362166 36.999274217099384 11.189002408767214 0 0 0
953 1 12.723522408785499 44.96597919250178 25.137952280140954 0 0 0
326 1 8.210352173943969 36.71056807169083 11.340129669373137 0 0 0
334 1 14.357910069645362 36.62443385017933 10.822443845519727 0 0 0
524 1 15.828872149868804 35.006270975848125 12.73637746420611 0 0 0
532 1 3.0240047632829654 41.545970331796255 12.787156666832024 0 0 0
343 1 4.664907909108091 40.04716610491673 11.202917043816178 0 0 0
537 1 6.346661773689112 38.38167122026286 12.576422487835709 0 0 0
351 1 11.171677935922133 40.03813549361179 10.854182592850263 0 0 0
545 1 12.776368865059737 38.275927078877245 12.3458361343727 0 0 0
359 1 17.609782172005026 39.864630494904134 10.985365390676218 0 0 0
342 1 1.6537413424080665 43.152653997428345 11.312855022391119 0 0 0
350 1 8.050315874561017 43.00959865804782 11.185286935243983 0 0 0
371 1 8.969993558015041 44.524740813438555 9.213350865335306 0 0 0
354 1 12.9029944667474 41.63871481852746 9.13214246023839 0 0 0
358 1 14.413520138998747 43.2493294804474 10.7597279397945 0 0 0
548 1 15.894592387203955 41.46991936991431 12.46012602934124 0 0 0
367 1 4.651502373585099 46.02657986960415 11.167584234733525 0 0 0
569 1 12.977729390229216 44.54179897295572 12.51915932085344 0 0 0
375 1 11.14687454925131 45.923309967542394 10.806707978690321 0 0 0
383 1 17.867797101762875 46.19266236514625 10.862329322354311 0 0 0
759 1 11.077679196071186 46.57702603905858 23.71982397488971 0 0 0
366 1 1.6090783607230996 48.92172994815978 11.334473435473727 0 0 0
556 1 3.456126935148554 47.498494389897644 13.175117904709339 0 0 0
393 1 6.384806851497691 0.1844522371151669 12.904992188890615 0 0 0
564 1 9.791301727539775 47.76856107966309 12.36884578539267 0 0 0
374 1 8.177073186305014 49.78884787969915 11.148071453679073 0 0 0
401 1 12.855239395432594 50.65398626662886 12.258955582088127 0 -1 0
382 1 14.754418936623255 49.04076164133072 10.852677378881955 0 0 0
572 1 16.363794301827944 47.701029660356 12.568911365342789 0 0 0
389 1 1.409513894103068 1.4094912987581567 14.228462974680301 0 0 0
394 1 6.422995922516854 2.976765335449009 16.25376666706118 0 0 0
397 1 8.129376877379348 1.7949239373372452 14.354742801548019 0 0 0
405 1 14.298527730621384 1.407101221107363 14.161765720422986 0 0 0
388 1 3.06519991801359 3.0578046261797414 12.616990714162611 0 0 0
751 1 4.700567592211179 46.059032032709055 23.983860303617426 0 0 0
392 1 4.858981696293629 4.452948240153649 14.484515318588848 0 0 0
417 1 6.002863056304825 6.184634849746376 12.693679543433468 0 0 0
425 1 12.730518917855367 6.426444063216785 12.688048355252702 0 0 0
400 1 11.03392005324274 4.789537770742035 14.237163602116334 0 0 0
402 1 12.759225595316337 3.1773721170309193 15.642054577293559 0 0 0
408 1 17.777886169733414 4.791725275770716 14.529817312732602 0 0 0
754 1 6.1514936476338775 47.66738227082561 22.25863091330452 0 0 0
413 1 1.3221795515444767 7.6072168907288455 14.231236957177893 0 0 0
421 1 7.7432297062517765 7.38646934473773 13.983598335095532 0 0 0
420 1 9.299642961187413 9.434862695770194 12.664020233292913 0 0 0
429 1 14.268607628808361 8.166450424791318 14.448996125469547 0 0 0
428 1 15.628604517061797 9.692720321953747 12.855864038140075 0 0 0
60 1 9.79290668063439 15.724802399732402 0.3428030623936733 0 0 0
742 1 14.248548246323011 42.922668755455874 23.817036978735395 0 0 0
416 1 4.639111429173736 10.983500559615692 14.216190789292318 0 0 0
418 1 6.141256887594372 9.148577141593321 15.552261318776539 0 0 0
443 1 9.24885076728821 12.47067723980188 15.792707176495027 0 0 0
424 1 10.856825550199643 10.988762983583419 14.35019014922448 0 0 0
432 1 17.491565697157224 10.796124441888054 14.495684765036424 0 0 0
437 1 1.3116280636393027 14.238439360827375 14.221037075813692 0 0 0
445 1 7.641076504886218 14.107165546364307 14.418771234081103 0 0 0
450 1 12.79327068381797 16.055067419683724 15.784881330501657 0 0 0
453 1 14.475921508100727 14.302602749200387 14.206140833885442 0 0 0
440 1 4.44668155361237 17.293659509216656 14.150789395117394 0 0 0
448 1 10.8446403847027 17.531610723582382 14.427332575306279 0 0 0
452 1 16.247932426250127 15.926524453884396 12.610255060216826 0 0 0
456 1 17.741455799211046 17.148192533626986 14.448271523113632 0 0 0
734 1 8.053574596753409 43.03040967191792 23.61455731709389 0 0 0
897 1 6.372308287200607 31.88962425521516 24.99490315459586 0 0 0
461 1 1.1977552988299516 20.454745103770186 14.487304917778715 0 0 0
469 1 8.171941023554634 20.539378173267504 14.115342407468916 0 0 0
468 1 9.855969536112786 22.40158072576519 12.87372991022601 0 0 0
475 1 16.437758823126003 18.781486512383214 15.987183405960327 0 0 0
477 1 14.921824050422206 20.882200407083022 14.2599830349917 0 0 0
464 1 4.791100524319763 24.211208118310665 14.04134453064486 0 0 0
472 1 11.471011515744353 23.867459803192954 14.345809041973176 0 0 0
474 1 13.089767954192409 22.23648526611723 15.810615412094545 0 0 0
480 1 18.411800702384422 24.08215008722509 14.624656470496339 0 0 0
499 1 16.175714252009104 25.627889478757602 15.685244753835716 0 0 0
505 1 -0.005250174213429659 32.16201472053744 12.60409898550913 0 0 0
485 1 1.4743358493688599 27.21219002566391 14.243848260312582 0 0 0
747 1 3.1513400371483615 44.48406581700473 22.40271246830553 0 0 0