
# Create simulation box of size 50 x 50 x 50 Angstrom
#
lattice	            sc 1
Lattice spacing in x,y,z = 1.0000000 1.0000000 1.0000000
region 	            all block 0 ${X} ${YZ_LO} ${YZ_HI} ${YZ_LO} ${YZ_HI} units box
region 	            all block 0 53.4 ${YZ_LO} ${YZ_HI} ${YZ_LO} ${YZ_HI} units box
region 	            all block 0 53.4 -0.013264648423113812.0 ${YZ_HI} ${YZ_LO} ${YZ_HI} units box
region 	            all block 0 53.4 -0.013264648423113812.0 50.92038464842422.0 ${YZ_LO} ${YZ_HI} units box
region 	            all block 0 53.4 -0.013264648423113812.0 50.92038464842422.0 -0.013264648423113812.0 ${YZ_HI} units box
region 	            all block 0 53.4 -0.013264648423113812.0 50.92038464842422.0 -0.013264648423113812.0 50.92038464842422.0 units box
create_box          1 all
Created orthogonal box = (0.0000000 -0.013264648 -0.013264648) to (53.400000 50.920385 50.920385)
  3 by 1 by 2 MPI processor grid

# fill box with 4175 randomly distributed atoms
#
create_atoms        1 random 4608 63782 all
Created 4608 atoms
  create_atoms CPU = 0.001 seconds
mass                1 18.015

# Define potential
#
pair_style          sw
pair_coeff          * * /data/emrosky-sim/Freezing_Simulations/Melting/MLmW_fancy/ML_mW.sw mW
Reading sw potential file /data/emrosky-sim/Freezing_Simulations/Melting/MLmW_fancy/ML_mW.sw with DATE: 2019-02-27

# Run minimization
#
minimize            1.0e-8 1.0e-8 10000 1000
WARNING: Using 'neigh_modify every 1 delay 0 check yes' setting during minimization (../min.cpp:187)
Neighbor list info ...
  update every 1 steps, delay 0 steps, check yes
  max neighbors/atom: 2000, page size: 100000
  master list distance cutoff = 6.0032907
  ghost atom cutoff = 6.0032907
  binsize = 3.0016454, bins = 18 17 17
  1 neighbor lists, perpetual/occasional/extra = 1 0 0
  (1) pair sw, perpetual
      attributes: full, newton on
      pair build: full/bin/atomonly
      stencil: full/bin/3d
      bin: standard
Per MPI rank memory allocation (min/avg/max) = 4.234 | 4.248 | 4.253 Mbytes
Step Temp E_pair E_mol TotEng Press 
       0            0    7253297.4            0    7253297.4    4976521.2 
     648            0   -49819.749            0   -49819.749     -178.111 
Loop time of 1.30175 on 6 procs for 648 steps with 4608 atoms

98.7% CPU use with 6 MPI tasks x no OpenMP threads

Minimization stats:
  Stopping criterion = max force evaluations
  Energy initial, next-to-last, final = 
      7253297.38090105  -49819.5244192581  -49819.7487719031
  Force two-norm initial, final = 1.6673597e+08 3.8550381
  Force max component initial, final = 88657257.0 0.97459146
  Final line search alpha, max atom move = 0.041437676 0.040384805
  Iterations, force evaluations = 648 1001

MPI task timing breakdown:
Section |  min time  |  avg time  |  max time  |%varavg| %total
---------------------------------------------------------------
Pair    | 1.01       | 1.0781     | 1.2187     |   7.3 | 82.82
Neigh   | 0.026817   | 0.028128   | 0.029815   |   0.6 |  2.16
Comm    | 0.032499   | 0.17454    | 0.24305    |  18.2 | 13.41
Output  | 0          | 0          | 0          |   0.0 |  0.00
Modify  | 0          | 0          | 0          |   0.0 |  0.00
Other   |            | 0.02102    |            |       |  1.61

Nlocal:        768.000 ave         798 max         751 min
Histogram: 2 1 0 1 0 0 1 0 0 1
Nghost:        1568.33 ave        1581 max        1554 min
Histogram: 1 1 0 1 0 0 0 1 0 2
Neighs:        0.00000 ave           0 max           0 min
Histogram: 6 0 0 0 0 0 0 0 0 0
FullNghs:      21946.7 ave       23437 max       21167 min
Histogram: 1 2 0 1 0 1 0 0 0 1

Total # of neighbors = 131680
Ave neighs/atom = 28.576389
Neighbor list builds = 27
Dangerous builds = 0

# Add velocity/set timestep
#
velocity            all create ${TEMP} 120598 rot yes dist gaussian
velocity            all create 293 120598 rot yes dist gaussian
timestep            5.0

# Define output
#
compute	            1 all msd
thermo	            100
thermo_style        custom step temp press vol etotal ke pe c_1[4] density

# Neighbor lists
#
neigh_modify        delay 0 every 1 check yes

# Set fixes
#
fix                 1 all momentum 10 linear 1 1 1 rescale
fix                 2 all nve
fix                 3 all temp/csvr ${TEMP} ${TEMP} 500.0 928347
fix                 3 all temp/csvr 293 ${TEMP} 500.0 928347
fix                 3 all temp/csvr 293 293 500.0 928347
fix                 4 all press/berendsen iso ${PRES} ${PRES} 1000.0 modulus 20000
fix                 4 all press/berendsen iso 1 ${PRES} 1000.0 modulus 20000
fix                 4 all press/berendsen iso 1 1 1000.0 modulus 20000

# Run 0.5 ns equilibration
#
dump                1 all custom 1000 eq.${NAME}.dump id type x y z vx vy vz
dump                1 all custom 1000 eq.liq_293K_1atm_ML.dump id type x y z vx vy vz
run                 100000
Per MPI rank memory allocation (min/avg/max) = 3.485 | 3.499 | 3.503 Mbytes
Step Temp Press Volume TotEng KinEng PotEng c_1[4] Density 
     648          293    1149.5957    138532.24   -45796.099    4023.6494   -49819.749            0   0.99505011 
     700    172.71832   -149.91123    139193.73   -44818.213    2371.8702   -47190.083    0.3004352   0.99032132 
     800    226.33937    93.229588     139245.8     -43593.8    3108.2262   -46702.026   0.86994621     0.989951 
     900    241.02006    213.61871     138976.2   -42855.336    3309.8301   -46165.166    1.5723539   0.99187141 
    1000    260.49481    145.59624    139185.51   -42294.908     3577.269   -45872.177    2.3572367   0.99037977 
    1100    275.45533    100.85878    139216.92   -41889.972    3782.7156   -45672.687    3.1728267   0.99015633 
    1200    278.88293   -62.458425    139145.71   -41619.059    3829.7854   -45448.844    4.2233184   0.99066307 
    1300    287.19145    125.08218     138956.8   -41404.644     3943.883   -45348.527    5.2592207    0.9920099 
    1400    293.35858   -43.849364    139141.81   -41295.828    4028.5736   -45324.402    6.3922055   0.99069087 
    1500    282.79868   -2.4750732    138954.15   -41200.598    3883.5589   -45084.157    7.4155005   0.99202879 
    1600    284.04722    56.362497    138622.74   -41157.444    3900.7046   -45058.149     8.445776   0.99440043 
    1700    286.29824    29.892503    138693.29   -41132.411    3931.6169   -45064.028    9.5305543   0.99389462 
    1800    290.05018   -23.243517    138239.73   -41144.127    3983.1408   -45127.268    10.598859   0.99715556 
    1900    292.02239    76.706945    138301.35   -41038.473    4010.2243   -45048.697    11.833585   0.99671132 
    2000    289.69528   -121.36033    138149.93   -41080.434    3978.2671   -45058.701    13.128388   0.99780371 
    2100    289.78467    39.144764     137975.8   -41152.174    3979.4946   -45131.669    14.339814     0.999063 
    2200     296.3065   -236.20754    138255.72   -41073.482    4069.0562   -45142.539    15.594775   0.99704022 
    2300    291.66643     65.58937    138169.71   -41065.258    4005.3361   -45070.594    16.750269   0.99766086 
    2400    292.45397    77.076764    138159.85     -41073.5     4016.151   -45089.651    18.051472   0.99773207 
    2500    296.60467    42.584994    138209.84    -41018.28    4073.1508   -45091.431    19.250999   0.99737121 
    2600     297.7407   -79.115696    138164.84   -40927.816    4088.7515   -45016.567     20.69007   0.99769609 
    2700    295.87953   -7.5990746    138188.75   -41027.896    4063.1928   -45091.089     21.93163   0.99752345 
    2800    293.22133   -40.642988    138352.87   -41030.668    4026.6889   -45057.357    23.300218   0.99634011 
    2900    295.79524   -224.37368    138362.12   -40957.511    4062.0353   -45019.546    24.798122   0.99627354 
    3000    289.53535   -105.67777    137933.16   -40945.578    3976.0708   -44921.649    26.268832   0.99937184 
    3100    293.22667    61.345307    138084.02   -40935.832    4026.7622   -44962.594    27.567763   0.99827998 
    3200     297.6311    106.01578    138068.66   -40953.169    4087.2465   -45040.415    28.945514   0.99839108 
    3300     297.3656   -58.559161    137947.28   -40937.482    4083.6004   -45021.082    30.577889   0.99926954 
    3400    293.49927   -30.857195    137966.94   -40945.778    4030.5057   -44976.283    32.039559   0.99912713 
    3500    296.41578    274.30872    137735.87   -40857.762    4070.5569   -44928.319    33.511415    1.0008033 
    3600    297.27925   -285.92392    138065.85   -40911.801    4082.4146   -44994.216    35.057724   0.99841141 
    3700    293.37217    65.474521    138137.02   -40920.967    4028.7603   -44949.727    36.178641   0.99789696 
    3800    293.38915    176.93334    138400.52   -40909.776    4028.9935    -44938.77    37.387709   0.99599709 
    3900    290.95327   -27.781413    138486.39    -41106.33    3995.5426   -45101.872    38.718558   0.99537952 
    4000    292.90983   -18.587424    138207.87   -41066.086    4022.4111   -45088.497    39.641145   0.99738546 
    4100    296.17235   -194.71983    137946.93   -40996.279     4067.214   -45063.493    40.802544   0.99927208 
    4200    295.44272    205.28616    138051.87   -40997.802    4057.1943   -45054.997    42.463112   0.99851248 
    4300    291.86267    -70.33751    138364.39   -40992.607    4008.0309   -45000.637    44.024252    0.9962572 
    4400    291.02229   -162.76239    138304.65   -40932.695    3996.4904   -44929.185    45.389565   0.99668747 
    4500    296.10243    37.513144     138520.1   -40869.456    4066.2538    -44935.71     46.94536   0.99513731 
    4600    293.76305    8.4636991    138696.87   -40950.233    4034.1281   -44984.362    48.748811   0.99386901 
    4700    292.42866     80.74478    138541.42   -41048.617    4015.8035    -45064.42    49.721626   0.99498413 
    4800    294.38706    129.97493    138179.18    -40978.48    4042.6974   -45021.177    50.942582    0.9975925 
    4900    292.48045    128.86238    138095.22   -41061.088    4016.5147   -45077.603    51.785247   0.99819907 
    5000     298.1173   -25.860187    138035.63   -41013.834    4093.9232   -45107.757    52.747799   0.99862998 
    5100    292.43596    37.389486    137926.07   -41049.443    4015.9037   -45065.346    53.729005   0.99942324 
    5200    291.68321    54.559669    137778.59   -41159.286    4005.5666   -45164.852    54.438756     1.000493 
    5300    291.42225    207.43507    137583.69   -41104.511    4001.9828   -45106.494    55.503548    1.0019103 
    5400     293.3691    205.87506    137687.78   -40974.345    4028.7182   -45003.063    56.759912    1.0011529 
    5500    298.55371    189.14287    137622.11   -40975.382    4099.9163   -45075.299    57.708853    1.0016306 
    5600    294.89971   -119.67525    137584.18   -40933.951    4049.7374   -44983.688      58.7984    1.0019068 
    5700    293.52249    90.358562    137640.76   -40964.348    4030.8245   -44995.172    59.451901    1.0014948 
    5800    293.53984   -24.280744     137725.9   -40913.497    4031.0629    -44944.56    60.882816    1.0008758 
    5900    289.82755   -40.120631    137728.93   -41093.833    3980.0835   -45073.917    62.100334    1.0008538 
    6000    291.09984     54.77086    137777.38   -41164.403    3997.5553   -45161.959    63.436742    1.0005018 
    6100    292.73384   -70.602099    138015.01   -41084.937    4019.9944   -45104.931    64.336177   0.99877914 
    6200    293.21979     90.18039    138039.96   -41162.394    4026.6677   -45189.062    65.417494   0.99859862 
    6300    291.54664   -4.8711406    137976.05   -41063.086     4003.691   -45066.777    66.606656   0.99906116 
    6400    295.61943   -125.05665    138046.77   -41037.073    4059.6209   -45096.694    67.911552   0.99854939 
    6500    287.03753    35.777658    138106.04   -41078.627    3941.7692   -45020.396    68.981655   0.99812085 
    6600    287.99585   -119.88986    138335.07   -41078.171    3954.9295     -45033.1    70.167111   0.99646833 
    6700    289.98886    198.55663    138123.01   -41176.477    3982.2986   -45158.775    71.704692   0.99799818 
    6800      295.001    64.362209    138071.64    -41162.41    4051.1283   -45213.538    72.845558   0.99836954 
    6900    293.22168    137.97688    138191.41   -41079.131    4026.6937   -45105.825    74.415522   0.99750425 
    7000      291.491   -306.56855    138342.95   -41074.521     4002.927   -45077.448    75.931529    0.9964116 
    7100    287.19648    124.09869    138173.86    -41134.85     3943.952   -45078.802    76.899519   0.99763091 
    7200    286.04494    84.954572    138499.05    -41178.83    3928.1385   -45106.968    78.148765   0.99528854 
    7300     292.0345    47.888819    138378.41     -41117.9    4010.3906   -45128.291    79.810268   0.99615628 
    7400    287.69938   -103.57781    138402.29   -41166.504    3950.8581   -45117.362    80.953219   0.99598437 
    7500    292.50613    153.70026    138489.12   -41094.335    4016.8672   -45111.202    81.779096   0.99535989 
    7600    289.62572    11.024398    138688.79   -41099.891    3977.3118   -45077.203    83.155295   0.99392687 
    7700    291.16243   -38.715985     139052.6   -41091.535    3998.4149    -45089.95    84.802665   0.99132643 
    7800    288.35635    101.68349    138957.65   -41095.227    3959.8801   -45055.107    85.980241   0.99200382 
    7900     287.7418   -90.747665    138853.64   -41215.183    3951.4406   -45166.623    86.907221   0.99274685 
    8000    287.38142   -49.380286    138751.74   -41141.962    3946.4918   -45088.454    87.811527   0.99347596 
    8100    292.07776    62.195852    138693.03   -41042.655    4010.9847   -45053.639    88.762399   0.99389653 
    8200    292.93309   -66.538039    138250.25   -41080.994    4022.7306   -45103.725    89.346187   0.99707967 
    8300    292.79198    10.600922    138229.41   -41037.108    4020.7928     -45057.9    90.630998      0.99723 
    8400    293.17332   -223.72104    138189.66   -41078.088    4026.0295   -45104.118     92.03931    0.9975169 
    8500    289.23986    219.16015    138112.91    -41094.75    3972.0129   -45066.763    93.530479   0.99807118 
    8600     292.3793   -310.58349    138231.32    -41033.61    4015.1257   -45048.736    95.078072   0.99721625 
    8700     296.8413   -2.8453143    138233.08   -40969.128    4076.4004   -45045.528    96.361614   0.99720355 
    8800    294.24636   -126.75363    138318.98   -40950.829    4040.7651   -44991.594    97.653715   0.99658426 
    8900    296.96607    101.62277    138383.66   -40933.443    4078.1139   -45011.557    98.923957   0.99611843 
    9000    292.59643   -80.551954    138047.93    -40829.85    4018.1073   -44847.957    99.942535   0.99854099 
    9100    293.06453    157.33289    138056.02   -40876.754    4024.5356    -44901.29    101.45669    0.9984825 
    9200    292.47372   -199.98529    137546.95   -40980.882    4016.4223   -44997.304     102.6712    1.0021779 
    9300    289.46056    76.720651    137595.95   -40889.597    3975.0437    -44864.64    104.33214     1.001821 
    9400    294.36349    90.825969    137598.15    -40984.42    4042.3737   -45026.793    105.96128     1.001805 
    9500    292.48574    4.3373997    137825.08   -41023.283    4016.5873    -45039.87    107.39742    1.0001555 
    9600    294.59095    93.912425    138160.26   -41057.907    4045.4973   -45103.404    109.53779   0.99772915 
    9700    292.69043    28.582232     138339.8    -40997.78    4019.3982   -45017.178    111.05047   0.99643424 
    9800    294.29733   -162.91835    138158.56   -40967.406    4041.4652   -45008.871    112.01556   0.99774138 
    9900    288.73708    79.923831    138008.71   -40982.481    3965.1084   -44947.589    112.91416   0.99882473 
   10000    291.31871   -112.16237    137828.62   -41047.948    4000.5609   -45048.509    114.19811    1.0001299 
   10100    290.95264   -77.200108    138137.57   -41011.581    3995.5339   -45007.115    116.38268     0.997893 
   10200     290.6649    34.825833    138067.36   -41059.766    3991.5824   -45051.348    118.16516   0.99840044 
   10300    292.61433   -11.988013    138248.74   -40981.311    4018.3532   -44999.664    119.31307   0.99709055 
   10400    294.94394   -328.65871    138364.14   -40917.586    4050.3448    -44967.93    120.53475   0.99625899 
   10500    293.49854   -31.905877    137948.57   -40900.411    4030.4956   -44930.907    121.99643   0.99926018 
   10600    292.36421   -101.26588    138111.96   -40911.107    4014.9184   -44926.025    123.28952   0.99807802 
   10700    298.82834   -211.95363    138092.35   -40961.065    4103.6876   -45064.752     124.0293   0.99821977 
   10800    294.34607    237.94885    138077.07   -40895.425    4042.1344   -44937.559    125.07779   0.99833026 
   10900    295.05441   -267.29476    138260.44   -40929.137    4051.8618   -44980.998    126.50511   0.99700619 
   11000    297.82739   -18.187049    138094.09   -40887.888     4089.942    -44977.83    127.93383   0.99820724 
   11100    290.12769   -94.479617    138075.22   -40990.808    3984.2052   -44975.013    129.12426   0.99834361 
   11200    290.97517    15.651979     137816.7   -40944.343    3995.8433   -44940.187    130.18945    1.0002163 
   11300    287.99843   -17.876409    137904.73   -40986.278    3954.9649   -44941.243    130.99855   0.99957788 
   11400    290.81029   0.87230634    137796.98   -41055.206    3993.5791   -45048.785    132.41512    1.0003595 
   11500    285.70965    297.24364    137686.09    -41164.57     3923.534   -45088.104    133.57004    1.0011652 
   11600    288.49126     122.6701    138263.52   -41167.802    3961.7328   -45129.535    135.83386   0.99698397 
   11700    291.15179   -85.094547    137930.27   -41077.122    3998.2687   -45075.391    137.17528   0.99939281 
   11800    285.50688    293.24627     138021.5   -41084.262    3920.7495   -45005.012    138.35632   0.99873219 
   11900    289.87675   -18.021164    137958.58   -41155.152    3980.7591   -45135.911    139.74177   0.99918774 
   12000    292.71559    142.17007     138258.8   -41118.712    4019.7437   -45138.456    141.09535     0.997018 
   12100    291.36773     164.4458     138359.7   -41051.179    4001.2342   -45052.413    142.60647   0.99629098 
   12200    295.43016   -31.932759    138578.66   -40910.269    4057.0218   -44967.291    144.07791   0.99471679 
   12300    300.69519    -78.03919    138500.73   -40898.544    4129.3243   -45027.868    145.24636   0.99527648 
   12400    297.55886    60.698272    138444.79   -40885.802    4086.2544   -44972.056    146.25215   0.99567862 
   12500    297.70484    140.33796    138524.11   -40947.263     4088.259   -45035.522    147.04695   0.99510847 
   12600     295.8903   -22.202047    138510.62   -40963.448    4063.3407   -45026.789    148.16951    0.9952054 
   12700    289.94671   -210.77297    138401.02   -40990.641    3981.7199   -44972.361    149.72691    0.9959935 
   12800    297.76985   -23.672827     138265.9   -41032.604    4089.1518   -45121.756    150.68669   0.99696684 
   12900    288.89442    28.785544    138514.41   -41080.037    3967.2691   -45047.306    151.74545   0.99517818 
   13000    292.09114   -382.45705    138621.85   -41090.805    4011.1684   -45101.973    153.43597   0.99440685 
   13100     294.0984    88.343935    138657.44   -41055.748    4038.7334   -45094.481    154.26984   0.99415159 
   13200    297.33077    23.540036    138714.59   -40949.462    4083.1221   -45032.584    155.28904   0.99374199 
   13300    298.46017    37.590896    138520.95   -40965.128    4098.6317    -45063.76     156.5614   0.99513121 
   13400    294.57565   -225.22295    138439.71   -40986.296    4045.2873   -45031.583    157.87603   0.99571515 
   13500    292.60233   -179.35567    138521.35    -41025.96    4018.1884   -45044.148    159.21167   0.99512831 
   13600    291.50094    -37.14633    138382.58   -41044.813    4003.0634   -45047.876     159.8829   0.99612626 
   13700    291.52938    7.0662763    138398.85   -41074.675     4003.454   -45078.129    161.49569   0.99600914 
   13800    291.76862    155.36831     138617.5   -41154.102    4006.7394   -45160.841    162.59052   0.99443807 
   13900    293.86762    180.26608    138746.39   -41113.844    4035.5641   -45149.408    163.72583   0.99351423 
   14000    287.13728   -69.709948    138695.27    -41203.63    3943.1391   -45146.769    165.00629   0.99388042 
   14100    286.62099   -401.58814    138561.48   -41116.988    3936.0491   -45053.037    166.40287   0.99484011 
   14200    294.62249    130.06583     138568.6   -41106.085    4045.9304   -45152.015    167.70088   0.99478895 
   14300    294.93799     317.6221    138849.64   -41131.679    4050.2631   -45181.942    169.36189    0.9927755 
   14400    293.24124    42.046527    138785.55   -41058.691    4026.9623   -45085.654    170.78566   0.99323395 
   14500    287.70408   -82.175539    138569.36   -41119.097    3950.9228   -45070.019    172.46156   0.99478356 
   14600    292.40353   -198.18407     138233.9   -40953.669    4015.4583   -44969.127      173.787   0.99719761 
   14700    291.34963   -223.75565    138037.42   -41014.072    4000.9856   -45015.057    174.87489   0.99861704 
   14800    290.64521    205.32639    137924.41   -40991.231     3991.312   -44982.543    176.00905   0.99943527 
   14900    295.02598   -63.475415    138206.26   -40964.322    4051.4714   -45015.794    177.06429   0.99739704 
   15000    289.32903    194.26266    138128.58   -41079.083    3973.2375    -45052.32     178.1567   0.99795799 
   15100    295.13645   -1.8123333    138001.29    -41055.38    4052.9884   -45108.368     179.4794   0.99887849 
   15200     288.8588   -72.853931    138097.96   -41113.493      3966.78   -45080.273    180.27528   0.99817923 
   15300    296.33548   -171.13558    138154.77   -41074.693    4069.4542   -45144.147    181.18012   0.99776878 
   15400    295.71027    34.898671    138127.02   -41002.037    4060.8685   -45062.905    182.33843   0.99796922 
   15500    291.69752   -206.51995    138044.32    -41029.39     4005.763   -45035.153     183.5134    0.9985671 
   15600    289.55258   -68.027716    138133.62   -41064.595    3976.3075   -45040.903     184.8825   0.99792155 
   15700    292.36104   -94.154117     137948.4    -41040.93    4014.8749   -45055.805     186.0249   0.99926146 
   15800    293.46365    46.654861    137583.03   -41029.978    4030.0166   -45059.994    186.89725    1.0019151 
   15900    298.06864    67.125977    137627.23   -41041.165     4093.255    -45134.42    188.96955    1.0015934 
   16000     290.2722    175.14935    137625.69   -41086.513    3986.1897   -45072.703    190.11401    1.0016046 
   16100       288.61   -12.577551    137704.61   -41071.052    3963.3634   -45034.416    191.46182    1.0010305 
   16200    300.19674    3.2646486    137877.78     -40910.9    4122.4793   -45033.379     192.6572   0.99977328 
   16300    295.50068   -1.1020645    137987.63   -40872.163    4057.9903   -44930.154     194.7269   0.99897733 
   16400    293.80994    285.79575    138324.66   -40869.306    4034.7721   -44904.078    196.52118   0.99654332 
   16500    293.84131   -133.41419    138514.65    -40900.15    4035.2029   -44935.352    197.89725   0.99517644 
   16600    294.86257   -241.92454    138239.83   -40938.475    4049.2273   -44987.702    198.91361   0.99715487 
   16700    293.06429   -97.188675    138437.31   -41016.783    4024.5323   -45041.316     200.2741   0.99573239 
   16800    290.04517   -78.015336    138307.81    -40954.86    3983.0719   -44937.932    201.81737   0.99666474 
   16900    291.14122    19.323689    138452.46    -40974.09    3998.1236   -44972.214    203.32164   0.99562348 
   17000    296.23065   -76.482869    138558.45   -40960.599    4068.0146   -45028.614    205.06506   0.99486184 
   17100    295.78568    89.317962    138276.91   -40946.414     4061.904   -45008.318    205.70706   0.99688744 
   17200    296.32597    51.963843     138055.9   -40933.402    4069.3236   -45002.725    206.21857   0.99848337 
   17300    288.72159   -109.57892    138028.15    -40972.51    3964.8958   -44937.406    207.47691    0.9986841 
   17400    292.05015   -108.73408    137796.28   -40958.441    4010.6055   -44969.046    208.58902    1.0003646 
   17500    294.69685    229.67511     137868.9   -41000.173    4046.9515   -45047.125     209.6885   0.99983768 
   17600    295.32892   -53.859302    137989.04   -41015.648    4055.6316    -45071.28    210.96716   0.99896711 
   17700    290.47798    363.97911    138287.39   -40984.558    3989.0156   -44973.573    212.63376   0.99681192 
   17800    290.34556    1.1733775     137998.9   -41042.302    3987.1971   -45029.499    214.16642   0.99889579 
   17900    292.30694    113.91484    138075.18   -41081.168    4014.1319     -45095.3    215.67041   0.99834392 
   18000     286.8206    109.45497    137875.87   -41141.836    3938.7902   -45080.626    216.46191   0.99978709 
   18100      293.732    74.433366    138013.98   -41086.141    4033.7016   -45119.842    218.73438   0.99878665 
   18200    291.36747    44.238713    138408.49   -41054.194    4001.2306   -45055.425    220.50454   0.99593972 
   18300    294.89714    129.98864    138268.78   -41049.469    4049.7021   -45099.171    221.41949   0.99694604 
   18400    295.99074   -189.38793    138129.42   -41116.338      4064.72   -45181.058    222.36098    0.9979519 
   18500    292.85739    84.097101       138156   -41022.372    4021.6911   -45044.063     224.0765   0.99775993 
   18600    293.88089    19.159149    138088.16   -41021.838    4035.7463   -45057.584    225.42931   0.99825009 
   18700    293.17062     121.9925    138249.11   -40914.421    4025.9924   -44940.414     227.0305   0.99708792 
   18800    297.00691    29.541386    138121.89   -41012.632    4078.6747   -45091.307    228.05607   0.99800634 
   18900    291.16782     21.79872    138483.47   -41029.952    3998.4889   -45028.441    230.76828    0.9954005 
   19000    289.94858    20.724824    137991.82   -41024.189    3981.7456   -45005.934    232.00499   0.99894703 
   19100    293.00892     19.64462    138527.79   -41064.126    4023.7719   -45087.898    233.40915   0.99508204 
   19200    290.46697    230.71125    138325.22   -41023.399    3988.8643   -45012.263    235.36465   0.99653931 
   19300    288.97576   -165.73885    138190.06   -40968.785    3968.3861   -44937.171    236.14531   0.99751396 
   19400    294.15122   -165.45106     138145.6   -41046.385    4039.4586   -45085.844    237.71999   0.99783499 
   19500    292.72615    10.603281    138477.26   -41018.477    4019.8888   -45038.366    239.96124   0.99544516 
   19600    288.16903    57.028814    138121.58   -41023.584    3957.3077   -44980.891     241.1491   0.99800852 
   19700    287.96466      197.829    138066.57   -40986.255    3954.5012   -44940.756    242.15645   0.99840617 
   19800    290.51252   -201.82468    137786.48   -40980.532    3989.4899   -44970.022    243.26533    1.0004357 
   19900    295.90334    107.70317    137658.76   -40942.299    4063.5198   -45005.819       244.75    1.0013639 
   20000    298.15165    13.900626    137945.74   -40924.231    4094.3949   -45018.626    245.96656   0.99928068 
   20100    293.44425   -107.25004    138053.16   -40922.711    4029.7501   -44952.461    247.42554   0.99850315 
   20200    294.83322    215.88606    137931.61   -40873.953    4048.8243   -44922.777    248.89162   0.99938308 
   20300    294.69423   -186.80025    138087.84   -40844.672    4046.9156   -44891.587    250.88408   0.99825242 
   20400    295.34048   -126.92646    138009.82   -40908.114    4055.7903   -44963.904    252.68018   0.99881675 
   20500    299.90309   -165.88494    137748.04   -40858.047    4118.4468   -44976.494    254.11256    1.0007149 
   20600    290.90061   0.60935246    137725.63    -40927.29    3994.8194    -44922.11    255.53617    1.0008777 
   20700    294.88218   -233.06454    137924.05    -41036.45    4049.4966   -45085.947    257.41664   0.99943789 
   20800    290.99937   -34.311661    137699.82   -41067.398    3996.1756   -45063.574    258.58627    1.0010653 
   20900    293.26297   -40.635239    137703.23   -40966.455    4027.2607   -44993.716     259.8359    1.0010406 
   21000     291.0448   -108.48647    137674.77   -40919.143    3996.7995   -44915.942    261.15424    1.0012475 
   21100    290.86554    14.666991    137771.97   -40975.166    3994.3378   -44969.504    262.20959    1.0005411 
   21200     288.9508    79.376455    137610.37   -41040.085    3968.0434   -45008.129    263.31195    1.0017161 
   21300    288.16482    140.69155    137899.43   -41074.541    3957.2499   -45031.791    264.87615   0.99961629 
   21400    294.47333    183.93122    137861.09   -40963.631    4043.8821   -45007.513    266.35773    0.9998943 
   21500    294.88861   -14.904761    137993.55   -40931.473    4049.5849   -44981.058    268.10894   0.99893451 
   21600    291.00298   -124.40018    138181.52    -40954.17    3996.2252   -44950.395    270.05397   0.99757566 
   21700    294.36712    118.44255    138095.87   -40960.492    4042.4235   -45002.916    271.55327   0.99819437 
   21800    297.83698    96.378651    138261.75   -40877.965    4090.0737   -44968.039    272.91968   0.99699674 
   21900    295.05029    -305.9769    138168.02   -40877.225    4051.8053    -44929.03    274.07902   0.99767307 
   22000     295.0425     68.73414    138244.05   -40960.842    4051.6982   -45012.541    275.32225   0.99712444 
   22100    293.27692    164.44958    138417.13   -40904.974    4027.4523   -44932.427    277.00011   0.99587759 
   22200    292.56337   -262.51448    138419.81   -40888.209    4017.6534   -44905.862    277.96797    0.9958583 
   22300    294.74227   -235.00192    138209.06   -40911.609    4047.5753   -44959.184    278.92017   0.99737685 
   22400    298.98751   -31.127552    138441.45   -40970.536    4105.8735    -45076.41    280.16655   0.99570264 
   22500    293.12293   -125.32743    138238.03    -41009.87    4025.3376   -45035.208    281.08498   0.99716782 
   22600     287.4171      103.454    138097.15   -41056.981    3946.9818   -45003.963    281.89984   0.99818509 
   22700    291.66834   -28.227436    137760.29   -41008.899    4005.3623   -45014.261     282.6378    1.0006259 
   22800    290.47718   -165.44901    137659.67   -41136.395    3989.0046     -45125.4    284.07758    1.0013573 
   22900    295.18945   -6.6284422    138076.65   -41107.232    4053.7162   -45160.948    285.84715   0.99833333 
   23000    296.16631   -67.072618    137949.68   -40975.054    4067.1311   -45042.185    286.79387   0.99925218 
   23100    297.42757   -111.78258    137608.52   -40986.697    4084.4514   -45071.149    287.04859    1.0017295 
   23200    293.20149  -0.47892465    137969.14   -41009.553    4026.4165    -45035.97    289.07186   0.99911124 
   23300    293.17981    147.26426    138101.51   -41115.365    4026.1187   -45141.483     290.0683    0.9981536 
   23400    292.51549   -219.98885    138274.03   -41017.691    4016.9959   -45034.687    291.69295   0.99690823 
   23500    289.31347    -84.41138    138264.06     -41053.3    3973.0238   -45026.324    292.53382   0.99698012 
   23600    291.46227    129.02939    138279.17   -41062.527    4002.5324   -45065.059    293.44351   0.99687114 
   23700    287.59375    385.73452    138246.96   -41102.616    3949.4076   -45052.024    294.17197   0.99710339 
   23800    296.06114   -118.10244    138474.64   -41036.058    4065.6869   -45101.745    295.55127   0.99546397 
   23900    292.29741    -13.07406    138511.14   -40988.205    4014.0011   -45002.206     296.7267   0.99520168 
   24000    295.98984   -240.48752    138538.83    -40963.93    4064.7076   -45028.638    298.19721   0.99500275 
   24100    293.22617   -104.54421    138403.65   -40955.991    4026.7553   -44982.746    298.96381   0.99597456 
   24200    297.18254   -43.717154     138250.1   -40896.071    4081.0865   -44977.157    299.92076   0.99708077 
   24300    298.42035    139.49034    138608.62   -41000.358    4098.0848   -45098.442    301.51267   0.99450176 
   24400     299.2811   -148.62315    138350.52   -40946.405    4109.9052    -45056.31    301.78916   0.99635705 
   24500    293.43768   -52.399076    138345.88   -41017.439    4029.6599   -45047.099    302.70531   0.99639051 
   24600    294.01387   -84.737042    138086.46   -40991.949    4037.5724   -45029.521    303.88818   0.99826239 
   24700    294.65115   -26.406575    138299.35   -40952.361     4046.324   -44998.685    305.60889   0.99672572 
   24800    286.05306    226.21143    138275.51   -40957.798    3928.2499   -44886.047    306.30743   0.99689755 
   24900    296.58891    119.12708    138381.46   -40978.041    4072.9345   -45050.976     307.6715   0.99613427 
   25000    289.46929    179.08797    138217.98   -41011.816    3975.1636   -44986.979    309.02205    0.9973125 
   25100     287.1544   -128.30035     138165.6   -41047.945    3943.3742    -44991.32    310.28909   0.99769056 
   25200    293.49558   -238.65611    137950.03   -41069.915    4030.4551    -45100.37    311.59898   0.99924962 
   25300    291.47278   -70.435387    137915.05   -41118.533    4002.6767   -45121.209     312.9076   0.99950309 
   25400    290.82369   -10.121412     137994.1   -41012.148    3993.7631   -45005.911    314.03521   0.99893053 
   25500    292.45732     120.5405    138591.66   -41072.391     4016.197   -45088.588    316.33511   0.99462345 
   25600    291.33664    149.07485    138542.83   -41132.222    4000.8072   -45133.029    316.50528   0.99497402 
   25700    288.88556   -194.62866    138473.15   -41148.226    3967.1475   -45115.374     317.5917   0.99547468 
   25800    286.59665   -111.64422    138299.93   -41279.156    3935.7149   -45214.871    318.59822   0.99672149 
   25900    286.51587    552.31468    138330.49   -41279.153    3934.6055   -45213.758    319.76807   0.99650131 
   26000    292.59505   -389.55925    138335.88   -41131.662    4018.0884   -45149.751    320.98858   0.99646247 
   26100    285.47069     161.1976    138069.86   -41145.243    3920.2525   -45065.495    321.37719   0.99838241 
   26200    292.84571    381.06468    138443.75   -40963.302    4021.5306   -44984.832    323.13365   0.99568606 
   26300    292.23943    124.71423    138410.71   -41057.279    4013.2048   -45070.484    324.34034   0.99592375 
   26400    294.84201   -80.559545    138534.72   -41016.786    4048.9449   -45065.731    325.51617   0.99503223 
   26500    298.75481   -27.012177    138352.83   -40911.332    4102.6779    -45014.01    326.46113   0.99634039 
   26600    292.30602   -26.889569    138197.69   -41050.397    4014.1193   -45064.516    327.88274    0.9974589 
   26700    296.26975   -81.340285    138272.99   -41005.815    4068.5515   -45074.367    329.54425   0.99691568 
   26800     290.8185    19.968686    138309.28   -41054.307    3993.6918   -45047.998    331.53704   0.99665414 
   26900     291.8967   -112.94759    138484.81   -41135.615    4008.4982   -45144.113    332.13141   0.99539085 
   27000    284.23299    -208.3272     138117.6   -41155.112    3903.2556   -45058.368    332.26509   0.99803732 
   27100    295.53295    109.31362    138150.33   -41048.436    4058.4334   -45106.869    332.59739   0.99780084 
   27200    298.18385   -122.22521    138237.01   -41009.363    4094.8371     -45104.2    333.75968   0.99717517 
   27300    295.86861    44.844957    138033.68   -40973.936    4063.0429   -45036.979    334.34596   0.99864406 
   27400    294.60457   -31.953619    138476.95   -40998.323    4045.6844   -45044.008    335.33724   0.99544734 
   27500    297.19561    -212.3551    138352.36   -41030.533     4081.266   -45111.799    336.21769   0.99634379 
   27600    289.71927    242.00315    138200.52   -40968.831    3978.5966   -44947.427    337.37893   0.99743845 
   27700    299.48014   -201.01095    138016.08   -40949.792    4112.6385    -45062.43    338.07001   0.99877145 
   27800    292.54547    162.14703     138224.6   -40983.153    4017.4076    -45000.56    339.33061   0.99726468 
   27900    293.32973    1.6882798    138355.87   -40908.832    4028.1775    -44937.01    341.15614    0.9963185 
   28000    294.89635   -100.40828    137858.57    -40875.66    4049.6912   -44925.351    342.00615   0.99991259 
   28100    292.58964   -23.964754    137840.54   -40963.394    4018.0141   -44981.408    343.56229    1.0000434 
   28200    293.34121    121.87774     138230.6   -41081.269    4028.3351   -45109.604    345.34197   0.99722146 
   28300    291.64411   -233.47203    138246.36   -41054.758    4005.0296   -45059.787    346.68714   0.99710778 
   28400    296.48402    96.266169    138385.53   -40955.221    4071.4941   -45026.715      347.888   0.99610502 
   28500    297.48271   -248.54291    138179.23    -41032.35    4085.2086   -45117.558    348.77865    0.9975922 
   28600     291.6444   -168.56354    138111.34   -41094.851    4005.0336   -45099.885    349.26046   0.99808251 
   28700    290.89996   -261.06525    137967.29   -41120.959    3994.8104   -45115.769    350.07736   0.99912465 
   28800    288.34716    159.02506    137755.38   -41053.271    3959.7538   -45013.025    350.32313    1.0006616 
   28900    291.47805    128.51051    137692.72   -41059.488    4002.7491   -45062.237    351.82473    1.0011169 
   29000    297.49801   -232.95632    137943.73   -41044.479    4085.4187   -45129.898    353.39803   0.99929527 
   29100    296.81583    252.67364     138023.2    -41033.96    4076.0506   -45110.011    354.86115   0.99871992 
   29200    290.21519     97.69205    137745.62   -41111.483    3985.4067    -45096.89    355.31018    1.0007325 
   29300    290.45594    203.00412    138187.53   -41004.287    3988.7129       -44993    357.66503   0.99753224 
   29400    291.22105   -12.777905    137942.86   -41080.878    3999.2198   -45080.098    358.19597   0.99930156 
   29500    288.24506    8.7752991    137987.11   -41040.144    3958.3518   -44998.496    359.91365   0.99898108 
   29600    293.31599   -199.50238    138320.26   -41056.845    4027.9888   -45084.834    362.32725   0.99657502 
   29700    294.33387   -79.413081    138386.22   -40966.858    4041.9669   -45008.825    363.05439       0.9961 
   29800    297.25504   -119.30962    138279.43   -40900.125    4082.0821   -44982.207    364.30504   0.99686931 
   29900    294.14513    3.8550388    138089.28   -40917.699    4039.3751   -44957.074    364.67065     0.998242 
   30000    298.73143    4.1708005    138089.43    -40944.91    4102.3569   -45047.266    366.42329   0.99824088 
   30100    293.82211   -105.82432    137971.79   -40966.468    4034.9391   -45001.407    368.23021   0.99909201 
   30200    294.42789    173.84317    138143.68   -40979.189    4043.2581   -45022.447    369.68206    0.9978489 
   30300    292.73292    163.34941    138254.98   -40980.744    4019.9817   -45000.726    371.64184   0.99704556 
   30400    289.95674      51.0803    138307.17     -41100.6    3981.8576   -45082.457    373.05728   0.99666931 
   30500    289.20464   -126.21613    138198.98   -41094.728    3971.5292   -45066.257    374.73549   0.99744959 
   30600    287.70699    47.159455    138215.49    -41146.43    3950.9627   -45097.392    375.40999   0.99733045 
   30700    292.10345   -85.818567     138378.1   -41035.045    4011.3375   -45046.382    376.38112   0.99615848 
   30800    295.79797    -179.9022    138426.39    -40981.86    4062.0728   -45043.933    377.97055   0.99581093 
   30900     293.5041    58.590778    138572.03   -41022.196     4030.572   -45052.768    380.11767   0.99476436 
   31000    290.85783     70.36739    138611.87   -41006.562    3994.2319   -45000.794    381.11713   0.99447844 
   31100    286.58489     145.0517    138353.01   -41144.718    3935.5534   -45080.272    381.72995   0.99633914 
   31200    292.58623   -314.68881    138290.33   -41092.361    4017.9673   -45110.328    382.45428   0.99679068 
   31300    290.13973   -37.822511    137877.48   -41090.766    3984.3706   -45075.136    382.90988   0.99977542 
   31400    292.60967   -142.92481    138096.45   -41090.459    4018.2892   -45108.748    384.51443   0.99819016 
   31500    289.63072   -22.217129       138295   -40952.351    3977.3805   -44929.732    386.12465   0.99675707 
   31600    294.15529   -44.147179    138376.42   -41029.477    4039.5145   -45068.992    388.73586   0.99617055 
   31700    291.47043   -194.72152    138249.87   -41018.413    4002.6444   -45021.057    389.67775   0.99708242 
   31800    289.80175    3.4731472     137989.1   -41042.142    3979.7292   -45021.871    390.75479   0.99896668 
   31900    296.69612   -52.582189    137829.04   -40974.135    4074.4067   -45048.542     391.9247    1.0001268 
   32000    295.25667    97.443721    137825.17   -40984.578    4054.6393   -45039.217    393.29881    1.0001549 
   32100    291.48342    96.123526     138289.3   -40990.826    4002.8229   -44993.649    395.32598   0.99679816 
   32200    289.15784   -12.219281    138015.09   -41002.796    3970.8867   -44973.683    395.83789   0.99877857 
   32300    289.94181     144.7699    137998.71   -40978.791    3981.6526   -44960.444    397.04576   0.99889712 
   32400    294.74212    118.74151    138074.68   -40878.859    4047.5732   -44926.432    398.64724   0.99834753 
   32500    296.14407    113.00718    138277.87   -40971.598    4066.8256   -45038.423    400.10207   0.99688057 
   32600    290.07693   -115.55725    138232.78    -41030.98    3983.5081   -45014.488    400.67496   0.99720568 
   32700    295.39678    -130.0705     138249.5   -40981.081    4056.5635   -45037.645    402.10726   0.99708512 
   32800    283.57481   -195.22795    138016.68   -41079.486    3894.2172   -44973.703    403.61324   0.99876711 
   32900    285.25567   -34.763158    138051.49   -41161.424    3917.2997   -45078.723    405.36342   0.99851524 
   33000    286.72353    226.86824    138119.01   -41093.568    3937.4572   -45031.025    406.78492   0.99802709 
   33100    295.71293   -14.409791    138322.43   -41040.773    4060.9049   -45101.678    408.42076   0.99655938 
   33200    296.91114   -304.69022    137994.43   -41026.168    4077.3595   -45103.528     410.2808   0.99892815 
   33300    288.81479   -39.464216     138135.5   -41022.016    3966.1757   -44988.191    412.52956   0.99790797 
   33400    293.29547   -90.928726       138038   -41024.777     4027.707   -45052.484    412.92348    0.9986128 
   33500     295.8884     220.6448    138163.49   -40961.541    4063.3147   -45024.856    414.31885   0.99770583 
   33600    295.01941   -111.94621    138192.99   -41029.298    4051.3811   -45080.679     415.4412   0.99749284 
   33700    292.38286   -28.049631    138535.86   -41032.306    4015.1745    -45047.48    417.07169   0.99502409 
   33800    292.27511   -79.967077    138196.67   -41021.169    4013.6948   -45034.864    417.70858   0.99746627 
   33900    295.40448    -109.1829    137939.22   -41001.954    4056.6691   -45058.623    418.52212   0.99932792 
   34000    295.35912   -62.304512    138188.79   -41065.665    4056.0463   -45121.711    421.64967   0.99752316 
   34100    287.09136   -26.027266    138142.97   -41121.529    3942.5085   -45064.038    423.09861   0.99785402 
   34200    292.37377   -107.68315    138129.07   -41099.278    4015.0497   -45114.327    424.78552   0.99795442 
   34300    297.01892   -36.035841    138376.32   -41036.767    4078.8396   -45115.607    426.55946   0.99617128 
   34400    299.39334    101.60669    138317.69   -40913.369    4111.4465   -45024.816    427.18634   0.99659353 
   34500     298.7398   -106.57682    138416.48    -40878.99    4102.4717   -44981.462    429.13538   0.99588224 
   34600    291.49083   -16.823455    138480.44   -41026.216    4002.9246   -45029.141    430.72169   0.99542232 
   34700    293.67525   -74.611872    138253.63    -41058.79    4032.9223   -45091.712    430.84146   0.99705533 
   34800    293.63057   -187.95495    138241.66   -41093.008    4032.3088   -45125.317    432.03594   0.99714162 
   34900    294.04309    49.692253    138413.16   -41040.194    4037.9737   -45078.168    433.46891   0.99590618 
   35000    293.93458   -1.1130176    138548.54   -41089.849    4036.4836   -45126.332     435.6209   0.99493301 
   35100    291.30998    179.60177    138525.33   -40980.468     4000.441   -44980.909    436.60271   0.99509972 
   35200     296.2776   -55.491471    138515.48   -40854.981    4068.6593   -44923.641    438.15335   0.99517049 
   35300    293.60513    250.85171    138355.92   -40958.229    4031.9595   -44990.189    438.62716   0.99631814 
   35400    290.76503   -113.80705    138316.71   -41076.245    3992.9576   -45069.203    439.75696   0.99660061 
   35500    292.60736    -294.5199    138002.73   -41018.578    4018.2575   -45036.836    439.60707   0.99886804 
   35600    290.96638    157.25147    138491.59   -41022.646    3995.7225   -45018.369    441.34824   0.99534212 
   35700    293.12047    119.03211    138497.61    -40996.78    4025.3037   -45022.084    442.92492   0.99529886 
   35800    293.73916   -82.577277    138517.33   -40969.783       4033.8   -45003.583    444.10505   0.99515718 
   35900    295.93401   -54.479308    138493.65   -40931.331     4063.941   -44995.271      445.194   0.99532733 
   36000    290.38202    11.601566    138528.33   -40952.575    3987.6978   -44940.272    446.29183    0.9950782 
   36100    291.37027    4.7098903     138542.1   -41022.655     4001.269   -45023.924    447.47015   0.99497929 
   36200     293.8177   -196.76802    138666.69   -40941.796    4034.8786   -44976.675    449.56961    0.9940853 
   36300    292.72666     -168.337    138430.21   -40922.548    4019.8958   -44942.444    450.60121    0.9957835 
   36400    300.28536    48.000946    138182.08   -40821.727    4123.6962   -44945.423    450.43466   0.99757155 
   36500    298.58784   -68.614206    138185.49   -40850.779     4100.385   -44951.164    452.33166   0.99754699 
   36600     292.8521   -223.50674    138247.37   -40990.134    4021.6184   -45011.753    453.72179   0.99710049 
   36700    296.20289   -56.927151    138244.53   -41020.193    4067.6335   -45087.826    455.52931   0.99712093 
   36800    292.30417   -43.052296    138497.78     -41054.9    4014.0939   -45068.994     457.1557   0.99529763 
   36900    290.19436    3.9164349    138438.09   -41082.871    3985.1207   -45067.991    457.39375   0.99572682 
   37000     287.6396    255.66927    138324.41   -41006.391    3950.0373   -44956.428    458.39183    0.9965451 
   37100    292.86604    167.46904    138311.56   -41038.956    4021.8097   -45060.766    459.14278   0.99663772 
   37200    293.90331   -98.169098    138189.17   -41059.512    4036.0542   -45095.566    460.17845   0.99752041 
   37300    291.55955     69.73019    138269.74   -41020.963    4003.8683   -45024.832    461.29085   0.99693917 
   37400    289.70811    34.150678    138381.71   -41095.973    3978.4433   -45074.417    461.65515   0.99613252 
   37500    291.60328    122.17512    138598.46   -41122.879    4004.4689   -45127.348    462.74989   0.99457464 
   37600    290.10402   -38.121555    138601.06   -41112.067    3983.8801   -45095.947    463.84622   0.99455603 
   37700    288.61948   -25.298176    138543.33   -41185.677    3963.4936    -45149.17    464.01183   0.99497044 
   37800    290.64365    72.958645    138668.53   -41137.406    3991.2906   -45128.696    465.51072   0.99407213 
   37900    293.51463   -147.57554    138382.11   -41146.085    4030.7166   -45176.802    466.11504   0.99612958 
   38000    290.57741   -50.447214    138173.07   -41138.428     3990.381   -45128.809    466.32352   0.99763661 
   38100    291.61997    130.06171    138103.07   -41132.211     4004.698   -45136.909    466.72632   0.99814229 
   38200    285.66367    1.3247006    138019.29   -41226.711    3922.9026   -45149.614     467.0668   0.99874817 
   38300    280.82253    231.44231    138198.75   -41219.899    3856.4211    -45076.32    469.44741   0.99745123 
   38400    283.42988    126.82926     138209.5    -41272.75    3892.2269   -45164.977    470.10626    0.9973737 
   38500    286.22148   -120.43371    138344.94   -41201.199    3930.5627   -45131.762    471.32169   0.99639724 
   38600     293.2497  -0.99804445    138245.38   -41092.081    4027.0784    -45119.16    471.90247    0.9971148 
   38700    291.17944    46.509411     138732.9   -41077.021    3998.6484   -45075.669    475.05915   0.99361083 
   38800    293.63238   -183.42332    138714.45   -41045.577    4032.3337   -45077.911       475.89   0.99374303 
   38900    292.35091    -280.8405    138785.29   -40946.949    4014.7358   -44961.685    477.20444    0.9932358 
   39000     292.4924   -173.85882    138281.46   -40943.062    4016.6787   -44959.741    476.78334   0.99685468 
   39100    293.29918   -107.80813    138060.93   -41033.117     4027.758   -45060.875    477.13635   0.99844695 
   39200    293.58221    247.74127    138443.89   -40982.911    4031.6446   -45014.556    479.39617   0.99568511 
   39300     292.8967   -178.96001    138316.58   -40956.604    4022.2308   -44978.835    480.09603   0.99660157 
   39400    294.91478   -192.87859    138123.01   -40987.456    4049.9444   -45037.401     481.1041   0.99799819 
   39500    294.59605    45.055585    138144.43   -40925.979    4045.5673   -44971.546    481.64891   0.99784347 
   39600    295.92882   -134.06816    138098.94   -40955.907    4063.8697   -45019.777    482.78555   0.99817215 
   39700    294.45938    98.528379    138269.07   -41044.681    4043.6905   -45088.372    484.57543   0.99694399 
   39800    292.84769    154.76052    138190.33   -41044.769    4021.5579   -45066.327    485.24596   0.99751202 
   39900     289.0323   -169.07163    137954.35   -41204.092    3969.1627   -45173.255    485.37052   0.99921832 
   40000    291.46868   -58.428795    137406.46   -41099.634    4002.6204   -45102.254    484.81389    1.0032026 
   40100    291.71713   -128.87849    137583.23   -41031.113    4006.0322   -45037.145    486.38142    1.0019136 
   40200      296.075   -112.70904    137771.35   -40966.875    4065.8771   -45032.752    488.29937    1.0005456 
   40300     292.8677    324.02423    137817.37   -41044.159    4021.8325   -45065.991    489.59131    1.0002115 
   40400    291.59946    49.277638    138067.42   -41041.601    4004.4164   -45046.017    491.56684   0.99840004 
   40500     295.3249    92.402726    138159.26   -41024.308    4055.5764   -45079.884    493.45051   0.99773638 
   40600    293.37754   -459.30669    137961.92   -41033.964    4028.8341   -45062.798    493.80435   0.99916355 
   40700    294.75733   -46.354437    137588.16   -41017.045    4047.7821   -45064.827    495.24052    1.0018778 
   40800    297.14347   -52.636187    137619.36   -41059.503      4080.55   -45140.053    496.38644    1.0016506 
   40900    295.15192    91.592143    137644.02    -41084.73    4053.2008   -45137.931    497.21991    1.0014711 
   41000    293.77903    215.62467    137628.38   -41068.174    4034.3475   -45102.522    498.03977     1.001585 
   41100     289.9002    48.396651    137597.34   -41055.278    3981.0812   -45036.359    498.84388    1.0018109 
   41200    295.17108     204.6879    137778.75   -40957.574     4053.464   -45011.038    500.44888    1.0004919 
   41300    293.53115    12.282702    137891.12   -41082.954    4030.9435   -45113.898     502.3645   0.99967654 
   41400     291.2138     66.52199    138141.15   -41070.648    3999.1203   -45069.769    504.02161   0.99786719 
   41500    291.14633    -99.20374    137704.81   -41057.008    3998.1937   -45055.201      504.677    1.0010291 
   41600    297.88367   -184.21521    137649.22   -41002.447    4090.7149   -45093.162    505.49203    1.0014334 
   41700      292.312   -94.166436    137701.39   -41103.414    4014.2014   -45117.616    507.43016    1.0010539 
   41800     291.5126    327.12175    137483.73   -41021.704    4003.2236   -45024.928    508.17888    1.0026388 
   41900    292.94814    44.816313    137718.81   -41030.684    4022.9373   -45053.621    510.01501    1.0009273 
   42000    293.39447    51.957111    138141.29   -41021.511    4029.0666   -45050.577    512.75926   0.99786617 
   42100    295.09887   -141.34838    138358.98   -41043.662    4052.4723   -45096.135    514.57338   0.99629611 
   42200      294.199   -40.740961    138388.38   -41027.553    4040.1147   -45067.667    515.29701    0.9960845 
   42300    291.59331    73.658211    138491.86   -41113.965    4004.3319   -45118.297    517.10108   0.99534019 
   42400    289.92691    198.21925    138373.23   -41005.615     3981.448   -44987.063      518.724   0.99619356 
   42500    289.39327    63.824389    138350.77   -41073.459    3974.1197   -45047.578    519.97683   0.99635527 
   42600    292.26705    232.05228    138407.63   -41075.827    4013.5842   -45089.411    519.68094   0.99594594 
   42700    289.18296   -276.30606    138566.55   -41160.763    3971.2316   -45131.994    521.54185   0.99480372 
   42800    289.37305   -77.175582    138377.07   -41120.103     3973.842   -45093.945    521.61813    0.9961659 
   42900    290.55801    140.21113    138748.51   -41066.669    3990.1146   -45056.784    523.54048   0.99349911 
   43000    289.70175    -19.90079    138574.71   -41011.254    3978.3559    -44989.61    524.53369   0.99474516 
   43100    292.62661   -173.04238    138410.82   -41042.857    4018.5218   -45061.379    525.23324   0.99592296 
   43200    292.49107   -98.847734    138582.26   -41048.392    4016.6605   -45065.053    527.68367   0.99469096 
   43300     288.3702   -234.48137    138357.59   -41078.878    3960.0702   -45038.948    528.22493   0.99630612 
   43400    291.64801   -180.42197    138386.55   -41019.996     4005.083   -45025.079    530.29394   0.99609765 
   43500    294.18938    16.528585    138467.97    -41006.36    4039.9827   -45046.343    531.91763   0.99551195 
   43600    297.54435   -167.78314    138126.84   -41037.337    4086.0551   -45123.392    532.16653    0.9979705 
   43700    295.24164    -131.9323    137900.51   -41016.757     4054.433    -45071.19     533.4327   0.99960844 
   43800    294.66411     163.0385    137906.16   -40986.004     4046.502   -45032.506    534.15924   0.99956751 
   43900    293.86831   -108.57553    138121.53   -41100.963    4035.5736   -45136.537    535.05865   0.99800889 
   44000    296.59134   -98.370049    137993.31   -41049.864    4072.9679   -45122.832     535.8814   0.99893624 
   44100     298.2939   -21.330476    138066.34   -40956.076    4096.3484   -45052.425    537.63498   0.99840786 
   44200    288.79643   -68.198373    138275.63   -41069.111    3965.9235   -45035.035    539.17851   0.99689665 
   44300    289.12619   -310.35034    138079.92   -41166.409     3970.452   -45136.861    540.08161   0.99830967 
   44400    290.12843    142.80367    138159.65   -41137.921    3984.2154   -45122.136     541.3375   0.99773357 
   44500    291.42857   -117.62113    137929.02   -41138.941    4002.0696   -45141.011    542.41005   0.99940186 
   44600    293.23739   -131.06868    138006.32   -41181.968    4026.9095   -45208.878    544.40069   0.99884206 
   44700    290.18839   -78.797194    138171.76   -41213.956    3985.0388   -45198.995    545.46145   0.99764613 
   44800    289.54381    22.263028     137949.8   -41139.455     3976.187   -45115.642    546.60504   0.99925133 
   44900    289.93618    103.44134    137634.83   -41163.418    3981.5753   -45144.993    546.71051     1.001538 
   45000    291.94026    127.09896    137798.76   -41147.719    4009.0964   -45156.816    549.75684    1.0003465 
   45100    289.77225    5.4339847    137885.94   -41067.237    3979.3241   -45046.561      551.541   0.99971407 
   45200    285.66749    62.200398    138002.04   -41094.393     3922.955   -45017.348    552.78074   0.99887303 
   45300    291.39007    31.239386     137846.4   -41123.641    4001.5408   -45125.182    554.03512    1.0000009 
   45400    289.96797    30.076322    137949.29   -41134.535    3982.0118   -45116.547    555.04239     0.999255 
   45500    292.85967    88.953881    137793.23   -41035.903    4021.7223   -45057.625    555.55461    1.0003867 
   45600    294.75414    206.00002    137955.56   -41106.873    4047.7383   -45154.611    557.34823   0.99920957 
   45700    294.37251   -121.43502    138280.84   -41018.783    4042.4976    -45061.28    558.96881   0.99685912 
   45800    295.63715    -258.6228    138055.72   -41024.001    4059.8643   -45083.865    559.90401   0.99848465 
   45900    290.13169    234.40297     137797.3   -40994.763    3984.2601   -44979.024    559.72574    1.0003572 
   46000    293.35776   -262.01264    138110.37   -41006.694    4028.5624   -45035.257    562.42012   0.99808954 
   46100    297.77591    310.89641    138416.43   -41000.252     4089.235   -45089.487    564.42734   0.99588261 
   46200     293.4247   -148.42647    138563.06   -40992.238    4029.4816    -45021.72    567.12117   0.99482872 
   46300    288.70928   -59.919761    138717.53   -41046.549    3964.7268   -45011.275    568.68082   0.99372099 
   46400    289.43644   -137.32772    138793.92   -41053.119    3974.7125   -45027.832    569.20681   0.99317406 
   46500    292.78537   -113.21802    138477.99   -40997.017     4020.702   -45017.719    569.07375   0.99543992 
   46600    289.67185    119.16128    138182.82   -40948.932    3977.9453   -44926.877    569.91547   0.99756627 
   46700    294.46699   -350.21529    138056.29   -40911.628     4043.795   -44955.423    570.45327   0.99848052 
   46800    294.30408    67.968853    138122.07   -40867.504    4041.5578   -44909.061    572.54941   0.99800502 
   46900    291.88481    106.45407    138049.96    -40880.23    4008.3349   -44888.565    573.96368   0.99852633 
   47000    293.50111   -124.66601    137851.75   -40954.285     4030.531   -44984.816     575.0931   0.99996203 
   47100    295.71892   -131.66122    137864.69   -40957.068    4060.9872   -45018.055    576.08241   0.99986815 
   47200    296.31299    -119.5395    138030.85   -40995.311    4069.1454   -45064.456    577.80576   0.99866456 
   47300    294.69459    157.28082    137970.58   -40916.999    4046.9206   -44963.919    579.66443   0.99910083 
   47400    294.26865   -95.583883    138289.48   -40914.525    4041.0713   -44955.596    583.11677   0.99679686 
   47500    296.92165    285.36847    138605.54   -40927.847    4077.5038   -45005.351    585.69425   0.99452384 
   47600    295.23014   -21.715553    138698.68   -40913.286     4054.275   -44967.561      586.868   0.99385604 
   47700    289.98563    -344.9282    138297.08   -41042.901    3982.2544   -45025.155    587.19114   0.99674205 
   47800     295.5831   -362.18658    137804.08   -41079.402    4059.1221   -45138.524    586.70538     1.000308 
   47900    292.44118    116.60578    137926.42   -41071.733    4015.9754   -45087.708    588.93357   0.99942066 
   48000    293.40633     40.38562    138052.03    -41068.69    4029.2295    -45097.92    590.13925   0.99851136 
   48100    291.95895     202.8578    137757.51   -41104.645    4009.3531   -45113.998    590.81473    1.0006461 
   48200    292.83671    4.4598085    138082.78   -41082.612     4021.407   -45104.019    593.14262   0.99828899 
   48300    293.49081    214.30144       138012   -41079.038    4030.3896   -45109.427    594.15724   0.99880092 
   48400    293.19029    8.3610124    138256.27   -41013.991    4026.2627   -45040.253    595.98184   0.99703626 
   48500    288.59608    179.50324    138422.58   -41084.247    3963.1722   -45047.419    598.26183   0.99583841 
   48600    294.84435    20.163404    138466.92   -41039.936    4048.9772   -45088.913    600.26114   0.99551946 
   48700    290.84898   -14.806874    138502.28   -41115.124    3994.1104   -45109.235    601.59343    0.9952653 
   48800    292.63164   -139.67486    138459.06   -41053.191     4018.591   -45071.782    602.24408   0.99557602 
   48900    288.73861   -186.20198     138082.3   -41038.738    3965.1295   -45003.867    602.17198   0.99829243 
   49000    291.52528   -137.71179    137907.57   -41019.017    4003.3977   -45022.415     603.1052   0.99955732 
   49100    293.41427    25.129978    137895.33    -41106.57    4029.3384   -45135.909    604.33582   0.99964598 
   49200    289.26415   -147.05336    138079.23   -41157.439    3972.3465   -45129.786    605.51549   0.99831463 
   49300    288.94836    92.278581    137850.24   -41095.627      3968.01   -45063.637    605.12758   0.99997296 
   49400    290.27294    175.99763    137876.37   -41096.396    3986.1998   -45082.596    605.31501   0.99978346 
   49500    288.02678   -116.49553    137919.98   -41077.653    3955.3543   -45033.008    606.89515   0.99946732 
   49600    285.55109   -152.74236    137984.48   -41098.035    3921.3566   -45019.392    608.14369   0.99900017 
   49700    294.43838   -123.20769    137957.34   -40998.951    4043.4021   -45042.354    609.77662   0.99919671 
   49800     290.4794   -173.01798    137842.09   -40959.521    3989.0351   -44948.556    610.88412    1.0000321 
   49900    293.98314    52.733069     138065.5   -41020.865    4037.1504   -45058.016    611.89665   0.99841389 
   50000    291.61278   -195.49854    137844.71   -41100.204    4004.5992   -45104.803    612.49215    1.0000131 
   50100    293.53572    85.123903    138212.66   -41115.165    4031.0063   -45146.171    613.85003    0.9973509 
   50200    287.42166   -373.67744    137998.56   -41122.761    3947.0444   -45069.806    615.03773   0.99889824 
   50300    294.85697     232.0036    138005.29   -41042.606    4049.1504   -45091.757    616.72705   0.99884955 
   50400    292.25075    6.0222769    137977.22   -41098.331    4013.3603   -45111.692    618.40327   0.99905273 
   50500    289.58086    33.416669    138257.39   -41104.155    3976.6958   -45080.851    620.53489   0.99702819 
   50600    290.55294    55.889246    138282.79   -41048.755     3990.045     -45038.8    621.56923   0.99684504 
   50700    297.83129    53.966191    138155.01   -40966.545    4089.9956   -45056.541    622.49166   0.99776704 
   50800    293.79785   -86.553555    138123.63   -40964.798     4034.606   -44999.404    623.24486   0.99799371 
   50900    292.84947   -48.599643    138086.67   -40993.877    4021.5822   -45015.459    624.25863   0.99826084 
   51000    295.48986    296.71744    138377.07   -41038.971    4057.8417   -45096.813    625.60894    0.9961659 
   51100    292.39657   -230.51584    138246.52   -40972.421    4015.3628   -44987.784    626.19791   0.99710658 
   51200    299.42745    -156.3842    138282.29   -40848.109     4111.915   -44960.024    628.56514   0.99684864 
   51300     292.6957   -20.944085     138063.7   -40884.711    4019.4706   -44904.182    629.60596    0.9984269 
   51400      288.131   -59.776171       138231   -41068.176    3956.7854   -45024.961    631.91366   0.99721856 
   51500    287.93586   -38.678919    137737.36   -41079.824    3954.1056    -45033.93    631.49129    1.0007925 
   51600    291.86302    165.14777    137898.19   -41059.322    4008.0357   -45067.358    633.30001   0.99962525 
   51700    290.27995    76.831736    137915.39   -41073.688    3986.2961   -45059.985    634.56296   0.99950059 
   51800    288.09837   -71.061933    137820.37   -41106.056    3956.3373   -45062.393     634.7833    1.0001897 
   51900    289.46163   -144.94937    137868.24   -41167.538    3975.0584   -45142.597     636.6334   0.99984245 
   52000      294.703   -182.16492    137651.99   -41090.246    4047.0361   -45137.282    637.52516    1.0014132 
   52100    289.35289   -70.106469    137349.04   -41153.151    3973.5652   -45126.717    637.43788     1.003622 
   52200    291.35599   -77.018724     137579.5   -41143.663    4001.0729   -45144.736    638.88491    1.0019408 
   52300     287.0605   -29.261873    137883.97   -41085.632    3942.0847   -45027.717    641.12863    0.9997284 
   52400    295.40718   -345.87738    137449.64    -41013.54    4056.7062   -45070.246    641.76109    1.0028875 
   52500    284.71686     242.2991    137583.11   -41060.251    3909.9004   -44970.152    644.50693    1.0019145 
   52600    290.50567    137.51223    137503.53   -41155.357    3989.3958   -45144.753    645.69257    1.0024944 
   52700     292.6041   -104.38333    137867.83   -41139.171    4018.2127   -45157.384      648.573   0.99984539 
   52800    287.13386   -76.809725    137425.82   -41203.228    3943.0921    -45146.32    648.29903    1.0030613 
   52900    287.15604   -264.23872    137190.06   -41233.226    3943.3967   -45176.623    648.83011     1.004785 
   53000    289.80618    117.85934    137360.52   -41302.741    3979.7899   -45282.531    651.03352    1.0035381 
   53100    287.31958    5.0925343    137530.33   -41328.477    3945.6425   -45274.119    653.00784    1.0022991 
   53200    289.55316   -36.462308    137881.35   -41134.068    3976.3154   -45110.384     655.4877   0.99974734 
   53300    288.34649    62.288347    138002.05   -41122.057    3959.7447   -45081.802    657.68215   0.99887295 
   53400    298.99659    62.668321    138186.01   -40992.062    4105.9981   -45098.061      660.005   0.99754318 
   53500    295.73222    114.11979    138334.12   -40993.105    4061.1699   -45054.275    661.91556   0.99647519 
   53600    299.37899   -102.16875     138127.4   -40958.549    4111.2496   -45069.799    663.02047   0.99796651 
   53700    294.27987    93.190043    138069.94   -41044.407    4041.2253   -45085.633     663.8183   0.99838185 
   53800     287.2072    19.172148    137831.93   -41079.505    3944.0992   -45023.605    663.60338    1.0001058 
   53900    292.46354    26.587195    138074.18   -41094.645    4016.2824   -45110.927    665.83526   0.99835118 
   54000    295.21665    4.8031944    138300.69   -41041.356    4054.0898   -45095.446    666.92728   0.99671604 
   54100    291.01024    24.945289    137765.93   -41013.123    3996.3249   -45009.448    666.71841     1.000585 
   54200    290.14571   -155.37876    138215.64   -41085.753    3984.4526   -45070.206    668.39795    0.9973294 
   54300    296.92093   -42.795546    138188.75   -41004.371    4077.4939   -45081.865    669.61204   0.99752342 
   54400     292.8579   -62.287844    138228.64   -41119.957     4021.698   -45141.655    670.89596   0.99723554 
   54500     289.6555    42.612799    138432.89     -41066.9    3977.7208   -45044.621    673.00739   0.99576418 
   54600     291.1586   -149.91466    138296.37   -41078.076    3998.3622   -45076.438    673.42997   0.99674719 
   54700    289.58774   -142.72438    138098.98   -41072.415    3976.7903   -45049.205    674.07328   0.99817187 
   54800    292.50092    54.286779    137979.36    -41039.02    4016.7957   -45055.816    674.93271   0.99903721 
   54900    294.58191    38.984451    137924.85   -40956.427    4045.3731   -45001.801    675.04057   0.99943208 
   55000    294.34648    175.12864    138051.28   -40890.945    4042.1401   -44933.085    676.05749   0.99851678 
   55100    292.45573   -370.02443    138106.06   -40913.868    4016.1752   -44930.043    677.49835    0.9981207 
   55200    296.77027    -2.647166    137778.76   -40953.615    4075.4251    -45029.04    677.87101    1.0004918 
   55300     291.9531   -321.81986    137986.47    -40983.29    4009.2727   -44992.563    680.67985   0.99898576 
   55400    290.77585      16.1214    138097.51   -40958.411    3993.1061   -44951.517    681.42743    0.9981825 
   55500    295.94764    206.35762    138192.82   -40899.257    4064.1282   -44963.385    683.39861   0.99749408 
   55600    293.31945     15.77488    138083.27   -40858.697    4028.0363   -44886.733    683.92773   0.99828541 
   55700    293.48037   -1.1341571    138123.67   -40942.473    4030.2462   -44972.719    685.75021   0.99799343 
   55800    290.65543   -123.69331    138045.57   -41057.358    3991.4524    -45048.81    687.39652   0.99855806 
   55900    295.18759    171.51194     138387.7   -41097.644    4053.6907   -45151.334    690.01078    0.9960894 
   56000    289.40628   -9.7674924    138237.24   -41095.726    3974.2984   -45070.024    690.91414   0.99717352 
   56100    289.83522    1.1581224    138388.59   -41111.987    3980.1888   -45092.176    692.63652   0.99608299 
   56200    294.16079    3.3084706    138312.63    -41048.64    4039.5901    -45088.23    694.22943   0.99662999 
   56300    298.47774    21.245128    138039.68   -40970.725    4098.8729   -45069.598    693.95185   0.99860067 
   56400    302.37124   -18.494159     138172.5   -40895.541    4152.3408   -45047.882    696.45476   0.99764077 
   56500    287.99635   -209.79891    138289.24   -40996.561    3954.9363   -44951.497    697.60828   0.99679854 
   56600    297.87195   -211.67408    138325.88   -40965.921    4090.5539   -45056.475    698.25403   0.99653457 
   56700    295.29226    53.926905    138144.71    -40987.32    4055.1281   -45042.448    699.40169   0.99784142 
   56800    298.06274   -136.65977    138236.37   -40951.745     4093.174   -45044.919    701.39846   0.99717981 
   56900    295.64344    169.05232    138055.97   -41019.674    4059.9507   -45079.625    701.93556   0.99848283 
   57000    297.23995    2.9456874    138069.34   -41103.128    4081.8749   -45185.003    702.99127   0.99838618 
   57100    286.61669    -182.8886     138082.2   -41208.199      3935.99   -45144.189    704.93756    0.9982932 
   57200     290.2673    10.613315    137755.57    -41246.72    3986.1224   -45232.842    704.28095    1.0006602 
   57300    289.82431   -121.10458    137853.05   -41191.934     3980.039   -45171.973    706.22307   0.99995261 
   57400     288.5486    47.908404    137994.07    -41148.56    3962.5202    -45111.08    707.58336   0.99893073 
   57500    291.67195   -73.428499    137798.73   -41081.023    4005.4119   -45086.435    708.41414    1.0003468 
   57600     288.1196    190.62926    138169.07    -41170.94    3956.6288   -45127.569    712.16525   0.99766549 
   57700    295.24425     163.6347    138310.32   -41054.548    4054.4688   -45109.017    713.49655   0.99664663 
   57800    297.26928    247.55489    138897.04   -41028.807    4082.2778   -45111.085    716.64545   0.99243665 
   57900    291.63083    117.18431    138512.04    -41133.07    4004.8472   -45137.917    715.83595   0.99519516 
   58000    288.40513    163.78836    138380.13   -41099.375      3960.55   -45059.925    715.36523   0.99614383 
   58100    295.55273   -217.57108    138440.76   -41001.246     4058.705   -45059.951    715.44623   0.99570758 
   58200    289.33111   -54.262498    138366.09   -41124.409    3973.2661   -45097.675    717.28225   0.99624497 
   58300    289.34205   -149.52867    138522.04   -41087.014    3973.4163   -45060.431     719.6615   0.99512335 
   58400    291.99314    75.799575    138747.88   -41030.162    4009.8226   -45039.984    721.26098   0.99350362 
   58500    290.98832   -114.14796    138681.29   -40932.562    3996.0238   -44928.585    721.76731   0.99398061 
   58600    293.22097   -243.82903    138491.98   -40997.345    4026.6839   -45024.029    722.25442   0.99533934 
   58700    294.75384   -136.05687    138422.79   -41006.533    4047.7342   -45054.267    723.99055   0.99583689 
   58800    296.48964   -176.75763    138491.92   -40967.085    4071.5713   -45038.656    725.49367   0.99533977 
   58900    294.74126    23.283832    138238.26   -40968.327    4047.5614   -45015.888    726.19698   0.99716619 
   59000    296.68463    100.16508    138153.04   -41010.032    4074.2489   -45084.281    726.69405   0.99778125 
   59100    294.21912   -144.37559     138203.9   -41041.982    4040.3911   -45082.373    728.09889   0.99741412 
   59200    296.41373   -50.766993    138016.31   -41084.452    4070.5288   -45154.981     729.1626   0.99876976 
   59300    291.43338   -80.227115    138035.59   -41066.075    4002.1356    -45068.21    731.64637   0.99863029 
   59400    293.86388   -29.581265    138160.12   -41071.709    4035.5127   -45107.222    733.78192   0.99773018 
   59500     292.0948   -140.28354    138034.68   -41067.009    4011.2187   -45078.227    734.54466   0.99863681 
   59600    293.83489    105.94617     137946.1   -40975.646    4035.1147    -45010.76    735.24351   0.99927811 
   59700     296.0816   -101.47712    138161.14   -40958.043    4065.9678    -45024.01    737.43021   0.99772276 
   59800     292.8956   -145.62669    137928.44   -41010.611    4022.2157   -45032.826    737.78838   0.99940608 
   59900    288.79641     151.5584    138197.07   -41004.071    3965.9232   -44969.994    740.00789   0.99746336 
   60000    286.93332    94.144398     138104.3   -41050.774    3940.3381   -44991.112    740.84687    0.9981334 
   60100    289.75276    197.34152    138522.68   -41121.454    3979.0565   -45100.511    743.95213   0.99511876 
   60200    290.50331    -11.94151    138527.55   -41103.731    3989.3634   -45093.094    745.63007   0.99508374 
   60300     295.4104    147.09407    138702.91   -41004.375    4056.7505   -45061.126    747.01221   0.99382572 
   60400    289.95897   -143.85858    138681.32   -41060.039    3981.8883   -45041.927    748.34368   0.99398044 
   60500    290.26341    119.55226    138338.92   -41168.436    3986.0689   -45154.505    748.67905    0.9964406 
   60600    290.07148   -107.24407    138446.38   -41053.819    3983.4332   -45037.253    750.45141   0.99566719 
   60700    292.77863    204.20972    138355.15   -41053.039    4020.6095   -45073.648    750.10027   0.99632372 
   60800    287.81462   -23.882584    138486.34     -41058.1    3952.4407   -45010.541    751.95154    0.9953799 
   60900    292.86995   -83.402566    138413.68   -40981.569    4021.8635   -45003.433    753.87754   0.99590238 
   61000    297.63696   -77.901728    138268.71   -40954.428    4087.3269   -45041.755    755.12751   0.99694659 
   61100    295.97005    122.35141    138043.98    -40944.89    4064.4359   -45009.326    755.54315   0.99856953 
   61200    298.34767    267.30414    138428.61   -40995.106    4097.0869   -45092.192    758.94101   0.99579503 
   61300     295.2485   -41.170016    138317.09   -40940.379    4054.5271   -44994.906    760.50647    0.9965979 
   61400    294.50327    38.502679    138258.59   -40874.115    4044.2932   -44918.408    762.21729   0.99701952 
   61500    295.39218   -13.046023    138089.11   -40903.061    4056.5002   -44959.561    761.97616   0.99824324 
   61600     292.7559   -23.948351    138103.63    -40982.23    4020.2973   -45002.527     763.5111   0.99813827 
   61700     290.2258   -5.6951488    137944.74   -41007.949    3985.5525   -44993.501    763.26401   0.99928796 
   61800    296.30542    53.411635    137868.31   -41000.369    4069.0414   -45069.411    764.97561   0.99984193 
   61900    295.75445   -45.593357    137927.45   -40993.226    4061.4751   -45054.701    766.03116   0.99941325 
   62000    293.86815   -36.076931    138092.74   -40974.228    4035.5713     -45009.8    767.32467     0.998217 
   62100    292.67789   -196.28553    137903.52   -41019.171     4019.226   -45038.397    766.56863   0.99958666 
   62200    291.46268   -16.889096    137887.36   -41049.695     4002.538   -45052.233    767.54725   0.99970377 
   62300    293.97446   -122.82795    137798.19   -41087.926    4037.0313   -45124.957    768.57365    1.0003507 
   62400    290.92312   -131.01101    137586.72   -41145.055    3995.1285   -45140.184    769.83118    1.0018883 
   62500    293.86566      108.254    137716.92   -41108.113    4035.5372    -45143.65    771.70675     1.000941 
   62600    292.69689   -27.773083    137814.37   -41037.223    4019.4869   -45056.709    773.82001    1.0002333 
   62700    290.85833    90.017507    137760.93   -41076.727    3994.2387   -45070.965    775.69508    1.0006213 
   62800    295.02674   -20.580765    137614.66    -40986.68    4051.4818   -45038.162    776.86518    1.0016848 
   62900    282.96883    83.431127    137772.88   -41055.598    3885.8955   -44941.493    778.40981    1.0005345 
   63000     289.8876    189.63924    138132.56   -41008.372    3980.9081   -44989.281    780.99674   0.99792923 
   63100    293.22083    157.65134    138293.97   -41003.557     4026.682   -45030.239    783.26744   0.99676446 
   63200     291.8205   -49.799211    137955.07   -41031.173    4007.4518   -45038.625    781.74995   0.99921311 
   63300    290.34792   -60.910903    137968.01   -41129.236    3987.2295   -45116.465    782.63484   0.99911939 
   63400    289.30494    33.374964    138348.86   -41190.248    3972.9066   -45163.155       784.59   0.99636901 
   63500    291.64137   -12.249675    138566.47   -41038.927    4004.9919   -45043.919    786.52022   0.99480429 
   63600    296.60104    125.71288    138720.12   -41006.026    4073.1011   -45079.127    788.63386   0.99370242 
   63700    286.65936   -204.28753     138223.2   -41110.919    3936.5759   -45047.495     787.7365   0.99727485 
   63800    286.83037    64.661935    138094.74    -41099.21    3938.9244   -45038.134    789.08496   0.99820253 
   63900    295.00029    60.078426    137902.55   -41082.296    4051.1186   -45133.414    788.85579   0.99959371 
   64000    288.43642    35.521203    137766.09   -41130.761    3960.9796    -45091.74    789.23447    1.0005838 
   64100     286.7716   -115.29258    137738.66   -41137.873    3938.1174    -45075.99    789.73861    1.0007831 
   64200    289.00618   -103.51179    137991.36    -41157.56    3968.8039   -45126.364    792.98051   0.99895037 
   64300    286.95439   -5.0058927    137870.33   -41169.008    3940.6275   -45109.635    793.96455   0.99982731 
   64400    288.29358    183.62515     137802.1    -41159.22     3959.018   -45118.238    795.71799    1.0003224 
   64500    289.94107    144.19151    137882.63   -41172.004    3981.6424   -45153.646    797.52828    0.9997381 
   64600    292.14736   -5.2596111    137893.18   -41134.016    4011.9404   -45145.957    797.77506   0.99966159 
   64700    291.95586   -121.69414    137967.68   -41092.214    4009.3106   -45101.525    799.32257   0.99912183 
   64800    289.53949    217.57105    137911.05   -41001.304    3976.1276   -44977.432    799.58783   0.99953208 
   64900    293.82765    -281.5024    137806.91   -40991.933    4035.0152   -45026.948    799.37264    1.0002874 
   65000    288.62494   -339.38054     138051.9   -41021.038    3963.5686   -44984.606    800.94359   0.99851231 
   65100    294.04577    44.251131    138290.57    -41072.69    4038.0105     -45110.7    802.99853   0.99678895 
   65200    290.14314    121.44571    138112.87   -41041.416    3984.4173   -45025.834    803.70319   0.99807151 
   65300    291.00369    2.1673911    138027.44   -41046.041    3996.2349   -45042.276    804.76687   0.99868925 
   65400    289.30035   -107.20706    138128.07   -41140.667    3972.8437   -45113.511    806.65911   0.99796165 
   65500    293.27973    78.207036    138168.57   -41030.864    4027.4908   -45058.354     807.1361   0.99766911 
   65600    297.86069    -56.39414    138225.44   -40959.611    4090.3993    -45050.01    808.28446   0.99725863 
   65700    290.78903   -50.109371    138067.91   -40988.655    3993.2871   -44981.942    809.16299    0.9983965 
   65800    292.54774    124.52815    138471.24   -41005.376    4017.4388   -45022.815    812.70595   0.99548846 
   65900    294.74568    144.39381    138300.34   -40996.782    4047.6222   -45044.405    813.74121   0.99671857 
   66000    285.75385    261.05344    138543.55   -41099.501    3924.1411   -45023.642    816.52825   0.99496888 
   66100     290.4238   -201.85237    138744.13   -41011.483    3988.2716   -44999.754    817.86176   0.99353043 
   66200    297.07581   -37.910038    138752.43   -40958.719    4079.6208    -45038.34    819.19952   0.99347103 
[...]
   84600    284.90811    69.306573    137523.78   -41164.061    3912.5268   -45076.587    1036.0476    1.0023468 
   84700    288.15277   -138.05577    137414.99   -41135.263    3957.0844   -45092.347    1037.1779    1.0031403 
   84800    294.68636   -115.12311     137430.5    -41068.89    4046.8075   -45115.697    1040.0768    1.0030271 
   84900    290.64961    120.20494    137396.72   -41091.913    3991.3724   -45083.286    1042.8123    1.0032737 
   85000     285.7256    169.90945    137562.83   -41059.307     3923.753    -44983.06    1043.8223    1.0020622 
   85100    290.34332   -32.836804    137446.64   -41084.675    3987.1664   -45071.841    1045.4551    1.0029093 
   85200    290.82934   -260.49043     137848.7    -41007.24    3993.8406   -45001.081    1048.3487   0.99998418 
   85300    294.83685    133.76321    137807.35   -40993.696    4048.8741    -45042.57    1049.8871    1.0002842 
   85400    293.07622   -30.923695    137784.47   -41013.983    4024.6961   -45038.679    1050.8035    1.0004503 
   85500    293.86217   -88.687038    137859.29   -41023.967    4035.4893   -45059.456    1051.4183   0.99990731 
   85600    289.69706    -41.51489    137848.61   -40990.077    3978.2915   -44968.368    1052.8108   0.99998479 
   85700     294.4477   -215.97289    137881.09   -41031.582      4043.53   -45075.112    1053.3188   0.99974925 
   85800    285.44179   -150.04166    137851.62   -41031.905    3919.8556    -44951.76    1055.3363   0.99996297 
   85900    292.11988    157.47124    137762.19    -41066.38    4011.5631   -45077.943    1057.5338    1.0006121 
   86000    287.03446    23.259797    137938.54   -41074.087     3941.727   -45015.814    1059.7797   0.99933286 
   86100    290.56971     17.32707    138110.97    -41017.94    3990.2753   -45008.215    1062.0951   0.99808522 
   86200    293.07876   -163.66228    138221.64   -41068.433     4024.731   -45093.164    1064.9827   0.99728609 
   86300    293.84358   -13.601242    138205.38   -41074.027    4035.2339    -45109.26    1066.0967   0.99740337 
   86400     288.8599   -94.247903    138430.21   -41123.974    3966.7951   -45090.769    1067.3642    0.9957835 
   86500    297.53728   -148.98627    138588.15   -41043.059     4085.958   -45129.017    1068.5943   0.99464862 
   86600    295.64463    -137.1887    138452.28    -41040.43    4059.9671   -45100.397    1070.9992   0.99562476 
   86700    293.77492    81.725826    138571.62   -41037.919    4034.2911    -45072.21    1072.5621   0.99476729 
   86800    302.12629   -35.956129     138664.4   -40992.406     4148.977   -45141.383    1073.8051   0.99410171 
   86900    293.87796    59.361412    138672.13    -41031.61    4035.7061   -45067.316    1074.0847   0.99404632 
   87000     287.3139   -74.169965    138645.59   -41081.503    3945.5645   -45027.068    1074.9575    0.9942366 
   87100    294.69682     55.16749    138340.89   -41044.253    4046.9512   -45091.204    1073.6031   0.99642642 
   87200    293.39982    215.08099    138289.83    -41028.78      4029.14    -45057.92    1075.1225   0.99679431 
   87300    295.71623   -1.1561743    138486.85   -40942.254    4060.9503   -45003.205    1079.1347   0.99537624 
   87400    296.33656    221.21129    138398.35   -41014.514     4069.469   -45083.983    1078.9439   0.99601274 
   87500    291.38894    86.493673    138138.34   -41063.211    4001.5255   -45064.737    1078.0644   0.99788744 
   87600     289.8742   -153.56269    138056.63   -41008.405    3980.7241    -44989.13    1079.2995   0.99847808 
   87700    291.26239    -63.32201     137688.2   -41057.108    3999.7875   -45056.896    1077.9704    1.0011498 
   87800    292.22228    404.07996    138247.64   -40966.864    4012.9693   -44979.833    1081.4983   0.99709852 
   87900    295.49599    173.64714    138484.73   -40932.857    4057.9259   -44990.783    1083.2314   0.99539146 
   88000    295.78364    -222.7666    138361.18   -41034.181     4061.876   -45096.057    1083.8014   0.99628027 
   88100    294.98047   -47.364827    138193.84   -41037.995    4050.8464   -45088.841    1084.7032   0.99748669 
   88200    296.70806    70.900192    138027.48   -40997.946    4074.5706   -45072.517    1085.1928    0.9986889 
   88300    293.15728    10.145758    137674.76   -40979.169    4025.8092   -45004.978    1083.3443    1.0012475 
   88400    290.21776    270.90189     138083.4   -41049.083    3985.4421   -45034.525    1087.1297   0.99828451 
   88500    292.47818   -45.611801    138341.59   -41065.395    4016.4835   -45081.879    1090.1898   0.99642139 
   88600    288.30756    90.026903    138343.66   -41048.095      3959.21   -45007.305    1091.7871   0.99640648 
   88700    291.07445   -172.26727    138368.81   -41010.651    3997.2066   -45007.858    1092.3565   0.99622536 
   88800    292.06494   -150.92891    138024.94   -41049.443    4010.8086   -45060.251     1093.236   0.99870734 
   88900    289.94298    115.40122    137926.82   -41084.191    3981.6686   -45065.859    1095.3141   0.99941776 
   89000    295.38763   -84.365787    137953.31    -40971.48    4056.4378   -45027.918    1096.4504   0.99922585 
   89100    298.83799   -126.39294    138163.87   -40950.338    4103.8201   -45054.159    1099.2287   0.99770304 
   89200    292.19253    150.32736    138093.24   -41071.089    4012.5608    -45083.65    1099.2192   0.99821333 
   89300    294.95383   -228.36865     138147.8    -41014.15    4050.4806    -45064.63    1100.6311   0.99781909 
   89400    293.21011   -22.230838    137738.21   -40997.782    4026.5348   -45024.317    1101.3023    1.0007863 
   89500    290.78641   -205.31045    137776.87   -41097.441    3993.2512   -45090.693    1102.2627    1.0005055 
   89600    290.57045    134.24578    138286.14   -40994.593    3990.2854   -44984.879    1106.2953   0.99682094 
   89700    295.26438   -45.937215    138526.15    -41060.83    4054.7452   -45115.575    1108.2732   0.99509385 
   89800    291.28154    28.323544    138180.59   -41045.306    4000.0505   -45045.356    1106.8657   0.99758234 
   89900    296.10986    22.423827    138176.21   -41125.437    4066.3559   -45191.792    1109.1012   0.99761396 
   90000    295.62518 0.0013737719    137902.38     -41054.6       4059.7     -45114.3    1108.9218   0.99959489 
   90100    292.45117    89.956827    137984.59   -41026.014    4016.1126   -45042.127     1109.415   0.99899932 
   90200    293.56088    70.389246    137782.46   -41164.634    4031.3518   -45195.986    1109.0253    1.0004649 
   90300    293.30008   -267.04966    137893.87   -41142.519    4027.7703   -45170.289    1111.8891   0.99965659 
   90400    295.45819     231.5449    137973.02   -41022.641    4057.4067   -45080.047    1113.9276   0.99908316 
   90500    288.83185    13.783147    138056.45   -41005.085    3966.4099   -44971.495     1114.339    0.9984794 
   90600    293.79891   -11.942813    138152.32   -40954.262    4034.6205   -44988.883    1115.9147   0.99778645 
   90700    294.62611    120.66333    138250.96   -40955.117    4045.9802   -45001.098    1116.1045   0.99707456 
   90800    291.78175   -175.76539    138156.62    -40971.23    4006.9196    -44978.15    1115.9494    0.9977554 
   90900    291.59952    57.985113    137769.88    -41054.87    4004.4172   -45059.288    1113.5983    1.0005563 
   91000    293.16482    49.815581    137702.45   -41025.147    4025.9128    -45051.06    1113.8259    1.0010462 
   91100    295.66592   -146.16373    138131.03   -41003.933    4060.2594   -45064.193    1118.5084   0.99794024 
   91200    288.34771   -129.70015    137970.79   -41002.408    3959.7615   -44962.169    1120.1279   0.99909928 
   91300    283.64527    34.932877    137914.01   -41071.369    3895.1847   -44966.553    1120.8891   0.99951064 
   91400    289.02724   -40.268585    137681.87   -41035.647    3969.0932    -45004.74     1121.712    1.0011959 
   91500     295.0179   -60.262779    137693.44   -41009.392    4051.3604   -45060.753     1122.811    1.0011117 
   91600    291.09063    76.944493    137815.72   -41068.081    3997.4288    -45065.51     1124.888    1.0002235 
   91700    290.92361    12.229998     138135.7   -41169.675    3995.1353    -45164.81    1127.2787   0.99790656 
   91800    288.25945   -56.278426    138322.28   -41173.985    3958.5494   -45132.535    1129.2113   0.99656047 
   91900    289.55121   -72.767391    137991.95   -41124.808    3976.2886   -45101.097    1129.3895   0.99894608 
   92000    291.95867    215.73909    138032.95   -41090.531    4009.3493    -45099.88    1130.0598   0.99864932 
   92100    299.93912    82.475804    138262.97   -41007.911    4118.9416   -45126.852    1133.3364   0.99698799 
   92200    297.35069    235.11361    138163.62   -40945.035    4083.3957    -45028.43     1134.076   0.99770484 
   92300    293.63084   -123.66573    138131.26   -41001.751    4032.3126   -45034.064    1135.3605   0.99793859 
   92400    294.46264     29.25839    138255.79   -40962.744    4043.7353   -45006.479    1137.6582   0.99703972 
   92500    298.54291    38.001714    137990.96   -40950.733    4099.7679   -45050.501    1138.8243   0.99895325 
   92600    294.33497    206.69954    138448.01   -40936.804     4041.982   -44978.786    1142.2679   0.99565548 
   92700    289.27206   -200.78932     138282.4   -41064.077    3972.4552   -45036.532    1143.8508   0.99684789 
   92800    293.87289   -161.74837    138284.07   -41030.741    4035.6365   -45066.378    1143.7229   0.99683581 
   92900    286.60266    389.16727    138141.35   -41000.436    3935.7974   -44936.234    1145.1453   0.99786568 
   93000    295.81685   -18.289502    138075.61   -41040.056    4062.3321   -45102.389    1145.2641   0.99834081 
   93100     291.1058      192.286    137788.38   -41039.521    3997.6371   -45037.158    1143.9891     1.000422 
   93200    296.82069   -91.583082    137951.93   -40982.855    4076.1174   -45058.972    1146.8403   0.99923585 
   93300    289.86853    152.81613    137877.38   -40945.285    3980.6463   -44925.931    1148.6502   0.99977615 
   93400    289.69874   -65.491694    137846.75   -41023.081    3978.3146   -45001.396    1149.8514    0.9999983 
   93500    293.35299    9.5983749    137825.06   -41005.522    4028.4968   -45034.019    1150.6031    1.0001557 
   93600    287.04813   -218.48028    137516.59   -41098.692    3941.9149   -45040.607    1150.2993    1.0023992 
   93700    286.70897    133.20444    137875.23   -41085.756    3937.2572   -45023.013    1153.8261   0.99979177 
   93800    293.90449   -7.1794029    138188.47   -40972.163    4036.0704   -45008.234    1157.2435   0.99752543 
   93900    291.71744   -180.13692    137987.74   -41067.648    4006.0366   -45073.685    1158.1965   0.99897652 
   94000    291.97354    18.976241    137948.75   -41123.831    4009.5535   -45133.384    1158.6241   0.99925888 
   94100    282.65291    10.958487    137713.79   -41116.889     3881.557   -44998.446    1157.5784    1.0009638 
   94200    287.35894    37.388326    138388.42   -41110.034    3946.1831   -45056.217    1163.7192    0.9960842 
   94300    293.96138    23.653395    138377.07   -41055.959    4036.8516    -45092.81    1165.0645   0.99616588 
   94400    290.95558    43.682238    138564.41   -41127.432    3995.5743   -45123.006    1167.6794   0.99481903 
   94500    287.89849   -55.865473    138356.37   -41165.674    3953.5925   -45119.267    1168.4673   0.99631494 
   94600    289.94753    160.41588    138229.11   -41176.124    3981.7311   -45157.855    1168.5123   0.99723216 
   94700    289.75484    130.12259    138454.13   -41059.835     3979.085    -45038.92    1170.8516   0.99561143 
   94800    293.27038   -101.75456    138299.82   -40973.186    4027.3625   -45000.548    1171.1195   0.99672228 
   94900    293.36334   -151.97599     138193.6   -41030.259     4028.639   -45058.898    1171.2206   0.99748843 
   95000    291.18001    9.8736768    138442.59   -41027.023    3998.6563   -45025.679    1173.8459   0.99569442 
   95100    300.45264   -154.71089    138509.52   -40949.136    4125.9935   -45075.129    1175.5973   0.99521334 
   95200    289.19236    194.45626    138216.05   -41064.912    3971.3607   -45036.272    1175.5886   0.99732642 
   95300    295.49561     32.34865    138286.41   -41036.418    4057.9206   -45094.339    1176.9687   0.99681896 
   95400    294.14387   -138.81093    138211.99   -41025.162    4039.3577    -45064.52    1178.0888    0.9973557 
   95500    288.60692    7.4404463    138304.85   -41103.778     3963.321   -45067.099    1178.4443   0.99668607 
   95600    291.03546    132.63012    138020.43   -41084.822    3996.6711   -45081.493    1178.1323   0.99873997 
   95700    294.65645   -151.50039    137916.05   -41051.924    4046.3968   -45098.321     1178.279   0.99949581 
   95800    291.29643   -26.447142    137856.32   -41078.544    4000.2551   -45078.799     1179.109   0.99992885 
   95900    294.38368     275.4703    137903.48   -41048.551    4042.6509   -45091.202    1180.7744   0.99958694 
   96000    292.71625   -139.01115    138161.77   -41013.119    4019.7529   -45032.872    1183.9036    0.9977182 
   96100    292.85616   -79.576511    137999.56   -40990.407    4021.6741   -45012.081    1184.2308   0.99889097 
   96200    295.04545    204.45583    138215.62   -40986.504    4051.7387   -45038.243    1186.7835   0.99732948 
   96300    295.87731   -47.861976    138415.38   -41009.594    4063.1624   -45072.756    1189.5706   0.99589018 
   96400    291.62106    64.821673    138455.03   -41009.959     4004.713   -45014.672    1191.3111   0.99560495 
   96500    297.53911   -23.500849    138548.15   -41012.464    4085.9832   -45098.447     1193.845   0.99493585 
   96600    294.79743   -148.00403    138611.49   -40970.096    4048.3328   -45018.429    1195.2543   0.99448118 
   96700    294.11177    20.731602     138611.2   -40885.992    4038.9169   -44924.909    1196.9297   0.99448326 
   96800     293.9041   -34.656465    138358.41   -40867.915    4036.0651   -44903.981    1195.1771   0.99630025 
   96900    296.18654   -20.985593    138441.85   -40908.608    4067.4089   -44976.017    1197.7201   0.99569978 
   97000    293.91153    104.61918    138563.99   -40962.929    4036.1671   -44999.096    1200.2807   0.99482209 
   97100    292.64208    -42.58992    138271.03   -40982.779    4018.7342   -45001.513    1200.1694   0.99692988 
   97200    293.84398   -138.33115    138283.12   -41007.516    4035.2395   -45042.755    1201.9908   0.99684267 
   97300    292.21861   -133.40853    138234.72   -41033.507     4012.919   -45046.426    1203.5794   0.99719174 
   97400    288.38298   -108.23964    138036.57   -41005.114    3960.2457    -44965.36    1203.8147   0.99862317 
   97500     290.9062    -6.261856    138038.46   -40976.381    3994.8961   -44971.277    1206.7269    0.9986095 
   97600    294.47369    30.183854    137989.05   -41037.991    4043.8871   -45081.878    1207.3749   0.99896705 
   97700    294.35703   -118.27038    137987.44   -41051.494     4042.285   -45093.779    1209.4816   0.99897871 
   97800    291.95149     -35.9565    138100.68   -41067.964    4009.2507   -45077.215    1210.0622   0.99815958 
   97900    298.05077    46.165963    138083.22   -40981.447    4093.0096   -45074.457    1209.8249   0.99828577 
   98000    291.47946   -84.819688    138327.83   -41007.154    4002.7685   -45009.923    1211.1227   0.99652052 
   98100    293.23674    26.049533    138346.94   -41013.031    4026.9005   -45039.931    1212.7113   0.99638283 
   98200    298.07439   -38.699142    138149.55   -40941.798     4093.334   -45035.132    1211.6282   0.99780651 
   98300    294.55962    -8.882234     138336.7   -40917.805    4045.0671   -44962.872    1214.3326   0.99645662 
   98400    294.16611   -200.23674    138285.53   -40994.432    4039.6631   -45034.095    1215.6002   0.99682529 
   98500    292.46542    24.051206    137991.04   -41003.261    4016.3083    -45019.57    1214.7351   0.99895263 
   98600    289.26956   -98.642841    138013.03   -41022.497    3972.4209   -44994.918     1216.599   0.99879353 
   98700    295.22884    24.446925    137898.36   -41005.531    4054.2572   -45059.788    1216.5358   0.99962406 
   98800    292.87308    104.98453     137854.2   -41044.664    4021.9065   -45066.571    1217.8022   0.99994423 
   98900    301.17708    -71.84656    137870.32   -40966.049    4135.9419   -45101.991    1219.4316   0.99982732 
   99000    291.97885   -109.85278    138052.16    -40944.58    4009.6264   -44954.207    1220.4907   0.99851036 
   99100    294.42959    104.52983    138028.26   -41008.005    4043.2814   -45051.287    1221.3353   0.99868332 
   99200    292.24734   -137.98452    138301.04   -40993.392    4013.3134   -45006.706    1224.1365   0.99671351 
   99300    288.91989   -56.221501    138236.27   -40983.369    3967.6189   -44950.987    1223.9188   0.99718054 
   99400    291.30221   -29.413854    138425.76    -40953.67    4000.3344   -44954.004    1226.6775   0.99581546 
   99500    294.13649   -30.231539    138138.89   -40949.562    4039.2564   -44988.818    1226.8941   0.99788348 
   99600    293.86542   -42.664409    138324.79   -41024.888    4035.5338   -45060.422    1229.8983    0.9965424 
   99700    292.61101    142.46379    138542.06   -40996.953    4018.3075    -45015.26    1233.2178   0.99497958 
   99800    288.65113    43.764286    138502.06   -40996.525    3963.9282   -44960.453    1235.0616   0.99526691 
   99900    294.29677    76.089565    138581.86   -40945.757    4041.4575   -44987.215    1237.4767    0.9946938 
  100000    295.20488    57.109654    138599.65   -40997.614    4053.9281   -45051.542    1238.7759   0.99456614 
  100100    291.03844   -91.234507    138548.71   -41022.886    3996.7121   -45019.598    1240.3677   0.99493182 
  100200    299.42954   -27.489768    138728.28   -40933.192    4111.9437   -45045.135    1243.3382   0.99364394 
  100300     293.3575   -33.868955    138695.11   -41009.716    4028.5588   -45038.274    1245.3562   0.99388156 
  100400    286.44304    234.14775     138595.1   -41003.687    3933.6054   -44937.293    1246.9919   0.99459877 
  100500    290.57681   -158.90082    138161.82   -41047.194    3990.3727   -45037.567    1245.8583   0.99771791 
  100600    293.31887     149.4098    138029.77   -41041.201    4028.0283   -45069.229    1247.1165   0.99867234 
  100648     286.3226   0.26938152    138077.79     -41020.1    3931.9515   -44952.051    1247.9423   0.99832509 
Loop time of 121.098 on 6 procs for 100000 steps with 4608 atoms

Performance: 356.736 ns/day, 0.067 hours/ns, 825.778 timesteps/s
99.0% CPU use with 6 MPI tasks x no OpenMP threads

MPI task timing breakdown:
Section |  min time  |  avg time  |  max time  |%varavg| %total
---------------------------------------------------------------
Pair    | 102.13     | 103.08     | 105.39     |  10.9 | 85.12
Neigh   | 7.1721     | 7.2512     | 7.4328     |   3.3 |  5.99
Comm    | 5.8301     | 8.0728     | 9.1492     |  38.7 |  6.67
Output  | 0.17241    | 0.17315    | 0.17664    |   0.4 |  0.14
Modify  | 1.8499     | 1.9151     | 1.9706     |   2.6 |  1.58
Other   |            | 0.6106     |            |       |  0.50

Nlocal:        768.000 ave         771 max         762 min
Histogram: 1 0 0 0 1 0 0 1 2 1
Nghost:        1577.50 ave        1602 max        1568 min
Histogram: 3 0 1 1 0 0 0 0 0 1
Neighs:        0.00000 ave           0 max           0 min
Histogram: 6 0 0 0 0 0 0 0 0 0
FullNghs:      22268.0 ave       22406 max       22029 min
Histogram: 1 0 0 0 0 2 0 1 1 1

Total # of neighbors = 133608
Ave neighs/atom = 28.994792
Neighbor list builds = 7077
Dangerous builds = 0

undump              1
unfix               2
unfix               3
unfix               4


################################################
#######         Run Simulation         #########
################################################

reset_timestep      0
log                 log.run_${NAME}
log                 log.run_liq_293K_1atm_ML
