
# Set production fixes - Nose/Hoover
#
fix                 2 all nph iso ${PRES} ${PRES} ${PCOUPL}
fix                 2 all nph iso 1 ${PRES} ${PCOUPL}
fix                 2 all nph iso 1 1 ${PCOUPL}
fix                 2 all nph iso 1 1 10000.0
fix                 3 all temp/csvr ${TEMP} ${TEMP} ${TCOUPL} 837492
fix                 3 all temp/csvr 293 ${TEMP} ${TCOUPL} 837492
fix                 3 all temp/csvr 293 293 ${TCOUPL} 837492
fix                 3 all temp/csvr 293 293 5000.0 837492

# Define Order parameter
#
compute             2 all orientorder/atom nnn NULL cutoff 3.5
thermo              200
thermo_style        custom step temp press vol etotal ke pe c_1[4]

# Run 1ns simulation
dump		    1 all custom 400 prod.${NAME}.dump id type x y z vx vy vz c_2[*]
dump		    1 all custom 400 prod.ice_293K_1atm_ML.dump id type x y z vx vy vz c_2[*]
run                 200000
Neighbor list info ...
  update every 1 steps, delay 0 steps, check yes
  max neighbors/atom: 2000, page size: 100000
  master list distance cutoff = 6.0032907
  ghost atom cutoff = 6.0032907
  binsize = 3.0016454, bins = 20 17 17
  2 neighbor lists, perpetual/occasional/extra = 1 1 0
  (1) pair sw, perpetual
      attributes: full, newton on
      pair build: full/bin/atomonly
      stencil: full/bin/3d
      bin: standard
  (2) compute orientorder/atom, occasional, copy from (1)
      attributes: full, newton on
      pair build: copy
      stencil: none
      bin: none
Per MPI rank memory allocation (min/avg/max) = 5.820 | 5.820 | 5.820 Mbytes
Step Temp Press Volume TotEng KinEng PotEng c_1[4] 
       0     291.9739    16.178884    148547.39   -47514.528    4009.5584   -51524.087   0.14639762 
     200    291.28366    3.6929743     148564.6   -47504.565    4000.0796   -51504.645   0.14620689 
     400    290.37377   -50.407345    148575.45   -47498.452    3987.5845   -51486.037   0.15111555 
     600    291.42826    10.087034    148545.14    -47537.26    4002.0653   -51539.326   0.15220728 
     800    286.69749    2.0778624    148529.28     -47552.3    3937.0996     -51489.4   0.15205892 
    1000    293.27262   -17.749426    148551.19   -47566.286    4027.3932   -51593.679   0.14288115 
    1200    288.56123      9.76054    148552.88   -47590.422    3962.6936   -51553.115   0.14267395 
    1400    292.69115    8.3087723    148527.25   -47581.805    4019.4081   -51601.213   0.14678256 
    1600    286.54298    12.448917    148536.67   -47584.871    3934.9779   -51519.848    0.1472565 
    1800    288.64115   -33.071497    148572.75   -47590.821    3963.7911   -51554.612   0.14864343 
    2000    296.22181    12.746627    148558.46   -47545.707    4067.8932     -51613.6   0.14611569 
    2200    290.24149    7.5432554    148536.28   -47513.575     3985.768   -51499.343   0.14712812 
    2400    289.34543   -35.158083    148558.34   -47531.792    3973.4628   -51505.255   0.14781193 
    2600    290.24005   -17.599261    148538.71   -47577.291    3985.7482    -51563.04    0.1439995 
    2800    291.90752    17.526358    148448.95   -47593.866    4008.6469   -51602.512   0.14988669 
    3000    291.40517    28.604709    148494.96   -47606.717    4001.7482   -51608.465   0.14484185 
    3200    293.70477   -89.661367    148642.89   -47551.835    4033.3277   -51585.163    0.1400251 
    3400    290.44069   -37.290673    148608.48   -47591.526    3988.5035    -51580.03   0.14197567 
    3600    293.14957    124.24433    148448.84   -47620.731    4025.7034   -51646.435   0.13875519 
    3800    296.45436    84.680575    148513.71   -47546.909    4071.0867   -51617.996    0.1424495 
    4000    286.13007   -117.91179    148735.26   -47541.141    3929.3074   -51470.449   0.14923494 
    4200    291.84565    -31.52668    148623.11   -47558.012    4007.7972   -51565.809   0.14393121 
    4400     292.8295    134.79244    148411.34   -47545.946     4021.308   -51567.254   0.14732323 
    4600    299.52973    6.5084409    148579.49   -47526.525    4113.3195   -51639.845   0.14233272 
    4800    293.92763   -184.17098    148787.09   -47516.107    4036.3882   -51552.496   0.14872028 
    5000    291.54378    23.757361    148574.99   -47494.777    4003.6518   -51498.429   0.15109952 
    5200    290.13841    148.87691    148367.75   -47496.637    3984.3524   -51480.989   0.15187736 
    5400     290.5972    4.4765992     148625.4   -47457.294    3990.6527   -51447.947   0.14807765 
    5600    294.93943   -150.81346    148850.76   -47441.128    4050.2828   -51491.411   0.14627842 
    5800    297.59296    12.825184    148563.59   -47428.931    4086.7226   -51515.654   0.14931249 
    6000    297.96727    190.46283    148350.79   -47414.088     4091.863   -51505.951   0.15228129 
    6200    295.74397   -80.114131    148680.84    -47407.83    4061.3313   -51469.161   0.15577299 
    6400    297.85783   -214.09765    148858.38   -47374.004    4090.3601   -51464.364   0.15218868 
    6600    298.14034    86.349678    148469.93   -47413.839    4094.2396   -51508.078   0.14803777 
    6800    292.23373    167.08822    148314.54   -47453.445    4013.1266   -51466.572   0.14857279 
    7000    293.38099   -110.41296    148725.36    -47457.28    4028.8814   -51486.162   0.14791273 
    7200    290.08218   -201.02062    148817.05   -47402.983    3983.5802   -51386.563   0.15490192 
    7400    299.44869    208.40802    148382.47   -47388.133    4112.2067   -51500.339   0.14417353 
    7600    298.28736    190.01608    148414.56   -47423.548    4096.2586   -51519.807   0.14277712 
    7800    296.93732   -203.42738     148868.8   -47453.325    4077.7191   -51531.044    0.1422061 
    8000    294.55779   -77.601662    148760.52   -47418.708    4045.0419    -51463.75   0.14796656 
    8200    290.23037    210.52534    148304.31   -47455.222    3985.6152   -51440.837   0.15077272 
    8400    294.17947    78.717923    148473.09   -47484.246    4039.8466   -51524.092   0.15056568 
    8600    293.14717   -247.24258    148904.97   -47440.669    4025.6705   -51466.339   0.14948993 
    8800    292.73079   -95.948274     148685.5   -47370.592    4019.9525   -51390.545   0.15214852 
    9000     301.0897    236.87244    148262.19   -47350.236    4134.7419   -51484.978   0.14799141 
    9200      298.824   -1.6507481    148602.31   -47336.526     4103.628   -51440.154   0.15337572 
    9400    297.61672   -314.64485    149014.22   -47386.289     4087.049   -51473.338   0.15763976 
    9600    298.10232    27.283547    148573.44   -47376.201    4093.7175   -51469.919   0.14779471 
    9800    300.16957    321.50434    148212.96   -47393.348    4122.1062   -51515.454   0.14282754 
   10000    292.00892   -108.15502     148772.9   -47390.647    4010.0393   -51400.687   0.14498539 
   10200    293.52271   -340.33978    149027.05   -47380.522    4030.8276    -51411.35   0.15248932 
   10400    303.15061    215.30491    148356.87    -47368.28    4163.0437   -51531.323   0.14651103 
   10600    296.52605    279.28334    148229.15   -47349.766    4072.0712   -51421.837   0.14882871 
   10800    298.60978   -281.56813       148943   -47383.122    4100.6863   -51483.809   0.15130719 
   11000    297.47177   -234.68719    148925.51   -47424.834    4085.0584   -51509.893    0.1440957 
   11200    294.26816    284.94008    148190.21   -47440.542    4041.0645   -51481.606   0.14719521 
   11400     300.7714    224.68159    148320.89   -47469.501    4130.3709   -51599.872   0.14408683 
   11600    293.89971     -319.086    149047.33   -47439.457    4036.0048   -51475.462   0.14979057 
   11800    289.96954   -155.38079    148816.14   -47512.904    3982.0333   -51494.937   0.14597765 
   12000    292.76889    386.12082    148126.74   -47513.889    4020.4757   -51534.365   0.13889816 
   12200    290.13896     78.00922       148486   -47493.438      3984.36   -51477.798   0.15009659 
   12400     294.1188   -313.08734     149076.4   -47460.656    4039.0135   -51499.669   0.14772991 
   12600    291.38791   -31.265918    148670.36   -47472.601    4001.5113   -51474.112   0.15050035 
   12800    294.78902    323.60984    148223.52   -47482.889    4048.2173   -51531.106    0.1468812 
   13000    290.12193   -17.515248    148637.69   -47464.061    3984.1261   -51448.187   0.14814713 
   13200    297.11487   -238.81075     148933.7   -47435.772    4080.1573   -51515.929   0.15032075 
   13400     295.6935    33.973166    148571.19   -47456.169    4060.6382   -51516.807   0.14554237 
   13600    295.46064    176.72574    148375.27   -47446.369    4057.4404   -51503.809   0.14835526 
   13800    296.92354   -64.524287     148710.6   -47441.666    4077.5298   -51519.196    0.1471787 
   14000     292.7081    -157.6485    148825.16   -47461.363    4019.6409   -51481.004   0.14746983 
   14200    295.81363    62.641524     148502.6   -47488.818    4062.2879   -51551.106   0.14343042 
   14400    294.08395    74.334568    148447.25   -47513.715    4038.5348    -51552.25   0.14615719 
   14600    293.36538   -62.666902    148712.96   -47509.134     4028.667   -51537.801   0.14480573 
   14800    294.67625   -83.575842    148721.16   -47492.175    4046.6687   -51538.844   0.15045321 
   15000    292.05238    94.785815    148486.98   -47544.635    4010.6361   -51555.271   0.14604402 
   15200    294.55149    69.995355    148501.08   -47599.863    4044.9554   -51644.819   0.13945417 
   15400    287.03361   -76.354037     148671.1   -47614.286    3941.7154   -51556.002   0.14121336 
   15600    284.33789   -11.097835    148572.79   -47650.863    3904.6963   -51555.559   0.14145628 
   15800    290.81626    114.32191    148439.14   -47602.489     3993.661    -51596.15   0.14211201 
   16000    292.85259    -17.49596     148618.6   -47589.604    4021.6251    -51611.23   0.14405143 
   16200    288.31455   -108.93845    148718.09   -47536.994    3959.3061     -51496.3   0.14725084 
   16400    289.12372    32.186616    148579.47    -47532.08     3970.418   -51502.498   0.14702137 
   16600    293.40425    81.066419    148535.99   -47551.171    4029.2008   -51580.372   0.14467011 
   16800    293.34324    -28.97177    148648.44   -47505.556    4028.3631   -51533.919   0.14874537 
   17000    293.25018   -87.885121       148659   -47528.984     4027.085   -51556.069   0.15065163 
   17200    291.18328    97.790588    148535.05   -47509.769    3998.7012    -51508.47   0.14538666 
   17400    295.15749    12.982074    148579.34   -47556.923    4053.2774   -51610.201   0.14321014 
   17600    289.81522   -92.287158    148678.75   -47594.161    3979.9142   -51574.075   0.14305043 
   17800    289.28721    13.915496    148558.11   -47612.556    3972.6632   -51585.219   0.14078009 
   18000    290.50371    88.730818    148429.44   -47646.326    3989.3689   -51635.695   0.14461172 
   18200    286.32047    -16.33855    148557.66   -47672.592    3931.9222   -51604.514   0.14619901 
   18400    286.64683   -73.017611     148667.2     -47692.6    3936.4039   -51629.004   0.13993434 
   18600    289.17043    13.004631    148521.07   -47649.337    3971.0595   -51620.397   0.14049415 
   18800     292.5486    94.578266    148457.44   -47583.312    4017.4506   -51600.762   0.14183448 
   19000    288.17995   -71.787925    148643.83   -47612.006    3957.4576   -51569.464   0.14556473 
   19200    289.85645   -92.130793    148667.88   -47584.925    3980.4804   -51565.405   0.14214678 
   19400    287.53191    97.560681    148430.74   -47574.524    3948.5583   -51523.082   0.14344361 
   19600    294.68935    85.734982     148427.9   -47604.645    4046.8486   -51651.494   0.14089371 
   19800    291.22253   -113.00984    148698.86   -47601.217    3999.2402   -51600.458   0.14364036 
   20000    295.16998   -63.026925    148639.34   -47590.437    4053.4489   -51643.886   0.14292767 
   20200    285.74309    137.60766    148314.97   -47615.824    3923.9933   -51539.817   0.14768181 
   20400      289.061    89.166423    148433.24   -47594.656    3969.5567   -51564.213   0.14975647 
   20600    290.92937   -222.97876    148828.09   -47590.891    3995.2143   -51586.105   0.14969555 
   20800    289.68432   -83.878498    148662.08    -47592.72    3978.1166   -51570.837   0.14969604 
   21000     292.7907     210.9107    148236.98   -47587.586    4020.7751   -51608.361   0.14841512 
   21200    289.65898    23.973772    148475.25   -47578.255    3977.7685   -51556.023   0.14799694 
   21400    289.86633   -247.86251    148915.86   -47572.693    3980.6161   -51553.309   0.14678446 
   21600     290.4331   -33.603639    148594.54   -47527.905    3988.3992   -51516.304    0.1498923 
   21800    291.47074    263.42389    148193.73   -47478.052    4002.6487   -51480.701   0.15343787 
   22000    296.27659   -2.7245451    148613.57   -47485.714    4068.6455    -51554.36   0.14568451 
   22200      292.763   -282.45975    148952.94   -47441.735    4020.3948    -51462.13   0.14971468 
   22400    300.06456    83.123437    148463.71   -47419.323    4120.6642   -51539.987   0.14930997 
   22600    294.03265    290.17717    148210.58   -47425.601    4037.8304   -51463.432   0.14977888 
   22800    287.51998   -159.57885    148753.69    -47463.31    3948.3946   -51411.705   0.14998369 
   23000    293.58333   -284.61946    148921.91   -47479.897    4031.6601   -51511.557   0.14573325 
   23200    296.30237    204.20171    148353.08   -47474.903    4068.9995   -51543.902   0.14532375 
   23400    296.15596    213.71603    148318.96   -47484.251     4066.989    -51551.24   0.14790036 
   23600     295.0988   -198.42023    148882.09   -47501.306    4052.4714   -51553.777   0.14975105 
   23800    297.52234   -129.26744    148835.47   -47439.684    4085.7529   -51525.437   0.14792421 
   24000    292.26023    207.45554    148339.15   -47477.781    4013.4905   -51491.271   0.14712492 
   24200    297.24609     125.3198    148470.18   -47462.395    4081.9592   -51544.355   0.13977945 
   24400    290.49919   -229.86582    148919.02   -47466.689    3989.3068   -51455.996    0.1482039 
   24600    293.34098   -115.83746    148695.63   -47467.234     4028.332   -51495.566   0.15389453 
   24800    297.16787    225.88309    148286.61   -47389.415    4080.8851     -51470.3   0.15367114 
   25000    293.46405   -28.723513    148612.11   -47389.846     4030.022   -51419.868   0.15199333 
   25200     295.6317   -292.28386    148970.11   -47413.181    4059.7894    -51472.97   0.14949423 
   25400     293.7983    36.103657    148542.91   -47477.333    4034.6121   -51511.945   0.15007202 
   25600    296.36983    258.49078    148266.72   -47500.502    4069.9259   -51570.428   0.14766961 
   25800    294.43243   -92.437854    148742.55   -47478.028    4043.3204   -51521.348   0.15021643 
   26000    290.38603   -255.07254    148936.07   -47454.687    3987.7529    -51442.44   0.14790466 
   26200    294.44803    137.32702    148439.24   -47502.064    4043.5346   -51545.599   0.13897216 
   26400    291.89352    200.28552    148325.81    -47526.24    4008.4546   -51534.695    0.1430016 
   26600    293.45699   -184.88905    148807.24   -47536.211    4029.9251   -51566.136   0.14504384 
   26800    292.82748   -178.27261    148820.32   -47540.261    4021.2803   -51561.542   0.14596311 
   27000    292.74249    200.37915    148357.42   -47539.908    4020.1131   -51560.021   0.14077335 
   27200     293.4609     147.7131    148440.44   -47534.166    4029.9788   -51564.145   0.14001674 
   27400    288.61387    -161.9284    148831.36   -47498.682    3963.4165   -51462.098   0.14352657 
   27600    293.42944   -60.996993     148695.6     -47503.7    4029.5467   -51533.246   0.14417926 
   27800    293.28299    164.94234    148386.86    -47499.83    4027.5357   -51527.366   0.14771084 
   28000    293.91606      20.1944    148574.43   -47489.395    4036.2293   -51525.625   0.14493516 
   28200    287.06482   -135.99836    148817.02   -47506.158     3942.144   -51448.302   0.14419685 
   28400    292.47162     10.14018    148565.88   -47502.321    4016.3934   -51518.714   0.14282455 
   28600    294.10759     154.5251    148391.13   -47523.069    4038.8595   -51561.928   0.14659192 
   28800    300.03297    24.124733    148638.07   -47535.548    4120.2303   -51655.779   0.14101619 
   29000    288.98511   -162.92166    148752.15   -47571.311    3968.5145   -51539.826   0.15032006 
   29200    287.51574    39.804908    148508.27   -47607.534    3948.3364    -51555.87   0.14855703 
   29400    292.58918    113.54197    148443.52   -47609.258    4018.0078   -51627.266   0.14099674 
   29600    290.33341   -92.510348    148673.11   -47569.649    3987.0302    -51556.68   0.14274734 
   29800    293.86635   -88.453033    148735.44   -47490.839    4035.5467   -51526.386   0.14768883 
   30000    293.12114    69.326789       148556   -47480.922     4025.313   -51506.234   0.14799727 
   30200    292.29705    12.123587    148551.66   -47491.476    4013.9961   -51505.472   0.14827651 
   30400    292.00235   -12.153292    148676.85   -47543.946    4009.9491   -51553.895   0.13955169 
   30600    293.99631    37.301974    148629.06   -47490.189    4037.3313    -51527.52   0.13978284 
   30800    293.04024    57.280605    148551.47   -47456.936     4024.202   -51481.138   0.14844602 
   31000    292.69579   -38.039913    148668.07   -47443.796    4019.4719   -51463.268   0.15225879 
   31200    293.85852   -32.734105    148707.33   -47447.352    4035.4392   -51482.792   0.14596326 
   31400     297.0651     53.29885    148591.49   -47445.424    4079.4738   -51524.898   0.14195909 
   31600    293.90135    36.073471    148578.27   -47507.832    4036.0273    -51543.86   0.13684192 
   31800    290.01336   -17.172099     148652.2    -47478.83    3982.6352   -51461.466   0.14369183 
   32000     292.5545    14.234684    148648.66   -47448.484    4017.5316   -51466.015   0.14655176 
   32200    292.17777    20.845263    148586.86   -47483.508    4012.3581   -51495.866   0.14426413 
   32400    292.00088   -49.664858    148600.96   -47477.415    4009.9289   -51487.344   0.14884691 
   32600    293.77881   -10.310739    148635.26   -47463.302    4034.3444   -51497.646   0.14188837 
   32800    297.24737    13.354919    148601.01   -47460.014    4081.9769   -51541.991   0.14253721 
   33000    293.34743    14.534185    148569.59    -47449.24    4028.4205   -51477.661   0.15136345 
   33200    297.06193   -20.646002    148610.02   -47444.205    4079.4303   -51523.635   0.15104207 
   33400    294.85747   -28.741649    148649.38   -47403.924    4049.1573   -51453.081   0.15094484 
   33600     296.7386     8.905336    148641.81   -47336.706    4074.9901   -51411.696   0.14792069 
   33800    297.58103   -1.6677217    148675.25   -47372.911    4086.5589    -51459.47   0.14633381 
   34000    292.07594   -29.171917    148675.11   -47395.464    4010.9597   -51406.423   0.14870883 
   34200    293.53058    15.695724    148603.96   -47426.853    4030.9357   -51457.789    0.1499632 
   34400    295.48633    35.347823    148548.69   -47493.334    4057.7932   -51551.127     0.149831 
   34600    295.41277    6.3439847    148587.84   -47466.312     4056.783   -51523.095   0.14628896 
   34800    291.84409   -14.480418    148622.28   -47506.948    4007.7758   -51514.723   0.14220544 
   35000    294.84304    14.129037    148561.45   -47532.073    4048.9592   -51581.032   0.14103421 
   35200    285.63816   -30.943522    148547.11   -47519.162    3922.5523   -51441.714     0.152979 
   35400     294.4699    -37.61114    148617.63   -47480.216    4043.8349    -51524.05   0.15167483 
   35600    291.65459   -32.525789    148608.07   -47473.406    4005.1734    -51478.58   0.15099048 
   35800    293.37862    68.584547    148534.77   -47474.135    4028.8489   -51502.984   0.14798719 
   36000    290.94705    11.837284    148574.97   -47475.019    3995.4572   -51470.476   0.14635381 
   36200    292.60365   -46.943723    148659.88   -47490.551    4018.2065   -51508.758   0.14458228 
   36400    293.26992   -38.106187    148553.06   -47518.001    4027.3561   -51545.357    0.1544776 
   36600    294.03817    59.616941    148467.53   -47492.202    4037.9062   -51530.108   0.15365166 
   36800    293.57314   -35.140096    148588.64   -47536.339    4031.5201    -51567.86   0.14855111 
   37000    288.60528   -88.470171    148664.48   -47524.331    3963.2985    -51487.63   0.14642814 
   37200    290.73939    37.923369    148516.43   -47485.534    3992.6053   -51478.139   0.14897072 
   37400    297.06348    111.36213    148439.15   -47478.102    4079.4516   -51557.554   0.14883892 
   37600    290.31075    -77.63395    148638.57   -47504.526    3986.7191   -51491.245   0.15141203 
   37800    295.93644   -71.596913    148696.84   -47468.979    4063.9744   -51532.953   0.15067744 
   38000    289.60884    22.584095    148441.74   -47523.687    3977.0801   -51500.767   0.14956324 
   38200    291.44047    87.806787    148358.11   -47517.094     4002.233   -51519.327   0.14631704 
   38400    291.39956   -47.961247    148635.36   -47482.204    4001.6713   -51483.876   0.14722687 
   38600    291.88765   -111.97371    148745.38   -47477.931     4008.374   -51486.305   0.14792456 
   38800    295.43672    101.02732    148413.13   -47530.276    4057.1119   -51587.388   0.14948855 
   39000    294.86581    181.61035    148339.41   -47557.901    4049.2718   -51607.172   0.13942009 
   39200    289.82582   -104.74324    148727.94     -47577.3    3980.0597    -51557.36   0.13942469 
   39400    290.41562   -122.08923    148743.33   -47568.228    3988.1591   -51556.387   0.14355864 
   39600    284.72129    124.95351    148332.13   -47638.667    3909.9613   -51548.629   0.15035366 
   39800    285.84518    151.93433    148351.76   -47627.832    3925.3953   -51553.228   0.14751492 
   40000    287.83171   -195.41312    148824.24   -47639.497    3952.6753   -51592.173   0.14398589 
   40200     289.6814   -136.08442    148696.42   -47614.031    3978.0765   -51592.107   0.14483886 
   40400    289.66171    253.16691    148182.08   -47608.248    3977.8061   -51586.054   0.14424968 
   40600     286.2803    81.230076    148412.42   -47638.075    3931.3706   -51569.446   0.14536081 
   40800    288.94088   -274.46755    148939.46   -47656.071    3967.9072   -51623.978   0.14672098 
   41000    289.03422   -72.578008    148626.32   -47611.937     3969.189   -51581.126   0.15128974 
   41200     286.5978    311.41911    148136.08   -47644.505    3935.7307   -51580.236   0.14685138 
   41400    290.55622   -16.809151    148538.76   -47610.983      3990.09   -51601.073   0.14454586 
   41600    285.79955   -357.13399    148993.55   -47603.535    3924.7686   -51528.304   0.14895074 
   41800    294.17655    47.952132    148504.51   -47604.035    4039.8065   -51643.841   0.14549177 
   42000    291.54684    364.28376    148115.39   -47575.522    4003.6938   -51579.215   0.14810744 
   42200    283.83814   -126.01655     148731.9   -47602.953    3897.8333   -51500.787   0.14931205 
   42400    286.86278   -358.04193    149003.54   -47652.686    3939.3695   -51592.056   0.14233202 
   42600    287.63786    209.45283    148275.34   -47679.652    3950.0133   -51629.666   0.13923077 
   42800    285.94909    302.75343    148101.98   -47681.319    3926.8222   -51608.141   0.14529398 
   43000    288.59512   -255.24522    148866.79   -47636.449     3963.159   -51599.608   0.14783515 
   43200    290.81437    -278.4874    148933.21   -47637.972    3993.6351   -51631.607   0.14414059 
   43400    288.26907    307.23757    148228.51   -47628.937    3958.6815   -51587.619   0.13707961 
   43600    292.67961    150.60795     148305.5   -47626.916    4019.2496   -51646.166   0.14223307 
   43800    292.26879   -255.99208    148903.59   -47599.143     4013.608   -51612.751   0.14481281 
   44000     291.7202   -147.65321     148749.5   -47617.232    4006.0745   -51623.306   0.14577274 
   44200    290.44791    229.95345    148229.89   -47660.657    3988.6026   -51649.259   0.14655263 
   44400    286.86511    82.949955    148420.17   -47634.619    3939.4014    -51574.02   0.14452724 
   44600    289.69354   -219.17898    148815.14   -47570.603    3978.2432   -51548.846   0.14802816 
   44800    293.50501   -12.235331    148599.23   -47535.704    4030.5846   -51566.289   0.14379993 
   45000    289.09228    154.39481    148340.73   -47570.911    3969.9862   -51540.898   0.15096159 
   45200    295.53499   -8.7165285    148519.68   -47592.697    4058.4615   -51651.158   0.15204396 
   45400    288.36161   -142.70872    148689.76   -47642.037    3959.9523   -51601.989   0.14906518 
   45600    290.16464    17.333974    148508.69   -47629.672    3984.7126   -51614.385   0.14031194 
   45800    288.27051     114.9872    148376.56   -47604.277    3958.7013   -51562.978   0.14337179 
   46000    291.72678   -25.023927    148575.02   -47601.564    4006.1649   -51607.729   0.14849597 
   46200    285.08217   -120.58282    148681.95   -47633.523    3914.9171    -51548.44   0.14974502 
   46400    294.92585    50.067386    148506.56    -47617.29    4050.0964   -51667.387   0.14217278 
   46600    290.92834    78.176931    148449.38    -47615.34    3995.2002    -51610.54   0.13964155 
   46800     284.2782   -92.863549    148620.33   -47579.062    3903.8766   -51482.939   0.14527794 
   47000    294.20357   -77.905143    148645.83   -47558.239    4040.1775   -51598.417   0.14166558 
   47200     293.3465     54.68109    148468.71    -47528.11    4028.4078   -51556.517   0.14796683 
   47400    292.76731     28.80077     148495.4   -47458.833     4020.454   -51479.287    0.1530547 
   47600    295.88351   -59.911048    148688.99    -47432.24    4063.2475   -51495.487   0.14400599 
   47800    294.48242   -45.548044    148634.99   -47399.579    4044.0069   -51443.586   0.14594452 
   48000    299.30665    91.318693    148474.85   -47404.474    4110.2561    -51514.73   0.14577701 
   48200     294.5901    1.9730058    148589.51   -47404.358    4045.4856   -51449.843   0.15471617 
   48400     296.7798   -107.95239    148719.65   -47385.021    4075.5558   -51460.577   0.15371623 
   48600    295.14687    26.570856    148569.89   -47449.901    4053.1315   -51503.033   0.14668932 
   48800    295.61561     55.42743    148448.23   -47391.212    4059.5685    -51450.78    0.1540503 
   49000      296.444    9.4828819    148632.35   -47368.714    4070.9444   -51439.658   0.14622341 
   49200    298.40651   -113.89495    148741.03   -47403.227    4097.8948   -51501.122   0.15007656 
   49400    296.01836    79.967233     148508.2   -47413.289    4065.0993   -51478.388   0.14868819 
   49600    293.17772    95.256769    148452.34   -47431.582      4026.09   -51457.672    0.1515858 
   49800    298.57549   -73.476518    148702.19   -47411.981    4100.2153   -51512.197   0.14622709 
   50000    298.73125   -87.368872    148727.86   -47412.148    4102.3543   -51514.502   0.14367729 
   50200     295.6206    99.516283    148439.83   -47450.086    4059.6371   -51509.723    0.1447124 
   50400    293.73115    53.888711    148467.46   -47455.333      4033.69   -51489.023     0.150464 
   50600    293.33612   -182.22355    148769.79   -47475.243    4028.2652   -51503.508   0.15037711 
   50800    293.29617   -106.88954    148690.69   -47486.031    4027.7166   -51513.748   0.14733923 
   51000    297.77511    206.41218    148354.81   -47420.995    4089.2241   -51510.219   0.14328934 
   51200     290.9226     94.05437    148481.54   -47451.209    3995.1214    -51446.33   0.14193392 
   51400    292.19762   -160.59878    148784.04   -47413.733    4012.6306   -51426.364    0.1509781 
   51600    297.79668   -52.248233    148620.47   -47415.846    4089.5203   -51505.367    0.1515187 
   51800      297.773    195.17237    148314.04   -47411.036    4089.1951   -51500.231   0.15208923 
   52000    296.67994    -6.137392    148529.44   -47372.417    4074.1846   -51446.601   0.15118543 
   52200    298.58662    -210.2634    148850.91   -47343.443    4100.3682   -51443.811   0.15036802 
   52400    301.77311    34.077337    148594.14   -47325.076    4144.1269   -51469.202   0.15043023 
   52600    296.60547    214.07975    148350.99   -47363.257    4073.1619   -51436.419   0.14918163 
   52800     298.1961    -70.77798    148673.65   -47383.707    4095.0053   -51478.712   0.15432357 
   53000    294.54676   -219.14618    148863.64   -47387.436    4044.8905   -51432.326   0.15357938 
   53200    294.99004     80.52617    148483.75   -47396.862    4050.9779    -51447.84   0.15063544 
   53400    291.99673    195.19984    148333.08   -47426.835    4009.8719   -51436.707   0.14593997 
   53600    291.22029   -123.91297    148769.13   -47453.927    3999.2094   -51453.137   0.14703449 
   53800    297.48357   -194.53069    148864.72   -47430.989    4085.2205    -51516.21   0.15136686 
   54000    298.95919    181.09556    148394.45   -47421.287    4105.4846   -51526.772   0.14802148 
   54200    294.03847    145.17482    148378.26   -47429.168    4037.9103   -51467.078   0.15007542 
   54400    294.59388   -178.94677    148822.92   -47456.085    4045.5375   -51501.622   0.14289404 
   54600    290.91254   -122.76987    148764.99   -47450.309    3994.9831   -51445.292   0.14858054 
   54800    301.30537    224.35349    148357.62   -47394.906    4137.7037    -51532.61   0.14515336 
   55000    290.97129    52.842371    148545.47   -47398.802    3995.7899   -51394.592   0.15199825 
   55200    295.88838   -268.95473    148936.19   -47428.653    4063.3144   -51491.967   0.14952816 
   55400    294.57028     -16.9294    148641.23   -47452.686    4045.2134   -51497.899   0.14167935 
   55600    294.58047    257.01126     148265.9   -47490.173    4045.3533   -51535.527   0.14736702 
   55800    297.57262   -16.325716     148612.4   -47462.843    4086.4433   -51549.286   0.14484285 
   56000    296.72713   -217.39829    148911.11   -47445.666    4074.8326   -51520.499   0.15188257 
   56200    293.12708    75.036506    148498.31   -47481.395    4025.3945    -51506.79   0.15004023 
   56400     294.4505    223.12984    148266.75   -47484.082    4043.5685   -51527.651   0.14577475 
   56600    295.75643    -105.5216    148706.09   -47488.863    4061.5023   -51550.365   0.14443122 
   56800    296.23947    -210.0293    148863.99   -47437.077    4068.1358   -51505.212   0.14969089 
   57000    292.64042    116.69248    148405.52   -47443.969    4018.7114    -51462.68   0.15040352 
   57200    287.72098    177.80128    148323.98   -47473.003    3951.1547   -51424.157   0.14636388 
   57400    295.83798   -141.19002    148781.29   -47492.119    4062.6222   -51554.741   0.14552255 
   57600    296.98431   -175.10837    148777.78   -47480.254    4078.3643   -51558.619   0.14915891 
   57800    297.13019    203.94039    148304.45   -47491.856    4080.3677   -51572.224   0.14688318 
   58000    291.33637     107.3038    148400.78   -47506.283    4000.8034   -51507.087   0.14630983 
   58200    290.47746   -226.11801    148853.47   -47546.251    3989.0084    -51535.26   0.14729601 
   58400    292.42527   -83.056197    148678.45   -47537.887    4015.7569   -51553.644   0.14412815 
   58600    288.03907    240.80098    148278.92   -47516.435     3955.523   -51471.958   0.14637079 
   58800     292.7871    43.763376    148561.68   -47550.776    4020.7258   -51571.502   0.13954127 
   59000    289.08025   -220.25659    148905.43   -47573.562    3969.8212   -51543.383   0.14316295 
   59200    292.01434    10.178411    148539.48    -47574.95    4010.1138   -51585.063    0.1438087 
   59400    292.09118    265.63807    148240.87   -47516.725     4011.169   -51527.894   0.14465283 
   59600    293.16627   -93.824542    148705.64   -47514.431    4025.9328   -51540.363   0.14816347 
   59800    294.35805   -242.78786     148913.7   -47498.769     4042.299   -51541.068   0.14813469 
   60000    294.96895    129.86401    148393.83   -47486.414    4050.6882   -51537.103   0.14460645 
   60200    293.82238    212.33512    148291.28   -47459.539    4034.9428   -51494.482   0.14881832 
   60400    296.03802   -206.74256    148832.62   -47427.598    4065.3693   -51492.967   0.14870583 
   60600    297.27804   -205.20415    148831.52   -47468.589    4082.3979   -51550.987   0.14715093 
   60800    296.34564    202.99944    148298.22   -47405.779    4069.5937   -51475.373   0.14851641 
   61000    295.54244    142.71168    148379.05   -47446.978    4058.5637   -51505.542   0.14603027 
   61200    298.51418   -226.78413    148843.04   -47450.689    4099.3735   -51550.063   0.14238396 
   61400    295.33953   -96.066181    148641.44   -47447.423    4055.7772     -51503.2   0.14762479 
   61600    294.74323    257.03444    148229.54   -47437.297    4047.5885   -51484.885    0.1484547 
   61800    295.11657     22.71397    148540.37   -47439.327    4052.7155   -51492.042   0.14829369 
   62000    296.82487   -246.84441    148930.97   -47462.994    4076.1748   -51539.169    0.1422903 
   62200    297.49646     28.80411    148545.99   -47474.809    4085.3975   -51560.206    0.1403344 
   62400    290.68757     223.2473    148227.43   -47434.557    3991.8938   -51426.451   0.14984944 
   62600    299.51294   -72.425417    148672.71   -47457.705     4113.089   -51570.794   0.14308561 
   62800    296.92801   -227.09085    148865.41   -47431.877    4077.5912   -51509.468   0.14800382 
   63000    298.17359    111.04269    148417.27   -47398.649    4094.6962   -51493.345   0.14618629 
   63200    296.97573    194.17731    148351.11    -47403.39    4078.2464   -51481.636    0.1444939 
   63400    295.09801   -186.10284    148774.37   -47360.141    4052.4606   -51412.601   0.15292626 
   63600    299.68631   -145.54722    148765.02   -47340.017    4115.4698   -51455.487   0.15033989 
   63800    300.42927    112.83517    148404.23   -47369.292    4125.6726   -51494.964   0.14953937 
   64000    297.10377    107.71568     148459.5   -47362.634    4080.0048   -51442.639   0.15154844 
   64200    293.65717   -161.21357    148790.94    -47364.01    4032.6741   -51396.684   0.15094036 
   64400    299.25319   -64.993044    148721.54   -47350.908     4109.522    -51460.43   0.14510813 
   64600    293.92258    112.57842    148450.49   -47407.059    4036.3188   -51443.378   0.14412642 
   64800    294.29334    62.138589    148540.05   -47419.139    4041.4104    -51460.55   0.14503175 
   65000    298.55672   -113.22077    148765.63   -47408.641    4099.9576   -51508.598   0.14471774 
   65200    296.73973   -21.363081    148651.11   -47436.169    4075.0056   -51511.175    0.1425638 
   65400    288.14735     81.71265    148477.87   -47461.134    3957.0099   -51418.144   0.14561281 
   65600    297.87628    57.315406    148574.27   -47486.577    4090.6133    -51577.19   0.14022256 
   65800    292.38891   -111.87296    148685.56   -47460.372    4015.2576    -51475.63   0.14692641 
   66000    295.60504    31.069596    148603.29   -47459.962    4059.4234   -51519.385   0.13929892 
   66200    295.18936    47.960491    148556.45   -47487.022     4053.715   -51540.736   0.13842448 
   66400    291.24409   -18.116789    148611.71   -47481.148    3999.5362   -51480.685   0.14218977 
   66600    291.55451   -3.4311633    148615.14   -47495.079    4003.7991   -51498.878   0.14027083 
   66800    294.04899    47.090673    148551.33    -47477.07    4038.0548   -51515.125   0.14010785 
   67000    294.05779   -19.795977    148567.69   -47506.845    4038.1756   -51545.021   0.14179562 
   67200    292.31426   -7.1404338    148597.16   -47527.669    4014.2325   -51541.901   0.14168821 
   67400    292.93286    22.143643    148571.32   -47561.647    4022.7274   -51584.374   0.14200708 
   67600    289.71169    56.917872    148555.95   -47515.766    3978.4924   -51494.259    0.1406866 
   67800    292.18442     8.909034    148584.16   -47463.295    4012.4495   -51475.745   0.14337044 
   68000    288.67208    16.477866    148634.99   -47458.519    3964.2158   -51422.735   0.14296806 
   68200    294.68092   -14.692549    148633.97   -47532.904    4046.7327   -51579.637   0.13897944 
   68400    292.50574    16.733762    148551.36   -47475.483    4016.8619   -51492.345   0.14412373 
   68600    293.53426    37.308609    148549.45   -47460.191    4030.9863   -51491.177   0.14157084 
   68800    298.95745   -65.114857    148662.47   -47428.159    4105.4606   -51533.619   0.14081988 
   69000    295.41159   -81.672971    148648.92   -47473.924    4056.7668   -51530.691   0.14150928 
   69200    298.56384    85.415511    148507.63   -47479.574    4100.0553   -51579.629   0.14006637 
   69400    294.56669      5.06987     148539.4   -47519.315    4045.1642    -51564.48   0.14426113 
   69600    294.76864   -67.296389    148671.66   -47531.696    4047.9374   -51579.633   0.13886051 
   69800    293.70108  -0.25431758    148601.48   -47497.462    4033.2771   -51530.739   0.14492182 
   70000    292.85518     132.0934    148475.26   -47456.366    4021.6607   -51478.027   0.14201331 
   70200    296.83523   -7.6856027    148608.02     -47440.4    4076.3171   -51516.717   0.14339249 
   70400     296.3774   -131.36273    148759.84   -47455.241    4070.0299   -51525.271   0.14411652 
   70600    293.42542    67.023868    148541.59   -47427.138    4029.4915   -51456.629   0.14396813 
   70800    296.25326    161.14686    148405.02   -47452.295    4068.3251    -51520.62   0.14287885 
   71000    297.15412   -62.574468     148700.1   -47498.495    4080.6963   -51579.192   0.13933558 
   71200    291.48955    -151.2872    148794.97   -47505.371     4002.907   -51508.278   0.14597644 
   71400    293.27212    124.22195    148398.75   -47473.088    4027.3864   -51500.474   0.14627201 
   71600    295.66533    180.20328    148369.01   -47450.882    4060.2514   -51511.133   0.14455831 
   71800    292.42892   -203.20344    148876.29   -47471.857     4015.807   -51487.664   0.14736187 
   72000    293.63983   -154.87274    148839.57   -47496.764    4032.4359     -51529.2   0.14486098 
   72200    288.57639    221.54075    148292.59   -47531.967    3962.9018   -51494.868   0.14515813 
   72400    292.49891    156.11922    148428.52   -47515.725    4016.7681   -51532.493   0.14287852 
   72600    295.57572   -285.32771     148990.1   -47480.957    4059.0207   -51539.978   0.14165228 
   72800    292.91236   -76.328885    148715.78   -47557.269    4022.4459   -51579.714    0.1379473 
   73000    292.45006    336.88317    148174.81    -47555.14    4016.0973   -51571.237   0.14019092 
   73200    289.92365     15.05757    148567.44   -47569.059    3981.4031   -51550.463   0.14131969 
   73400    288.52626   -313.60413    149022.11   -47562.191    3962.2134   -51524.404   0.14313963 
   73600    290.26638    44.125257    148563.75   -47545.923    3986.1098   -51532.033   0.14211871 
   73800    291.98644    303.16317    148189.32   -47540.551    4009.7306   -51550.282   0.14213497 
   74000    290.12129    -67.92856     148670.6   -47590.099    3984.1173   -51574.216   0.13896294 
   74200    287.73423   -312.39256    148948.46   -47584.823    3951.3368    -51536.16   0.14699114 
   74400    291.80349     107.7115    148420.56   -47547.022    4007.2182    -51554.24   0.14564161 
   74600    290.96453    228.68053    148212.27   -47570.693    3995.6971    -51566.39   0.14147903 
   74800    288.09972    -153.8913    148761.66   -47580.508    3956.3559   -51536.864   0.14125566 
   75000    283.56641   -283.72212    148868.46   -47542.196    3894.1018   -51436.297   0.14725705 
   75200    293.98666    230.77856     148304.1   -47528.203    4037.1989   -51565.402   0.14052863 
   75400    296.85553    231.21379    148301.38   -47516.906    4076.5958   -51593.502   0.13818163 
   75600    292.71144   -222.28096    148829.32   -47494.293    4019.6868    -51513.98   0.14922714 
   75800    289.78975   -131.01556     148765.2   -47470.557    3979.5644   -51450.122    0.1495661 
   76000    292.70456    232.62512    148310.49    -47456.95    4019.5923   -51476.542   0.14638476 
   76200    291.75366     80.30328    148475.14   -47484.383    4006.5339   -51490.917   0.14698488 
   76400    291.74912   -239.96778    148913.11   -47453.419    4006.4716   -51459.891   0.14388396 
   76600     299.7991   -53.932767    148724.24   -47440.943    4117.0186   -51557.962   0.14118167 
   76800    294.78919    252.79861    148345.34   -47440.044    4048.2197   -51488.264   0.14279386 
   77000    293.14986    24.835609    148582.28   -47442.515    4025.7073   -51468.222   0.14199479 
   77200    293.15484   -187.42362    148823.64   -47488.069    4025.7758   -51513.844   0.14279925 
   77400    291.49083    46.953236     148499.6   -47478.001    4002.9247   -51480.925   0.13945032 
   77600    293.06489    154.03485    148331.07    -47494.17    4024.5406   -51518.711    0.1494921 
   77800    289.84889   -87.997041    148635.26   -47506.694    3980.3765    -51487.07   0.15172024 
   78000    291.52936   -96.425314    148729.09   -47505.473    4003.4537   -51508.927   0.14711693 
   78200    290.75194    60.943241    148466.62   -47499.559    3992.7777   -51492.337   0.14925938 
   78400    293.04069    100.86265    148440.62   -47521.316    4024.2082   -51545.525   0.14091752 
   78600    292.11427    -79.47109    148688.06   -47540.184    4011.4861   -51551.671   0.14335969 
   78800    291.35422    -83.17087     148678.1   -47525.786    4001.0486   -51526.834   0.14510775 
   79000    294.53388    70.475462    148487.57   -47508.207    4044.7136   -51552.921   0.14382889 
   79200    291.19671    29.455216     148537.4    -47518.86    3998.8856   -51517.745   0.14191111 
   79400    291.20645   -98.388312    148700.98   -47471.367    3999.0193   -51470.386   0.14635133 
   79600    294.04527   -25.049359    148637.12   -47461.188    4038.0037   -51499.192   0.14676136 
   79800    297.12782    105.84307     148529.8   -47488.313    4080.3351   -51568.648   0.14484235 
   80000    295.87068    16.260357    148624.62    -47459.85    4063.0713   -51522.921   0.14929781 
   80200    293.26691   -89.393249    148691.66   -47424.706    4027.3147   -51452.021   0.15331971 
   80400    302.89912    28.858823    148600.78   -47394.977      4159.59   -51554.567   0.14480122 
   80600    295.02174    15.652526    148544.69   -47415.836    4051.4132   -51467.249   0.14846504 
   80800    300.13756    27.557086     148629.3   -47359.137    4121.6666   -51480.803   0.14511776 
   81000     295.3345   -30.847157    148692.77   -47411.713    4055.7081   -51467.421   0.14259203 
   81200    298.57601    5.7152777    148626.61   -47392.199    4100.2226   -51492.422   0.14633467 
   81400    298.07396    49.544859     148593.3   -47368.009     4093.328   -51461.337   0.14666987 
   81600    298.20405   -9.2079722    148665.78   -47388.169    4095.1145   -51483.284   0.14614822 
   81800     294.0287   -24.373366    148667.75    -47392.65    4037.7762   -51430.426   0.14711907 
   82000    298.05904    19.723953    148569.79   -47358.865    4093.1231   -51451.988   0.15399524 
   82200     293.3175    8.8868044    148576.85   -47404.513    4028.0096   -51432.523   0.15533537 
   82400    298.14722   -62.426888    148668.42   -47407.412    4094.3341   -51501.746   0.14961789 
   82600    296.87463    19.331535    148606.62    -47450.91    4076.8581   -51527.768   0.14638991 
   82800    286.92145    44.840478    148490.34   -47489.494    3940.1752   -51429.669   0.14872022 
   83000     293.1405    22.781932    148558.64   -47474.218    4025.5789   -51499.797   0.14451567 
   83200     297.7999   -114.21035    148690.57   -47494.942    4089.5645   -51584.506   0.14507032 
   83400    286.70698     17.78695     148536.4   -47513.957      3937.23   -51451.187   0.15133713 
   83600    294.59875    84.601728    148413.73   -47531.529    4045.6044   -51577.133   0.15318214 
   83800    294.05026   -24.400917    148598.88    -47480.48    4038.0722   -51518.552   0.14868838 
   84000    292.18123   -87.719321     148723.2   -47510.308    4012.4056   -51522.714   0.14612508 
   84200    292.82883    67.148048    148521.15   -47497.989    4021.2988   -51519.288   0.14556003 
   84400    297.69558    111.26918    148448.78   -47502.635    4088.1319   -51590.767   0.14694991 
   84600     289.6686   -119.55216     148696.8   -47498.813    3977.9007   -51476.713   0.14965978 
   84800    296.83827   -92.445843    148724.43   -47509.461    4076.3588    -51585.82   0.14515998 
   85000    296.50785    125.45415    148449.64   -47472.961    4071.8213   -51544.783   0.14325706 
   85200    295.86511    90.345691    148516.65   -47442.426    4062.9949   -51505.421   0.13979158 
   85400     296.2717   -187.30608    148845.52   -47429.082    4068.5783    -51497.66   0.15059863 
   85600    292.20267   -11.892516    148705.29   -47425.682       4012.7   -51438.382   0.15112784 
   85800    293.76057    165.06219    148353.78   -47440.798     4034.094   -51474.892   0.15104323 
   86000    294.29827    19.230965    148553.17   -47394.602     4041.478    -51436.08   0.15316475 
   86200    299.33569   -196.06802     148924.8   -47405.073    4110.6549   -51515.728    0.1432657 
   86400    297.68576    34.610973    148628.47   -47398.762     4087.997   -51486.759   0.14663827 
   86600    294.92987    219.63452    148300.84   -47397.921    4050.1516   -51448.073   0.15260347 
   86800    295.90851   -76.893548    148680.14   -47429.498    4063.5908   -51493.089   0.15155812 
   87000     297.7586   -239.45349    148921.22   -47450.344    4088.9974   -51539.342   0.14484681 
   87200     295.9449    128.74475    148446.08   -47419.447    4064.0906   -51483.538   0.14708513 
   87400     294.2962    226.59349    148296.86   -47381.784    4041.4497   -51423.234   0.15068364 
   87600    292.61354   -204.41036    148815.22   -47449.836    4018.3423   -51468.178   0.15487284 
   87800    295.15191   -219.36315    148856.69    -47455.24    4053.2008   -51508.441   0.15581782 
   88000    296.09184     202.5137    148277.45    -47405.93    4066.1083   -51472.038   0.15734276 
   88200    298.04876    223.23295    148353.26   -47418.296    4092.9819   -51511.278   0.14537907 
   88400    293.93235    -245.4517    148934.36   -47402.771     4036.453   -51439.224   0.14949004 
   88600    295.45786   -119.03867    148753.65    -47417.56    4057.4023   -51474.962   0.15526102 
   88800    293.93661     301.9994    148203.87   -47407.528    4036.5115   -51444.039   0.15148342 
   89000    300.01136    73.905554    148518.98   -47431.535    4119.9336   -51551.469   0.14642199 
   89200    290.71554   -372.19953    149016.98    -47403.22    3992.2778   -51395.498   0.15244915 
   89400    295.48364   -21.470912    148616.14   -47375.637    4057.7562   -51433.393   0.15103536 
   89600    296.01336    285.84947    148201.46   -47397.426    4065.0307   -51462.457    0.1479373 
   89800    293.94588   -41.822173    148631.51   -47435.185    4036.6389   -51471.824   0.15746873 
   90000    292.47634    -284.3875    148978.76   -47450.467    4016.4582   -51466.926   0.15363474 
   90200    294.72472    85.204401    148501.79   -47497.607    4047.3342   -51544.941   0.14561858 
   90400    295.09975    282.60748     148229.3    -47518.08    4052.4844   -51570.564   0.14551322 
   90600    295.13363   -84.454251    148717.18   -47510.957    4052.9496   -51563.906   0.14551123 
   90800    295.01709   -247.82094     148884.6   -47534.712    4051.3493   -51586.061   0.15461236 
   91000    291.51711    127.83817    148355.29    -47535.08    4003.2855   -51538.365   0.15160992 
   91200    293.49432    216.02389    148297.27   -47548.579    4030.4378   -51579.016   0.14682391 
   91400    292.92686   -155.50289     148809.5   -47539.261     4022.645   -51561.906   0.14516039 
   91600    292.69809     -140.734    148774.71   -47543.024    4019.5034   -51562.527   0.14406592 
   91800    291.24486    186.94739    148330.74   -47518.928    3999.5468   -51518.475   0.15254438 
   92000    289.50782    103.16403    148456.18   -47534.952    3975.6927   -51510.645   0.15123335 
   92200    290.40887   -205.94768    148851.69   -47557.348    3988.0664   -51545.414   0.15467661 
   92400    292.91474   -66.546729    148665.27   -47537.479    4022.4786   -51559.958   0.14667431 
   92600    291.09988    184.94674    148379.11   -47594.333    3997.5558   -51591.889   0.13939205 
   92800    293.80594    47.980289    148581.62   -47563.633     4034.717    -51598.35   0.14368183 
   93000    298.03162   -167.43139    148808.77   -47491.783    4092.7467    -51584.53   0.14873919 
   93200    289.29558    19.136365    148615.29   -47489.534    3972.7781   -51462.312   0.14728245 
   93400    292.71464    117.64987    148451.51   -47494.363    4019.7307   -51514.094   0.14598821 
   93600    289.39509   -9.9462912    148634.21   -47477.366    3974.1446   -51451.511   0.14605205 
   93800    290.72702   -107.96643     148746.4   -47467.708    3992.4355   -51460.143   0.14963262 
   94000    296.81677    11.182499    148581.83   -47469.169    4076.0636   -51545.232   0.14723342 
   94200    291.94748    59.051893    148480.35    -47551.78    4009.1956   -51560.976   0.15130695 
   94400    292.28185   -11.768817    148571.22    -47535.87    4013.7874   -51549.657   0.14735502 
   94600    288.31734   -59.471527    148631.84   -47533.026    3959.3443    -51492.37   0.14937602 
   94800    284.23893   -8.7256148    148540.77   -47584.739    3903.3372   -51488.076    0.1469181 
   95000     287.1365    35.143046    148476.12   -47591.136    3943.1284   -51534.265     0.146775 
   95200    288.51347    0.3956872    148579.39   -47596.523    3962.0377   -51558.561   0.14764656 
   95400    291.82001   -65.029734    148666.16   -47609.259    4007.4451   -51616.704    0.1455352 
   95600    291.61084    31.075354    148527.44   -47570.873    4004.5727   -51575.446   0.14788579 
   95800    291.56982    94.404627    148460.52   -47534.103    4004.0093   -51538.112    0.1458619 
   96000    292.50132   -39.598632     148607.4   -47526.143    4016.8012   -51542.944   0.14749031 
   96200    288.90189    -84.23437    148634.49   -47568.787    3967.3718   -51536.159   0.15193926 
   96400    290.96876    74.098976    148487.26   -47562.092    3995.7553   -51557.847   0.14934911 
   96600    289.41296    81.859218    148502.99   -47574.425    3974.3901   -51548.815   0.15153478 
   96800    287.69835   -60.651192    148633.59   -47627.289     3950.844   -51578.133   0.14944948 
   97000    281.96709    1.4378468    148592.41   -47609.203     3872.139   -51481.342   0.14457824 
   97200    286.05322    48.331777    148478.18     -47596.6    3928.2521   -51524.852   0.14725509 
   97400    294.40362    21.200175    148536.77    -47551.35    4042.9248   -51594.275   0.14590422 
   97600    291.07368   -66.862063    148666.47   -47523.379     3997.196   -51520.575    0.1510819 
   97800    294.19425   -38.927966    148612.21   -47517.445    4040.0496   -51557.495   0.14349014 
   98000    297.44006    138.37435    148513.04   -47488.252     4084.623   -51572.875   0.13937802 
   98200    291.81089    2.0985212    148620.12   -47499.031    4007.3199   -51506.351   0.14393526 
   98400    295.44822   -69.814896    148731.02   -47428.198    4057.2698   -51485.467    0.1457107 
   98600    292.25725    31.494825    148581.23   -47474.527    4013.4495   -51487.977   0.14979768 
   98800    291.99472    82.006819    148458.47    -47437.79    4009.8444   -51447.635   0.15579941 
   99000    298.08254   -33.889131    148662.95   -47440.997    4093.4458   -51534.442   0.14762084 
   99200    291.89888   -127.81374    148781.98   -47505.593    4008.5282   -51514.121   0.14499472 
   99400    292.60127    94.280006    148494.26    -47599.21    4018.1738   -51617.384   0.14428476 
   99600    290.16432    173.37215    148347.58   -47623.636    3984.7081   -51608.344   0.14876895 
   99800    288.86522   -103.71153    148711.19    -47595.18    3966.8682   -51562.049   0.14906262 
  100000    289.93792   -208.66079    148822.47   -47594.655    3981.5992   -51576.254   0.14783381 
  100200    288.97023    179.98853    148353.51   -47551.322    3968.3103   -51519.632   0.14493114 
  100400    288.20795    183.07303    148353.94   -47549.063    3957.8422   -51506.905   0.14812637 
  100600    292.64937   -223.63426    148879.57   -47498.024    4018.8343   -51516.858   0.15073455 
  100800    292.12794    -159.0778     148809.9   -47528.366    4011.6738    -51540.04   0.15162294 
  101000    295.60746    282.51627    148243.06   -47510.405    4059.4566   -51569.862   0.14913564 
  101200    290.90725    142.91673    148404.62   -47490.181    3994.9105   -51485.091   0.14964713 
  101400    293.77933   -273.22931    148962.77   -47495.547    4034.3517   -51529.899   0.14522574 
  101600    286.50948   -55.346916    148678.82   -47511.266    3934.5177   -51445.784   0.14430266 
  101800    291.46728    327.49342    148159.59   -47476.855    4002.6012   -51479.456   0.15194323 
  102000    298.33975    41.839949    148558.82   -47480.496    4096.9781   -51577.474   0.14774842 
  102200    290.74061    -314.1957    148990.86   -47470.894    3992.6221   -51463.516   0.15147214 
  102400    295.61409    49.802125    148507.81   -47412.537    4059.5477   -51472.084   0.14764205 
  102600    295.42786    311.31983    148159.06   -47423.823    4056.9902   -51480.813   0.14965819 
  102800    295.68579   -77.007518    148691.98   -47436.657    4060.5323   -51497.189   0.14981808 
  103000    290.17397   -312.81253    148961.33   -47428.581    3984.8406   -51413.422   0.15620747 
  103200    297.93253    134.37847    148390.29   -47408.917    4091.3859   -51500.303   0.15307457 
  103400    296.25588    274.74516    148212.15   -47438.565     4068.361   -51506.926   0.14971262 
  103600    293.04676   -177.35679    148804.32   -47442.222    4024.2915   -51466.513   0.14925654 
  103800    293.29719   -270.12621    148883.22   -47445.605    4027.7306   -51473.336   0.15269552 
  104000    295.51596    210.16143     148285.7   -47454.581       4058.2   -51512.781   0.15349576 
  104200    296.37001    180.16913    148332.44   -47469.222    4069.9285   -51539.151   0.15089965 
  104400    294.92491   -236.69566    148918.39    -47486.45    4050.0834   -51536.533   0.14720134 
  104600    295.77708   -121.71976    148777.94   -47481.557     4061.786   -51543.343   0.14433823 
  104800    293.81981    264.36121    148276.77   -47471.632    4034.9076    -51506.54   0.14501262 
  105000    293.52056    60.956424    148489.14   -47502.683    4030.7981   -51533.482   0.14898331 
  105200     291.7478   -242.07444    148868.33   -47502.698    4006.4535   -51509.151   0.15193549 
  105400    297.69018   -13.611006    148594.62   -47495.029    4088.0577   -51583.087   0.14951816 
  105600    294.06315    248.64269     148303.9   -47492.311    4038.2492   -51530.561   0.14309933 
  105800     296.1898    23.880364    148601.47    -47510.05    4067.4536   -51577.504    0.1397809 
  106000    295.57485   -160.26704    148792.74   -47489.813    4059.0088   -51548.822   0.14446072 
  106200    294.92564    50.249419     148544.5   -47465.376    4050.0935    -51515.47   0.14978053 
  106400    293.80492    114.14984    148439.02   -47477.797    4034.7031     -51512.5   0.15335282 
  106600    295.79444   -17.126938    148651.11   -47479.488    4062.0244   -51541.512   0.14237291 
  106800    290.40246   -120.46432    148728.85   -47472.554    3987.9784   -51460.532   0.14719938 
  107000     293.4652    30.137692    148532.06   -47429.614    4030.0378   -51459.652   0.14752385 
  107200    299.34574    118.32326    148497.88   -47418.517    4110.7929    -51529.31   0.14928599 
  107400     292.8152   -50.407319    148692.28   -47425.144    4021.1117   -51446.256   0.15489023 
  107600    297.65999   -66.112812    148692.76   -47403.194    4087.6432   -51490.837   0.15115477 
  107800     291.0786    46.107527    148524.59   -47424.359    3997.2636   -51421.623    0.1490048 
  108000    297.64217    71.453087    148560.55   -47401.015    4087.3984   -51488.413   0.14236521 
  108200     297.0132   -36.585917    148688.71   -47435.326    4078.7611   -51514.087   0.14835971 
  108400    295.91645    14.613922    148630.58     -47431.8    4063.6999     -51495.5   0.14832677 
  108600    295.91449    68.363438    148563.78   -47403.314     4063.673   -51466.987   0.14724571 
  108800    293.27678   -31.583652    148638.06   -47426.219    4027.4503   -51453.669   0.14753619 
  109000    295.41459   -4.7739445    148668.19   -47465.665     4056.808   -51522.473   0.14169128 
  109200    293.39625    49.468596    148582.45   -47466.594     4029.091   -51495.685   0.14773418 
  109400    297.87792     45.36712    148580.06   -47451.919    4090.6359   -51542.555   0.14332504 
  109600    296.25593   -54.754143    148674.77   -47413.422    4068.3618   -51481.784    0.1487834 
  109800    294.53852   -55.653909     148652.9    -47465.22    4044.7773   -51509.998   0.14501785 
  110000    296.73999    46.491571    148540.63   -47402.881    4075.0092    -51477.89   0.14622386 
  110200    299.07407    61.275495     148585.3   -47390.329    4107.0621   -51497.391   0.14381521 
  110400    295.33272   -26.991274     148702.4   -47442.167    4055.6838   -51497.851   0.14466658 
  110600    293.87003   -15.198513    148574.67   -47515.672    4035.5971   -51551.269   0.14648822 
  110800     293.0665    116.08164    148427.68   -47511.264    4024.5626   -51535.826   0.14592195 
  111000    291.94133    1.6899632    148591.42   -47512.134    4009.1112   -51521.245   0.14803263 
  111200    297.01206    -128.5112     148735.5   -47500.438    4078.7455   -51579.183   0.14232593 
  111400    291.93095    76.525458    148525.78   -47553.391    4008.9686    -51562.36   0.14461497 
  111600    288.27385    141.28418    148377.31   -47607.672    3958.7471   -51566.419   0.14633807 
  111800    287.83286   -53.441489    148594.76   -47640.713    3952.6912   -51593.404   0.14859963 
  112000    289.10174   -102.82191    148714.81   -47631.572    3970.1163   -51601.689   0.14583113 
  112200     287.9785    60.764549    148446.02   -47589.788    3954.6913    -51544.48    0.1497928 
  112400    296.06966    181.39903     148361.2    -47557.84    4065.8038   -51623.643   0.14667796 
  112600    294.70236   -103.62031    148673.26   -47532.834    4047.0272   -51579.861   0.14992574 
  112800    293.67265   -151.71904    148695.87   -47548.014    4032.8866   -51580.901   0.15253163 
  113000    293.06624    136.62193    148303.43   -47524.852    4024.5591   -51549.411    0.1545046 
  113200    290.85279    133.64097    148356.93   -47560.994    3994.1626   -51555.156   0.15109085 
  113400    292.15546   -223.78476    148815.79   -47540.474    4012.0517   -51552.526   0.14697559 
  113600    293.31455   -89.321562     148672.2   -47544.019     4027.969   -51571.988   0.14710395 
  113800     292.7827    278.55726       148204   -47526.753    4020.6653   -51547.418   0.15249079 
  114000    294.53217     82.04295    148461.66   -47513.923    4044.6902   -51558.614   0.15319611 
  114200    288.67475    -298.5376    148940.46   -47523.975    3964.2525   -51488.228   0.15584693 
  114400    294.96878    15.911702    148548.81   -47464.678    4050.6858   -51515.363   0.14860606 
  114600    298.07762    352.21409    148148.93   -47436.618    4093.3783   -51529.996   0.14581059 
  114800    295.61794   -86.092358     148663.3   -47423.242    4059.6005   -51482.843   0.15809988 
  115000    293.46805   -365.78397    148997.32   -47449.834     4030.077   -51479.911   0.16310066 
  115200    294.33218    166.83817    148362.74   -47464.093    4041.9437   -51506.036   0.15680014 
  115400    294.57596    299.67006    148126.05   -47476.741    4045.2914   -51522.032    0.1576014 
  115600    292.93359   -188.31702    148823.99   -47458.031    4022.7375   -51480.769    0.1533355 
  115800    295.52277   -284.90084    148947.02   -47473.957    4058.2936    -51532.25   0.15507255 
  116000    296.11226    294.75478    148231.49   -47459.417    4066.3888   -51525.806   0.15661926 
  116200    294.54301    266.31285    148241.73   -47479.616    4044.8389   -51524.455   0.15786761 
  116400    292.09198   -272.61287    148943.79   -47521.415    4011.1799   -51532.595   0.14986118 
  116600    290.38687   -203.23792    148832.18   -47533.133    3987.7644   -51520.897   0.14980037 
  116800    293.42145    290.03191    148161.12   -47488.662     4029.437   -51518.099   0.15322911 
  117000    296.88206    145.00419    148365.66   -47497.878    4076.9602   -51574.838   0.15043374 
  117200    294.26532   -287.86112    148943.29   -47486.077    4041.0256   -51527.103   0.15621806 
  117400    287.91963   -110.50437    148650.47   -47511.964    3953.8828   -51465.847   0.15681973 
  117600    291.19257    292.05595    148179.27   -47492.552    3998.8288    -51491.38   0.14924641 
  117800     293.4835    41.167125    148548.29   -47453.441    4030.2891    -51483.73   0.14893437 
  118000    299.37237   -249.17744    148947.18   -47445.092    4111.1587   -51556.251   0.15107388 
  118200    292.13007   -21.193802    148534.01   -47479.891     4011.703   -51491.594   0.15825338 
  118400    295.94142    281.02007    148220.19   -47530.751    4064.0428   -51594.794   0.14630494 
  118600    285.83712    -74.85378    148620.31   -47559.421    3925.2845   -51484.705   0.15001977 
  118800    285.35393   -224.26441    148794.59   -47608.224    3918.6491   -51526.873    0.1484452 
  119000    294.21679    133.15619    148387.88   -47607.865    4040.3592   -51648.224   0.14294591 
  119200    287.86036    131.51095    148309.37   -47609.742    3953.0689   -51562.811   0.15348121 
  119400    289.67879    -87.84554    148642.29   -47636.136    3978.0405   -51614.177   0.15178601 
  119600    288.77593   -90.260968    148647.47     -47574.2     3965.642   -51539.842   0.15053477 
  119800    289.65436    91.048851    148388.01   -47571.034    3977.7051   -51548.739   0.14689449 
  120000    290.06408    68.157414    148437.67   -47589.397    3983.3316   -51572.729   0.15046055 
  120200     290.5606   -104.47683    148618.79    -47562.02    3990.1502    -51552.17   0.15568725 
  120400    288.15421    3.1884287    148524.16   -47607.667    3957.1042   -51564.771   0.15240962 
  120600    285.47069    101.04707    148398.21   -47600.351    3920.2525   -51520.603   0.15006107 
  120800    290.30309   -17.544731    148510.08   -47592.827    3986.6139   -51579.441   0.14902943 
  121000    289.54487   -60.744426    148593.12   -47576.709    3976.2015   -51552.911   0.14914256 
  121200    292.34982    1.1605337    148504.33   -47575.184    4014.7208   -51589.905   0.15050818 
  121400    292.63402    53.632908    148439.61   -47573.762    4018.6235   -51592.386   0.14913268 
  121600    290.01868     -21.6327    148505.84   -47563.675    3982.7082   -51546.384   0.15279071 
  121800    289.28637   -30.906093    148566.05   -47561.395    3972.6517   -51534.047   0.15171145 
  122000     287.2189   -2.7662609    148517.25   -47537.968      3944.26   -51482.228   0.14748558 
  122200    290.16167    4.6145439    148476.04   -47506.546    3984.6719   -51491.218   0.15138872 
  122400    292.77774    17.676414    148515.97   -47460.063    4020.5972    -51480.66   0.15325759 
  122600    295.44769   -13.019539       148572   -47380.616    4057.2626   -51437.879   0.15790824 
  122800    297.74936    9.9975468    148600.28   -47381.829    4088.8705     -51470.7   0.14845508 
  123000    297.79579    9.0470207    148556.94   -47429.462    4089.5081    -51518.97   0.14627964 
  123200    295.99061     24.68261    148486.65   -47452.658    4064.7183   -51517.376    0.1525491 
  123400    290.83378   -15.906628    148514.02   -47536.467    3993.9017   -51530.369   0.14899016 
  123600    294.90713   -1.8175996    148548.21   -47483.939    4049.8393   -51533.779   0.15582517 
  123800    293.96666    -18.39019    148535.03   -47506.354    4036.9242   -51543.279   0.15054448 
  124000    294.70984    60.150404    148517.92   -47489.969    4047.1299   -51537.099   0.14471802 
  124200    291.85668    -24.83323    148602.94   -47473.887    4007.9487   -51481.836   0.14773717 
  124400    292.52262    -48.91479    148639.42    -47487.53    4017.0937   -51504.624   0.14819224 
  124600    297.96178    33.775652    148543.53   -47507.661    4091.7875   -51599.448     0.152364 
  124800     292.7889    52.308559    148551.27   -47512.073    4020.7505   -51532.823   0.14659181 
  125000    289.82013   -56.291326    148652.08   -47521.519    3979.9816   -51501.501   0.14707255 
  125200    292.69399   -28.265404    148628.29   -47512.459    4019.4471   -51531.906   0.14289669 
  125400    293.50724    65.196953    148518.37    -47582.66    4030.6152   -51613.276   0.14048055 
  125600     291.4397    17.613034    148559.01   -47575.882    4002.2225   -51578.104   0.14408013 
  125800    292.41603   -103.93051    148663.78   -47567.939      4015.63   -51583.569   0.15118534 
  126000    290.30836    21.091321    148556.97   -47534.347    3986.6863   -51521.033   0.14861395 
  126200    292.11406    116.38125    148431.77    -47514.92    4011.4832   -51526.404   0.14357165 
  126400    290.83815   -9.6275588     148588.1   -47543.983    3993.9617   -51537.945   0.14380553 
  126600    292.64532   -74.642159    148685.37   -47569.154    4018.7787   -51587.933   0.14384111 
  126800    291.25629    48.225952    148477.65   -47539.798    3999.7038   -51539.501    0.1519916 
  127000    290.67741    142.48847     148419.3   -47556.253    3991.7543   -51548.007   0.14975833 
  127200    294.03501   -30.029776    148653.25   -47591.716    4037.8628   -51629.579   0.14506187 
  127400    292.97052   -80.053795    148686.55   -47589.716    4023.2445   -51612.961   0.14007684 
  127600    289.22495    90.313808    148428.67   -47583.732    3971.8082    -51555.54   0.14585535 
  127800    289.99667    127.79066    148437.01   -47572.771    3982.4059   -51555.177    0.1471235 
  128000    286.33259   -176.69792    148752.45   -47570.331    3932.0886    -51502.42   0.15424542 
  128200    293.79378   -104.17076    148716.82   -47535.803    4034.5501   -51570.353   0.15106448 
  128400    295.40634    167.32757    148355.19   -47562.861    4056.6948   -51619.556    0.1456621 
  128600    291.30982    85.470461    148421.04    -47595.93    4000.4388   -51596.369   0.14612684 
  128800    290.98685   -185.24537    148767.63   -47631.809    3996.0037   -51627.813   0.14436312 
  129000    286.53771   -72.822381    148618.78   -47665.653    3934.9054   -51600.559   0.15064953 
  129200    289.59033    212.12194    148278.92   -47623.315    3976.8258   -51600.141   0.14886087 
  129400     284.9531    60.461195    148510.28    -47622.17    3913.1446   -51535.315   0.14358841 
  129600    290.15131   -167.84398    148823.52   -47621.662    3984.5296   -51606.192   0.14263848 
  129800    285.93213    -38.49734    148546.91   -47634.467    3926.5893   -51561.056   0.14017546 
  130000    292.05909    200.48007    148267.56   -47645.173    4010.7283   -51655.901    0.1443847 
  130200    283.11111   -97.473089    148598.08   -47663.237    3887.8494   -51551.087   0.14973024 
  130400    291.53033   -213.70006    148788.33   -47647.089     4003.467   -51650.556   0.15083595 
  130600    291.47762    107.47241    148367.22    -47602.33    4002.7433   -51605.073   0.14553283 
  130800    285.13677    185.38067    148228.54   -47623.057    3915.6668   -51538.723    0.1489757 
  131000    289.15153   -107.92635    148648.82   -47642.906    3970.7999   -51613.706   0.14443494 
  131200    285.41272   -182.52867    148737.57   -47613.891    3919.4564   -51533.347   0.15298362 
  131400    289.38083    143.28959    148322.05   -47616.129    3973.9489   -51590.078   0.15078338 
  131600    288.48741    105.46237    148346.13   -47609.495    3961.6798   -51571.175   0.15052642 
  131800    288.53472   -200.41574    148811.73   -47580.759    3962.3295   -51543.088   0.14676026 
  132000     297.3315   -122.06489     148711.6   -47524.819    4083.1321   -51607.951   0.14645404 
  132200    292.86274    267.20261    148250.32    -47531.57    4021.7644   -51553.335   0.14919259 
  132400    291.99574    100.26557    148438.04   -47535.944    4009.8583   -51545.802   0.15238949 
  132600    296.16937   -225.87466    148873.77   -47511.106    4067.1731   -51578.279   0.14857702 
  132800    293.01672   -72.673421    148638.29   -47480.605    4023.8791   -51504.484   0.14899843 
  133000    296.20538    247.61074    148284.23   -47475.569    4067.6676   -51543.237   0.14590887 
  133200    296.55357   -5.4665033    148636.02   -47423.955    4072.4492   -51496.404   0.14832237 
  133400    292.34921   -258.74725    148953.65   -47408.974    4014.7124   -51423.686   0.15044868 
  133600    300.32716    34.254426    148543.53   -47423.047    4124.2703   -51547.317   0.14892858 
  133800    294.78208    249.19013    148289.31   -47444.014     4048.122   -51492.136   0.14578258 
  134000    297.64209   -117.07597    148757.09   -47394.513    4087.3974    -51481.91   0.14802608 
  134200    292.29264   -225.23971    148920.32   -47406.259    4013.9356   -51420.195     0.150429 
  134400    299.15718    136.00638    148423.78   -47406.373    4108.2034   -51514.577   0.14974602 
  134600    291.02159     167.4113    148359.17   -47422.804    3996.4808   -51419.285   0.15434751 
  134800    294.12511   -158.77952    148876.83   -47466.269    4039.1001   -51505.369   0.14493633 
  135000    294.13679   -154.37823    148848.12   -47521.325    4039.2605   -51560.585   0.14343001 
  135200    294.44227    227.78087    148283.31   -47531.909    4043.4556   -51575.365   0.14742427 
  135400    291.63006    155.03337    148366.56   -47553.506    4004.8367   -51558.343   0.15131287 
  135600    293.91731   -231.64654    148902.95   -47516.771    4036.2465   -51553.018   0.14863186 
  135800    289.20618   -149.89079    148717.56   -47588.863    3971.5505   -51560.413   0.15367218 
  136000    286.08491    290.74666    148170.64   -47619.587    3928.6873   -51548.275   0.14555028 
  136200    291.63284    92.018464    148424.51   -47632.885    4004.8747   -51637.759   0.14458161 
  136400    292.93304   -290.88053    148937.97   -47584.473    4022.7299   -51607.203   0.14827181 
  136600    293.85057    22.244155    148594.26   -47526.789    4035.3299   -51562.119   0.14900273 
  136800    292.76057    270.55176    148200.66   -47536.832    4020.3614   -51557.193   0.15056797 
  137000    292.67827   -28.917976    148610.91   -47543.414    4019.2312   -51562.645   0.14555439 
  137200    291.22292    -219.6327    148895.18    -47572.79    3999.2455   -51572.035     0.142117 
  137400    292.18317    98.358874    148412.08   -47530.541    4012.4323   -51542.973   0.14890682 
  137600    297.80915    248.37423    148222.77   -47523.308    4089.6916       -51613    0.1489074 
  137800    295.41176   -197.08072    148718.13   -47497.191    4056.7692    -51553.96   0.15621501 
  138000    289.39501   -179.87711    148805.02   -47491.579    3974.1435   -51465.723   0.15146086 
  138200    292.15491    173.40202    148341.32   -47543.207    4012.0441   -51555.251   0.14503845 
  138400    291.44171    204.01539    148344.11   -47528.306      4002.25   -51530.556   0.14604448 
  138600    295.09265   -181.15635    148824.35   -47543.077    4052.3869   -51595.464    0.1499034 
  138800    294.20776   -159.01787    148766.95   -47492.852     4040.235   -51533.087   0.15423977 
  139000    296.03773    137.08825    148354.51   -47481.067    4065.3653   -51546.433   0.15151905 
  139200    298.73053    113.55513    148461.42   -47482.977    4102.3445   -51585.321   0.14646688 
  139400    289.87259   -175.78404    148835.47   -47508.677     3980.702   -51489.379   0.14878869 
  139600    289.72876   -38.660707     148681.1   -47489.802    3978.7268   -51468.528   0.14765235 
  139800    298.43977    178.89776    148347.98   -47451.084    4098.3516   -51549.436   0.15256151 
  140000    295.98938     65.16316    148531.77   -47417.956    4064.7014   -51482.658   0.15379559 
  140200    296.31396   -180.02297    148816.88   -47461.226    4069.1587   -51530.384   0.15259596 
  140400    291.73365   -13.500662    148586.99   -47485.261    4006.2592    -51491.52   0.15082161 
  140600    291.54075    200.79658    148340.61   -47484.189    4003.6102   -51487.799   0.14511582 
  140800    290.41685    5.0675796    148573.06   -47477.698     3988.176   -51465.874   0.14887361 
  141000    291.02431   -169.19694    148758.95   -47514.478     3996.518   -51510.996   0.15114723 
  141200    297.07805    58.864225    148489.92   -47466.208    4079.6517    -51545.86   0.14870264 
  141400    293.37131    179.82044    148342.81   -47470.224    4028.7484   -51498.973   0.14632389 
  141600    289.60671   -101.22939    148663.23   -47452.865    3977.0508   -51429.915   0.14933294 
  141800     292.9095    -134.9111    148764.79   -47506.635    4022.4066   -51529.042   0.14662815 
  142000    286.73675    80.286022    148428.32   -47521.791    3937.6388    -51459.43   0.15370251 
  142200    291.76913    108.15002    148406.67   -47520.751    4006.7463   -51527.497   0.15438932 
  142400    289.73688   -105.07034    148731.88    -47523.72    3978.8384   -51502.559   0.15075204 
  142600    293.26971   -115.12341    148708.78   -47515.304    4027.3532   -51542.657    0.1484587 
  142800    292.22836    95.601759    148421.72   -47519.651    4013.0528   -51532.703   0.14823659 
  143000    294.34632    52.044288    148472.29   -47582.862    4042.1378       -51625   0.14550108 
  143200    290.73939    -104.1527    148720.42   -47549.527    3992.6054   -51542.133   0.14956281 
  143400    292.27037   -46.158773    148632.87   -47513.379    4013.6297   -51527.008   0.15011572 
  143600    288.74706    111.27661    148407.29   -47502.221    3965.2456   -51467.467   0.15506356 
  143800    291.50807    44.423199    148570.77   -47516.274    4003.1614   -51519.436   0.14982865 
  144000    294.73229   -141.70974    148812.09   -47503.742    4047.4383    -51551.18   0.14791429 
  144200    295.59383   0.81597852    148587.61   -47477.211    4059.2695   -51536.481   0.14949008 
  144400    293.08257    180.25228    148365.09   -47480.865    4024.7833   -51505.648   0.15117354 
  144600    290.91558   -34.510588    148687.78   -47453.911    3995.0249   -51448.936    0.1514401 
  144800     294.8332   -245.47219    148927.31   -47421.953     4048.824   -51470.777   0.15061281 
  145000     296.2774    65.868529    148526.07   -47466.074    4068.6566   -51534.731    0.1485688 
  145200    297.73912    258.96179    148300.53   -47496.322    4088.7298   -51585.052   0.14506863 
  145400    294.17941    -116.1691    148762.07   -47502.026    4039.8458   -51541.871   0.14751534 
  145600     291.9577    -255.0684    148911.97   -47519.215     4009.336   -51528.551   0.14701261 
  145800    296.26882    212.86465    148318.78   -47535.114    4068.5388   -51603.653   0.14512506 
  146000    296.42963    247.68267    148235.67   -47523.935    4070.7471   -51594.682   0.14750435 
  146200      290.393    -299.4445    148931.57   -47555.896    3987.8486   -51543.745   0.14943751 
  146400    293.60763   -235.51312    148880.78   -47506.613    4031.9937   -51538.607   0.15209539 
  146600    298.96954     392.8996    148113.84   -47470.127    4105.6266   -51575.754   0.14745473 
  146800    293.54508     188.8666    148360.54   -47426.839    4031.1348   -51457.973   0.15078736 
  147000     295.0495   -469.48244    149164.69   -47439.379    4051.7944   -51491.173   0.15244298 
  147200    295.22756    -136.3565    148758.11   -47407.354    4054.2396   -51461.593   0.15422651 
  147400    292.79422    437.70473    148036.71   -47471.687    4020.8236   -51492.511   0.15479305 
  147600    295.11435    11.408117    148547.51   -47488.079    4052.6849   -51540.764   0.15383362 
  147800    290.91979   -391.73012    149141.95   -47527.856    3995.0827   -51522.939   0.14692015 
  148000    293.04651     58.47934       148552   -47492.997    4024.2881   -51517.285   0.14577436 
  148200    288.10276    353.32631    148102.99   -47534.898    3956.3977   -51491.296   0.15153279 
  148400    288.65098    -95.62952    148690.97   -47585.988    3963.9262   -51549.914   0.14601115 
  148600    292.04174   -324.27643    148980.08   -47553.983      4010.49   -51564.473    0.1496464 
  148800    292.38549    127.01872    148386.03   -47558.671    4015.2106   -51573.882   0.14748371 
  149000    295.52136    235.23205    148236.76   -47565.802    4058.2742   -51624.076   0.14700361 
  149200    292.50946   -135.09423    148761.11   -47571.481    4016.9131   -51588.394   0.14320616 
  149400    293.22004   -157.45153       148782   -47593.059    4026.6712    -51619.73   0.14518931 
  149600    290.61074    138.53154    148350.28   -47593.254    3990.8387   -51584.093   0.15025087 
  149800    290.33431    107.30948    148407.76   -47579.979    3987.0426   -51567.022   0.14536202 
  150000    288.96902   -142.97149    148768.13   -47537.642    3968.2936   -51505.935   0.14406547 
  150200    291.32955   -72.629762    148678.39   -47482.008    4000.7099   -51482.718   0.14616173 
  150400    292.45563    130.32802    148393.02     -47452.9    4016.1738   -51469.074   0.15571404 
  150600    291.55538     19.30849    148517.37   -47505.041    4003.8111   -51508.852   0.15426094 
  150800    291.27176    -123.4628    148721.68   -47466.931    3999.9163   -51466.847   0.15347387 
  151000    291.36633   -6.1638653    148588.62   -47507.555    4001.2149    -51508.77   0.15299826 
  151200    288.53819    81.816959    148423.29   -47493.955    3962.3771   -51456.332   0.14969411 
  151400    292.62143    14.983854     148585.2   -47406.304    4018.4507   -51424.754   0.15315865 
  151600    300.15088   -102.69465    148760.85   -47393.384    4121.8496   -51515.233   0.15170062 
  151800    294.96182    11.919919    148556.44   -47405.312    4050.5903   -51455.902   0.15363176 
  152000    291.45697    102.68198    148411.08   -47406.448    4002.4597   -51408.908   0.15116335 
  152200    297.99001   -53.136606    148659.21   -47427.968    4092.1752   -51520.143   0.14281284 
  152400    288.41102    -139.0536    148753.64   -47475.834    3960.6308   -51436.465   0.15403848 
  152600     295.6469    88.449515    148482.42   -47444.919    4059.9983   -51504.918   0.14902912 
  152800    301.78991    107.36011    148434.79   -47377.338    4144.3577   -51521.696   0.15286545 
  153000    292.11555   -105.57801    148728.68   -47446.749    4011.5037   -51458.253   0.15130529 
  153200    298.79117   -66.655001    148743.88   -47387.562    4103.1772   -51490.739   0.14829296 
  153400    297.07975    115.01038    148462.69   -47441.973    4079.6749   -51521.648   0.14641914 
  153600    298.31055    143.97261    148447.44   -47469.248     4096.577   -51565.825   0.14254521 
  153800    290.48658   -110.77428    148719.13   -47497.799    3989.1337   -51486.933   0.15244378 
  154000    290.22275   -73.712726     148689.3   -47512.726    3985.5106   -51498.237   0.14903116 
  154200    292.93003    133.53331    148427.66   -47458.357    4022.6886   -51481.045   0.14689174 
  154400    298.25497    73.331307    148528.85   -47453.613    4095.8138   -51549.427   0.14639466 
  154600    295.42591   -171.88154     148806.2   -47475.307    4056.9635    -51532.27   0.15516218 
  154800    292.41759   -14.982034    148640.35   -47490.185    4015.6514   -51505.836   0.14957654 
  155000    292.39167    207.27812    148368.72   -47478.903    4015.2955   -51494.198   0.15240848 
[...]
  163200    288.39408    19.088165    148477.84    -47537.71    3960.3981   -51498.108   0.15297809 
  163400      287.282    138.90843    148314.83   -47572.706    3945.1264   -51517.832   0.15675806 
  163600    291.71152   -42.716929    148608.29   -47521.328    4005.9552   -51527.284   0.14995496 
  163800    292.45663   -162.59481    148715.08   -47581.579    4016.1876   -51597.767   0.14515731 
  164000    290.41565     94.97552    148405.39   -47598.629    3988.1596   -51586.789   0.14770519 
  164200    289.33286    113.94947    148351.95   -47596.857      3973.29   -51570.147   0.14497297 
  164400    288.93921   -109.54739    148672.25   -47539.445    3967.8843    -51507.33   0.14871578 
  164600    288.40148    -139.6457    148707.99   -47517.802    3960.4998   -51478.302   0.14765892 
  164800     291.6693    108.17755    148439.99   -47558.407    4005.3754   -51563.783   0.14397226 
  165000     291.2827    79.163035    148464.72   -47534.314    4000.0664    -51534.38   0.14318045 
  165200    290.77489   -100.06108     148712.5   -47531.268    3993.0929   -51524.361   0.14576351 
  165400    289.57068   -74.718617    148647.52   -47560.821    3976.5559   -51537.377   0.14757844 
  165600    296.69605     145.2658    148417.94   -47499.145    4074.4058    -51573.55   0.14756487 
  165800    289.24827    7.5412098    148535.08   -47523.543    3972.1284   -51495.671    0.1517053 
  166000    290.36981   -152.12929    148747.69   -47482.918    3987.5301   -51470.448   0.15244978 
  166200    290.19763  -0.42181762    148576.05   -47513.489    3985.1656   -51498.655   0.14657519 
  166400    292.09205    131.21783    148384.14   -47509.266    4011.1809   -51520.447   0.14583247 
  166600    291.20513   -53.060514    148594.77   -47505.996    3999.0011   -51504.997   0.15245832 
  166800    292.56378   -194.72073    148762.56   -47566.109     4017.659   -51583.768   0.14949048 
  167000    292.75883    81.921828    148447.98   -47566.653    4020.3376   -51586.991   0.14803757 
  167200    292.53514    188.53846    148353.47   -47515.234    4017.2658     -51532.5   0.14346536 
  167400    293.29116   -121.31011    148757.39   -47561.607    4027.6477   -51589.255   0.14394658 
  167600    294.28279   -156.69225    148772.14   -47543.111    4041.2655   -51584.377   0.14772446 
  167800    292.61091    156.67299    148339.09   -47612.686    4018.3063   -51630.992   0.14160753 
  168000    294.40014    157.70665    148357.62   -47601.495    4042.8769   -51644.372   0.14293504 
  168200     283.9558   -216.12478       148812   -47598.002    3899.4491   -51497.451   0.14418878 
  168400    292.74116   -114.53216    148718.57   -47555.316    4020.0949   -51575.411   0.14380257 
  168600     289.6562    184.09777    148300.99    -47567.45    3977.7304    -51545.18   0.14727847 
  168800    287.19693    33.837658     148482.1   -47609.723    3943.9582   -51553.681   0.14700749 
  169000    287.41448   -247.61276    148876.62    -47594.23    3946.9457   -51541.176   0.15074651 
  169200    287.68258   -43.229612    148593.53   -47562.956    3950.6275   -51513.583   0.14662669 
  169400    289.58988    289.37457    148190.02   -47588.757    3976.8196   -51565.576   0.14454678 
  169600    292.00508   -31.093096    148594.63    -47600.28    4009.9866   -51610.267   0.14218137 
  169800    288.28147   -342.31369    148959.65   -47604.671    3958.8518   -51563.523   0.14508967 
  170000    283.57284     100.2915    148396.44    -47642.54    3894.1901    -51536.73   0.14898465 
  170200    290.46756    385.29188    148060.67   -47652.387    3988.8725   -51641.259   0.14317756 
  170400    286.21303   -152.47177    148747.08   -47622.652    3930.4467   -51553.099   0.14680193 
  170600    285.16213   -362.53377    148986.89    -47600.68    3916.0152   -51516.696    0.1530824 
  170800    294.01819    303.09521    148144.54   -47625.935    4037.6318   -51663.567   0.14437118 
  171000    291.24311    349.70893    148046.48   -47625.034    3999.5227   -51624.557   0.14791315 
  171200    286.61644   -364.78418    148987.02   -47652.123    3935.9866   -51588.109   0.14970742 
  171400    288.95724   -301.04488    148935.73   -47646.628    3968.1319    -51614.76   0.14294957 
  171600    290.96599    431.01165    147990.29   -47610.233    3995.7173   -51605.951   0.14137801 
  171800    294.21047    249.49629    148223.19   -47590.893    4040.2724   -51631.165   0.13994542 
  172000    288.68579   -417.55688    149107.35   -47594.092    3964.4042   -51558.496   0.14528131 
  172200     289.8463   -162.48671    148725.52   -47600.914     3980.341   -51581.255   0.14455061 
  172400    291.63354    457.90545    147982.13   -47568.754    4004.8844   -51573.639    0.1461473 
  172600    294.51151    64.747945    148476.86   -47556.875    4044.4064   -51601.281   0.14643578 
  172800    292.82441   -357.63235    149051.74   -47562.207    4021.2381   -51583.445   0.14659728 
  173000    288.20555    32.381029     148550.7   -47580.357    3957.8092   -51538.166   0.14714105 
  173200    291.69881    307.60734    148170.41    -47619.38    4005.7807   -51625.161    0.1475174 
  173400    286.65525    -31.62561    148611.29   -47605.429    3936.5196   -51541.949   0.14986678 
  173600    294.28412   -212.39304    148849.97   -47554.819    4041.2838   -51596.103   0.14475785 
  173800    293.29895    90.819093    148472.76     -47555.7    4027.7548   -51583.455   0.13938772 
  174000    293.00325    176.09397    148344.74   -47518.688     4023.694   -51542.382   0.14516771 
  174200    294.60503   -103.09155    148685.16   -47512.907    4045.6907   -51558.598   0.14335601 
  174400    296.09662   -139.62583    148743.36    -47495.78    4066.1741   -51561.954   0.14769436 
  174600    292.54719    83.490682    148458.22   -47508.272    4017.4312   -51525.703   0.14824842 
  174800    296.09901    98.862646    148465.53   -47471.678    4066.2069   -51537.885    0.1467666 
  175000    293.21983   -148.43162    148740.26   -47520.044    4026.6683   -51546.712   0.14885616 
  175200    296.49597   -47.496197    148653.55   -47517.008    4071.6581   -51588.667   0.14252924 
  175400    294.09024    118.17631    148393.47   -47526.915    4038.6213   -51565.536   0.14582967 
  175600    292.66722    40.270995    148512.78   -47538.757    4019.0795   -51557.836   0.14535017 
  175800    292.31878   -170.19397    148757.24   -47522.543    4014.2946   -51536.838   0.14629312 
  176000    293.36649   -37.020997    148563.71   -47509.142    4028.6823   -51537.824   0.14415651 
  176200    294.05801    218.26257    148329.32   -47457.842    4038.1787   -51496.021   0.14678524 
  176400    293.32306    -5.575856    148624.54   -47497.972    4028.0859   -51526.058   0.14542313 
  176600    295.51395   -177.26757    148813.69   -47478.258    4058.1725   -51536.431   0.15161553 
  176800     296.2737    56.740096    148479.97   -47485.397    4068.6059   -51554.003   0.15225933 
  177000    296.29908    178.95654    148313.76   -47501.382    4068.9543   -51570.336   0.15245953 
  177200    293.52206   -97.795818    148659.61    -47515.25    4030.8187   -51546.069   0.14791063 
  177400    295.67584    -145.3451    148749.89   -47604.714    4060.3956   -51665.109   0.14029196 
  177600    291.09448    122.91353    148366.68   -47568.714    3997.4818   -51566.196   0.14977395 
  177800    290.97542    174.02754    148336.88   -47547.639    3995.8467   -51543.485   0.14814337 
  178000    291.22962   -174.21867     148764.9   -47506.152    3999.3375   -51505.489   0.15047376 
  178200    289.82701   -121.41415    148720.36   -47540.698    3980.0761   -51520.774    0.1460473 
  178400    290.38075    212.77999    148291.38   -47516.056    3987.6804   -51503.736   0.15085953 
  178600     289.5974    54.675735    148425.32   -47533.657    3976.9229    -51510.58   0.15407814 
  178800    289.73434   -248.21034    148888.19   -47502.498    3978.8035   -51481.301   0.15308515 
  179000    293.61233   -91.118656    148694.19   -47475.637    4032.0583   -51507.696   0.15376479 
  179200    289.26361     209.7922    148244.53   -47500.511    3972.3391    -51472.85   0.15318544 
  179400    291.16773    57.872867     148511.7   -47473.946    3998.4876   -51472.434   0.15020776 
  179600    295.80554   -245.16906    148907.97   -47479.543    4062.1767    -51541.72   0.14425493 
  179800    294.73204     20.34433    148532.75   -47508.929    4047.4348   -51556.364   0.14825446 
  180000    294.51239    303.71957    148162.69   -47475.137    4044.4185   -51519.556   0.15373055 
  180200    290.57529   -90.764013    148650.09   -47436.995    3990.3519   -51427.347   0.15112395 
  180400    298.28382   -293.04547     148967.2   -47391.158      4096.21   -51487.368   0.15042645 
  180600    294.84284    117.39688    148389.55   -47480.955    4048.9565   -51529.911   0.14781037 
  180800    289.01614    317.74107    148130.47    -47444.44    3968.9407    -51413.38   0.15947996 
  181000    295.11073   -214.00082    148848.01   -47487.833    4052.6353   -51540.468   0.14991611 
  181200    297.61927   -341.70119    148985.03   -47469.081     4087.084   -51556.165    0.1504499 
  181400    295.09013    313.25375    148154.35   -47509.039    4052.3523   -51561.392   0.15093144 
  181600    289.98609    290.09361    148154.52   -47530.554    3982.2606   -51512.814   0.14614365 
  181800    293.66024   -371.14096     149072.2   -47500.973    4032.7162   -51533.689   0.14800017 
  182000    295.73623   -232.53867    148910.62   -47508.883     4061.225   -51570.108   0.14708944 
  182200    293.49683    424.04491    148011.89    -47524.42    4030.4722   -51554.892    0.1508347 
  182400    291.19581    150.84663    148345.49    -47528.14    3998.8733   -51527.014   0.14741777 
  182600    293.58603   -457.75738    149186.31   -47489.599    4031.6972   -51521.296   0.14757046 
  182800    293.40485   -81.662553    148732.77   -47454.477    4029.2091   -51483.687   0.14810071 
  183000     296.1529    410.43812    148052.32   -47456.062    4066.9469   -51523.009   0.15290617 
  183200    292.07812    19.119087    148600.94   -47440.137    4010.9897   -51451.127   0.14807002 
  183400    293.31851   -347.68234    149094.23   -47446.124    4028.0234   -51474.148   0.15150367 
  183600    292.53764    13.459328    148555.64   -47477.046       4017.3   -51494.346   0.14520724 
  183800    292.21963     302.8974    148226.83   -47509.445    4012.9329   -51522.378   0.14301943 
  184000    294.59996   -48.938396    148725.41   -47524.321     4045.621   -51569.942   0.14459362 
  184200    296.22957   -249.83086    148913.45    -47565.81    4067.9998   -51633.809   0.14542491 
  184400    292.93227    72.473319    148457.36   -47576.609    4022.7193   -51599.329   0.15081855 
  184600    286.93616    191.25888    148355.07   -47585.244    3940.3772   -51525.622   0.14779691 
  184800    291.90359   -149.96313    148748.73   -47574.067    4008.5929    -51582.66   0.14499944 
  185000    289.81798   -117.11192    148747.58   -47564.033     3979.952   -51543.985   0.14622462 
  185200    292.21387    169.54171    148388.59   -47621.344    4012.8538   -51634.197   0.14227678 
  185400    291.73547    140.79079    148438.72   -47599.776    4006.2841    -51606.06   0.14683399 
  185600    287.36563   -154.97924    148763.85   -47603.752    3946.2749   -51550.027   0.14928723 
  185800    289.57747   -53.001503    148674.01   -47547.945    3976.6492   -51524.595   0.14749401 
  186000    293.62576    148.67108    148397.66   -47534.825    4032.2428   -51567.068   0.14421532 
  186200    292.14384   -13.924339     148547.8   -47526.534    4011.8921   -51538.426   0.14932413 
  186400    294.63635   -112.71312    148790.62   -47474.854    4046.1207   -51520.975   0.14898595 
  186600    292.39722    11.596947    148613.96   -47508.168    4015.3716    -51523.54   0.14589556 
  186800    287.88528    106.47739    148437.29   -47534.808     3953.411   -51488.219   0.14597702 
  187000    291.93552   -3.9848551    148632.38   -47507.022    4009.0313   -51516.054    0.1381317 
  187200    294.64481   -100.39721    148786.05   -47525.853    4046.2369    -51572.09   0.13983215 
  187400    290.08638    19.156327     148587.2    -47511.35    3983.6379   -51494.988   0.14641887 
  187600    294.58016    139.09781    148472.25   -47553.786    4045.3491   -51599.136    0.1449895 
  187800    292.52643   -95.640901    148692.82    -47542.39    4017.1462   -51559.536   0.15018876 
  188000    294.63992   -103.99264    148763.21   -47515.446    4046.1698   -51561.615   0.14600516 
  188200    288.41579    29.993879    148533.17   -47506.029    3960.6963   -51466.725   0.15010638 
  188400    294.54767    64.430013    148492.55    -47494.92     4044.903   -51539.823   0.14854174 
  188600    297.06104   -37.366054    148714.88   -47500.262    4079.4181    -51579.68   0.15099359 
  188800    292.70439   -78.618942    148724.67   -47512.198    4019.5899   -51531.788   0.14782594 
  189000    292.04809    98.296793    148461.38   -47505.501    4010.5772   -51516.078   0.14867742 
  189200      293.782    75.687039     148470.6   -47508.911    4034.3883   -51543.299   0.14681877 
  189400    294.10158   -88.088129    148715.36   -47470.053     4038.777    -51508.83   0.15152524 
  189600    293.25606   -35.593872    148651.81    -47483.55    4027.1657   -51510.716   0.15414677 
  189800    293.25222    130.16964    148365.25   -47522.089     4027.113   -51549.202   0.15334226 
  190000    289.62916    31.964328    148474.96   -47554.881     3977.359    -51532.24   0.15632644 
  190200    292.54602   -177.77572    148768.61    -47527.75    4017.4152   -51545.165    0.1475567 
  190400    290.65842   -62.615808    148601.19   -47525.879    3991.4934   -51517.372    0.1495399 
  190600    292.78548    247.76894    148278.23   -47468.206    4020.7035   -51488.909   0.14587665 
  190800     296.5292   -4.4444683    148551.66   -47502.401    4072.1145   -51574.515   0.14836374 
  191000     290.8301   -289.48092    148870.95   -47514.243     3993.851   -51508.094   0.15417989 
  191200    296.23672    48.184322    148484.13   -47508.009     4068.098   -51576.108     0.148278 
  191400    292.72972    250.85438    148172.45   -47532.158    4019.9378   -51552.096   0.14932646 
  191600    292.45753   -60.697236    148660.45   -47488.479    4016.1999   -51504.679   0.14749259 
  191800    294.52346   -355.30778    148987.69   -47521.176    4044.5705   -51565.746   0.15619712 
  192000    291.09123    142.06233    148363.16   -47521.577    3997.4371   -51519.014   0.15344202 
  192200    293.52954    367.73002    148125.69   -47491.893    4030.9214   -51522.814   0.14864067 
  192400    294.13295   -203.20251    148870.72   -47499.739    4039.2077   -51538.947    0.1475142 
  192600    294.02471   -320.35295    149014.22   -47529.152    4037.7214   -51566.873   0.14448907 
  192800    289.66789    238.41589    148241.23   -47505.288    3977.8909   -51483.179   0.14898916 
  193000    290.97259    261.85488     148226.8    -47497.16    3995.8078   -51492.968   0.15023241 
  193200    295.53419   -237.55659    149023.94   -47450.011    4058.4504   -51508.462   0.14863002 
  193400     294.9042   -212.32602     148946.5   -47452.828     4049.799   -51502.627   0.15009467 
  193600     292.7905     316.5549    148241.23   -47465.116    4020.7725   -51485.888   0.14809233 
  193800    291.76247     166.4751    148428.74   -47516.475     4006.655    -51523.13   0.14504789 
  194000    292.62021   -322.73603    149049.23   -47541.474     4018.434   -51559.908   0.14770012 
  194200    296.48185   -86.676061    148730.97     -47527.8    4071.4642   -51599.264   0.14116878 
  194400    295.56692    297.36522    148210.25   -47508.299    4058.8999   -51567.199   0.14665497 
  194600    291.96941    56.360295    148578.94   -47534.661    4009.4967   -51544.157   0.14154108 
  194800    295.35608   -268.85591    148995.85   -47518.333    4056.0045   -51574.337   0.14032073 
  195000    292.04977    41.002242    148558.76   -47501.644    4010.6003   -51512.244   0.14914094 
  195200    292.51533    267.99016    148246.95   -47485.949    4016.9936   -51502.942   0.15113886 
  195400    299.46511   -57.205553    148701.45   -47489.904    4112.4321   -51602.336   0.14881844 
  195600    292.50047    -245.0883     148910.7   -47493.463    4016.7895   -51510.252   0.14916674 
  195800    293.27539    82.605681    148449.79   -47539.081    4027.4312   -51566.513   0.14734906 
  196000    292.16538    217.66003    148320.24   -47507.886    4012.1879   -51520.074   0.14881934 
  196200     296.0265   -138.69828    148769.09    -47496.87    4065.2111   -51562.081   0.14414084 
  196400     288.6462   -171.49502    148817.43   -47494.572    3963.8605   -51458.433   0.15233397 
  196600    291.42493    145.04097    148353.52   -47561.576    4002.0196   -51563.595   0.14561624 
  196800     291.1568     161.5058    148346.49   -47552.963    3998.3376   -51551.301   0.14683409 
  197000    289.90662   -183.99257    148783.56   -47562.963    3981.1692   -51544.132    0.1497801 
  197200    287.89768   -131.46868    148683.95   -47618.769    3953.5813   -51572.351   0.14944273 
  197400    289.36185    211.15098    148288.96   -47575.373    3973.6882   -51549.061   0.15134845 
  197600    296.35606    82.548675    148478.96   -47489.722    4069.7368   -51559.459   0.14913819 
  197800    299.91569   -179.20842    148869.34   -47475.935    4118.6197   -51594.555   0.14773799 
  198000     293.6814   -35.619812    148672.15   -47505.401    4033.0069   -51538.407   0.14264179 
  198200    288.69202     154.0244    148349.48    -47530.14    3964.4896    -51494.63    0.1470415 
  198400    294.47086    32.680686    148544.61   -47458.035    4043.8481   -51501.883   0.14879641 
  198600    292.68032   -163.43856    148832.63   -47447.553    4019.2593   -51466.812   0.14557408 
  198800    293.98266   -35.410371    148622.69   -47480.887    4037.1439   -51518.031   0.14957228 
  199000    293.80464    182.48883    148372.96   -47486.851    4034.6992    -51521.55    0.1490351 
  199200    293.22096     1.552604    148623.48   -47481.749    4026.6838   -51508.433   0.14728531 
  199400    296.44568   -140.54482    148829.42   -47493.076    4070.9675   -51564.044   0.14767472 
  199600    290.53648    19.807907    148529.96   -47515.683    3989.8189   -51505.502   0.15414037 
  199800    291.92969    185.36881     148341.4   -47493.772    4008.9513   -51502.723   0.15205848 
  200000    297.29687   -26.932827    148650.68   -47514.605    4082.6566   -51597.261   0.14296481 
Loop time of 109.942 on 6 procs for 200000 steps with 4608 atoms

Performance: 785.870 ns/day, 0.031 hours/ns, 1819.143 timesteps/s
97.9% CPU use with 6 MPI tasks x no OpenMP threads

MPI task timing breakdown:
Section |  min time  |  avg time  |  max time  |%varavg| %total
---------------------------------------------------------------
Pair    | 77.066     | 77.945     | 79.654     |  10.0 | 70.90
Neigh   | 12.582     | 12.74      | 13.014     |   5.3 | 11.59
Comm    | 7.4103     | 9.3336     | 10.153     |  31.5 |  8.49
Output  | 3.0258     | 3.0268     | 3.0303     |   0.1 |  2.75
Modify  | 5.6323     | 5.7133     | 5.8328     |   3.2 |  5.20
Other   |            | 1.183      |            |       |  1.08

Nlocal:        768.000 ave         776 max         763 min
Histogram: 3 0 0 1 0 0 0 0 0 2
Nghost:        1395.00 ave        1399 max        1388 min
Histogram: 1 0 0 1 0 0 1 0 0 3
Neighs:        0.00000 ave           0 max           0 min
Histogram: 6 0 0 0 0 0 0 0 0 0
FullNghs:      21877.7 ave       22094 max       21737 min
Histogram: 3 0 1 0 0 0 0 0 0 2

Total # of neighbors = 131266
Ave neighs/atom = 28.486545
Neighbor list builds = 12631
Dangerous builds = 0
write_data		data.${NAME}
write_data		data.ice_293K_1atm_ML
System init for write_data ...
Total wall time: 0:02:42
