LAMMPS data file via write_data, version 29 Oct 2020, timestep = 200000

4608 atoms
1 atom types

-0.0029385025997044067 57.27344850259739 xlo xhi
-0.002612002310907968 50.909732002307834 ylo yhi
-0.002612002310907968 50.909732002307834 zlo zhi

Masses

1 18.015

Atoms # atomic

5 1 1.587440762331369 1.5978316671648753 1.395869887503633 0 0 0
12 1 9.202308485248384 3.105846992225625 0.05049988327400197 0 0 0
13 1 7.625188020782529 1.2652246933887488 1.428600045171597 0 0 0
21 1 14.53939690512291 1.837302092580547 1.4843081759626495 0 0 0
19 1 15.75275813463413 0.14481983435469203 2.933073083318509 0 0 0
8 1 4.833222726553515 4.634085884928517 1.565403215434372 0 0 0
386 1 0.0813370387367982 3.2347828474210436 16.408304137135907 0 0 0
16 1 10.945928652878006 4.758786295577943 1.7039324045497526 0 0 0
18 1 12.50636433964235 3.1071931731262854 2.871542772278535 0 0 0
24 1 17.276817573135236 4.921165271862354 1.3917552033472964 0 0 0
137 1 12.694645214467227 31.666982958989315 0.14094450324631821 0 0 0
29 1 1.7334266277812187 7.994835470205844 1.8685041909429434 0 0 0
194 1 0.21579833346174757 3.3170099471220573 9.517969829897842 0 0 0
881 1 13.56677068805625 25.915381479346618 25.43101723849692 0 0 0
37 1 7.896949516706194 8.145866553702428 1.270787179024622 0 0 0
242 1 0.09166456385257711 15.948952257250456 9.500362150769151 0 0 0
1537 1 18.689321511404604 50.68230030017952 0.14470149947449806 0 -1 0
35 1 9.152928935454488 6.620065754245996 3.0484434774141254 0 0 0
45 1 14.17387891574793 7.79886982889163 1.5512060213949908 0 0 0
650 1 0.3842112067771178 21.969126439877716 22.219533710473574 0 0 0
32 1 4.688752699703495 11.569487808575559 1.7943850990993775 0 0 0
34 1 6.22414790213891 9.834266796180295 2.8747746507645022 0 0 0
40 1 10.86812306287003 11.419118509085783 1.1017095749551198 0 0 0
338 1 0.20853929908231095 41.121671559112855 9.327803313841132 0 0 0
67 1 15.535321568505886 12.874873387080964 3.284878170806955 0 0 0
48 1 17.126693101759237 11.428868092643826 1.6718102122498475 0 0 0
53 1 1.676957445745354 14.651486519382471 1.3118758821149252 0 0 0
61 1 8.191028633506066 14.582428693674045 1.7758964190728186 0 0 0
59 1 9.85396555995058 12.956464756245488 3.18199392915296 0 0 0
69 1 14.151177901342393 14.24067315434446 1.545307772970301 0 0 0
385 1 0.08036279508618804 0.266323462606735 12.855320609521565 0 0 0
836 1 16.11130833588794 15.811031576487153 25.18921726541326 0 0 0
56 1 4.985293497595722 17.423186984386607 1.7165791203467538 0 0 0
50 1 0.24094585475089048 15.981534284733781 3.230699077182459 0 0 0
64 1 11.197785782652675 17.61679764847804 1.843985821280943 0 0 0
66 1 13.02535498630953 16.013399223113936 3.055186510645207 0 0 0
72 1 17.555565499403144 17.066230201907086 1.9657666092744663 0 0 0
77 1 1.629933375808453 20.784717516899605 1.762687149420138 0 0 0
217 1 0.0471402390838182 6.327649516447382 6.3111358956062364 0 0 0
85 1 8.286804884299492 20.828027926850723 1.4352606596071709 0 0 0
83 1 9.780261059406934 19.380907565396356 3.2304571126921453 0 0 0
93 1 14.66819526091392 20.511711471042144 1.6884658138306734 0 0 0
80 1 5.000366162606604 23.968747470395428 1.814548012920858 0 0 0
99 1 3.3246288269327122 25.205458846892235 3.3023458733193705 0 0 0
649 1 0.20812869882321752 18.91100762159292 19.07029999667631 0 0 0
88 1 11.287575160261309 23.91940483641134 1.2859843211998592 0 0 0
90 1 13.059018948737824 22.414301163058493 3.1001301655707207 0 0 0
948 1 9.742567689141833 47.73735530761223 25.302195472553855 0 0 0
96 1 17.633702107095022 23.674674396971657 1.5471161889075853 0 0 0
17 1 12.657439890668323 0.26637174912544026 0.061238279186624375 0 0 0
241 1 0.17239304488217755 12.849772082326366 6.20985541238964 0 0 0
101 1 1.2496483773063987 26.69474245242254 1.8979862444837974 0 0 0
109 1 8.068373538127522 26.98388570225001 1.773576126708856 0 0 0
745 1 0.3580350964928627 44.479137604655676 19.01894479145518 0 0 0
117 1 14.844185824956584 26.95551410316101 1.6584551596800183 0 0 0
698 1 0.3942053735564227 34.73263230258058 22.40517920514089 0 0 0
104 1 5.1514331348270215 30.192980295890628 1.9503588011331274 0 0 0
140 1 16.11801035341814 35.119698560976985 0.240946351267967 0 0 0
112 1 11.063904179703764 30.312583539750257 1.84123291365372 0 0 0
120 1 17.42447716659956 30.626650701212316 1.4700823740787814 0 0 0
125 1 1.6977276963540326 33.63899603093451 1.5817192620809997 0 0 0
133 1 7.751916040996889 33.35657448992336 1.5681655048559042 0 0 0
130 1 6.34214921381773 34.86533217770635 3.3154716193630946 0 0 0
138 1 12.870487101009523 34.44082601516536 3.329921470027754 0 0 0
141 1 14.506791007374957 33.07314699013298 1.7123951762608067 0 0 0
553 1 0.20518808756548226 44.54453063939316 12.51747611628874 0 0 0
577 1 0.3286369948927599 50.66272687394782 18.978211691913284 0 -1 0
128 1 4.460048558615026 36.564490498634825 1.8716072700841735 0 0 0
155 1 10.14093024249509 37.85168969635278 3.4966874642656074 0 0 0
136 1 11.59469416115234 36.101480812599036 1.667136700943469 0 0 0
144 1 17.727726164369177 36.74349737298945 1.8598329073912834 0 0 0
149 1 1.527154622328141 39.940115166868836 1.4667548955569076 0 0 0
147 1 3.1013918878281705 38.71307281800034 3.0597262869635573 0 0 0
1705 1 18.70930175208455 44.50023191682746 0.13542818667044068 0 0 0
157 1 8.208481054251548 39.48175299146301 1.80322342553928 0 0 0
162 1 12.557942587445858 41.310909950384286 3.2937307803107676 0 0 0
28 1 3.065779463416207 9.627766691398955 0.39756633219559345 0 0 0
165 1 14.339234716615639 40.05021913339668 1.6677421787469353 0 0 0
804 1 9.250607060257103 9.63760470571162 25.031893873558776 0 0 0
163 1 16.100999141170206 38.23919602466211 3.2325406010531736 0 0 0
152 1 4.91865551550463 42.69909669523928 1.2702784689602347 0 0 0
160 1 10.95600595433694 42.71882451395538 1.6366233347353079 0 0 0
626 1 0.267498141461856 16.031855048818453 22.265578689688496 0 0 0
168 1 17.2666399880282 42.62260449621668 1.6256065554691717 0 0 0
161 1 12.738253896511056 38.234704086776276 0.40209580033339104 0 0 0
173 1 1.8597423126659032 45.958567988362205 1.3147074415788853 0 0 0
601 1 0.12291629757334016 6.646141960261512 19.393328542170295 0 0 0
181 1 7.917041086719345 46.232941683602704 1.5379379723799569 0 0 0
179 1 9.25967063746738 44.50133372568929 3.10828221892412 0 0 0
189 1 14.231205708874615 45.812564814808255 1.6896343958601479 0 0 0
530 1 0.32052250636707375 40.94513259792015 15.626777507424988 0 0 0
3 1 3.4429999287856248 50.81580295954741 2.7390079760975627 0 -1 0
176 1 4.907291356108502 49.175819063911604 1.352901427983199 0 0 0
313 1 0.21792840377756018 31.79796856221494 6.175866600408779 0 0 0
186 1 12.52446510870624 47.34635522769155 3.386475443945474 0 0 0
184 1 11.078733111877765 49.22236194055186 1.4491319128214981 0 0 0
192 1 17.091229726346864 49.13371652760844 1.5283076475880248 0 0 0
361 1 0.6248536534497507 44.62388930142373 6.400048619874849 0 0 0
7 1 4.476472567286594 1.059642930772269 4.58865271613616 0 0 0
10 1 6.218064859966898 2.8584144116303425 3.36766359612004 0 0 0
11 1 9.504319912257602 50.75014011217233 3.1396490192790982 0 -1 0
15 1 10.6957430428149 1.7368527162184948 4.777839305626293 0 0 0
209 1 12.28805005321149 0.004101572196844927 6.375274462203869 0 0 0
23 1 17.302922881710312 1.656730988829904 4.670606992543158 0 0 0
27 1 3.1705513537788756 6.3098549746905235 3.261527819745329 0 0 0
6 1 1.5746336471222702 4.430641839330169 4.47648899686786 0 0 0
225 1 5.931110289790279 6.447987325477701 6.259477313211409 0 0 0
14 1 7.426470448012928 5.112664917751818 4.407062128966341 0 0 0
43 1 15.791508137333476 6.10391214444761 3.2745867579533945 0 0 0
22 1 14.156477853657185 4.5660975852113275 4.519064232646321 0 0 0
108 1 9.354894130707768 28.8812003710736 0.22526571376678356 0 0 0
31 1 4.638789499309363 8.213921528570134 4.67015000061299 0 0 0
42 1 12.354924220692514 9.599472146532742 2.8205871562985108 0 0 0
39 1 10.645221743583987 8.221585975291699 4.476336822488061 0 0 0
47 1 17.1647630379072 7.820217905771671 4.814282639507847 0 0 0
153 1 6.353211549264857 37.84025040885821 0.42743894609497435 0 0 0
30 1 1.6783266656874456 11.103035870988085 4.56591261489071 0 0 0
290 1 0.10407087696721362 28.70363042029913 9.652513757345924 0 0 0
220 1 2.8689619870670007 9.601411681319272 6.4995174273526795 0 0 0
38 1 8.218966424272852 10.985369286969176 4.237081650301028 0 0 0
46 1 13.950703149619308 11.100372820498038 4.647509054831245 0 0 0
236 1 15.60053310378709 9.321838022227851 6.100672182163582 0 0 0
51 1 3.199159075937888 13.076145016615332 3.297181871094336 0 0 0
55 1 5.22419999318995 14.237907158380247 4.746115535731974 0 0 0
63 1 11.14534327875262 14.866613045368464 4.7203411998762626 0 0 0
71 1 17.610618787755676 13.966327994103498 4.920446353372134 0 0 0
260 1 15.840065937049381 15.827926668625022 6.278469354322904 0 0 0
54 1 1.8915414910835815 17.54857710968666 4.871774433188544 0 0 0
58 1 6.755641765865079 16.214164765607006 3.424114610288451 0 0 0
62 1 7.858629586206618 18.076132777787098 4.845151239826997 0 0 0
252 1 9.623195203559174 16.405508108105927 6.24157804077679 0 0 0
70 1 14.58401503548627 17.475589660001308 4.691065828653417 0 0 0
91 1 16.27774560812865 19.066400639012308 3.363777059163573 0 0 0
75 1 3.3884968063473258 19.303777653425797 3.082072674910399 0 0 0
82 1 6.898211012972722 22.359013257404317 3.2577627691040463 0 0 0
79 1 4.922769162923173 20.667867142822466 4.635994484752225 0 0 0
87 1 11.51343419858053 20.92628782003162 4.576285213492193 0 0 0
281 1 12.969894394771131 19.369681470041584 6.426932614065374 0 0 0
95 1 17.58899790816964 20.83993232812746 5.06988109658152 0 0 0
78 1 1.5695366900049896 23.52086040461556 4.799726176037152 0 0 0
86 1 8.698992932835955 23.90843277256538 4.884341518002952 0 0 0
94 1 14.6501155074063 23.68413434753522 4.970080427610402 0 0 0
103 1 5.158496397642584 26.830538614878314 5.027332857863423 0 0 0
107 1 10.038247575310763 25.68813356252513 3.0984016909563774 0 0 0
106 1 6.682126210868966 28.50483132319276 3.5107101852882434 0 0 0
111 1 11.266309443000052 27.29442778542288 4.704446380144267 0 0 0
114 1 12.999163124604936 28.611791522474554 3.0943854608656967 0 0 0
115 1 16.150268230405377 25.218678840252032 3.401927059769245 0 0 0
119 1 17.619620454947615 26.95967601703455 4.5830634573527 0 0 0
766 1 14.464889271460516 49.34126333755155 24.004920850242392 0 0 0
102 1 1.699479243370948 29.81081226134816 4.6984894542095414 0 0 0
292 1 3.547884799265269 28.51491334677262 6.573540561215368 0 0 0
110 1 8.290392402374223 30.40587654923627 5.0769370028290455 0 0 0
131 1 9.570857400060985 32.107165580201865 3.19054700264474 0 0 0
139 1 16.03553719249708 31.771935923060504 3.7122106366580714 0 0 0
118 1 14.066554394450588 30.258462382161106 4.923628640124533 0 0 0
329 1 13.161659336237284 31.74773350867503 7.027903870748242 0 0 0
123 1 3.037481531463034 31.753014275031195 3.0478941723331623 0 0 0
127 1 4.469021780085948 33.040037927476575 5.004012734444258 0 0 0
321 1 6.431095397731186 31.843017798207658 6.650281580345355 0 0 0
324 1 9.836948276712839 34.780763336489386 6.270616345410761 0 0 0
135 1 11.412254061720565 33.14573857225919 5.132896148220519 0 0 0
143 1 17.85163917616478 33.58148013358891 4.944091595682388 0 0 0
332 1 16.153302378255205 35.31185501423212 6.234570244874454 0 0 0
126 1 1.274189221664187 36.75635852961008 4.599760365135295 0 0 0
134 1 7.924659231034534 36.2125513942962 5.116285530873696 0 0 0
142 1 14.33063063588741 36.44892628469762 4.340459251016044 0 0 0
353 1 13.204597560860632 37.94073487035837 6.283833720496584 0 0 0
345 1 6.302818604748559 38.15043377726661 6.365907222977789 0 0 0
151 1 4.9688305262305645 40.050461845403646 4.9210854320646655 0 0 0
159 1 11.257070929237903 39.7182569087128 5.072115252515735 0 0 0
356 1 16.05314215904347 41.712419860276185 6.688412117896983 0 0 0
167 1 17.59529517582183 39.57752684694469 4.923959380998027 0 0 0
762 1 12.627156626306695 47.58023688758284 22.89890246738993 0 0 0
171 1 3.4584977983243435 44.35286706484783 2.993107986132188 0 0 0
150 1 1.9495346223700152 42.93359346245316 4.598685661333187 0 0 0
340 1 3.337820730082318 41.55005722039961 6.371396896767038 0 0 0
154 1 6.659432450212564 41.23098103326893 3.2328922138765344 0 0 0
348 1 9.833038500319176 41.35886437963073 6.5153988781112675 0 0 0
158 1 8.107068951059745 42.992155763748315 5.030182573774792 0 0 0
166 1 14.084524184288655 43.06466392085076 4.9906381624913285 0 0 0
364 1 3.3064108103718013 47.98009885253133 6.113605888229624 0 0 0
175 1 4.740708312512061 46.21030026748849 4.599117797801392 0 0 0
372 1 9.518059247109681 47.912191321973154 6.431994942031421 0 0 0
377 1 12.46288004472169 44.80657519930537 6.501695301736487 0 0 0
183 1 10.728184295670387 45.87662755912834 4.956513542592382 0 0 0
187 1 15.811812675243818 44.38370281574801 3.349916658389169 0 0 0
191 1 17.405993452535803 46.3245221011984 4.720457652742579 0 0 0
174 1 1.5187679592893477 49.25821304148448 4.34302295723506 0 0 0
178 1 6.257332866474262 47.77078452922932 3.1976273351214104 0 0 0
182 1 7.7871801479326335 49.36144450421682 4.920037805379443 0 0 0
190 1 14.2164814773656 49.246568399136805 4.784152565210548 0 0 0
44 1 15.653878601926255 9.601594514574565 0.04829189162262582 0 0 0
197 1 1.4784431530185898 1.3963167755563406 7.686065364604912 0 0 0
196 1 3.0252429987284186 2.9943618357562025 6.025055568801605 0 0 0
205 1 7.66836298556278 1.5089161988094761 8.0925951539139 0 0 0
201 1 6.040392251097156 0.04318094265393313 6.574652176371899 0 0 0
213 1 13.838537599785482 1.1911827859855058 8.119139765309587 0 0 0
212 1 15.383573150498442 3.0038631842086367 6.546072516720853 0 0 0
200 1 4.4364688036019 4.5999159788065915 7.711269760120978 0 0 0
202 1 6.027685612635532 3.0722463991582023 9.899688237743156 0 0 0
204 1 8.801856860684074 3.3244590396177944 6.347784619493588 0 0 0
208 1 10.62350500219185 4.645538839031847 7.7949801579345035 0 0 0
216 1 17.159257514874806 4.710131987230872 7.923571963499866 0 0 0
235 1 15.331571543173416 6.344752289683321 9.403108247625159 0 0 0
221 1 1.4029414559112285 7.938251497624021 7.816980432369843 0 0 0
229 1 7.478422189758519 8.116020560490943 7.553458317297821 0 0 0
233 1 12.337102392842699 6.094002097162332 5.959916698595892 0 0 0
237 1 13.973238799038938 7.713024976500436 7.691270544340113 0 0 0
758 1 7.775237153794051 49.330534515808 23.92424764495422 0 0 0
224 1 4.734676247442797 10.924336030011393 7.596742715376505 0 0 0
228 1 9.330449756252442 9.588941198448184 6.255211108385653 0 0 0
232 1 10.96549069757702 11.146626647007137 7.756970789445409 0 0 0
234 1 12.401513746866767 9.508703275517872 9.222630262336342 0 0 0
240 1 17.08963436301982 10.904876897361683 7.846127781011249 0 0 0
244 1 3.7851065729200064 16.124727919662757 6.064514127084201 0 0 0
245 1 1.8189767906084318 14.37131177065554 7.749772980659719 0 0 0
434 1 0.05931115067472348 15.899166160353124 15.96753090030707 0 0 0
249 1 6.840367379065265 12.631953886173543 6.005379660157093 0 0 0
253 1 8.052860890394763 14.616259205741727 7.656397028942843 0 0 0
257 1 12.460327943762008 12.840798417132811 5.98103065882812 0 0 0
251 1 9.338406995955467 12.886690928261144 9.085806116805193 0 0 0
261 1 14.310789238106505 14.01889430252155 7.495702752711912 0 0 0
259 1 15.910451226027947 12.806585010717177 9.378034922034377 0 0 0
248 1 5.022378165851368 17.9133830618957 7.799284200113656 0 0 0
273 1 6.607017982448718 19.814411439180464 6.397031597193641 0 0 0
256 1 11.481858875140459 17.48496245660656 8.008522293448806 0 0 0
258 1 12.737826691838295 15.558441006208966 9.430855065725957 0 0 0
264 1 17.682023115561705 17.359025625274345 7.985780488922219 0 0 0
269 1 1.8100813035074914 20.730317236923035 7.909887050905735 0 0 0
275 1 9.765836470853658 18.868353589068363 9.595525135553702 0 0 0
277 1 8.535943851048321 20.917239541180155 8.066738505543118 0 0 0
276 1 10.15279363239857 22.2209885649786 6.374179105121737 0 0 0
285 1 14.315960468474072 20.625211694757244 8.160968923206736 0 0 0
282 1 12.893942020033135 22.293208683838607 9.735386884232717 0 0 0
268 1 3.592708197142365 22.301232902687047 6.267917550932407 0 0 0
272 1 5.311649051632126 23.869667673159086 8.200834199633878 0 0 0
305 1 12.7965029216093 25.48613577385952 6.040758188478627 0 0 0
280 1 11.44305491613902 23.84056711309148 8.056982009429447 0 0 0
284 1 16.0862908798594 22.009242777736098 6.705642081486897 0 0 0
288 1 17.533599050199935 24.01842022566463 8.077645315391413 0 0 0
293 1 1.3673345498164198 26.984538808098822 7.926148956945874 0 0 0
291 1 3.4284945775052953 25.688001001092317 9.12711180895259 0 0 0
297 1 6.7834964694302196 25.123353467869155 6.375488417447817 0 0 0
301 1 8.008050733865925 27.00930717000477 8.041612072906707 0 0 0
299 1 9.90581289204144 25.178225662537024 9.485336753228271 0 0 0
309 1 14.344901175853282 26.95772776763044 7.652300787526301 0 0 0
308 1 15.976872425627036 28.50468943098011 6.170044030805912 0 0 0
296 1 4.57413393611439 30.486594313823854 8.055685561551563 0 0 0
298 1 6.1542561461834895 28.58437312260007 9.563303787614146 0 0 0
300 1 9.820607583371393 28.55744093829204 6.594139531130464 0 0 0
304 1 11.05946973461816 30.480447024133007 8.098379342440277 0 0 0
312 1 17.711306690545054 30.173020706765488 7.638557254160729 0 0 0
317 1 1.4797824435433293 33.49901470363261 7.771136830498252 0 0 0
315 1 2.828229136665703 31.79121981309385 9.365241896358953 0 0 0
316 1 2.932584506368189 35.179177112157575 6.176603499271273 0 0 0
325 1 8.130018368951339 33.343605849385966 8.09511026169931 0 0 0
333 1 14.598798000549495 33.84665224990795 7.905485898300127 0 0 0
330 1 12.45012359538304 34.707342072784215 9.339413792153094 0 0 0
331 1 16.16044347643488 31.7886507533513 9.380878839156425 0 0 0
579 1 3.045420180070265 50.61491983103065 22.473001087349655 0 -1 0
339 1 2.683456205131606 37.938952753075455 9.34163838884361 0 0 0
320 1 4.441196911189172 36.40373076860425 8.033711651001683 0 0 0
328 1 11.28654223059085 36.551007408800004 7.659334261693891 0 0 0
347 1 9.61481033416397 37.90134339253876 9.299907727913967 0 0 0
355 1 16.098313752554027 37.921137135703674 9.780809330886205 0 0 0
336 1 17.83752225785364 36.709842629693384 7.851684259221228 0 0 0
750 1 1.3434581390704812 49.600312205092536 24.041889655482375 0 0 0
341 1 1.332969758122017 39.73876849982656 7.547173141566336 0 0 0
349 1 8.184396415281702 39.89607178708144 7.964525581789872 0 0 0
346 1 6.319320397739288 41.57347614538574 9.365952686611328 0 0 0
354 1 12.87070040333798 41.29762244804198 9.508426253596939 0 0 0
357 1 14.707132959937107 39.4395920253324 8.244692111116649 0 0 0
369 1 6.507874019806993 44.92101476900983 6.480670295296802 0 0 0
344 1 4.7313174773270505 43.418840129387334 7.875674816880469 0 0 0
371 1 9.520861085924574 44.62394284225259 9.633027590604812 0 0 0
352 1 11.08260116100341 43.11545506199667 8.273700074017013 0 0 0
360 1 17.63108866649688 43.002011103085536 8.365109411475125 0 0 0
365 1 1.6304500748353221 46.62150475266942 8.056198052214805 0 0 0
370 1 6.403762630996545 47.7753799707896 9.702592732019273 0 0 0
373 1 8.128342962488688 46.26777148045386 8.122556213602094 0 0 0
381 1 14.199178721200857 46.07225016810385 7.990854036842772 0 0 0
380 1 15.961264762876926 47.781954205040066 6.517059181588717 0 0 0
378 1 12.903536170265095 47.69019084068347 9.669895804254237 0 0 0
368 1 4.8701216548517 49.27734844809849 7.863172704016815 0 0 0
376 1 11.19598223032029 49.14007887994667 8.185228304828865 0 0 0
211 1 15.788956402511241 0.007305046863883313 9.694715886160935 0 0 0
384 1 17.532842303401072 49.532733058958954 7.992248161344246 0 0 0
199 1 4.596910272910296 1.1537232432064601 11.058289960236136 0 0 0
207 1 10.49342390310231 1.4084512481271887 11.24213953335995 0 0 0
215 1 17.386748509908973 1.7375106439088372 11.1910379271758 0 0 0
218 1 0.022595246764095654 9.284096698129161 9.54327906988275 0 0 0
198 1 1.7397453673514718 4.630660986632612 11.40448175703445 0 0 0
206 1 7.757054181848963 4.902791094775416 11.221130784702941 0 0 0
210 1 12.144702508953255 2.981776694733648 9.434697928438402 0 0 0
214 1 13.741665265545004 4.613638024604162 11.036626439372782 0 0 0
219 1 2.998489837301555 6.389747920433338 9.129806111185733 0 0 0
223 1 4.550309713901674 7.883282115221145 11.253175816054432 0 0 0
227 1 9.157477412636979 6.341838102560457 9.20133814679401 0 0 0
425 1 12.342556782010785 6.418315209048102 12.712928681194299 0 0 0
231 1 10.684467401533558 8.135785760171032 10.818311206185225 0 0 0
239 1 17.005317605050013 8.351954993524277 11.266076047171172 0 0 0
243 1 3.1655928516066614 12.712744414092407 9.452977581136746 0 0 0
222 1 1.7733450081987743 11.005161230227921 10.896358396319012 0 0 0
226 1 6.282087128657928 9.289714940600815 9.553763202196155 0 0 0
230 1 7.642971782243133 11.195758269620795 10.852607213115025 0 0 0
420 1 9.07764320626127 9.514950036462094 12.426435796967368 0 0 0
238 1 13.815181080526045 11.571619280684503 10.716143312589663 0 0 0
428 1 15.352497891196506 9.889173217806261 12.695543465222825 0 0 0
441 1 6.490078278627348 13.044717730775666 12.446723605566511 0 0 0
247 1 4.48372384275106 14.470770621632242 10.985409275627662 0 0 0
255 1 11.099498650351254 14.149919837978512 10.936678644663099 0 0 0
263 1 17.75689454573541 14.295880784110615 11.080450006829826 0 0 0
25 1 0.11463420416168191 6.557733527591797 0.40695117381028073 0 0 0
767 1 17.630412354579118 45.93809948879159 23.64967355617457 0 0 0
246 1 1.668333057738014 17.68745827730242 10.93778608775644 0 0 0
250 1 6.121084676002768 15.827082105797642 9.261445989339185 0 0 0
254 1 7.874129875388271 17.270259197789457 11.14602706906815 0 0 0
444 1 9.558339543441596 15.53489557402788 12.67457134278605 0 0 0
262 1 14.440828024963071 17.20573232437245 10.940572347786599 0 0 0
283 1 15.84432932647566 18.870794816103583 9.39094512881789 0 0 0
267 1 3.3764623772488247 19.339941198426686 9.692225627819148 0 0 0
271 1 5.0725857321905545 20.904349180352657 11.286687857308376 0 0 0
465 1 6.295739482324666 18.870561892001284 12.762731784653594 0 0 0
279 1 11.08720255422531 20.66144293972289 11.37141411740775 0 0 0
473 1 13.000399881960893 19.061017610423995 12.518207266300704 0 0 0
287 1 17.674321090752535 20.666275918916735 10.748688620064147 0 0 0
476 1 16.346090607312647 22.34908593995993 12.647430892337304 0 0 0
270 1 1.8667704954584694 23.707160155178894 10.91035264479636 0 0 0
274 1 6.928885774311769 22.127719963145122 9.71830301730946 0 0 0
460 1 3.1866975808329583 22.358773028591614 12.829013780467998 0 0 0
278 1 8.224869412181517 23.58500898029003 11.128931962153 0 0 0
497 1 12.31713032396822 25.26411212466889 12.743070929230456 0 0 0
286 1 14.401379663161022 23.853474999072738 11.29164481301225 0 0 0
307 1 15.981843004383927 25.6858957739252 9.477404351333167 0 0 0
295 1 4.653225434919879 27.03187312852611 11.286587816441973 0 0 0
489 1 6.663189571082324 25.410840895448104 12.702357574360533 0 0 0
303 1 10.767899079146313 27.145425952432003 11.106686046669694 0 0 0
311 1 17.50916336890204 27.34851692729079 11.454285623822853 0 0 0
294 1 1.319731153132421 30.2736704975814 11.432893886500272 0 0 0
89 1 12.82646675418832 18.820518702582838 0.21733417671729383 0 0 0
302 1 7.552558808140696 30.067994301529236 11.265521487199463 0 0 0
492 1 8.986650947620003 28.408658238167806 12.723083404856903 0 0 0
306 1 12.463870584137291 28.67003105551016 9.660018435067789 0 0 0
310 1 14.030766584953636 30.164371565196923 10.90020601537366 0 0 0
129 1 6.097943507703078 31.843938376127042 0.07777869687841456 0 0 0
319 1 4.336891193710155 33.25081069260638 11.286572019664737 0 0 0
323 1 9.31503948998769 31.581250766990973 9.839699219195316 0 0 0
327 1 11.146433198328706 32.99776627887813 11.17075608850552 0 0 0
516 1 9.536035989951044 34.829178754652574 12.548109169761727 0 0 0
521 1 12.706913888447952 31.68056687606331 13.054705232263567 0 0 0
335 1 17.668936240416613 33.06605296824023 11.537815815450585 0 0 0
318 1 1.1551275828285785 35.96179869394068 10.836957059072926 0 0 0
508 1 3.136119843160443 35.12092907785065 12.926675951431465 0 0 0
322 1 6.066156899405515 34.723488552958514 9.668961384405025 0 0 0
326 1 7.897026498085189 36.360572456103185 11.140206265795495 0 0 0
537 1 6.314922706271759 38.3537695087266 12.280665406585657 0 0 0
334 1 14.246379294013561 36.425409803343726 11.182145584469458 0 0 0
524 1 15.594510467773297 34.54051513728962 12.761629926420724 0 0 0
343 1 4.649767060367807 39.79712241824926 10.638286882600841 0 0 0
532 1 3.0923330635644595 41.22151535367756 12.348495882973113 0 0 0
540 1 9.648413702240882 41.24845426526835 12.35369769247209 0 0 0
351 1 11.224625225443514 39.539960424383025 10.733008089671909 0 0 0
545 1 12.929185018350909 38.29577614767797 12.638017036076466 0 0 0
359 1 17.51168857634988 39.94514688733376 11.339801522788898 0 0 0
363 1 3.0217003440979786 44.48069444051659 9.355065910929826 0 0 0
342 1 1.7163662911181616 42.94959875708169 10.711072429359081 0 0 0
350 1 8.156616567391668 42.72565409054407 11.061649161604988 0 0 0
569 1 12.844467894683294 44.40759642781629 12.860659781139184 0 0 0
358 1 14.2410281613071 42.82252423803172 11.235514887014803 0 0 0
379 1 15.82035752661099 44.817885891347544 9.975210179458452 0 0 0
889 1 0.1458909958509677 31.64423075127086 25.355532802118628 0 0 0
367 1 4.752122519279131 45.87278203252308 10.970031344849497 0 0 0
375 1 11.233812379170482 46.045042688978754 11.234828156418041 0 0 0
383 1 17.230809900879507 46.7624468966152 11.021667927366677 0 0 0
366 1 1.7095585382341487 49.24520300543884 11.678201653113858 0 0 0
195 1 2.9440210257296666 50.55421555265586 9.567636452380508 0 -1 0
393 1 6.53605671632762 0.10923484551835827 12.842757403984583 0 0 0
556 1 3.4653724829225148 47.639705529231506 12.890142958068026 0 0 0
374 1 7.973090206569868 49.205762939173226 11.502744283288136 0 0 0
564 1 9.686231877145381 47.61948166818368 12.808469350583874 0 0 0
203 1 9.148483201336857 50.61114260411452 9.502989787382745 0 -1 0
382 1 14.296857144741724 49.53690961562097 11.409843056952795 0 0 0
457 1 0.22215547052571058 18.87218504789696 12.817126350333298 0 0 0
389 1 1.4769519740905441 1.468577986541793 14.597537494105275 0 0 0
397 1 7.76525173997155 1.459406318888487 14.615592092702256 0 0 0
396 1 9.250007792194413 2.988438547020406 12.82343277105634 0 0 0
405 1 14.364299203467011 1.641532994903992 14.579281185261276 0 0 0
759 1 10.774700564228986 45.67067813165784 23.957947829919274 0 0 0
388 1 3.062053191745219 2.7195171549140027 12.778558119932207 0 0 0
392 1 4.527772039341927 4.2914589461044255 14.207078459770612 0 0 0
394 1 6.438904659990535 3.100653090278781 16.12282793834733 0 0 0
417 1 6.061546532644777 6.3872505454563795 13.084699955307652 0 0 0
400 1 10.699951520307772 4.780900277226173 14.27875170095579 0 0 0
402 1 12.680901672747535 3.1339960369417845 15.743584465448818 0 0 0
404 1 15.683504690286174 3.3754144871645884 12.585137006783924 0 0 0
408 1 17.294219974247767 4.98878565477015 14.46638440580313 0 0 0
413 1 1.5651897140061266 7.851829856561099 14.2415665112726 0 0 0
412 1 3.3386694405475863 9.539567294389169 12.832253946841913 0 0 0
421 1 7.4664593652310245 8.132492250305612 14.526892791856952 0 0 0
429 1 13.836670432377986 7.89705028003342 14.270014504048456 0 0 0
921 1 6.041556740823544 38.129249700272936 25.161755414471163 0 0 0
900 1 9.30952774286038 34.75505184556508 25.09935978746142 0 0 0
416 1 4.95833052614913 11.565497601588072 14.031022897764576 0 0 0
424 1 10.926768240944197 10.918263908718556 14.008230199312639 0 0 0
451 1 15.747301480281072 13.05935889907846 15.809433326170362 0 0 0
432 1 17.240694798562256 10.886482145699684 14.657974700681557 0 0 0
1538 1 18.673637286812564 3.1888948238909123 3.1695431987572125 0 0 0
437 1 1.529569826864979 14.366692558454652 14.322564944732147 0 0 0
445 1 8.034248935832935 14.35248519320079 14.393038390826366 0 0 0
449 1 12.660779071774172 12.624339261258058 12.867801380199174 0 0 0
453 1 14.209358488803707 14.450426885372147 14.274446260202176 0 0 0
751 1 4.599865802849161 46.036027656191024 23.853161106019055 0 0 0
436 1 2.7848663970963132 15.83052793818997 12.341495700554308 0 0 0
440 1 4.536136531613995 17.40805575539012 14.313613474506203 0 0 0
442 1 6.4031939882547615 15.878119544221937 15.760880658756502 0 0 0
448 1 11.240455633567752 17.633152788267246 14.122943007860146 0 0 0
452 1 15.873627009760453 15.548211977515775 12.449857274487961 0 0 0
450 1 12.800652914133556 15.970764756789611 15.94102768208795 0 0 0
456 1 17.53489379794838 17.178498251194327 14.303489700125363 0 0 0
475 1 16.184068662781527 19.34964890439853 15.512040956161803 0 0 0
461 1 1.7296116599142133 20.63270254904904 14.513692258933792 0 0 0
469 1 7.837298390357477 20.18154012705821 14.503731079274152 0 0 0
467 1 9.695931822984942 19.15553833717897 15.989575394420848 0 0 0
477 1 14.534750992027355 20.920904817984496 13.847432549939162 0 0 0
474 1 12.786771127457197 22.225227912228192 15.802655251334762 0 0 0
464 1 4.898106510297879 24.010027322202685 14.456749666625623 0 0 0
468 1 9.399729857072082 22.03711627361301 13.326618786746574 0 0 0
466 1 6.350825688408267 21.922490361375797 15.894890643592019 0 0 0
472 1 11.095197748160105 23.840993567237476 14.566669094073864 0 0 0
480 1 17.39579679092998 24.015412468741513 14.487891797418385 0 0 0
485 1 1.3464740723528847 26.97098072911002 14.092021156969073 0 0 0
493 1 7.60153070370005 26.866690792040735 14.641353740409711 0 0 0
501 1 13.844185910405939 27.14173741733508 14.180346030996596 0 0 0
484 1 2.898099484832484 28.689397869728474 12.985478269268997 0 0 0
488 1 4.7265081019516755 30.085974158130572 14.513169806796608 0 0 0
496 1 10.600041840957473 30.015843802335564 14.474517765441469 0 0 0
498 1 12.4448795027668 28.977523367761506 16.24358393276051 0 0 0
500 1 15.470372744542303 28.692855936127952 12.919871381198998 0 0 0
504 1 17.076193702048474 30.454339129118832 14.403054443664535 0 0 0
509 1 1.6414111231441806 33.40222365610141 14.084081998519189 0 0 0
513 1 6.1128214628962745 31.90679389531059 12.934678288650014 0 0 0