LAMMPS data file via write_data, version 29 Oct 2020, timestep = 200000

4608 atoms
1 atom types

-0.08838540088165914 53.48838540088325 xlo xhi
0.042157022056780846 50.86496297793959 ylo yhi
0.042157022056780846 50.86496297793959 zlo zhi

Masses

1 18.015

Atoms # atomic

4458 1 0.5770295846923382 0.9119790701503299 0.5591065880042917 0 0 2
1766 1 1.4267514898174483 1.7098300737854113 3.00006152622119 1 1 -1
31 1 11.992603513420642 2.1933060477451334 2.5116519708769665 0 1 1
3599 1 12.667463951003326 0.740745383486365 0.16029309538517916 -1 1 1
1184 1 16.95161984490707 0.7871770133580198 2.327234612478484 0 1 -1
2046 1 1.2407494349853294 4.59364617696187 2.046382626114991 1 0 0
2932 1 3.6005200803831414 4.312303790422653 0.8563677022837773 1 1 1
3412 1 7.4995505954169355 3.543936358215863 2.3963070180000727 1 1 0
116 1 10.267850176830201 4.557036799699059 2.313984400281565 0 0 0
4428 1 14.240196040212336 3.509270810403424 1.2487059099412734 1 0 2
3432 1 3.204071995983888 8.137885175329227 1.6662665552826188 1 0 1
181 1 5.731603634879188 7.728934931790273 0.5607240526805403 0 1 0
3593 1 8.02918641221993 6.859792479103005 2.3838628690017725 0 0 0
1242 1 11.238376200262248 7.434935149780783 2.838564225550532 -1 0 0
2190 1 13.292321827918283 8.730137160402634 1.5728195962607856 0 1 -1
1232 1 15.279306309019738 6.610627416738939 1.3165829992931415 0 0 2
3500 1 4.204620993732457 10.840424606651364 2.289861662058565 1 0 0
2765 1 5.808522702489892 10.489706218061501 0.3914652518596995 1 1 2
1379 1 8.55888903125325 9.748925953187175 1.7674635001473744 0 0 1
1241 1 7.9418397439554855 12.67345483988337 0.690987346334923 1 2 0
937 1 14.481989751644916 11.251709276783401 2.8971612860037106 -1 0 2
1425 1 17.456335539380426 11.81118472534857 1.2575390133104762 -1 1 0
1333 1 1.7275257431200823 12.949978682870315 2.218434691393125 0 0 2
1098 1 3.9094146128428973 14.215659821785136 1.6751541753027481 1 1 1
2207 1 6.677076181099037 14.819554819842613 2.1971619287722617 1 1 0
2897 1 10.579526082327483 13.244386719705666 1.279148238370627 1 0 1
1604 1 8.629486406959005 15.767048707473728 0.10609018909222989 1 1 0
3202 1 11.122857997751641 15.918833007163348 1.5736226832316604 0 -1 0
3937 1 14.551069586035581 15.782406715401546 2.878575453433623 1 0 2
162 1 1.7120748038454108 17.76164885828528 0.5519442531344039 1 1 1
570 1 7.22885971407378 18.57162119949588 0.6924920458834238 0 0 0
3146 1 11.57907076334461 18.974705864034878 1.3961475310241052 1 -1 0
2417 1 13.665716380259008 15.928739667242372 0.29770380326309565 1 1 0
4260 1 2.6174651539233373 20.49047692996098 1.8535033343104332 1 0 2
4246 1 6.585220479251919 20.040133674794994 2.9863166855221164 1 1 0
1095 1 4.950591623945925 22.143569008776588 2.413920095024988 0 0 1
2875 1 12.518477390729055 21.51811278555834 0.2179086772899768 0 -1 0
4320 1 15.159555332942205 20.450388796111433 1.1124014470063186 1 0 1
110 1 0.34208097575693225 22.652226603221003 0.819048687872938 0 1 0
4183 1 2.6186334614088387 23.98928652841818 2.0999824510022442 1 1 0
4541 1 6.385530158532431 23.998765860451446 0.5847221990973848 0 0 1
244 1 9.606970474462562 24.062523766400254 2.027545050689429 -1 -1 0
4273 1 13.714347211039767 24.285968082290157 2.9655809619740183 1 -1 1
1023 1 11.79426798974244 22.355626891884892 2.7327922489656498 0 0 0
3118 1 15.970956228545038 22.999187602915992 1.6265996340179265 1 0 0
3688 1 0.927818446253625 27.34306070223268 1.5276793056474027 1 0 0
2797 1 3.7116265497750294 26.879208520260615 2.8951908923947856 0 0 1
482 1 5.591993998920537 26.472931737024712 0.7504868231234724 -1 -2 0
424 1 7.633592193475487 28.181287108024254 0.2515533473738607 0 0 1
418 1 10.691286033251762 27.400962133714795 0.9008018523942429 0 0 0
738 1 14.646004200483324 25.95285810534941 0.6696215496760028 1 -1 0
1576 1 16.24402258411081 27.646142549512938 2.05141984023841 0 0 -1
1873 1 1.2152899121372507 30.029917538950006 1.1503149921076226 1 -1 0
898 1 3.9166481903903163 29.60679469434596 1.6844874790682534 1 -1 1
1960 1 7.9934760895477055 30.14219517671058 2.5618404141026305 0 1 0
2506 1 10.997153879124193 30.120130385929954 2.954416303890524 2 -1 1
2860 1 12.16723744318884 29.94003649847599 0.3403964105819403 -1 1 0
3554 1 16.411985724765344 30.143531452802264 0.8013883631054104 1 0 1
2092 1 1.2242530460848582 34.09268503327412 1.155172093953206 0 0 1
2683 1 3.870965447977679 33.70322334250679 1.3040039602496274 1 -1 0
4067 1 8.345623151300627 33.8690662227514 2.542850531226155 0 0 1
2094 1 7.585337807739436 32.12974539168516 0.5475796257238248 1 1 1
3455 1 11.69965800823457 33.000683314062925 0.22832691566108812 1 -2 1
3261 1 10.946035727366755 32.81442988606359 3.0115130925434106 0 1 2
2479 1 14.43790393827528 32.47917383177527 0.7390040516444085 0 0 1
4377 1 17.074438512381114 34.52206573355123 0.5116838934752783 2 0 0
1726 1 5.186448316539195 35.93456735418853 0.43836577534027255 0 0 0
2988 1 7.815037703416107 36.02037585222864 1.1618666185314939 1 -1 0
2038 1 10.827423667048128 35.91514120336507 2.879040903634084 0 0 1
3819 1 12.464253093832971 35.86809088864561 0.44034175614630244 1 -1 1
4555 1 15.130436608029052 36.488444570478165 1.2219403388555365 1 -1 1
4398 1 1.9030403511740626 38.51822197824988 3.008068772649278 1 1 0
4156 1 4.990043988136192 40.78702521442764 2.727888228120815 1 1 2
569 1 3.899561503886731 38.55277527911032 1.136484694706843 1 0 1
2612 1 7.326319671615233 39.54336319535099 2.9093189493310505 0 0 1
262 1 8.298192690152375 38.93874535478524 0.44500658339876487 0 -1 1
439 1 14.4093925337288 40.913204814374694 2.0286705965073866 0 0 0
1701 1 5.760471486549437 42.591737960048064 0.7779742468214746 0 1 1
1089 1 9.566153425165652 41.41705943658492 0.24858643692587043 0 0 0
1688 1 10.10870372456829 44.407856808937225 0.9725281756672204 0 0 0
1088 1 7.5695133444340135 44.222713786899305 2.5471711108935744 1 -1 0
660 1 11.82193557528761 41.7435255971307 2.00489621622075 0 1 0
283 1 16.95825999514552 41.80392904996003 0.9274626135973671 0 0 -1
2435 1 1.3006503469846304 44.52534053940765 2.5561994619447157 0 0 1
520 1 0.08460340820663337 46.90143971376479 0.7637864188705819 0 0 2
2325 1 3.8021641700325595 44.586821180862685 0.16316519254897027 1 -1 1
2542 1 5.037036171347159 47.11681204566072 0.15392121934051498 1 -1 1
509 1 7.235629508426927 46.798451993936354 1.64661588524333 -1 -1 -1
3778 1 12.279001944337027 44.70672412098966 3.1725905975599313 0 0 1
2248 1 14.476399263772658 45.436135467028194 1.578883039117775 1 -1 0
3882 1 1.4094187490300363 49.54678070724532 2.365182400355736 1 0 1
3827 1 5.0101573393502035 50.194716059424465 3.1540797668940637 0 1 0
3272 1 4.849438148454294 50.48881244444928 0.31812088444609293 1 -2 -1
2564 1 9.180810192888513 49.57106437790256 1.1136171228574006 -1 0 1
1363 1 11.875745503209766 48.664317054974504 0.9455910475144974 0 -1 -1
3421 1 15.476912772102155 50.77336782003128 0.14665689197790105 1 -1 0
587 1 15.89791160439055 48.56269932980068 2.99251919082682 -1 -1 -1
2001 1 14.669682231529935 48.09754684003654 0.4561848993943377 0 -1 -1
208 1 2.1666777331583593 0.31568335496163275 6.379497620422487 0 1 -1
4478 1 4.36647607722902 1.6677574094625265 4.792793483170596 2 0 -1
2517 1 10.406340607968733 0.6594772319643039 4.370329943596594 0 -1 0
557 1 7.809354898396328 1.4005323954614963 4.1081507711576615 0 -1 0
3930 1 15.577271247130254 2.9514453447067632 4.02345926897247 1 0 1
2582 1 1.1636066303831722 4.53486858780663 5.372308522467715 0 0 1
4441 1 4.856901243408478 4.297388966860266 3.2426773819658874 2 0 1
4262 1 9.59051550774505 4.954909061916919 5.5935481111265615 1 0 1
2052 1 12.179895514834808 6.127239042445159 5.289405358247715 0 0 0
1444 1 12.880499862821534 3.357162690096117 4.821134379887025 -1 0 0
4289 1 17.02236163847177 5.28128792080743 4.036341732217004 1 0 0
3052 1 2.688230971320701 6.704732626593905 4.222800977143816 1 0 -1
2989 1 0.7229397352364246 8.732646946132027 3.980478687419608 1 1 1
3503 1 5.75843740498205 6.966235562860288 4.6121853279903595 1 1 1
2709 1 8.353860429718614 7.518487654406855 5.35448139594393 2 1 2
856 1 14.661292483397895 7.0020041193435345 4.220581385752552 -1 1 1
2387 1 15.482291632889307 9.559595946281988 4.852633159148338 0 0 3
4162 1 1.6806679479910012 11.257773620181625 4.801771621143941 1 -1 0
3959 1 6.095688680033458 9.82985153539177 4.141722748589032 1 1 0
2745 1 4.0670916028213275 9.797867019570477 6.202076003512122 2 -1 -1
3740 1 10.225778749114658 9.912403436042402 4.2290397040852366 0 1 -1
3926 1 7.344539955203016 12.70326727290475 4.057316782352653 1 1 0
3170 1 12.079128061359311 12.127888875709202 3.4827835700370815 0 2 0
2338 1 12.285334831570248 11.578487452681744 6.377427232658804 1 0 0
1702 1 15.17876904261496 12.408344956036062 6.046541728987257 1 0 0
485 1 3.0993740472528373 15.55654502471359 4.183400469894192 1 -1 0
1375 1 1.8590467170162557 14.277185221367533 6.34774164957653 0 0 1
378 1 4.520219028733797 12.883904012688234 5.216916519197426 0 -1 1
1087 1 8.624124955605112 14.118647261872862 5.966765030341798 0 -1 1
1203 1 12.503461501014094 14.692088472945812 4.172674687179503 0 0 0
427 1 16.134681087748056 13.660737132597404 3.7099438438381385 0 0 1
323 1 1.1701705985027528 17.528499198423653 3.3375584953696524 0 0 1
3151 1 5.281832264378215 16.518297910573462 5.530485984416184 1 1 1
2099 1 7.250572750453079 17.348333875590317 3.7151565366428922 1 1 2
1185 1 9.875464857689298 16.182827740756597 4.309647520951244 1 0 1
159 1 10.985335024969178 18.062608661080894 6.14122155023517 0 0 1
1047 1 15.44712173106676 18.494213766774223 3.2979240968673 1 0 1
635 1 2.0605522240200624 19.69306363401354 6.314742549073679 0 0 1
112 1 0.7384255041013017 20.318707044846676 3.8710955009136425 1 0 1
1616 1 8.800526385974573 21.04002861185612 4.382064099432795 0 0 0
3387 1 11.427814226110952 19.947417176538742 4.127809163817298 2 1 1
4575 1 13.953012242131646 19.321095465556603 5.613008700803222 2 1 1
3686 1 14.450500384852448 22.19958489959992 6.023309163730522 1 0 1
3806 1 17.686301852693312 22.23436810088286 3.7278130324881658 0 2 0
3971 1 2.9381130742132724 22.351966581200973 5.741434375223163 1 0 0
3019 1 1.1833773571551884 24.21181724877735 4.30734305393093 0 0 1
3940 1 5.849694480802623 23.658128683093736 4.761805019409567 0 0 1
264 1 8.688170600967489 23.62482796490159 4.5217657553216855 1 0 0
654 1 14.240051303864098 25.197924052234324 5.526641401943073 0 0 1
265 1 17.285106170457762 23.91572726616426 5.968232098056193 0 0 1
3657 1 0.6368146791602085 26.961443726790524 4.555238037341224 1 1 0
457 1 4.139517888165151 25.906586689265005 5.928038520787354 0 1 0
2841 1 9.808820638042864 26.096965679430564 5.529646944186823 -1 1 3
652 1 11.615302140906092 26.336154277244336 3.388740624407665 -1 -1 1
4601 1 12.299814915338938 27.844372736193915 6.263256177379635 0 -1 0
3408 1 15.9360990350105 27.2893944711673 4.923952222387576 -1 1 0
2229 1 0.7392581586638937 31.559060179090054 4.979968015930803 0 -1 0
3497 1 1.9457595788930355 29.107871198366205 5.534180012452257 0 0 0
1127 1 3.9738481253443423 30.71363276887593 4.051773163491292 -1 0 0
1792 1 8.179523278262709 31.59974909259601 5.385297754844844 0 0 1
4409 1 10.549941387887758 30.177353815076177 5.830751456387318 1 -1 1
1237 1 13.373663651612295 28.692878702177776 3.5048727233416153 1 0 1
3757 1 15.707126755761351 30.896785054017887 3.660039247605326 0 0 0
3270 1 2.7290472216295485 33.76020869446934 4.481280209156281 1 -1 0
1373 1 5.893280913565767 32.929695725237636 3.475465200989357 0 0 0
4083 1 5.447199827308044 34.14375743246276 5.876945317351434 1 0 1
1058 1 8.3625666015598 34.314462200444254 5.841907574175828 0 0 0
506 1 12.771458706498203 34.11077658340069 4.698272773091441 -1 0 0
2823 1 15.22160104622542 33.56365674540349 3.279359738843829 0 2 1
3069 1 17.663299366160263 33.66016321222202 5.303849591647423 0 -1 -1
3779 1 0.9219532941017177 35.94325954421819 3.469538482880618 1 -1 2
3370 1 5.432569156356584 37.08629278358801 5.652773468079127 3 -1 0
1892 1 7.932945902757249 37.156967939237674 4.203533067706171 0 -1 1
73 1 13.020506479520131 36.88420882544557 4.937865986780766 0 -1 -1
657 1 17.751253177830066 37.40952213106715 3.3008665029371733 0 0 0
1294 1 3.4591105593519926 38.98640176061562 5.196674647336225 0 0 1
3834 1 10.403203607713829 38.53072189429707 5.362572780182149 1 0 0
644 1 11.04819293834676 41.18453754453674 4.783925329843156 0 0 0
4107 1 15.155969414838525 38.36156539551044 3.494949661488948 1 -1 1
2083 1 16.413504297439285 39.183143954622494 6.085219932316659 0 0 -1
1388 1 3.177612174337789 41.66037802224531 4.865737120808976 -1 0 0
2699 1 3.622202998370828 43.73328942441789 3.2720201898723618 -1 0 0
3708 1 8.418556084874549 41.71754721975941 4.145814574455024 1 1 0
1715 1 13.708907960772748 43.29100158748078 5.264759764862281 0 0 -1
920 1 16.034094353685823 42.36589643351721 4.223533453305105 0 0 1
4511 1 0.43307675053348116 47.287724133274054 3.919701857926979 0 -1 1
21 1 1.7423666978064123 44.78189695726864 5.738828489019208 0 -1 0
1078 1 5.207084035884582 45.56721895184492 4.956437649579986 0 -1 0
1559 1 8.00101680936556 45.10224074291823 5.238501903919645 1 0 0
221 1 10.828105803454298 45.67405959487836 5.419745740775264 1 -1 1
808 1 13.673776420927444 47.331127642132856 4.356936894284454 0 1 0
3232 1 16.454134548434542 45.16242947155514 3.73431594991563 0 -1 1
3659 1 1.895726433138738 48.48879199339298 6.3305477983125265 1 0 1
3705 1 4.470544426579555 48.346595533248646 5.323456179701359 1 1 1
2093 1 7.837211091676615 47.89355416694234 6.231905057700043 1 -1 1
2815 1 7.5961791487675026 49.22132741763052 3.478696594886941 1 0 1
1730 1 11.008791737529403 48.67879011670861 3.7431923651177756 0 0 1
1736 1 13.732409155653588 49.87222815281439 6.235722867688216 0 0 0
502 1 1.8176061571627804 1.1537274318354285 8.994810271346289 0 0 0
1464 1 6.739624555344015 1.5849000252517353 6.675088075478922 -1 1 2
3692 1 4.30003037745614 2.1871493290783355 9.338733279784403 1 1 0
1221 1 9.475375518937497 1.5206970891477214 7.909193080171083 -1 1 0
4523 1 12.04191849249621 1.1627300762240762 6.525392575722246 1 1 1
3744 1 12.493816369050958 0.3671114312417904 9.45263361510398 0 1 0
143 1 16.525228426810703 1.8508134327916608 6.676950114342485 0 -1 -1
2682 1 0.24144078802027108 3.7990760337175593 8.41178953892286 0 1 0
4144 1 3.4749162104475295 3.766570414408491 6.959303367901041 1 1 2
2370 1 5.724701425221904 5.5028585213211185 7.322128387472289 0 1 0
555 1 8.242525297512165 4.411700968382606 8.069165464701044 0 0 1
1916 1 13.944453070357014 3.602524867300492 7.716909862040804 1 1 0
4175 1 11.476784035567405 5.019484071991832 8.269835138391917 0 0 1
4223 1 3.212489425704784 7.230179872472159 7.910669070170913 0 1 1
935 1 0.4949533459616242 6.525937867420379 8.190753921365962 0 0 0
1395 1 6.460617674933024 8.354700275996969 7.6804534634751995 -1 0 1
664 1 9.064932912336788 9.427258627326191 8.349407566343686 0 0 0
4210 1 13.975458261898064 9.219116019650633 7.0588354568297715 1 -1 0
1233 1 11.198351771035714 8.522401913152443 6.679470951354463 -1 0 0
135 1 17.20692164009342 6.617560728622777 6.463301754097952 0 -1 0
2343 1 14.595751903752829 6.512228765936936 7.632227173999199 1 1 1
1065 1 17.178379099359883 7.365403416018323 9.205137157987576 0 1 1
3931 1 0.0651789565360647 11.345158382358044 7.063919921385685 1 0 1
1732 1 5.363603404106421 11.74979850811776 7.732142620809534 2 0 0
2184 1 8.089413370744811 12.08778772661372 8.954076120076527 0 -1 1
1722 1 16.414071217880352 9.896220232705858 9.468649821730288 0 0 -1
3028 1 17.40549827981252 12.10082514419283 7.994227935372713 0 1 1
469 1 3.277566237496657 13.562265260387136 8.847794838254849 0 1 0
1287 1 6.941740532286003 15.336870214954667 7.521490025557066 0 1 0
79 1 10.637593387129888 13.459006576354495 7.8501168238977135 0 1 0
3588 1 13.570600647670366 14.928871027108785 6.959686374738341 1 0 -1
318 1 0.8364767603146276 17.2017017646132 7.401495719217699 0 0 1
3236 1 4.668691852090625 18.736658357774335 6.756933950445933 0 0 0
106 1 4.239824417482388 17.683117712012052 9.346590282765272 0 -1 0
4247 1 8.886000499724092 17.06654368056107 9.10194994712365 1 1 2
2635 1 11.267567624481043 16.041116424600723 8.346397232884907 0 0 0
3605 1 13.438402724728439 18.03135857172488 8.212479765975477 1 0 1
3616 1 16.196830102286167 18.481826565811637 8.865965060207142 1 1 1
2222 1 0.7422868673387034 21.0070579368074 8.300392212000643 1 2 0
2480 1 5.731323523313682 21.596207172456428 7.229785735127772 -1 0 1
2261 1 8.159062454698768 19.815986114535306 7.010902037880562 -1 2 0
4456 1 12.158729643056546 22.02779664594444 7.636974402223556 0 0 1
317 1 16.848467101769764 20.422593252880933 7.203985936343124 0 1 0
2980 1 2.3672630480873433 24.681684321164624 7.541445765413877 1 0 1
887 1 3.6032343262686797 22.521681095856966 8.972766097162845 0 0 1
1849 1 7.871141209791721 22.50372783789305 9.04117429720346 0 -1 1
276 1 9.959474039531592 23.83065136852181 7.320893742732007 -2 0 0
1315 1 13.030392668452727 24.70681903516583 8.314479400478435 -1 0 1
272 1 17.042486428868788 22.888222677113234 8.641805917216548 0 0 0
4504 1 0.7572285784513301 26.41219189989678 8.894484670306023 1 2 1
2845 1 5.213641482873274 27.73076524662581 8.131522210411475 1 0 0
1504 1 8.21041124245428 28.30973329565574 6.6805102480668355 0 -1 0
2608 1 10.157257692296783 27.338225340502568 8.691281727697035 0 1 1
1120 1 17.598748320746036 26.16831043513616 7.498527807444797 -1 0 1
1178 1 1.441519149177697 29.18208852177089 8.214909916998842 0 0 1
121 1 6.3263699507935485 30.49649480071983 7.086981471455113 0 0 0
1865 1 3.9097366948272745 30.0238324790451 9.227556870701585 0 -1 0
3205 1 10.39632473629061 29.767288647705346 9.028302326140626 1 -1 -1
284 1 7.678696373547962 30.92361109771303 9.355454256216035 1 -1 0
3124 1 17.41340075022057 30.3628107173081 7.863619381465857 1 0 0
257 1 14.631718623956955 29.669840545548947 6.556221553630121 -1 0 1
1905 1 14.249158694840686 31.01965795257523 9.161902604930557 0 1 0
1084 1 1.904706469172371 33.94365632997231 7.2942993948584425 0 -1 1
3174 1 4.133008728220712 32.99172266379625 8.337960864648947 1 -1 0
4131 1 12.631782410649373 32.01180185433967 6.667317788337731 0 1 0
196 1 12.041984653209868 34.29481617558409 8.314948088325497 0 0 1
2060 1 15.560914783134047 33.633668026344836 9.200669760429106 0 0 1
2320 1 1.987274483728406 36.545494027531205 6.550175892869275 0 1 0
2070 1 1.875830727938458 37.172588595442505 9.129409773558443 0 -1 1
2168 1 6.5294060184990785 38.07184603105861 8.027796362887047 0 -1 1
1594 1 9.38207745965128 34.98818323927783 8.269843913094519 0 1 -1
1213 1 9.68964377542768 37.969666202032826 7.898306939188466 -1 -1 2
1200 1 12.619633098962614 36.98022713629595 7.848606275624898 -1 -1 1
167 1 1.104217526797588 39.693164052654225 7.332797294109477 -1 0 0
69 1 4.00327530826949 39.78162657043164 8.238578092652618 0 1 0
1832 1 8.319166904082111 40.460093237604994 8.65080831330224 0 -1 0
785 1 14.55278952665232 39.0834272518275 8.19204971168801 0 -1 1
2258 1 0.5747943610735893 41.86630690743324 9.346024608605994 1 -1 1
1556 1 4.97501148678321 42.2907958716562 7.3066091584746315 0 0 1
3739 1 7.475222600763161 42.252718948927125 6.533007007964538 0 0 0
2716 1 10.569942039020258 43.23490866790452 7.016382076915935 1 0 1
3777 1 14.851217061277433 42.58773642517218 7.671653368382771 1 0 0
1986 1 17.32642807183282 41.742109037483786 6.9266964590653695 1 1 -1
2900 1 1.4895970094287718 47.374053521835705 8.732692733445374 1 -2 1
2309 1 6.696355061877655 46.339968254282894 8.402251344037486 0 -1 0
715 1 4.2060660063426285 45.000881544292895 7.433246888182438 0 0 0
3020 1 8.472464719318266 44.5399165676818 8.744505905351996 1 0 1
2030 1 11.098495991617323 46.220769939593524 8.244379748519009 1 1 0
3389 1 14.76163341756742 45.78509933543022 6.467528200919765 1 0 1
3746 1 5.669763448056078 49.579212112495384 7.296058769399153 1 0 0
3393 1 3.6808053448822053 48.68340603192793 9.50791855475334 1 0 1
1407 1 8.245183472816597 49.976748099607335 8.861539021000603 0 -1 0
3872 1 10.389699034715548 48.934609356710965 6.9472371085483715 1 1 0
320 1 13.278588228725596 47.72652938987055 7.81256027078218 1 1 -1
2117 1 15.645707035947776 50.35679228419677 8.467493850564418 0 0 -1
2996 1 1.3111609118204035 3.0763803546482 11.568654018182178 0 1 0
820 1 6.079880451513072 0.2598318366907246 10.457603257332345 -1 0 1
573 1 10.56833091320414 2.9313129684601122 9.98302429148962 0 2 1
3894 1 8.050913241258629 2.091029943526742 11.661895165216169 0 1 0
1564 1 12.291684509340426 0.7144695746502343 12.564349351754583 0 1 -1
3462 1 13.996423395968602 3.0352867135729915 10.679295883113772 1 1 0
3535 1 15.324519330340364 0.2596215322836921 11.21161459936066 2 1 0
1223 1 3.9534446051878627 4.403265377206829 11.063520042208317 -1 1 1
1402 1 9.344647412497292 4.885193325206061 12.16271932728949 -1 1 1
2883 1 16.325235904455432 4.407530815939065 9.886524707090873 0 1 0
87 1 0.8250481510591422 9.471192534391829 12.089775595516597 0 -1 -1
1994 1 3.5248210062286867 9.519664374275205 9.719235986832578 0 1 -1
122 1 5.064261241254214 6.603472343610438 10.231786195891598 0 0 -1
3804 1 7.12662485385071 6.879436647143537 11.888448508167956 2 0 0
4160 1 9.220274150971937 8.502045505456998 11.101251378982093 0 0 1
3771 1 12.096702571162611 7.3935970579067405 9.59208062434055 0 2 0
231 1 11.728587125274458 6.884913034209447 12.298940016016186 0 0 0
48 1 15.832887289912927 9.298731124042911 12.18679679198312 0 -1 0
585 1 1.4204470337558537 11.340303271916426 9.605849508812199 0 1 1
1789 1 6.791506390441069 12.417302861496664 11.631921263062985 1 0 -1
4195 1 3.6381959811142863 12.57720105031853 11.841606689854716 1 0 1
1477 1 4.217586732776148 9.751241033600804 12.695437410421674 1 0 0
986 1 11.270992193079074 11.943303376424625 10.444504838176568 0 1 1
480 1 13.439995503907614 9.828754906463924 9.944765733296236 0 1 0
1265 1 14.224828411476391 12.426819916645258 11.303479728672658 0 1 1
1202 1 5.630790714206377 15.262718032225528 9.862509983673924 0 0 1
423 1 15.58577323495534 13.856269950273138 9.735311803359362 0 0 0
4170 1 17.170738296310702 15.19401634061244 11.19625416551754 1 0 1
3782 1 1.9949031641251045 16.000836444421395 9.930983760907775 1 -1 0
3288 1 7.99654832342266 16.187356622909512 11.563967142878823 1 0 -1
1156 1 13.328465350349633 16.16583832504114 10.75175840957081 0 0 1
2588 1 15.618584043005491 16.828850040804504 12.697041609180081 0 3 0
299 1 15.147414230618702 19.07922335382653 11.383041480439088 -1 0 -1
1189 1 1.3721072385140798 19.512795477789286 11.61618475670511 0 1 0
3085 1 3.994972572487388 20.37588083871019 10.658516340736968 1 0 -1
2381 1 6.783573360677159 20.750502405326635 11.269186112933761 1 0 1
2497 1 9.459772428812563 19.92721057890446 9.640355420584244 0 0 0
114 1 12.545136252603719 20.145826994803006 9.777713927482885 0 -1 1
4354 1 10.70827623813535 19.686157644519263 12.41945744390895 0 0 0
1334 1 13.45220366369755 21.295155730109826 12.262348096557897 -1 -1 1
267 1 0.19540438397405713 24.469612436565512 11.388342954145532 0 0 -1
422 1 4.279354732837445 25.05680805435724 9.978545404504324 0 0 0
554 1 6.5855876215938824 24.162628789737013 10.69554272652084 0 0 0
952 1 14.860466128570774 23.67326157875792 10.66252502974793 0 -1 1
624 1 4.594318107703399 27.810183395645296 11.538242574187237 0 1 -1
2749 1 7.446103466876697 27.09433123152927 10.190393587479806 0 0 -1
2089 1 9.4105877756939 25.68278681026742 12.162739165141948 0 0 0
2193 1 11.998100584879536 25.883843908907085 10.485409183523208 1 -1 1
4507 1 14.058266039327744 27.32607530703336 11.81580820874217 1 0 1
793 1 1.7087975437669958 31.759028699874083 12.642658232123434 1 0 0
2406 1 1.856204495782907 28.841975927796767 11.580662638599676 0 0 0
3466 1 5.163459373526561 31.80429366702136 11.050038860681617 1 0 1
658 1 7.448889791454004 29.211807116455862 11.880622270836678 0 0 0
746 1 12.189102099693029 30.38416439094083 10.908451512395875 0 0 0
4168 1 16.875454469968425 31.524363139491765 10.929939776700559 1 0 0
1409 1 15.826423307356162 28.725022928380348 10.208290974450765 -2 1 1
709 1 1.517973029113289 32.05999906578543 10.004912089370924 -1 -1 0
4388 1 4.327003295431149 34.94341660137452 10.690444524345976 1 0 0
64 1 7.116360376438282 33.6928951882292 9.985851828317323 0 0 0
3351 1 7.306978039214196 34.92812681823668 12.474283834045487 0 0 0
2323 1 11.816906298072754 33.28890565360783 11.158161092451735 1 -1 2
3727 1 14.200629372606137 34.64199230763742 11.20667780918707 0 0 0
595 1 0.9774645512772335 35.08205470758594 10.980714778375596 0 0 0
939 1 5.180200548200545 37.43692023110522 10.22056006822572 0 -1 1
3053 1 8.212215132677908 37.470032199123395 11.475190169171645 0 -1 0
432 1 11.315469343186784 38.12366887104491 10.690997494933688 0 -1 0
2940 1 14.199056132407161 37.471794110503566 11.259448816009083 1 1 2
3078 1 17.194363534417906 36.036886267500094 12.060954971349187 0 -1 -1
1428 1 16.71884889751395 38.08690166707369 9.906237342594698 -1 -2 -1
1848 1 0.23828063114477993 39.0880488308334 10.78291112026036 0 0 0
3669 1 4.900781721510511 39.95298173359677 12.124973902605786 1 0 0
2257 1 7.363923579379358 40.55606352435649 11.326743666151563 -1 -1 -1
3313 1 13.640082716530635 40.97470521051302 9.822294213094999 0 1 -2
3676 1 10.887302623447942 41.194987579717335 9.757352972172331 0 0 0
2706 1 14.601163970812895 41.21295532639604 12.548677301024098 0 0 1
4556 1 0.7733306123977959 42.03470363527576 12.440767362827557 -1 -1 1
1645 1 4.283298126999136 42.601414834588525 10.198282598504738 1 0 -1
3768 1 6.868158144812728 43.19704199478602 10.663149495077215 0 -2 1
3054 1 10.72297874664379 42.87854978125509 11.82514747449523 0 -1 0
3663 1 14.967627818383185 44.08939859419455 10.016026328008769 0 0 0
2668 1 16.735689442732493 42.83888960680342 11.983951766565752 -1 0 0
2986 1 3.10031311137582 45.28084048749568 10.448474614468715 0 0 1
353 1 5.54029351510421 47.05033570220452 10.803098614432333 -1 1 0
492 1 8.032060031094675 47.61006196242823 12.533783144195192 -1 0 0
1043 1 10.23694826894038 45.50147167494555 11.004241963337165 0 0 2
3120 1 12.959859085718161 45.41766830694806 11.439932442388702 1 -1 0
4000 1 16.789329709162168 47.664698789350155 10.86418487529989 1 -1 1
782 1 2.8787722411172467 50.50044334072322 11.467833562662975 0 -1 1
2922 1 10.919729426433173 48.9209560439336 10.092592042067658 -1 0 1
3887 1 13.624505630794026 48.2165402997809 10.32083034078044 1 -2 0
1253 1 3.4138270604742966 1.5241534825148872 15.24459372884446 1 0 1
2306 1 0.6394097748838629 1.0706949752822237 15.667845392184466 0 0 0
433 1 4.589525920062136 0.39877088164468094 13.072329337970562 0 0 -1
3786 1 5.746922251816326 2.8202368340291244 12.85219659383787 1 1 0
4041 1 10.450177494335039 2.285000145399856 13.675742739679327 1 1 1
3196 1 13.58269599883619 1.334425916811754 15.13870542578838 0 -1 -1
1743 1 16.292896514234656 2.7296154757296898 12.938298277964515 -1 1 0
252 1 16.693839324988886 1.2676467807555818 15.585916586893466 -1 0 -1
1274 1 0.08112521860419761 4.993739519957707 13.422358564157346 1 -1 0
1092 1 5.001505231407288 3.8288429648403417 15.512619166073238 1 -1 1
2751 1 4.004126045358073 6.369296153842795 15.047635878893 0 -1 -1
3089 1 9.640266280924378 5.896786766993416 14.990514199655658 0 0 1
4474 1 12.038163959158437 3.8558349408304307 15.108111925640113 0 1 1
849 1 13.36144338910302 4.610561672472393 12.89252206705898 1 0 1
1632 1 15.53321746527807 5.307964403783484 14.562545673296011 0 1 0
2456 1 0.11625620390854094 8.033818271241486 15.36132921889588 1 -1 1
1567 1 2.278781692672244 6.872034722582474 12.91683564643354 0 1 0
1752 1 5.857811278115739 8.08466893683439 13.93757221262652 0 0 -1
638 1 10.753589629386154 8.627099632158384 14.473375849319988 0 0 0
2262 1 17.323121417571585 7.241458148016178 13.469708461208729 0 0 -1
2464 1 14.473062743410035 7.9491263707692195 15.357955861346882 0 0 1
3037 1 1.21183234622631 12.062141991211405 13.232289091545022 0 1 1
3126 1 3.3350315707120335 11.109007408692092 15.00949865740185 1 0 0
4327 1 8.825548329792417 10.585011604446844 12.822760155382506 0 2 1
2888 1 7.768208936425733 9.61160191689269 14.950914470437572 1 1 1
3084 1 13.082601343917084 9.598619762648646 13.131814233051566 1 1 0
1690 1 12.93355721149769 11.967582500625118 14.90810756715941 0 0 0
2011 1 15.906590104997758 11.885301899146768 13.508704431156339 0 1 0
2652 1 0.27484107706849126 14.230914376545803 14.848919661577364 1 0 1
3817 1 6.363537559218805 14.433965365670362 13.366426867052617 2 -1 1
571 1 10.559672402803955 15.432675301155278 12.852315948052418 2 1 0
1830 1 8.621020846360583 15.148589132104455 14.949845496336627 2 0 1
2972 1 10.82856103665292 12.821247547857183 13.28077313999333 1 1 -1
2187 1 14.456937933317693 14.718404277339081 14.112278524393883 0 1 0
2656 1 2.9689748366325692 15.993853143407291 14.783960247316372 0 1 2
4404 1 1.4491715924000101 16.967173695775447 12.749599849549973 1 2 0
3492 1 6.175991039717796 17.21568037343328 14.922891110233138 0 0 -1
214 1 7.980078425492746 18.843421292463344 12.949563566256304 0 1 1
2300 1 8.746922211692219 18.347308704188816 15.86978244016406 1 0 0
3337 1 12.349008384056638 17.48784871870376 13.387372020076082 1 0 1
4590 1 14.66781543190972 17.820122093762247 15.920310779719207 1 1 1
3770 1 17.674195247318714 17.97196576377345 15.400919266383172 1 -1 0
1841 1 0.8018693132420909 20.826216934673273 14.505999464582565 1 -1 0
3892 1 3.842508499561139 21.487069517794534 13.339214898458348 1 0 0
1054 1 4.680479017255257 19.846005179472844 15.28040341295309 0 0 0
2966 1 9.138921500424033 21.28732917358569 15.428796840895707 0 -1 1
2729 1 12.508325991333672 20.15661478483625 15.080969296226646 1 0 2
2407 1 1.8675550430641021 23.731257352262457 13.469307627560042 1 0 0
641 1 0.5002547027558647 24.59315704446128 15.75747415958319 0 0 1
3973 1 6.322146041379597 23.450354696507915 13.194572118216128 0 0 1
1056 1 4.18001447493517 25.145370685960113 13.036499973185656 1 -1 0
3097 1 9.142356217939174 22.890060641509365 13.007993981291408 1 0 -1