LAMMPS data file via write_data, version 29 Oct 2020, timestep = 100000

8517 atoms
1 atom types

-0.2520914378256265 104.64727033841855 xlo xhi
-0.12411422121008542 51.03123422120656 ylo yhi
-0.12411422121008542 51.03123422120656 zlo zhi

Masses

1 18.015

Atoms # atomic

311 1 4.240598232782714 1.8618073628557141 3.3512558402758152 0 0 0
222 1 9.118452771500122 0.2701668627130109 1.442585882296881 0 0 0
312 1 10.887950110131573 1.5394251595469153 3.3022926181823777 0 0 0
228 1 12.534097885563776 2.95466919432947 1.7892817486294612 0 0 0
313 1 17.577121732568166 1.6860827767582607 3.446750200551676 0 0 0
224 1 15.721865345430443 0.18967859990805808 1.736209494578536 0 0 0
956 1 20.466533955245346 1.451441921726743 0.4356481856120791 0 0 0
1039 1 23.982728511879742 1.748261027834713 3.1147010162348625 0 0 0
1041 1 31.62119359779331 3.1174669426350103 2.0170503514917244 0 0 0
961 1 33.18387311015203 1.3486296291125819 0.5776674570692079 0 0 0
16 1 -0.17242432951491815 3.3470443541906962 1.8591205907441921 0 0 0
316 1 1.411769597513795 5.093848257324996 3.3034053470976077 0 0 0
317 1 5.885774183497887 3.2245925169363137 1.6190640833215098 0 0 0
227 1 11.272135338921256 4.890385924793206 0.36016018706579433 0 0 0
320 1 14.245227638026853 4.609823028126687 3.306204905936913 0 0 0
229 1 17.501892941324737 4.763847997411028 0.3373098359868016 0 0 0
797 1 19.22289994946883 3.202675287792712 2.0227064740752616 0 0 0
965 1 23.685134504351073 5.075757626507829 0.3387132567301401 0 0 0
966 1 25.385648717452195 3.3208002152963365 1.5531773584718551 0 0 0
1046 1 26.9607240254593 5.043227107026109 3.1786014760661145 0 0 0
967 1 30.16131762359953 4.964701369832676 0.38420801772704594 0 0 0
322 1 3.128051812223197 6.754218473585205 2.0518998314912436 0 0 0
232 1 8.312159472842222 8.339045255747898 0.41865426493337665 0 0 0
231 1 9.547922365769807 6.280379978236643 1.9547377881186487 0 0 0
234 1 14.119764089132316 8.045623561447783 0.5133344440479056 0 0 0
321 1 15.655427846285853 6.282832857239699 1.7491813217340741 0 0 0
327 1 17.49415415477849 8.08688378500285 3.113405317861219 0 0 0
970 1 20.46752710757721 7.8680559070692295 0.5985185653665521 0 0 0
971 1 22.337847554346205 6.209833624608085 2.345242381918855 0 0 0
972 1 26.56357675502757 8.403583069880773 0.37129193761574014 0 0 0
1045 1 28.545892347202322 6.800660406257445 1.7594917448782017 0 0 0
974 1 33.28120169915012 8.143272246647827 0.5582103261692551 0 0 0
544 1 -0.1524967296541508 9.477551120618294 1.9156564509413099 0 0 0
329 1 1.611154176422378 11.142282150966835 3.275840964411189 0 0 0
237 1 5.072475125756285 11.305565316755187 0.5533899972982907 0 0 0
330 1 6.697430913591079 9.555303296483348 2.0781016882691996 0 0 0
239 1 11.233146168760646 11.2763258598168 0.4088512010972125 0 0 0
235 1 12.69095835166841 9.721581894254877 2.0952670964295166 0 0 0
241 1 17.352760448423503 11.45502786466756 0.4296131329485998 0 0 0
792 1 19.104046567865883 9.862433226646443 1.8991863289596074 0 0 0
1050 1 24.851450572837425 9.766526912323025 2.108548574294616 0 0 0
1056 1 31.44740980580082 10.06148660085724 1.7206387118815474 0 0 0
243 1 3.1803323619870474 13.13257754322856 1.4840887263663383 0 0 0
245 1 7.781746723678749 14.460190301810753 0.3934079039222411 0 0 0
246 1 9.688566893920594 12.620369048786628 1.844023477032501 0 0 0
338 1 10.554767815346537 14.59695877870526 3.473111464917141 0 0 0
335 1 15.793597876492537 13.130462267820143 1.8360532138121064 0 0 0
979 1 20.482660341501308 14.818199603374012 0.6530187541952925 0 0 0
1061 1 22.09626144388402 12.936062615649746 2.027745702440863 0 0 0
983 1 28.451351518225596 12.697023455450969 2.1903057229465412 0 0 0
984 1 33.51323242011968 14.585809976129173 0.4537941513963464 0 0 0
118 1 -0.15995880111116673 16.162600550983523 2.0119984164009983 0 0 0
250 1 5.919103980988435 16.042774038624042 1.922362647799079 0 0 0
249 1 4.331439853201457 17.954074524864247 0.40754856527909566 0 0 0
344 1 12.2588341863311 16.128840816545896 2.0195389139231374 0 0 0
252 1 10.847730136525396 17.947897894179917 0.4504461234330216 0 0 0
345 1 13.833208976214708 17.630313808198686 3.2656459051624434 0 0 0
699 1 18.8462401271233 16.415825677313077 2.1279170149531668 0 0 0
986 1 23.577760892086733 17.46166654276881 0.3677007705164482 0 0 0
1068 1 25.30738417185409 15.677527063111244 1.6469500806195287 0 0 0
1069 1 26.840944483908398 17.627625058202437 3.3922779684213618 0 0 0
988 1 30.06090197613779 17.920255421712046 0.4277280592836131 0 0 0
985 1 31.942102941569445 16.07186674519579 1.8053548862967879 0 0 0
255 1 2.577201856322348 19.264926997025817 1.7233554078385955 0 0 0
348 1 9.094973732509363 19.053955769408784 2.2000773137976393 0 0 0
257 1 7.904296509855463 20.824722566375407 0.44716143938235464 0 0 0
260 1 15.97305080796409 19.262345675169893 1.7390669857081218 0 0 0
990 1 21.048070183696513 20.797294476178166 0.6282669307231528 0 0 0
1067 1 22.510166726368283 19.220761294996972 2.186688271450508 0 0 0
1070 1 28.47888086922219 19.35686442509676 1.9889650550281424 0 0 0
1075 1 30.341695939884247 20.762335347584372 3.440945836897827 0 0 0
353 1 0.8961145946884679 23.45541203611542 3.2020950618173587 0 0 0
355 1 5.830584236817344 22.21119144521221 2.028524547926418 0 0 0
263 1 4.197868320326575 23.899453451009425 0.3854697733321042 0 0 0
259 1 12.245021583247542 22.194967897943798 1.6974040261814727 0 0 0
744 1 18.858160615456658 22.382159214574656 2.2579817523342665 0 0 0
1077 1 20.729512809685122 24.12455059959242 3.3467411227105712 0 0 0
993 1 25.713934061954227 22.25849091305064 2.1755315883030044 0 0 0
1074 1 31.92364864859544 22.520771441145104 1.9499544962901925 0 0 0
262 1 2.4317379240983845 25.442003044578087 1.699639240864841 0 0 0
265 1 9.396175381864738 25.404214174697028 1.6577093996381946 0 0 0
363 1 11.01367391392471 27.050652319837646 3.0976499443529164 0 0 0
273 1 14.512803645513243 26.94980486277358 0.5974572424363915 0 0 0
266 1 15.91062453913019 25.424102393328674 2.1409063442606593 0 0 0
1078 1 22.480047818318546 25.235111049983324 1.794122895317376 0 0 0
1087 1 30.17985943344682 27.149941107665242 3.3963448659624773 0 0 0
1079 1 28.367482903380772 25.680090279522236 1.7778272542895228 0 0 0
997 1 30.36156216251433 24.241962319450124 0.45344855361255354 0 0 0
1083 1 33.61551208280133 24.300563360559014 3.3466188728693775 0 0 0
24 1 -0.054991751586949716 28.63991295621453 1.6857381310984432 0 0 0
360 1 4.407433974089083 27.309041746992104 3.0024766332952284 0 0 0
271 1 6.084956083632864 29.093874004181327 1.7240695906892856 0 0 0
270 1 7.9589341024081985 27.40846340080963 0.31595347925655004 0 0 0
272 1 12.667605802818912 28.81670365811644 1.8672231835065478 0 0 0
1054 1 19.22319901151006 28.677585578133993 1.9398684293541502 0 0 0
999 1 20.991570577409693 27.44177914425887 0.474551598686328 0 0 0
1007 1 24.988449596524266 28.554499533891963 1.861768271818221 0 0 0
1092 1 26.869114718558382 30.011303938616663 3.2046656517013186 0 0 0
1003 1 31.615795097289322 28.88449123250198 1.5836243699898418 0 0 0
367 1 1.4600320933469562 30.476564844234247 3.075609585210826 0 0 0
366 1 2.771596501143122 32.014968441951126 1.7131308524659998 0 0 0
368 1 7.931021661401932 30.251551290596087 3.42785961895945 0 0 0
276 1 9.301777714195795 32.158900567799314 1.9924192422551399 0 0 0
277 1 10.870971969127176 30.643212780706467 0.6266036602411433 0 0 0
371 1 15.631341629104961 32.353769306382475 2.3362350673950916 0 0 0
278 1 17.45071538231405 30.52922735417785 0.7184492941418277 0 0 0
1090 1 20.290043248804707 30.706940145550323 3.3112451313430222 0 0 0
1091 1 22.139419157512666 31.95520897210004 1.4997198429881136 0 0 0
1094 1 28.554948343940428 32.13056540892829 1.7454918484165278 0 0 0
1096 1 33.306057277894546 30.510862348423906 3.2389154832151776 0 0 0
279 1 1.3737057992677422 34.165996834149176 0.40806350205810316 0 0 0
373 1 4.510277975243874 33.413700463106096 3.3358045106884684 0 0 0
280 1 6.169801359370654 35.32537949460094 2.062316417844074 0 0 0
281 1 7.902613106683685 33.810575194273525 0.47473839071676716 0 0 0
284 1 12.700598294744845 35.239783757076495 2.0294634277576415 0 0 0
282 1 14.002424942992253 33.61412065939353 0.342407599932998 0 0 0
375 1 17.048526087566113 34.30761169444664 3.3876875544312894 0 0 0
751 1 18.887168843311937 35.55036264767955 1.8459324236027788 0 0 0
1097 1 23.67492391225936 33.46241281384645 3.280664267730309 0 0 0
1099 1 25.386112889569432 35.43461664631864 2.099095383112616 0 0 0
1101 1 32.047698307178244 35.02697578865879 1.662733131221622 0 0 0
1014 1 33.67472147587594 33.27877092811838 0.4084913563987055 0 0 0
377 1 2.693546419662991 38.11747844886896 1.9267159923594872 0 -1 0
382 1 8.927622471282467 38.17467721294026 1.861760769057896 0 -1 0
286 1 10.984894205886487 36.69659210682313 0.5377096156100776 0 0 0
287 1 15.599790627550464 38.484656160487646 2.054401975828412 0 -1 0
288 1 17.352000089674764 37.09112042284565 0.3438083785864073 0 0 0
1016 1 22.154533987418354 38.640658985036474 1.893818916138807 0 -1 0
1017 1 23.54102836598074 36.775947510844105 0.3508354397521545 0 0 0
938 1 28.35755502536442 38.52696105682795 1.7217593948588328 0 -1 0
1019 1 30.21045209765281 36.715364726089085 0.5089973513437648 0 0 0
1106 1 33.587626039524814 36.678230777518145 3.4749729126861513 0 0 0
13 1 -0.047698069862094655 41.81015827052778 1.8768123112614172 0 -1 0
289 1 4.354324901372472 39.636546206827916 3.4244843841340242 0 -1 0
201 1 5.7919293267316005 41.56422646701492 2.260352659719392 0 -1 0
196 1 7.440437646955396 39.99343449715387 0.44463432699391814 0 -1 0
295 1 11.938142723052234 41.47332495101196 1.7931429533127385 0 -1 0
198 1 13.640062482780374 39.67418454387274 0.4713056357274018 0 -1 0
757 1 18.812753183658714 41.53744287087549 1.760336917492546 0 -1 0
943 1 24.86849631787059 41.488044944713415 1.7288937602654837 0 -1 0
1022 1 29.84216389487625 40.085144833305876 3.4790168618810497 0 -1 0
1023 1 31.595888472685495 41.74189464850417 2.002743078870403 0 -1 0
297 1 2.748275210679987 44.89756241131328 1.4867958884945147 0 -1 0
299 1 8.936659611921073 44.849423920047855 1.5586693462554873 0 -1 0
296 1 13.542727777232017 43.11297514923721 3.4027174633625696 0 -1 0
205 1 15.14022267189782 44.85235201657688 1.7614024950647957 0 -1 0
1024 1 20.258989574450997 43.40872651578898 3.45679696860245 0 -1 0
941 1 22.21579887889448 45.04929723406062 2.0969128721911816 0 -1 0
1026 1 26.40576202868003 43.33227055341776 3.1069193354488482 0 -1 0
1025 1 28.329381951357448 44.89386998675477 1.8950216598697271 0 -1 0
944 1 30.044079881627624 43.3021184620864 0.4390725297139636 0 -1 0
1027 1 33.40628492657765 43.303485659288796 3.3527708331052 0 -1 0
206 1 1.1451112825105652 46.453456990596386 0.16770409735968556 0 -1 0
305 1 6.047545100289888 47.811370963803014 1.9127765252013882 0 -1 0
301 1 10.470937918632046 46.65193408348082 3.183360212339739 0 -1 0
214 1 12.196179720095927 48.03140452926895 1.5800630889900227 0 -1 0
945 1 20.40025957469336 46.6221273117116 1.0508540900198267 0 -1 0
1032 1 30.27074226965014 46.279508101081944 3.360528157156795 0 -1 0
949 1 31.584901102559 47.962342306097355 1.727808677755584 0 -1 0
304 1 1.5172827696425564 49.53500507250327 3.2617799214353016 0 -1 0
303 1 2.9161758070812347 0.09539010244804635 1.8115098547284005 0 0 0
306 1 7.414925251512117 49.72651183089185 3.2178199139885115 0 -1 0
308 1 13.616594482936838 50.10416682523119 3.080704671749437 0 -1 0
746 1 18.61803378355479 48.49185360928692 2.0763512826961095 0 -1 0
957 1 22.372324274507434 -0.09245268290084802 1.540953336952258 0 0 0
948 1 25.218101339371334 48.31400975500185 1.7560763157355166 0 -1 0
1036 1 27.00314918753657 49.719745684918806 3.4213267139964407 0 -1 0
955 1 28.296977802323582 -0.04679396014803773 1.424153998439279 0 0 0
310 1 6.256528991282339 0.4289479265961832 4.819545018341521 0 0 0
319 1 9.339435056257996 2.9310113798842403 5.048480272004124 0 0 0
412 1 14.012653298590257 1.8413665260141476 6.655991386740704 0 0 0
418 1 15.68486536730914 2.944391342518699 4.822693644252963 0 0 0
1129 1 22.56912022311722 2.9604347684950367 5.473814387293357 0 0 0
1125 1 26.97593519183457 1.6615191474190847 6.578379293152267 0 0 0
1035 1 25.43718144231409 0.16856528768556123 5.230107008424245 0 0 0
1040 1 29.90898494135125 1.6986417455641727 3.5197720855636048 0 0 0
1128 1 33.11870396388984 1.892381764479333 6.495983524960632 0 0 0
414 1 2.5336321465504335 3.228054796274508 4.713814860910483 0 0 0
318 1 7.647186661417387 4.674657888081431 3.5126402618760877 0 0 0
417 1 11.029579880530711 5.039283568382652 6.503765009911025 0 0 0
1043 1 20.724599234945458 4.315281517155053 3.921558597078758 0 0 0
1126 1 28.705699642256622 3.552971059853806 5.0082530203163556 0 0 0
1047 1 32.917365863770755 5.161149743331263 3.5588937909109193 0 0 0
1127 1 34.64053717590748 3.531119107965549 5.066651279332172 0 0 0
384 1 -0.04131059020542466 6.284229724604745 5.191715694098347 0 0 0
323 1 4.832270757936611 8.326093369273234 3.653972423561148 0 0 0
324 1 6.061262616592491 6.282598821390658 5.137061503348758 0 0 0
325 1 10.875595324782475 8.082027738016707 3.739103081800187 0 0 0
326 1 12.797924336594082 6.473963584283515 4.891369870334942 0 0 0
425 1 14.339598899080677 8.342728026904858 6.226939541548932 0 0 0
740 1 18.634570590842536 6.313147699972529 5.024357455573599 0 0 0
1049 1 23.793227905498807 7.952528758106176 3.868586889467978 0 0 0
1136 1 25.864403981240496 6.379134945784725 5.247294562737263 0 0 0
1137 1 27.22102354558454 8.021581000953685 6.6441977389460405 0 0 0
1051 1 30.357750745432217 8.222544239572128 3.492165573295908 0 0 0
1132 1 31.61971756290573 6.6506680354354195 5.471276121363043 0 0 0
204 1 16.976632182275836 43.209929677205324 0.27480438949351116 0 -1 0
331 1 2.937381269105351 9.787459177394153 5.203659862894771 0 0 0
332 1 7.999600276778358 11.019547948951553 3.49546356007604 0 0 0
428 1 9.180068326415986 9.464267155862563 5.7036399361077725 0 0 0
334 1 14.205590989333476 11.289295355092449 3.658953038796935 0 0 0
328 1 16.159584031940334 9.777725852322355 5.0212102802817205 0 0 0
1053 1 20.576061365625886 11.010213556930895 3.752090872003207 0 0 0
1048 1 22.10144527461109 9.58110425060672 5.247628231317303 0 0 0
1055 1 26.799661079282522 11.071278404938349 3.609293962153034 0 0 0
1143 1 28.51306317552796 9.51352670932096 5.03921744545005 0 0 0
1144 1 29.829482372101275 11.483302530015633 6.516825959329735 0 0 0
1058 1 32.986634574325635 11.27858084619859 3.808060238220092 0 0 0
432 1 1.08837438033015 14.421680928947826 6.472695569134952 0 0 0
336 1 4.410908855450913 14.48286396757178 3.653871905199752 0 0 0
337 1 6.430466543323639 12.854094553380651 5.076399127163725 0 0 0
333 1 12.111393535418255 12.706665446698246 5.117306806732155 0 0 0
434 1 13.645737752767417 14.593252638242788 6.561442017473818 0 0 0
339 1 17.32820813570603 14.801019106067463 3.822370133622292 0 0 0
969 1 19.027669090955907 12.800110199693949 5.427462184846428 0 0 0
1062 1 23.913878957822075 14.85564350370884 3.748959401009222 0 0 0
1142 1 25.318340919318704 12.957166743737126 5.113218074147392 0 0 0
1065 1 30.232346767656193 14.575912008166231 3.4871726812629698 0 0 0
1057 1 31.56387369221914 13.16321407796877 5.389942872914538 0 0 0
340 1 1.0615038172509388 17.74013442399894 3.8008762936128853 0 0 0
435 1 2.6474056954137017 16.148300068499008 5.360871156147013 0 0 0
342 1 7.324080736604168 17.53347653619199 3.6327050264421734 0 0 0
343 1 8.765017792791093 15.866220467670502 5.097223881975618 0 0 0
439 1 15.279686370909836 16.15177464023746 5.294951126632531 0 0 0
1066 1 20.833679448385887 17.726138352099913 3.7436198502028937 0 0 0
1063 1 22.158948219130536 16.3810739291601 5.2442650464266345 0 0 0
1150 1 24.055808063660923 17.66415386357572 6.631549994291989 0 0 0
1064 1 28.58167073060501 16.07695586946689 5.0141762980825995 0 0 0
1151 1 30.527947112702908 17.775612490610875 6.312615786902517 0 0 0
1071 1 33.39743179704614 17.716915332748414 3.4974566076887363 0 0 0
441 1 1.3847191646214303 20.883620155676336 6.464718517110195 0 0 0
347 1 4.093064752027323 20.731484498642004 3.6538560330244163 0 0 0
442 1 5.877471530104463 19.38105271392856 5.30982870740063 0 0 0
349 1 10.935108676541283 20.47723230482279 3.537487312835738 0 0 0
351 1 12.503037535472693 19.153745913918346 5.43042853919123 0 0 0
352 1 17.48874360257042 20.54584492631145 3.906299014558723 0 0 0
828 1 19.094638067643654 19.26722961562598 5.53958491451954 0 0 0
1073 1 23.91517887628011 20.921052543950033 3.728840535521471 0 0 0
1153 1 25.766868567798753 19.440406962614237 5.180661873037041 0 0 0
1076 1 31.95886720324102 19.409513421657728 5.068176276251042 0 0 0
1156 1 33.47218950261593 20.992622376913786 6.047184146066353 0 0 0
354 1 2.8865621240697474 22.610528952322074 5.301788175054753 0 0 0
356 1 7.670192569613572 23.85608914403425 3.506791675929875 0 0 0
350 1 9.317025047985798 22.317386105864237 4.921414495475459 0 0 0
449 1 10.91843185605179 23.948137760231674 6.324132730942731 0 0 0
358 1 14.049850803972134 23.92123595970658 3.5489311708234768 0 0 0
359 1 15.40441660305442 22.027344698077858 5.135954385950298 0 0 0
450 1 16.91401916383094 23.789437266222496 6.657591722697161 0 0 0
1159 1 22.086881791341753 22.403782636077942 5.338768646622267 0 0 0
1160 1 23.787424468190423 23.85686108177587 6.6602706359688275 0 0 0
1081 1 27.176287249246627 23.996016076193207 3.784870395529276 0 0 0
1080 1 28.736101223859084 22.19181618683517 5.043692420148967 0 0 0
452 1 1.2480515421929477 27.050120246344314 6.323959541929006 0 0 0
230 1 1.5541944071587466 8.151230771993891 0.2610541588587608 0 0 0
448 1 4.749693152037608 24.261299480645867 6.52180033404881 0 0 0
357 1 6.080537401999575 25.858799719139455 4.6526942241642715 0 0 0
364 1 12.726369564692309 25.800529555982212 5.011751491718087 0 0 0
622 1 18.915666710406086 25.489467126019306 4.778690407853682 0 0 0
1085 1 23.918030353422772 26.776589342901435 3.516062252313835 0 0 0
1084 1 25.7087834953105 25.616694775244675 5.29543722167241 0 0 0
1161 1 30.121142468536604 24.256766133011293 6.412960461422883 0 0 0
1082 1 31.910895026004468 25.92591075674529 4.8178191945053666 0 0 0
361 1 2.8425663503296765 28.740233304862294 4.720848455175236 0 0 0
362 1 9.429939138698385 28.767300795784067 4.726075092892791 0 0 0
365 1 17.330745395959525 27.45777273634672 3.707339600378514 0 0 0
463 1 15.652119076050315 28.982037689309728 5.2941561952326746 0 0 0
1168 1 21.777679103630618 28.65683375363932 4.654548414815649 0 0 0
1169 1 23.67353003295338 30.212779296807923 6.076562627753857 0 0 0
1086 1 28.228288033215637 28.58966055287885 5.07318079914658 0 0 0
1166 1 33.29395275294345 27.369743537091747 6.664147933803859 0 0 0
66 1 -0.05835895842450178 32.07910933077549 4.890635230546707 0 0 0
460 1 4.208520273580337 30.54291478155012 6.382969940346946 0 0 0
459 1 6.262560667458196 32.03521322379971 5.038020602668012 0 0 0
462 1 10.709398192404288 30.4613898983361 6.360520168334407 0 0 0
370 1 14.044474130328336 30.348883798955416 3.602555204861239 0 0 0
369 1 12.641248086492869 31.94152153269144 5.235456909815031 0 0 0
464 1 17.315678463322012 30.723580241979132 6.6744688546671 0 0 0
749 1 18.741407806548732 32.311598573446105 4.816806705030076 0 0 0
1093 1 25.442192468367654 31.931949436558966 4.695138569439179 0 0 0
1171 1 30.065399027809885 30.364163996051023 6.268779805467729 0 0 0
1095 1 32.04792490051723 32.142294861657106 5.085086808574384 0 0 0
465 1 1.2246234603439599 33.75345579613241 6.6738327617264614 0 0 0
379 1 3.217386285516578 35.189057479413634 5.265080809843359 0 0 0
466 1 7.712440626103419 34.049675380538254 6.61560299452585 0 0 0
374 1 11.022904917903208 33.58678331906666 3.6018651965015422 0 0 0
381 1 9.467937819617243 35.16873708994844 5.183017374519907 0 0 0
468 1 15.795043426581689 35.528649186544044 5.52542141122375 0 0 0
1098 1 22.07180842534329 34.91019947715759 4.813140648378613 0 0 0
1175 1 26.856320763189437 33.44884746933608 6.57799090867398 0 0 0
1179 1 28.256587372748317 35.29996439679255 4.963663372826491 0 0 0
1100 1 30.139651924836652 33.64939156139935 3.5007920175756255 0 0 0
376 1 1.4531918470825664 36.802217989396304 4.0473549133283395 0 0 0
31 1 -0.1837800415831649 38.744910870214824 5.230092254350435 0 -1 0
380 1 7.746619329909632 36.76258967583177 3.8710600860976787 0 0 0
378 1 6.302726883903235 38.587072469713405 5.217469084677834 0 -1 0
383 1 14.100569585303083 37.095316914194875 3.777715442537728 0 0 0
472 1 12.426143416411534 38.74439856063566 5.443033669732116 0 -1 0
451 1 18.779434536961972 38.79376881392938 5.22567597078888 0 -1 0
1102 1 20.569355717825186 37.03428110585553 3.645431355881671 0 0 0
1178 1 23.37620892741604 36.7387857032873 6.1418951103024 0 0 0
1104 1 26.668471418634198 37.42902003626555 3.487977820088149 0 0 0
1103 1 25.160505134473514 38.94719028527548 5.0716493011802966 0 -1 0
1180 1 30.1746485010249 36.36550030078055 6.661821226618353 0 0 0
1105 1 31.544370344215174 38.210505810301456 4.915082196540121 0 -1 0
390 1 2.812141952789517 41.20981364733342 5.152963377669601 0 -1 0
387 1 9.029631638652699 41.48001860029602 5.198052215344917 0 -1 0
290 1 10.278982570258284 39.892490027616205 3.609211470619851 0 -1 0
396 1 15.493835594676279 41.8688415752296 4.958619066232976 0 -1 0
291 1 17.205208991024175 40.22312002273066 3.5578659566501343 0 -1 0
1020 1 21.831335838373125 41.72114550271711 5.091922193005148 0 -1 0
1021 1 23.496586153321882 40.21799167198905 3.625340617279769 0 -1 0
1110 1 27.871135831893014 41.53065887716383 5.042084787509358 0 -1 0
293 1 1.4835227578284262 43.13007936180151 3.7723285531536432 0 -1 0
391 1 4.284856671259718 42.78925831113167 6.588302040035895 0 -1 0
393 1 5.825951864792258 44.895053116373546 5.460566426942205 0 -1 0
294 1 7.52955216600746 43.403508345987866 3.5881024472800327 0 -1 0
394 1 10.48649594305031 43.281035743994735 6.660317377347834 0 -1 0
300 1 12.136941353855603 44.92626605149325 5.087020689853125 0 -1 0
748 1 18.605129228203428 45.15329072501679 4.925804684414775 0 -1 0
1031 1 24.928875514554974 44.650031719626206 5.472822988349529 0 -1 0
1115 1 31.601967125340632 44.66736876415822 5.264899190464937 0 -1 0
398 1 1.3081339509671936 46.36662285934622 6.6229547028856075 0 -1 0
298 1 4.307501918060321 46.39822523952736 3.620300429452601 0 -1 0
399 1 3.090078489968696 48.06241586199431 5.206915494571264 0 -1 0
307 1 8.85644435716079 48.037681105982074 4.799160376103689 0 -1 0
401 1 13.638186403389714 46.41205911974139 6.651538477830479 0 -1 0
302 1 16.82195751780504 46.86913509181965 3.633262233326973 0 -1 0
1116 1 20.359219012131224 46.644432644997046 6.446160710659816 0 -1 0
1030 1 23.828335440281588 46.529396482984076 3.730172957595328 0 -1 0
1118 1 27.004844333478406 46.371157640269175 6.283953587538978 0 -1 0
1033 1 28.48907500601303 47.98131000699691 4.795261161018723 0 -1 0
747 1 -0.05893668714403871 -0.10054802564083253 4.995845204565489 0 0 0
404 1 4.7174702122009835 50.098015927382356 6.411406165455401 0 -1 0
405 1 10.714395259091763 49.44769299038616 6.388504677534437 0 -1 0
309 1 15.161248901307063 48.41369045324791 5.069552494307123 0 -1 0
411 1 12.456682517481802 0.006562992131527251 5.242632595702548 0 0 0
1034 1 20.590885863228554 49.909939622634234 3.599536619637404 0 -1 0
737 1 18.844933828547244 -0.09221753508721188 5.141617332418832 0 0 0
1029 1 22.230093613617075 48.30007838527092 5.178100475011189 0 -1 0
1123 1 30.27132075665427 49.269191921810474 6.491803357210393 0 -1 0
1037 1 31.403791650924106 0.009863279729506957 5.037401717859059 0 0 0
1038 1 33.10315101153198 49.591295092379575 3.682684396769399 0 -1 0
409 1 1.2723440502307461 1.7572325354509395 6.704339741581814 0 0 0
499 1 3.050978492988634 0.3824311383687633 8.32458880993561 0 0 0
410 1 7.808069969570681 1.7429573584929958 6.775149557184731 0 0 0
502 1 10.946510541489967 1.8280405603013485 9.850650904426875 0 0 0
406 1 15.557936886524049 0.44365897714475466 8.198304940544174 0 0 0
1124 1 20.47769235268548 1.4574562052433682 6.958647715765448 0 0 0
1207 1 25.49849276977916 3.101595764759741 8.500644656624312 0 0 0
1202 1 30.59004546064827 1.4813418919109935 9.872189215248552 0 0 0
505 1 1.5325574041236625 4.689370580009998 9.756720954974861 0 0 0
218 1 -0.2049321654182158 3.29702062842876 8.357157113842545 0 0 0
415 1 4.293261087223894 4.813112148164237 6.695345546019582 0 0 0
416 1 6.169230002499399 3.275873556873546 8.149520531420295 0 0 0
419 1 12.597223977196053 3.3689609647130245 8.330527395856413 0 0 0
509 1 14.405580215245243 5.078425657449234 9.512760953472405 0 0 0
420 1 17.354061375998793 4.5824589668136735 6.685173450899922 0 0 0
865 1 18.964709403956576 3.2331637302568694 8.375015193357306 0 0 0
1130 1 24.096201308967963 4.950719635149403 6.859676731292725 0 0 0
1131 1 30.15624425093493 4.960821934165194 7.0416554460557625 0 0 0
1203 1 31.7662445758792 3.3275078207478734 8.26211055083833 0 0 0
422 1 1.473340682241355 8.053150169559677 6.896379305777777 0 0 0
510 1 3.1358202844416274 6.53387673573127 8.316377240980522 0 0 0
423 1 7.610179379839093 7.599834350925063 6.886370581443188 0 0 0
424 1 9.477684063264226 6.568935458133067 8.379306826249088 0 0 0
421 1 15.996788757240633 6.763972514403719 7.899493117804981 0 0 0
514 1 17.328501749468646 8.184801009189151 9.706048341084513 0 0 0
1134 1 20.293844299095987 7.8886293441575095 6.768885055543965 0 0 0
1135 1 22.27067185783565 6.348458237343085 8.333487984181263 0 0 0
1210 1 23.661624851181713 8.225551999326282 9.594272472655296 0 0 0
1213 1 28.452910953432305 6.500059616846469 8.442138222222791 0 0 0
1214 1 29.97917773433064 8.331121240315243 9.834743100632869 0 0 0
1138 1 33.3972293271521 8.19164920889133 7.028422639879697 0 0 0
427 1 4.6569587473353105 11.44659490190688 6.839164926678024 0 0 0
429 1 6.1166117489430425 9.34909413455158 8.28417014543916 0 0 0
518 1 7.768697309914042 10.966292661300665 9.812163681239578 0 0 0
430 1 10.883628679749604 11.276754349427609 6.949608999164323 0 0 0
426 1 12.583275932800909 9.65327665066264 8.191494513981178 0 0 0
520 1 14.233624747014174 11.135476895250745 9.8565966514819 0 0 0
431 1 17.214300459457846 11.452005751730425 6.870455698751074 0 0 0
755 1 18.81634936883824 9.739156049520723 8.2315217411372 0 0 0
1140 1 23.896669890695406 11.318699163470104 6.693970304843575 0 0 0
1212 1 25.536150664668792 9.53368344462055 8.22801478489523 0 0 0
1216 1 26.75091243922499 11.3548249575953 9.840585572317911 0 0 0
1145 1 31.303290584163086 9.77931531710162 8.119134825972397 0 0 0
1219 1 32.98333802954765 11.10529092113884 9.829756238638439 0 0 0
525 1 2.585946316424334 12.791500389884778 8.200710342738088 0 0 0
526 1 3.9666696896505815 14.433194651457606 9.834932560340802 0 0 0
433 1 7.373286374847433 14.316893216379746 7.0246501150533085 0 0 0
528 1 9.351669774720262 12.735178547146896 8.284727990395586 0 0 0
522 1 15.353420757949674 13.198017082307457 8.298613490594251 0 0 0
530 1 17.3197451748263 14.630444422509461 9.642196420265707 0 0 0
1146 1 20.49049176276439 14.553786421371449 6.828505071321544 0 0 0
1141 1 22.077779893985593 12.78666331058831 8.303767973594931 0 0 0
1221 1 23.57405650125767 14.395210358027734 9.829098465117736 0 0 0
1147 1 26.874986728349242 14.535553066902962 6.770800595040048 0 0 0
1222 1 28.322516052633418 13.078979007434139 8.155383904804673 0 0 0
1148 1 33.4144783275985 14.514672626541234 7.0451870910116 0 0 0
242 1 1.109334424778913 14.435303720599961 0.2773936829173809 0 0 0
436 1 4.48454130039331 17.55154221058351 6.895854359978321 0 0 0
533 1 5.802508994737045 15.776254756794124 8.540536574265953 0 0 0
437 1 10.386109395153468 17.48107712284998 6.857017832566158 0 0 0
438 1 12.23975246059555 16.437800788515673 8.634527746442803 0 0 0
440 1 16.893171906164735 17.921665386275894 6.785213416607677 0 0 0
722 1 18.681842930091374 16.093903654389404 8.238832942572103 0 0 0
1227 1 25.179672858824876 16.218075875452406 8.500285550363955 0 0 0
1229 1 31.78839314038293 16.124859935766278 8.183387015743879 0 0 0
1231 1 33.39960605513118 17.708871609274276 9.805159584546614 0 0 0
538 1 2.9898892199747094 19.362422412907833 8.380894864659904 0 0 0
539 1 4.54595464988216 21.110803217456425 9.86636796769528 0 0 0
443 1 7.754433164684206 20.821299605084537 6.712752573433567 0 0 0
444 1 9.079076495954572 19.051861192168477 8.412829532140373 0 0 0
540 1 11.022178180154706 20.74575838757241 9.77686041399005 0 0 0
445 1 14.16872492405016 20.77653019693691 7.038581328005783 0 0 0
541 1 16.057976729051973 19.505107207050767 8.692439420188935 0 0 0
1152 1 20.27050258492199 21.058520018093812 7.176134159566819 0 0 0
1149 1 22.205540192559212 19.03329437459486 8.225392588898185 0 0 0
1232 1 23.70212229705941 20.90981183798592 9.707117627802885 0 0 0
1154 1 27.36707376847602 20.60948124669232 6.785714161590943 0 0 0
1155 1 28.91017662073368 18.943464333830658 8.154322241361285 0 0 0
1234 1 30.015287034113776 20.74095539338596 9.879881560455964 0 0 0
1230 1 34.48822456910698 19.47781316489913 8.003620481506594 0 0 0
545 1 1.0868325337103055 23.988958927735066 9.554125963628122 0 0 0
2259 1 31.88162577538096 0.026557804793700623 24.435306898684185 0 0 0
546 1 6.2922822138716565 22.40436594380647 8.185958684469433 0 0 0
549 1 12.675266467676687 22.58453483170316 8.133191700862604 0 0 0
550 1 13.884308001743197 24.187353242880718 9.847281198373084 0 0 0
647 1 18.858087082282765 23.07605296441968 8.508328673406172 0 0 0
1236 1 25.55349038410221 22.429220987820997 8.317813014244155 0 0 0
1157 1 31.807417234324205 22.37862571034794 8.067785937245917 0 0 0
1238 1 33.40146552838212 23.861182099089785 9.800177733250981 0 0 0
447 1 2.8630017247673085 25.470587515632904 8.085793621301033 0 0 0
551 1 4.026912928408921 27.204897791098677 9.831333222194989 0 0 0
455 1 9.342988482693384 25.66178248236017 8.119382056521854 0 0 0
553 1 10.892516755743994 27.145311322478694 9.664012659655919 0 0 0
554 1 15.784022322831191 25.4652706314602 8.385305480110476 0 0 0
1164 1 22.3990310503468 25.499099068704105 8.36715194014656 0 0 0