
# Create simulation box of size 50 x 50 x 50 Angstrom
#
lattice	            sc 1
Lattice spacing in x,y,z = 1.0000000 1.0000000 1.0000000
region 	            all block 0 ${X} ${YZ_LO} ${YZ_HI} ${YZ_LO} ${YZ_HI} units box
region 	            all block 0 53.4 ${YZ_LO} ${YZ_HI} ${YZ_LO} ${YZ_HI} units box
region 	            all block 0 53.4 -0.002612002310907968.0 ${YZ_HI} ${YZ_LO} ${YZ_HI} units box
region 	            all block 0 53.4 -0.002612002310907968.0 50.909732002307834.0 ${YZ_LO} ${YZ_HI} units box
region 	            all block 0 53.4 -0.002612002310907968.0 50.909732002307834.0 -0.002612002310907968.0 ${YZ_HI} units box
region 	            all block 0 53.4 -0.002612002310907968.0 50.909732002307834.0 -0.002612002310907968.0 50.909732002307834.0 units box
create_box          1 all
Created orthogonal box = (0.0000000 -0.0026120023 -0.0026120023) to (53.400000 50.909732 50.909732)
  3 by 1 by 2 MPI processor grid

# fill box with 4175 randomly distributed atoms
#
create_atoms        1 random 4608 63782 all
Created 4608 atoms
  create_atoms CPU = 0.001 seconds
mass                1 18.015

# Define potential
#
pair_style          sw
pair_coeff          * * /data/emrosky-sim/Freezing_Simulations/Melting/MLmW_fancy/ML_mW.sw mW
Reading sw potential file /data/emrosky-sim/Freezing_Simulations/Melting/MLmW_fancy/ML_mW.sw with DATE: 2019-02-27

# Run minimization
#
minimize            1.0e-8 1.0e-8 10000 1000
WARNING: Using 'neigh_modify every 1 delay 0 check yes' setting during minimization (../min.cpp:187)
Neighbor list info ...
  update every 1 steps, delay 0 steps, check yes
  max neighbors/atom: 2000, page size: 100000
  master list distance cutoff = 6.0032907
  ghost atom cutoff = 6.0032907
  binsize = 3.0016454, bins = 18 17 17
  1 neighbor lists, perpetual/occasional/extra = 1 0 0
  (1) pair sw, perpetual
      attributes: full, newton on
      pair build: full/bin/atomonly
      stencil: full/bin/3d
      bin: standard
Per MPI rank memory allocation (min/avg/max) = 4.234 | 4.248 | 4.253 Mbytes
Step Temp E_pair E_mol TotEng Press 
       0            0    7260980.7            0    7260980.7    4985980.3 
     638            0   -49858.045            0   -49858.045   -300.96383 
Loop time of 1.23404 on 6 procs for 638 steps with 4608 atoms

99.4% CPU use with 6 MPI tasks x no OpenMP threads

Minimization stats:
  Stopping criterion = max force evaluations
  Energy initial, next-to-last, final = 
      7260980.73291712  -49857.8544236038  -49858.0447704784
  Force two-norm initial, final = 1.6693699e+08 3.5205240
  Force max component initial, final = 88748348.0 0.68813581
  Final line search alpha, max atom move = 0.083188627 0.057245073
  Iterations, force evaluations = 638 1001

MPI task timing breakdown:
Section |  min time  |  avg time  |  max time  |%varavg| %total
---------------------------------------------------------------
Pair    | 0.96742    | 1.0637     | 1.155      |   5.8 | 86.20
Neigh   | 0.024211   | 0.024831   | 0.025509   |   0.3 |  2.01
Comm    | 0.033149   | 0.12502    | 0.22154    |  17.1 | 10.13
Output  | 0          | 0          | 0          |   0.0 |  0.00
Modify  | 0          | 0          | 0          |   0.0 |  0.00
Other   |            | 0.02048    |            |       |  1.66

Nlocal:        768.000 ave         786 max         745 min
Histogram: 1 1 0 0 0 1 1 0 0 2
Nghost:        1575.83 ave        1599 max        1550 min
Histogram: 2 0 0 1 0 0 0 0 2 1
Neighs:        0.00000 ave           0 max           0 min
Histogram: 6 0 0 0 0 0 0 0 0 0
FullNghs:      21966.7 ave       23013 max       21013 min
Histogram: 1 1 0 1 0 1 0 1 0 1

Total # of neighbors = 131800
Ave neighs/atom = 28.602431
Neighbor list builds = 24
Dangerous builds = 0

# Add velocity/set timestep
#
velocity            all create ${TEMP} 120598 rot yes dist gaussian
velocity            all create 292 120598 rot yes dist gaussian
timestep            5.0

# Define output
#
compute	            1 all msd
thermo	            100
thermo_style        custom step temp press vol etotal ke pe c_1[4] density

# Neighbor lists
#
neigh_modify        delay 0 every 1 check yes

# Set fixes
#
fix                 1 all momentum 10 linear 1 1 1 rescale
fix                 2 all nve
fix                 3 all temp/csvr ${TEMP} ${TEMP} 500.0 928347
fix                 3 all temp/csvr 292 ${TEMP} 500.0 928347
fix                 3 all temp/csvr 292 292 500.0 928347
fix                 4 all press/berendsen iso ${PRES} ${PRES} 1000.0 modulus 20000
fix                 4 all press/berendsen iso 1 ${PRES} 1000.0 modulus 20000
fix                 4 all press/berendsen iso 1 1 1000.0 modulus 20000

# Run 0.5 ns equilibration
#
dump                1 all custom 1000 eq.${NAME}.dump id type x y z vx vy vz
dump                1 all custom 1000 eq.liq_292K_1atm_ML.dump id type x y z vx vy vz
run                 100000
Per MPI rank memory allocation (min/avg/max) = 3.484 | 3.499 | 3.503 Mbytes
Step Temp Press Volume TotEng KinEng PotEng c_1[4] Density 
     638          292    1023.3191    138416.37   -45848.128    4009.9168   -49858.045 1.8755589e-33   0.99588308 
     700    178.95034    63.418473    139098.89   -44735.522     2457.452   -47192.974   0.35199821   0.99099653 
     800    218.25199    -65.31582    139108.58    -43527.61    2997.1655   -46524.775   0.94516053   0.99092748 
     900    243.29946    178.61542     139047.6   -42776.567    3341.1322     -46117.7    1.5962758   0.99136209 
    1000     265.8524   -69.541556    139013.57   -42226.142    3650.8425   -45876.984    2.3706569   0.99160474 
    1100     271.4883   -77.518592    139128.79   -41900.034    3728.2381   -45628.273    3.1265142   0.99078353 
    1200    282.74753   -59.307814    139190.53   -41578.534    3882.8564    -45461.39    4.0372897   0.99034406 
    1300    284.41132    2.3781706    138991.11    -41456.37    3905.7046   -45362.075    5.1043611   0.99176498 
    1400    287.10206    122.89572    139055.35    -41336.92    3942.6555   -45279.575    6.3262792   0.99130679 
    1500    284.08111   -69.224625    138577.66   -41284.739      3901.17   -45185.909    7.5702489   0.99472397 
    1600     286.4878   -167.90468    138567.38    -41259.95    3934.2201   -45194.171    8.8344705   0.99479776 
    1700     289.2888    21.791538    138181.85   -41252.027     3972.685   -45224.712    9.9941112   0.99757326 
    1800    292.82538    64.145144    138471.06   -41179.628    4021.2515    -45200.88    11.246335   0.99548969 
    1900    289.02893   -171.22415    138409.65     -41107.1    3969.1163   -45076.217    12.577077   0.99593143 
    2000    292.50535    84.596331    138462.03   -41085.524    4016.8565   -45102.381    13.747252   0.99555464 
    2100    285.74468    321.28975     138469.5   -41188.176    3924.0151   -45112.191    15.044131   0.99550093 
    2200    294.67278    4.4636917    138634.89   -41052.537     4046.621   -45099.158    16.508095   0.99431331 
    2300    286.55812    1.6408641    138617.45   -41097.753    3935.1857   -45032.938    17.824571    0.9944384 
    2400    295.69325    109.96967    138142.91   -41088.208    4060.6347   -45148.843    18.954227   0.99785447 
    2500     291.1931    52.885036    138458.78   -40999.436    3998.8359   -44998.272    20.208813   0.99557799 
    2600    297.27734   -154.70182    138311.46   -40940.098    4082.3884   -45022.487    21.592226   0.99663843 
    2700    290.35877    145.83335    138384.04   -41069.843    3987.3785   -45057.221    22.765385   0.99611572 
    2800    288.31401   -153.87043    137949.09   -41101.016    3959.2987   -45060.314    23.976234   0.99925647 
    2900    292.95353    48.951674    137970.89   -41030.226    4023.0112   -45053.237    25.132549   0.99909853 
    3000    293.70826    169.63602    137980.74   -40998.718    4033.3757   -45032.094    26.326824   0.99902725 
    3100    295.76002   -53.169238    138060.01   -40958.348    4061.5516     -45019.9    27.591748    0.9984536 
    3200    293.37945    193.29838    137965.69   -40970.403    4028.8603   -44999.263    28.837489   0.99913622 
    3300    293.14945   -187.13622    137893.95   -41005.245    4025.7018   -45030.946    30.370537   0.99965604 
    3400    296.54866   -91.126552    138022.45   -40996.406    4072.3817   -45068.787    31.643752   0.99872533 
    3500    299.71846   -133.45956    138235.85   -40882.925    4115.9114   -44998.836    32.998453   0.99718358 
    3600    300.15048    66.421511    137869.37   -40965.988     4121.844   -45087.832    34.315636   0.99983421 
    3700    296.87064    21.169217    137925.72    -40961.26    4076.8034   -45038.063    35.981306   0.99942575 
    3800    292.09695     135.3254    138451.82   -41047.993    4011.2482   -45059.241    37.499036   0.99562803 
    3900     289.2411     118.4907    138228.12   -41163.428      3972.03   -45135.458    38.699248   0.99723931 
    4000    289.71876   -154.22741    138030.58   -41106.373    3978.5895   -45084.963    39.788307   0.99866652 
    4100    292.64726    70.427527    138044.21   -41064.102    4018.8054   -45082.907    40.813237   0.99856788 
    4200    292.21673   -25.246209    138091.34   -41052.166     4012.893   -45065.059    41.989792    0.9982271 
    4300    290.17975     89.74335    137848.68   -41062.544      3984.92   -45047.465    43.310763   0.99998432 
    4400    293.29482   -225.18619    137981.15   -40967.201    4027.6981   -44994.899    44.710969   0.99902424 
    4500    293.03944   -115.31176    138007.48   -40944.754    4024.1911   -44968.945    46.111174   0.99883363 
    4600    287.93938   -148.42574    137885.52   -41071.994     3954.154   -45026.148    47.637305   0.99971711 
    4700    292.70382    63.621579    137887.21   -41081.909    4019.5821   -45101.491    48.887718   0.99970491 
    4800     291.9151    80.787712    137861.36   -41026.653     4008.751   -45035.404    50.229679   0.99989237 
    4900    289.81128     147.9983    138069.18   -41139.682      3979.86   -45119.542    51.621308   0.99838734 
    5000    289.79577   -76.635617    138129.12   -40995.745     3979.647   -44975.392    53.190027   0.99795408 
    5100    291.10064   -225.43108    137851.35   -41094.665    3997.5663   -45092.231    54.375145   0.99996491 
    5200    285.96688    40.034324     137958.1   -41206.411    3927.0664   -45133.477    55.631852   0.99919117 
    5300    290.51393    47.679542    137805.71   -41119.034    3989.5092   -45108.544    56.783577    1.0002961 
    5400    293.09556   -304.94702    137551.71   -41030.238    4024.9617     -45055.2    58.165369    1.0021433 
    5500    293.33388    30.217679    137879.17   -40978.826    4028.2345   -45007.061    59.997853   0.99976316 
    5600    292.46255    -113.7963    137947.74   -40938.599    4016.2689   -44954.868    61.324545   0.99926625 
    5700    296.64452    122.36091    137948.31   -40977.843    4073.6981   -45051.541    62.591197   0.99926207 
    5800    295.25561    119.67133    138080.72   -40913.442    4054.6248   -44968.066    64.243471   0.99830387 
    5900    292.14811    114.10024    138095.55   -41070.526    4011.9508   -45082.476    65.435333   0.99819667 
    6000    293.71888   -26.957443    138436.91   -41095.396    4033.5215   -45128.918    66.646938   0.99573528 
    6100    290.90989   -301.12476    138215.03    -41103.48    3994.9468   -45098.427    67.769737   0.99733375 
    6200    287.72489   -183.41761    138336.79   -41163.205    3951.2085   -45114.413    68.935813   0.99645591 
    6300     288.5946   -94.364916    138105.59   -41104.315    3963.1519   -45067.467    70.425518   0.99812412 
    6400    290.15872    86.951763    138223.94   -41060.741    3984.6313   -45045.372    72.394542   0.99726949 
    6500    289.29539   -63.973857    138266.26   -41110.304    3972.7755    -45083.08    73.894961   0.99696426 
    6600    293.24786   -169.06676    138248.62   -41180.492    4027.0531   -45207.545     75.34173   0.99709144 
    6700    289.48428    149.40364    138051.61   -41212.096    3975.3695   -45187.466    76.259719   0.99851436 
    6800    284.68124   -147.12869    138236.23   -41188.043    3909.4112   -45097.455    77.646626   0.99718081 
    6900    288.93485     22.20082    138107.61   -41121.641    3967.8243   -45089.465    79.058396    0.9981095 
    7000    291.87544   -99.539343    138322.27   -41091.491    4008.2062   -45099.697    80.426954   0.99656056 
    7100    291.47864   -250.28025    138141.69   -41150.856    4002.7573   -45153.614    81.893134   0.99786325 
    7200    286.66023     171.1607    138128.67   -41164.528     3936.588   -45101.116     83.02863    0.9979573 
    7300    291.39786   -95.319622     137868.4   -41136.991    4001.6479   -45138.639    83.673542   0.99984124 
    7400    286.85634    115.00233    137621.81   -41199.733     3939.281   -45139.014    84.528209    1.0016328 
    7500    289.72514    96.561686    137765.69   -41103.749    3978.6772   -45082.426    85.585375    1.0005867 
    7600     296.8664    37.509035    137964.85   -41127.532    4076.7451   -45204.277    86.476877   0.99914229 
    7700    285.30482    7.9707183    137732.75   -41175.385    3917.9746   -45093.359    87.583889     1.000826 
    7800    289.63528    53.435594     137652.1   -41181.863    3977.4431   -45159.306    88.450825    1.0014124 
    7900    281.12137   -202.18978    137819.78   -41260.927     3860.525   -45121.452    89.680487     1.000194 
    8000    288.16941     307.4935    137830.51   -41173.419    3957.3129   -45130.732    91.012041    1.0001162 
    8100    290.10213    277.13178    137937.08    -41084.53    3983.8542   -45068.384     92.55776   0.99934344 
    8200    285.77173    57.281275    137950.61   -41120.758    3924.3865   -45045.145    94.295918   0.99924543 
    8300    290.62022   -164.16638    138028.48    -41093.02    3990.9689   -45083.989    95.827562    0.9986817 
    8400    289.12217   -48.781839     137936.5   -41136.032    3970.3968   -45106.429    96.995827   0.99934766 
    8500    289.20294    68.120007    137932.39   -41195.717     3971.506   -45167.223    97.899001   0.99937741 
    8600    291.80491    48.862245     138120.8   -41084.129    4007.2377   -45091.367    99.429378   0.99801415 
    8700    292.62597   -54.626936    138014.64   -41073.446     4018.513   -45091.959    100.24511   0.99878183 
    8800     292.2404   -94.065467    138025.38   -41070.108    4013.2182   -45083.327    101.23344    0.9987041 
    8900    292.54828   -155.14969    138359.58   -41023.832    4017.4461   -45041.278    102.57495    0.9962918 
    9000    294.91256    340.32484    138324.99   -40910.701    4049.9139   -44960.615    103.48793   0.99654095 
    9100    295.86998   -6.8374936    138209.28   -40996.762    4063.0617   -45059.823    104.67731   0.99737529 
    9200    293.68826    18.299434    138426.02   -41004.709     4033.101    -45037.81     106.5367   0.99581364 
    9300    294.51197    179.01942     138448.3   -40949.488    4044.4126     -44993.9    107.58104   0.99565334 
    9400     292.1749   -257.84306    138545.71   -41012.831    4012.3186   -45025.149    108.95345   0.99495333 
    9500    295.30631    -150.9075    138565.25   -41087.869    4055.3211    -45143.19    109.94065   0.99481305 
    9600    287.19129   -288.52005    138154.92   -41137.391    3943.8808   -45081.272    111.14659    0.9977677 
    9700    287.23631    282.85044    138041.62   -41105.321    3944.4991    -45049.82    112.57718    0.9985866 
    9800    292.01843   -67.537403    138048.06   -41013.301      4010.17   -45023.471    113.84009   0.99854005 
    9900    287.67476  0.052388447       138091   -41076.041    3950.5201   -45026.561    115.33862   0.99822952 
   10000     290.9068    35.349229     137920.1   -41110.818    3994.9043   -45105.723    116.31132   0.99946645 
   10100    289.17815    8.8221586    138121.86   -41116.507    3971.1656   -45087.673    117.60382   0.99800651 
   10200    293.17645   -106.56737     138091.3    -41189.87    4026.0726   -45215.943    119.56957   0.99822739 
   10300    287.89419    327.22819    138232.98   -41086.477    3953.5334   -45040.011    121.08758   0.99720429 
   10400    296.40636    -280.0153    137876.24   -40999.596    4070.4276   -45070.024    122.43323   0.99978444 
   10500     291.7515    62.174447    137666.68   -41041.785    4006.5043   -45048.289    123.46934    1.0013063 
   10600    294.10418    244.76409     137830.7   -41006.202    4038.8127   -45045.015    124.73883    1.0001148 
   10700    293.61476   -77.739682    138023.12   -40983.493    4032.0917   -45015.585    126.31913   0.99872046 
   10800    293.28074   -145.01287    137984.53   -40959.781    4027.5047   -44987.286    127.60537   0.99899976 
   10900     292.3691    203.99224    138144.24    -40951.55    4014.9856   -44966.536    129.33882   0.99784487 
   11000    297.91174    73.374457    138292.15   -40950.074    4091.1003   -45041.175     130.9017   0.99677756 
   11100    294.70633    182.85197     138263.8   -41017.933    4047.0818   -45065.014    132.25701   0.99698198 
   11200    291.45012    28.727315    138126.85   -40987.845    4002.3656    -44990.21    133.38514   0.99797044 
   11300    291.95821    42.267488    137987.17    -41029.81    4009.3429   -45039.153    134.79181   0.99898071 
   11400    290.01833    152.52621    138229.99    -41108.39    3982.7033   -45091.093    136.50496    0.9972258 
   11500    288.21318    210.87624    138324.22    -41195.19     3957.914   -45153.104    137.96173    0.9965465 
   11600    286.74276   -214.44987    138228.21   -41264.149    3937.7213    -45201.87    138.90833   0.99723864 
   11700    290.63832   -155.48669    138025.76    -41187.63    3991.2175   -45178.847    139.83863   0.99870139 
   11800     290.6657   -183.20644    138056.61   -41195.673    3991.5935   -45187.267    140.97282    0.9984782 
   11900    286.04063    39.706393    137943.68   -41229.744    3928.0793   -45157.823    142.18939   0.99929562 
   12000     287.1451    66.959889    138027.21   -41180.646    3943.2465   -45123.892    143.16572   0.99869089 
   12100    289.57191    56.035246    137715.64   -41063.154    3976.5729   -45039.727     143.7511    1.0009503 
   12200    293.15878   -114.59689    137914.76   -41005.002    4025.8299   -45030.832     144.8474   0.99950515 
   12300    300.70527    264.10234    138230.03   -40905.732    4129.4627   -45035.195    146.15295   0.99722551 
   12400      296.828   -45.806035    138272.78   -40921.506    4076.2178   -44997.724    146.68696    0.9969172 
   12500    291.33763    21.666743    138248.83   -40952.427    4000.8208   -44953.248    147.90416   0.99708991 
   12600    295.30359    190.53976    138030.71   -40955.016    4055.2837   -45010.299    148.93788   0.99866554 
   12700    293.50412   -53.504753    138324.33   -41022.944    4030.5723   -45053.516    150.59666    0.9965457 
   12800    296.79632   -124.21644    138338.76   -41028.848    4075.7827   -45104.631    151.97655   0.99644172 
   12900     289.6328   -179.35601     138349.6   -41109.505    3977.4091   -45086.914    152.82561   0.99636365 
   13000    290.77984    201.18608    138259.92   -41091.393    3993.1609   -45084.554    154.11773   0.99700992 
   13100    291.73169    135.95961    138355.26    -41027.53    4006.2322   -45033.762    155.24052   0.99632289 
   13200    295.60116   -85.770073    138306.87   -40965.196    4059.3701   -45024.566     156.8106   0.99667154 
   13300    296.04667    103.35661    138134.35   -40939.985    4065.4881   -45005.473    158.60829   0.99791631 
   13400    290.26928    91.372425    137941.76   -40995.283    3986.1496   -44981.432     160.3275   0.99930952 
   13500    291.18593    97.020575    137971.76   -41044.261    3998.7375   -45042.999    161.47332   0.99909223 
   13600    296.74661   -170.26638    137884.51   -41070.803    4075.1001   -45145.903    163.09908   0.99972446 
   13700     292.6044   -55.092117    137856.36   -41090.194    4018.2168   -45108.411    164.19001   0.99992861 
   13800    293.95985    114.87262    138056.19   -41147.606    4036.8307   -45184.437    165.58191   0.99848127 
   13900    293.81128    211.14718    138435.19   -41124.289    4034.7904   -45159.079    166.88941   0.99574768 
   14000    286.54225   -179.52325    138285.43   -41221.168    3934.9678   -45156.136    168.05352   0.99682604 
   14100    290.80854   -92.383547     138375.5   -41124.008     3993.555   -45117.563    169.06438   0.99617719 
   14200     289.0437   -78.600805    138543.86   -41143.303    3969.3192   -45112.622    170.70694   0.99496661 
   14300     291.6107   -72.080644    138497.88   -41164.762    4004.5707   -45169.333    172.17214   0.99529696 
   14400    293.83542     281.5178    138439.94   -41093.235    4035.1219   -45128.357    172.87164   0.99571349 
   14500    291.68669   -174.05034    138374.82   -41168.652    4005.6143   -45174.266    174.04455   0.99618212 
   14600    295.92762    229.04535    138286.03    -41041.53    4063.8532   -45105.383    174.80299   0.99682174 
   14700    290.39229   -94.105239     138512.1   -41142.956    3987.8388   -45130.795    175.82144   0.99519476 
   14800    291.66031    185.64907    138455.33     -41102.9     4005.252   -45108.152    177.10811   0.99560283 
   14900    292.04766    128.09138    138185.08   -41048.328    4010.5713   -45058.899    178.37664   0.99754996 
   15000    288.50157   -110.39676    138138.78   -41149.257    3961.8743   -45111.132    179.28074   0.99788431 
   15100    291.45641    61.986003    137948.46   -41153.701    4002.4519   -45156.153    180.17233   0.99926097 
   15200    285.05844    317.67743    138138.74   -41140.576    3914.5912   -45055.167    181.42621   0.99788453 
   15300     287.9431    214.44549    138095.15   -41119.961    3954.2051   -45074.166    182.05025   0.99819955 
   15400    295.77667   -187.93157    138242.76   -41034.736    4061.7802   -45096.516    183.70554    0.9971337 
   15500    291.10656    16.809256    138022.93   -41081.395    3997.6476   -45079.043    184.62736   0.99872184 
   15600    287.80611    233.68973    138035.14   -41114.692    3952.3238   -45067.015    185.82923   0.99863353 
   15700    289.26178    -149.2751    137989.92   -41115.773     3972.314   -45088.087    186.96023   0.99896075 
   15800    290.61676   -111.23999    138009.29   -41052.059    3990.9214   -45042.981    187.94807    0.9988206 
   15900    289.07985    81.369867    138152.08   -41050.416    3969.8156   -45020.231    189.56137   0.99778819 
   16000    286.93632     198.1714    138150.19   -41105.655    3940.3794   -45046.034    190.41102   0.99780186 
   16100     289.8765   -134.56288    137815.73   -41057.408    3980.7556   -45038.164    191.22707    1.0002234 
   16200    295.23328   -63.470643    137738.36   -40916.049    4054.3181   -44970.367    192.17389    1.0007852 
   16300    293.37888   -22.775552    137831.56   -40893.037    4028.8524   -44921.889    193.51902    1.0001085 
   16400    296.64628   -69.669536     137972.3   -40892.487    4073.7223    -44966.21    194.86595   0.99908837 
   16500    291.04896    30.034689    137825.82   -40928.499    3996.8566   -44925.356    196.21821    1.0001502 
   16600    292.36035    83.449837    137905.09   -40978.939    4014.8653   -44993.804    196.81015   0.99957528 
   16700    290.59254    126.64688    137741.13   -41087.921    3990.5888    -45078.51    197.80169    1.0007651 
   16800     289.4684   -27.925438     138037.7   -40994.231    3975.1514   -44969.383    199.66646     0.998615 
   16900    293.52581    114.05453    138150.34   -41078.365    4030.8702   -45109.235    200.71602   0.99780074 
   17000    288.60839    -25.64396    138615.59   -41048.709    3963.3412    -45012.05    202.63645   0.99445175 
   17100    295.91309    6.3256184    138465.82    -40992.49    4063.6537   -45056.144    204.12072   0.99552737 
   17200    293.31056   -68.215604    138242.02    -40962.86    4027.9143   -44990.775    205.05452   0.99713907 
   17300    294.38391    -161.6133    138352.47   -41006.262    4042.6541   -45048.917    206.64353   0.99634301 
   17400    289.82784    247.92744     138193.2   -41024.119    3980.0874   -45004.206    207.46384   0.99749134 
   17500    296.59513    209.81074    138206.05     -41057.8    4073.0199    -45130.82    209.07991   0.99739859 
   17600    287.55424     225.9151    138540.67   -41068.318    3948.8651   -45017.183     210.3154   0.99498954 
   17700    294.59629    13.023387    138317.33   -41036.477    4045.5706   -45082.048    211.17702   0.99659611 
   17800    292.78765   -103.77353    138150.75   -41113.533    4020.7334   -45134.266    212.30946   0.99779783 
   17900     289.2551    264.81927    138236.11   -41166.662    3972.2222   -45138.884    213.77885   0.99718169 
   18000    283.89345   -352.61924    138123.13   -41236.102    3898.5929   -45134.695    215.34282   0.99799734 
   18100    291.17097    87.350448    138010.93   -41186.429    3998.5322   -45184.961    216.14543   0.99880866 
   18200    292.10096    104.03954    137934.01   -41128.485    4011.3033   -45139.789    217.63411    0.9993657 
   18300    294.44247    165.04324    138174.31   -41171.412    4043.4583    -45214.87    218.77632   0.99762767 
   18400    282.86887   -152.77338    138058.89    -41199.07    3884.5228   -45083.592    220.04023   0.99846173 
   18500    294.41165    174.35778    137777.98   -41052.527    4043.0351   -45095.562    221.50152    1.0004974 
   18600    293.54482    295.20888    138051.57   -41071.341    4031.1312   -45102.472    223.28117   0.99851466 
   18700    302.54021   -19.703027    138276.62   -40988.854    4154.6612   -45143.515    225.02513   0.99688956 
   18800    294.86962   -90.679276    138726.58   -41088.079    4049.3241   -45137.403    226.44461   0.99365616 
   18900    295.02232    227.50432    138705.74   -41070.923    4051.4211   -45122.345    227.39338   0.99380544 
   19000    295.14156   -70.070221    138489.23   -41066.344    4053.0586   -45119.403    228.36413   0.99535909 
   19100    289.10665    139.10447    138470.12   -41094.591    3970.1837   -45064.774    229.42102   0.99549647 
   19200    292.70761   -308.55372       138106   -41054.345    4019.6342   -45073.979    230.40227   0.99812112 
   19300    293.28354    303.01736    137954.81   -41039.091    4027.5431   -45066.634    231.84351   0.99921499 
   19400    287.64294    145.88294    137926.19   -41130.118    3950.0831   -45080.201    232.82491   0.99942236 
   19500    293.88526     233.6819    138010.97   -41096.835    4035.8063   -45132.642    234.19062   0.99880843 
   19600    293.42425    140.14709    138417.32   -40992.563    4029.4755   -45022.038    235.44333    0.9958762 
   19700    296.51819   -154.70066    138651.89   -40983.258    4071.9633   -45055.221    237.11354   0.99419142 
   19800    295.56548    -90.99237    138561.15   -40993.438    4058.8802   -45052.318    238.76979   0.99484245 
   19900    294.82514   -24.058791    138573.71   -40882.085    4048.7133   -44930.798    239.97911   0.99475232 
   20000    299.49539   -130.55191    138685.95   -40907.501     4112.848   -45020.349    241.93861   0.99394723 
   20100    291.68722   -39.638466    138749.83   -40931.744    4005.6215   -44937.366    244.13263   0.99348961 
   20200    294.75494   -58.890163    138554.67   -40956.683    4047.7493   -45004.433    245.68812   0.99488899 
   20300    292.64359    69.248948    138610.49   -40944.141    4018.7551   -44962.896    246.95595   0.99448833 
   20400    291.32055    142.93895    138733.84   -40985.658    4000.5862   -44986.244    248.16725    0.9936041 
   20500    296.00545   -33.674133    138617.09   -40962.027     4064.922   -45026.949    249.25433     0.994441 
   20600    292.02174   -97.575217    138439.48   -41014.125    4010.2153    -45024.34    249.89379   0.99571679 
   20700    290.96373   -8.0494511    138409.84   -41121.511    3995.6862   -45117.197    252.06267      0.99593 
   20800    294.76792   -88.776278     138310.4   -41146.996    4047.9276   -45194.923    253.45524   0.99664605 
   20900    292.51782     110.5172    138405.19   -41076.373    4017.0279   -45093.401    254.60822   0.99596349 
   21000    295.38134    1.5476416    137980.43   -41074.047    4056.3514   -45130.399    255.74987   0.99902948 
   21100    289.99154    378.75866     137884.6   -41183.552    3982.3355   -45165.887    256.92796    0.9997238 
   21200    285.22538    102.17806    138313.19   -41206.033    3916.8838   -45122.917     258.5907   0.99662593 
   21300    292.35897   -7.6979747    138428.99   -41183.622    4014.8464   -45198.468    259.69757   0.99579228 
   21400     291.6603   -67.359872    138193.76   -41093.437    4005.2518   -45098.689    260.78592   0.99748725 
   21500    289.96734    6.0932326    138256.47   -41012.128    3982.0031   -44994.131    262.63639   0.99703485 
   21600    293.95755    60.255007    138236.48   -41047.051    4036.7991   -45083.851    264.04348   0.99717899 
   21700    297.51534   -68.044901     138051.7   -40976.284    4085.6568   -45061.941    264.63168   0.99851373 
   21800    295.87885    4.6784733    138250.22    -41000.71    4063.1835   -45063.893    266.10355    0.9970799 
   21900    292.29901   -153.75421    138227.27   -40989.005     4014.023   -45003.028    267.44009   0.99724547 
   22000    296.70842    48.873172    138363.72    -41002.26    4074.5756   -45076.835    269.07921   0.99626202 
   22100    294.59746   -118.04028    138314.75    -40964.27    4045.5867   -45009.857    269.85735    0.9966147 
   22200    295.31369    218.50918    138275.77   -40916.123    4055.4224   -44971.546    270.70184   0.99689565 
   22300    292.89759    7.6919436    138832.44   -40947.858    4022.2431   -44970.102    272.30819   0.99289844 
   22400    292.36273    117.18953    138950.84   -41000.998    4014.8981   -45015.897    274.18753    0.9920524 
   22500    291.58486   -149.64508    138887.47   -41053.072    4004.2159   -45057.288    275.40229   0.99250509 
   22600    291.36909     44.20393    138589.81   -41102.014    4001.2528   -45103.267    276.65886    0.9946367 
   22700    290.02501   -87.198118    138855.65   -41041.797    3982.7951   -45024.593    278.17445   0.99273249 
   22800    292.16249   -166.87227    138842.52   -41186.839    4012.1482   -45198.987    279.63088   0.99282637 
   22900    285.74012   -155.11207    138862.36   -41157.768    3923.9525    -45081.72    280.94192   0.99268452 
   23000    297.52606    7.7798794    138948.07   -41024.644     4085.804   -45110.448    282.18166   0.99207218 
   23100    293.32797    99.913547    138818.45   -41029.185    4028.1534   -45057.338    283.25828   0.99299855 
   23200    291.59192   -77.482124    138513.58   -41078.937    4004.3128    -45083.25     283.9429   0.99518416 
   23300    291.54722   -188.63966     138089.3    -41167.68     4003.699   -45171.379    284.51528   0.99824185 
   23400    293.75321    35.895598    138152.22   -41065.365     4033.993   -45099.358    285.48985    0.9977872 
   23500    289.59381   -3.6371003    138067.63   -41123.539    3976.8736   -45100.413    286.19799   0.99839849 
   23600    291.54526    47.093356    138203.61   -41141.981     4003.672   -45145.653    287.58456   0.99741618 
   23700    288.48094    117.28433    138357.04   -41152.101    3961.5911   -45113.692    288.50293   0.99631013 
   23800    293.85538   -242.41352    138208.16   -41082.067     4035.396   -45117.463    289.53434   0.99738336 
   23900    294.39323    51.847967    137902.63   -41074.029    4042.7821   -45116.811    290.57589   0.99959312 
   24000    294.91524     77.44586    138197.38   -41026.259    4049.9506    -45076.21    292.27411   0.99746118 
   24100    294.08544    271.33224    138251.02   -41031.492    4038.5553   -45070.047    294.01876   0.99707413 
   24200    302.39834    1.1909445    138090.39   -40954.626     4152.713   -45107.339    294.28525   0.99823395 
   24300    295.58722    266.74023    138181.19   -41009.269    4059.1787   -45068.447    295.49097   0.99757799 
   24400    289.17021    163.56025    138343.12    -40970.17    3971.0564   -44941.226    296.79983   0.99641034 
   24500    293.57894    52.148822    138107.76   -41025.175    4031.5998   -45056.775    298.04181   0.99810843 
   24600    301.36367    166.19093    138104.89   -41018.954    4138.5043   -45157.458    299.65366   0.99812916 
   24700     296.5627   -306.50426    138012.95    -41032.87    4072.5746   -45105.444    301.02851   0.99879406 
   24800    293.55636    175.47412    138038.23   -41031.009    4031.2896   -45062.299    303.17697   0.99861119 
   24900    290.18792    6.3024159     138183.6   -41022.134    3985.0323   -45007.166    304.46917   0.99756062 
   25000    285.74333    212.82501    138191.65   -41083.845    3923.9965   -45007.841    305.84497   0.99750251 
   25100    288.40421   -58.293665    138330.47   -41097.438    3960.5373   -45057.975    307.43657   0.99650145 
   25200    291.51291    28.681559    138277.76   -41109.266    4003.2279   -45112.493    308.04379   0.99688133 
   25300    291.15691    82.071207    138265.75   -41148.397    3998.3391   -45146.736     309.3634   0.99696792 
   25400    291.14571    -134.7435    138482.99   -41078.854    3998.1852   -45077.039    311.06169   0.99540393 
   25500    286.55405    -288.4217    138108.18   -41141.417    3935.1299   -45076.547    311.25619   0.99810537 
   25600    289.46994    12.157686    138039.56   -41167.636    3975.1726   -45142.809     312.4242    0.9986015 
   25700    285.81648   -29.482618     138063.8   -41169.457    3925.0011   -45094.459    313.66199    0.9984262 
   25800    282.21543    153.34261    137941.91   -41279.394    3875.5494   -45154.943    314.51136   0.99930847 
   25900    283.89085    199.69697    137978.91   -41240.467    3898.5572   -45139.024    316.45777   0.99904049 
   26000    294.07774    157.17957    138137.25   -41121.567    4038.4496   -45160.016    317.97138   0.99789536 
   26100     295.9804    272.12579    138290.85   -41109.407     4064.578   -45173.985    319.75141     0.996787 
   26200    296.14211       356.28    138522.06   -40980.542    4066.7988   -45047.341    321.31308   0.99512324 
   26300    298.35401    36.338549    138576.32   -41070.298    4097.1738   -45167.471    323.50327   0.99473358 
   26400     296.5017    45.700919    138574.61   -41035.932    4071.7368   -45107.669    325.37514   0.99474586 
   26500    293.20018   -30.888055    138642.22   -40967.378    4026.3984   -44993.776    327.23728   0.99426077 
   26600    293.05907    -97.35047     138212.4   -41040.519    4024.4606    -45064.98    327.57575   0.99735277 
   26700    290.55868     21.93698    137849.66   -41021.269    3990.1237   -45011.393    328.48124   0.99997723 
   26800    290.97735    101.05596    138148.03   -41039.145    3995.8732   -45035.018     330.4598    0.9978175 
   26900    287.83501   -181.09361    138118.94   -41142.825    3952.7207   -45095.546    331.46036   0.99802759 
   27000    291.37575   -135.34919    138429.86   -41150.983    4001.3443   -45152.327    333.47866   0.99578601 
   27100    290.85112    353.69078    138518.36   -41082.407    3994.1398   -45076.547     335.1277   0.99514976 
   27200    285.29616   -190.44844    138429.26   -41045.845    3917.8558   -44963.701    336.29372   0.99579032 
   27300    292.59922    -109.2413    138117.24   -40946.491    4018.1456   -44964.637    337.24508   0.99803992 
   27400    292.26378    110.40839    138172.27   -40992.691    4013.5392    -45006.23    338.24678   0.99764239 
   27500    299.41989   -7.4756388    138460.77   -40990.926    4111.8112   -45102.738    339.54197   0.99556367 
   27600    294.00214    24.281346    138265.92   -40963.456    4037.4114   -45000.868    340.45298   0.99696672 
   27700    294.75224   -100.01192     137984.8   -40992.978    4047.7122    -45040.69    341.28205   0.99899783 
   27800    294.99212    -105.4916    138060.55   -41033.381    4051.0064   -45084.387    342.77567   0.99844971 
   27900    292.89468   -66.692297    137571.86   -40928.998    4022.2031   -44951.201    342.80234    1.0019964 
   28000    290.49319    226.13876    137778.73    -40886.02    3989.2244   -44875.245    344.37067     1.000492 
   28100    288.40804   -56.879007    138005.72   -40960.863    3960.5899   -44921.453    345.77386   0.99884644 
   28200    287.02881    191.65521    137707.54   -41104.761    3941.6496   -45046.411    345.77878    1.0010092 
   28300    290.04876     159.8244    137754.69   -41020.696    3983.1213   -45003.817    348.01526    1.0006666 
   28400    294.31909    146.93745    137736.98   -40939.604     4041.764   -44981.368    349.14878    1.0007952 
   28500    287.97464    97.997132    138139.04   -41061.874    3954.6383   -45016.512    350.48356   0.99788241 
   28600    290.97567   -109.32754    138313.82   -41104.801    3995.8501   -45100.651    351.23794   0.99662141 
   28700    295.07179   -50.958764    138265.54   -41147.481    4052.1005   -45199.582    352.32718    0.9969694 
   28800    288.46369    178.20532    138313.67   -41132.221    3961.3541   -45093.575    353.49342   0.99662248 
   28900    289.17204    249.22445    138457.94   -41138.349    3971.0816   -45109.431    354.44314   0.99558406 
   29000    291.78384   -63.805203    138864.59   -41071.191    4006.9484   -45078.139    355.92806   0.99266857 
   29100    290.80341    62.888495    138470.92     -41067.6    3993.4846   -45061.085    356.70407   0.99549075 
   29200    287.17292    76.365571    138213.41   -41115.463    3943.6285   -45059.091    357.37947   0.99734549 
   29300    292.10462   -78.774684    138242.16   -41060.087    4011.3535   -45071.441    357.83047   0.99713806 
   29400    295.10032   -21.084905    137920.38   -41137.008    4052.4922     -45189.5     358.6673   0.99946443 
   29500    290.13337     163.3187    137969.08   -41088.728    3984.2832   -45073.011    359.65335   0.99911168 
   29600    295.28436    292.54411    137934.23   -41104.896    4055.0196   -45159.915    360.53294   0.99936407 
   29700    292.95016   -24.683313    138123.31   -41066.201     4022.965   -45089.166    361.78064   0.99799605 
   29800    293.55747    -121.2544    137959.79   -41007.689    4031.3049   -45038.994    362.33954   0.99917894 
   29900    293.01699    1.6713534    138020.07   -40995.138    4023.8827   -45019.021    363.37612   0.99874254 
   30000    293.32448    131.56655    138368.19   -41002.919    4028.1054   -45031.024    364.86994   0.99622979 
   30100     290.9961    14.909951    138372.15   -40990.882    3996.1306   -44987.012    365.51275   0.99620133 
   30200    298.98527   -22.546196    138583.97   -40986.698    4105.8426   -45092.541    367.49031   0.99467869 
   30300    291.18828   -207.95355     138526.7   -41040.113    3998.7698   -45038.883    368.59196   0.99508988 
   30400     291.8486  0.070593249    137999.92    -41086.64    4007.8377   -45094.478    368.64116   0.99888839 
   30500    287.10606   -64.179823    138461.63   -41081.152    3942.7104   -45023.862    370.22518   0.99555753 
   30600    287.73572    220.75134    138477.52   -41176.393    3951.3572    -45127.75    371.34641   0.99544327 
   30700    295.05987   -49.445105    138439.64    -41053.95    4051.9368   -45105.887    372.56745   0.99571566 
   30800    295.09496   -101.49707     138434.5   -41002.577    4052.4186   -45054.995    373.85553   0.99575262 
   30900    289.63991    236.87427    138236.21   -41072.027    3977.5066   -45049.533    375.21377   0.99718093 
   31000    290.40519    22.548201    138121.32   -41059.144    3988.0159    -45047.16    376.27559   0.99801044 
   31100    288.17599   -127.35473    138191.25    -41175.74    3957.4032   -45133.143    377.24716   0.99750538 
   31200    290.97168    74.925214    138080.03   -41115.733    3995.7953   -45111.528    378.80711   0.99830886 
   31300     287.4891    40.483022    138127.63   -41101.351    3947.9706   -45049.321    379.84619   0.99796481 
   31400    286.27595   -160.53509    137967.72   -41059.562    3931.3108   -44990.873    380.70314    0.9991215 
   31500    294.06052    139.49743    138001.49    -40991.96    4038.2131   -45030.173    382.12877     0.998877 
   31600    295.53594    44.096339    137843.53   -41034.303    4058.4744   -45092.778    383.37609    1.0000217 
   31700    288.87252    -145.2755    137849.19   -41075.427    3966.9685   -45042.395     385.0751   0.99998062 
   31800    290.54588    72.547806    137873.84   -41056.485    3989.9481   -45046.433     386.2893   0.99980185 
   31900    291.00057    53.180738    137534.74   -40965.668     3996.192    -44961.86    386.98788    1.0022669 
   32000    289.09016    300.43336    137680.03   -41006.872    3969.9572   -44976.829    388.54249    1.0012092 
   32100     293.2825    113.80837    138105.52   -41006.994    4027.5289   -45034.522    390.85413   0.99812463 
   32200    294.68829    -240.0226    138101.33   -41062.146     4046.834    -45108.98    391.67546   0.99815486 
   32300    296.70586   -247.05756    137995.97   -41006.763    4074.5405   -45081.303     392.7583   0.99891698 
   32400    295.21658    -29.94925    138264.77   -40954.746    4054.0889   -45008.834    394.45335   0.99697498 
   32500    297.84807    291.12495    138156.88   -41060.525     4090.226   -45150.751    394.96071   0.99775356 
   32600    289.05073   -153.09115    138131.82   -41062.343    3969.4157   -45031.758    395.67368   0.99793458 
   32700    288.79133    191.53703    138118.83   -41019.769    3965.8535   -44985.623    397.36857   0.99802842 
   32800    291.06468   -58.350309    137730.13   -41132.613    3997.0724   -45129.686    397.79631     1.000845 
   32900     287.4358   -78.164144     137686.4   -41175.686    3947.2385   -45122.925    399.05871    1.0011629 
   33000    290.12282    88.154672    137930.56   -41148.528    3984.1383   -45132.666    400.54606   0.99939068 
   33100    295.40436    122.67649    138293.34   -41106.132    4056.6676   -45162.799     401.7743     0.996769 
   33200    284.29494    176.25701    138293.95   -41029.227    3904.1064   -44933.334    403.84302   0.99676461 
   33300    287.57604    102.64639    138319.54   -41049.529    3949.1644   -44998.693    405.96735   0.99658023 
   33400    295.76349   -54.504558    138164.69   -41014.136    4061.5993   -45075.735    407.16009   0.99769712 
   33500     289.5413   -221.25805    138207.77   -41003.932    3976.1525   -44980.085    408.91204   0.99738613 
   33600     292.3548    230.80966    138071.06   -40993.656    4014.7892   -45008.445    409.99413   0.99837375 
   33700    290.84917   -12.569231    138156.25   -41018.535    3994.1129   -45012.648    411.04682   0.99775809 
   33800    289.27987    77.811659     138221.6   -41059.014    3972.5624   -45031.577     411.9797   0.99728638 
   33900    295.27684    232.39918    138230.12   -40997.564    4054.9163    -45052.48    414.68527   0.99722487 
   34000    290.79216    115.92707    138316.54   -41096.483      3993.33   -45089.813    416.71498   0.99660186 
   34100    288.97715    197.74365    138283.24   -41146.684    3968.4053    -45115.09    418.78537   0.99684184 
   34200    291.39575    59.920562    138267.27   -41149.772     4001.619   -45151.391    420.46773   0.99695696 
   34300    291.88211   -95.781243     138323.6    -41085.88    4008.2979   -45094.178    423.04781   0.99655093 
   34400    299.18125    160.86282    137974.23    -40927.09     4108.534   -45035.624    423.35364   0.99907439 
   34500    296.02354      65.0076     138002.4   -40916.224    4065.1704   -44981.394    424.61311   0.99887045 
   34600     289.0287   -61.278138    138106.22   -41051.169    3969.1132   -45020.282    426.47647   0.99811957 
   34700    291.88236    177.56481    138340.55   -41067.653    4008.3014   -45075.954    428.74518   0.99642888 
   34800    293.27663    101.88872     138487.6   -41070.173    4027.4482   -45097.622    430.96181   0.99537084 
   34900    292.22309    63.858394    138395.58   -41097.807    4012.9805   -45110.787    432.10112   0.99603267 
   35000    286.52141   -63.211162    138470.27    -41125.03    3934.6816   -45059.712    434.18312   0.99549541 
   35100    295.03916   -161.42548    138108.71   -41035.663    4051.6523   -45087.315     434.6675   0.99810152 
   35200    296.46585     311.6216    137991.37   -40943.481    4071.2445   -45014.725     436.1406   0.99895024 
   35300    294.51386   -113.21129    138197.99   -41032.603    4044.4387   -45077.042    437.87842   0.99745674 
   35400    297.40019   -147.37983    138111.42   -41121.696    4084.0754   -45205.772    438.28027   0.99808193 
   35500    288.03097   -131.97134    137930.85   -41104.247    3955.4118   -45059.659    438.55132   0.99938861 
   35600    289.54144    185.19942     138109.8   -41102.794    3976.1544   -45078.949    440.25246   0.99809364 
   35700    292.33039    251.77399    138420.09    -41045.98     4014.454   -45060.434    441.66941   0.99585626 
   35800    297.14027    84.922836    138243.83   -41008.959     4080.506   -45089.465    442.61006   0.99712597 
   35900    293.61086   -208.46657    138066.11   -41004.922    4032.0381   -45036.961    443.04542   0.99840951 
   36000    293.14251    36.994095    138024.38   -41017.467    4025.6065   -45043.073    444.55419   0.99871136 
   36100     289.4951    136.98934    138174.86     -41080.1     3975.518   -45055.618    445.76125   0.99762371 
   36200     293.8151   -256.24662    138073.12   -41048.024    4034.8429   -45082.867    446.61421    0.9983588 
   36300    289.76342     -203.444    138058.53   -41007.868    3979.2028    -44987.07    448.30468    0.9984643 
   36400    298.28761   -13.797161     137950.3   -40879.812     4096.262   -44976.074    448.56836   0.99924766 
   36500    295.87522    225.55137    137666.72   -40922.904    4063.1336   -44986.038    450.18403     1.001306 
   36600     290.8634     -143.094    138121.79   -41014.999    3994.3084   -45009.307    452.20023   0.99800703 
   36700    292.24495   -236.21981    137850.45   -41058.239    4013.2807    -45071.52     453.1412   0.99997145 
   36800    295.93071   -115.09432    137865.86   -41121.136    4063.8956   -45185.031     454.4878   0.99985969 
   36900     289.0923    22.497077     137932.6   -41131.265    3969.9866   -45101.252    456.26262   0.99937593 
   37000    293.41401   -85.502865    138065.42   -41074.589    4029.3348   -45103.924     458.0297   0.99841446 
   37100    289.26742   -105.69369    137827.18   -41097.204    3972.3914   -45069.595    458.51204    1.0001403 
   37200    290.14915   -123.66059    137869.18   -41076.346    3984.4999   -45060.846    460.14395    0.9998356 
   37300    291.63699   -141.15324    137865.66   -41063.821    4004.9318   -45068.752    461.18807   0.99986111 
   37400    290.21548    4.7164942    137812.59   -41129.663    3985.4107   -45115.073    462.29437    1.0002462 
   37500     291.8388   -66.172249     138059.8   -41136.181    4007.7031   -45143.884    463.72031   0.99845511 
   37600    288.99343   -108.22948     138209.4    -41120.95    3968.6289   -45089.579    465.42289   0.99737437 
   37700    291.28583    52.747441     138340.2   -41147.688    4000.1094   -45147.797    466.77474   0.99643138 
   37800    287.33088    124.08989    138174.07   -41142.727    3945.7978   -45088.524    467.44298    0.9976294 
   37900    283.78356    345.21686     138315.7   -41142.232    3897.0838   -45039.316    468.70317   0.99660791 
   38000    292.27806   -170.87491    138040.63   -41155.497    4013.7353   -45169.232    469.08777   0.99859379 
   38100    286.37683   -129.90892    137721.92   -41118.967    3932.6962   -45051.663    469.13199    1.0009047 
   38200    291.74853    28.362097    137621.64   -41201.012    4006.4635   -45207.476    469.94084    1.0016341 
   38300    283.58754    168.95804     137721.6   -41240.743     3894.392   -45135.135    470.99423     1.000907 
   38400    283.42905    175.96957    138011.76    -41297.73    3892.2155   -45189.946    473.41251   0.99880267 
   38500     285.8537    62.380926    137640.06   -41273.376    3925.5123   -45198.888    473.44384    1.0014999 
   38600    291.56256   -17.284299    138037.57   -41137.312    4003.9096   -45141.222    475.55476   0.99861595 
   38700    287.14179    40.612758    138224.55    -41138.83    3943.2011   -45082.031    477.98513   0.99726506 
   38800    288.35819   -9.1512521    138030.71   -41089.853    3959.9054   -45049.758    479.19476   0.99866554 
   38900    289.70351    -33.13573    137920.89   -41050.415    3978.3801   -45028.795    480.49889   0.99946078 
   39000    296.70301    102.11155    138091.99   -40957.837    4074.5014   -45032.339    482.10428   0.99822241 
   39100    292.10576   -420.48449    137989.74   -41088.014    4011.3692   -45099.383    483.13611   0.99896209 
   39200    291.24569    356.64699    138179.35   -41058.583    3999.5583   -45058.141    485.03639   0.99759127 
   39300    292.38822   -86.525999    138178.32     -41015.5    4015.2482   -45030.748    486.04769   0.99759874 
   39400    297.97575   -67.922517    137918.43   -41059.807    4091.9794   -45151.786    486.89429   0.99947859 
   39500    296.92446    44.684902     138148.3   -41017.726    4077.5424   -45095.268    488.99123   0.99781551 
   39600    291.78686   -49.302968    137830.61   -41024.428    4006.9898   -45031.417     490.0267    1.0001154 
   39700    288.76956    55.198926    137810.56   -41078.956    3965.5545   -45044.511    491.55782    1.0002609 
   39800    291.40092    87.261046    138139.91   -41131.892    4001.6899   -45133.582    494.15018   0.99787609 
   39900    282.98488    54.150085    138162.85   -41216.191    3886.1159   -45102.307     496.0534   0.99771044 
   40000    291.32451    36.872474     137967.6   -41088.622    4000.6406   -45089.263    496.96813   0.99912238 
   40100    293.85053   -19.503976    137678.09   -41036.762    4035.3294   -45072.091    497.82845    1.0012233 
   40200    292.16913    -5.808008    137693.11   -41023.724    4012.2394   -45035.963    499.76639    1.0011141 
   40300    292.75935    16.666794    137961.41   -41008.132    4020.3447   -45028.476    501.59257   0.99916718 
   40400    289.86328   -161.93151    137725.99   -41096.522    3980.5741   -45077.097    502.05948    1.0008751 
   40500    290.29408   -48.181749    137700.33   -41059.449    3986.4902   -45045.939    502.84175    1.0010617 
   40600    294.73717   -37.630505    137577.67   -41032.915    4047.5053    -45080.42    503.83508    1.0019541 
   40700     291.1036    128.45892    137808.73   -41022.231     3997.607   -45019.838    504.94748    1.0002742 
   40800    290.23879   -30.873302    137966.57   -41027.688    3985.7308   -45013.419    506.17131   0.99912982 
   40900    286.04178    84.131314    137919.36   -41095.603     3928.095   -45023.698    507.14536   0.99947182 
   41000    293.77617    -130.6244    137731.51   -41106.441    4034.3082   -45140.749     507.2944     1.000835 
   41100    293.64649    308.09465    137778.94   -41039.813    4032.5274    -45072.34    507.67952    1.0004905 
   41200    289.28445    271.23855    138255.42   -41001.618    3972.6252   -44974.243     509.4005   0.99704243 
   41300    289.53807   -347.63947    138121.28   -41105.624    3976.1081   -45081.733    509.84457   0.99801073 
   41400    290.82343   -117.66849    137955.62   -41067.584    3993.7594   -45061.343    511.18929   0.99920914 
   41500    288.03001    70.911331    137717.39   -41031.652    3955.3986    -44987.05     511.0659    1.0009376 
   41600    292.64988   -173.55991    137635.81   -41026.129    4018.8414    -45044.97     511.6552    1.0015309 
   41700     291.5081   -262.14329    137539.91   -41092.915    4003.1617   -45096.077    512.10224    1.0022292 
   41800    297.58464    195.64504    137807.25   -40974.876    4086.6084   -45061.484    514.51275    1.0002849 
   41900    294.20932    105.66516    138045.38   -40988.313    4040.2565   -45028.569    516.41384   0.99855944 
   42000    292.56179    81.393645    138045.51   -40999.043    4017.6316   -45016.674    518.07269    0.9985585 
   42100    290.91424   0.94424129    137783.14   -41014.385    3995.0065   -45009.392    518.92819      1.00046 
   42200    294.75766   -7.7987819    137892.17    -40985.33    4047.7866   -45033.116    520.35185   0.99966892 
   42300    289.19535    83.366922    137958.31   -41086.954    3971.4017   -45058.356    521.81885   0.99918964 
   42400    292.51478   -223.99428    138274.63   -41007.471    4016.9861   -45024.457    523.85198   0.99690387 
   42500    288.99075   -54.841493    138082.45   -41135.698    3968.5921    -45104.29    525.18953   0.99829133 
   42600    298.38775    216.81488    138189.86    -41123.43    4097.6372   -45221.067    526.58244   0.99751545 
   42700    287.37371    76.796723    138239.39   -41257.877    3946.3858   -45204.263    527.03633     0.997158 
   42800    285.12021    42.373067    138093.26    -41240.32    3915.4395    -45155.76    527.89915    0.9982132 
   42900    289.70538   -169.93666     138125.7   -41172.201    3978.4057   -45150.607    529.59806    0.9979788 
   43000    287.42334    158.71663    138253.45   -41146.103    3947.0674   -45093.171    530.97292   0.99705662 
   43100    283.89065   -69.858693    137963.71   -41132.767    3898.5544   -45031.321     531.5771   0.99915057 
   43200    291.42257    49.611083     137815.3   -41101.779    4001.9872   -45103.766    532.94392    1.0002265 
   43300    288.18693    39.988226     138007.7   -41150.149    3957.5534   -45107.702     535.3859   0.99883206 
   43400    288.13039    51.844941    138035.49   -41095.639    3956.7771   -45052.417    536.49363   0.99863101 
   43500    293.70156   -17.290965    138088.89   -41118.239    4033.2836   -45151.523    538.29605   0.99824479 
   43600    294.25102    -91.03009    138115.84   -41115.487    4040.8292   -45156.317    539.07969   0.99805005 
   43700    296.45062   -163.21329    137818.32   -41062.554    4071.0354    -45133.59    538.81874    1.0002046 
   43800    289.64295   -186.63472     137847.9   -41098.571    3977.5484   -45076.119    539.89253   0.99998995 
   43900    291.20313    175.63005    137917.01   -41147.237    3998.9737    -45146.21    541.66091   0.99948887 
   44000    290.74168    120.55886    137587.35   -41084.426    3992.6369   -45077.063    541.97088    1.0018837 
   44100    295.24148    235.87473     137459.2   -40992.732    4054.4307   -45047.163    543.01292    1.0028177 
   44200     290.8454   -42.606934    137299.13   -41091.006    3994.0611   -45085.067    544.84739    1.0039868 
   44300    287.01884     34.52041    137852.07   -41159.794    3941.5126   -45101.306    547.44513   0.99995975 
   44400    286.81468    81.154141    137959.03   -41139.134    3938.7089   -45077.842    548.44945   0.99918446 
   44500    295.58597    -10.71688    137920.97   -41068.681    4059.1615   -45127.843    549.15663   0.99946014 
   44600    287.12465    28.834084    137643.32   -41190.765    3942.9656    -45133.73    549.91682    1.0014763 
   44700    288.22046    255.58225    138245.58   -41161.612    3958.0139   -45119.626    552.70893   0.99711337 
   44800    292.92782    1.5547594    138126.26   -41146.588    4022.6582   -45169.246    552.63277   0.99797472 
   44900    289.09394   -104.12975    137984.11   -41144.432    3970.0091   -45114.441    553.09276   0.99900286 
   45000    288.47744    107.67623    138257.01   -41112.811    3961.5429   -45074.354    555.14632   0.99703095 
   45100    294.73017   -169.21675    138244.58   -41119.236    4047.4092   -45166.645    556.15121   0.99712057 
   45200    286.82526    232.65793    138346.18   -41171.032    3938.8543   -45109.887    557.37055   0.99638832 
   45300    287.89918   -29.923587    138161.91   -41141.563     3953.602   -45095.165    558.00585   0.99771725 
   45400    287.91503    132.14596    138253.83   -41145.866    3953.8196   -45099.685    559.49849   0.99705386 
   45500    293.24276   -111.77696    138335.74   -41114.518    4026.9831   -45141.501     560.1348   0.99646352 
   45600    292.07485    168.52399    138159.42   -41114.944    4010.9447   -45125.889    560.68175   0.99773519 
   45700     292.5893    11.728716    138370.09   -41015.848    4018.0095   -45033.858    562.44477   0.99621612 
   45800    292.46871   -247.47449    138226.87    -41089.81    4016.3534   -45106.163     563.1702   0.99724835 
   45900    292.03936   -39.832387    138263.89   -41056.097    4010.4574   -45066.555     564.8343   0.99698132 
   46000    294.17516   -185.00257    138083.87   -41074.448    4039.7874   -45114.235    566.52067   0.99828113 
   46100    285.56763   -41.768331    137916.24   -41090.016    3921.5837     -45011.6    568.37772   0.99949447 
   46200    290.68449    15.205072    137680.09   -41023.712    3991.8515   -45015.563    570.25139    1.0012088 
   46300     293.7288   -13.265857     137864.4   -41068.219    4033.6577   -45101.877    572.20167   0.99987027 
   46400    293.50864   -156.03186    138135.19   -41049.318    4030.6343   -45079.953    573.96798   0.99791018 
   46500    293.35516    164.47105    137853.94    -41037.71    4028.5267   -45066.237    573.84566   0.99994614 
   46600    292.13104   -68.469013    137529.04   -40970.463    4011.7164   -44982.179    574.36553    1.0023084 
   46700    292.93821   -184.91311    137693.29   -40918.551    4022.8009   -44941.352    576.42714    1.0011128 
   46800    293.22905     166.7912    137591.94   -40866.387    4026.7949   -44893.182    577.79171    1.0018502 
   46900    294.48664    50.258933    137745.53   -40898.004    4044.0648   -44942.069    580.54963    1.0007331 
   47000    290.53061    155.84371     137645.5   -40986.166    3989.7383   -44975.904    581.47064    1.0014604 
   47100    293.09815   -211.27861    137783.08    -40980.14    4024.9973   -45005.137    584.69698    1.0004604 
   47200    294.69945    276.57246    138032.61   -41034.613    4046.9873     -45081.6    587.45828   0.99865183 
   47300    293.21684   -77.415198    138112.33   -40973.146    4026.6272   -44999.774    588.86909   0.99807538 
   47400    293.42047    5.3135329    138013.18     -40992.1    4029.4235   -45021.524    589.04976   0.99879238 
   47500    295.88922    52.001012    137877.19   -40965.897    4063.3259   -45029.223    590.31802   0.99977754 
   47600    295.63522    218.67045    138236.11   -40958.103    4059.8378   -45017.941    593.08366   0.99718171 
   47700    294.27032    88.637102       138430   -40987.152    4041.0942   -45028.246    593.82473     0.995785 
   47800    294.09079   -282.68928    138542.14   -41100.839    4038.6288   -45139.468    594.72226   0.99497901 
   47900    297.90848   -59.483034    138370.62   -41048.591    4091.0556   -45139.647    595.01918   0.99621234 
   48000    297.29536    53.272578    138379.85   -41027.797    4082.6358   -45110.433    594.97398    0.9961459 
   48100    295.94933    -151.0739    138017.41    -41083.46    4064.1514   -45147.612    593.61832   0.99876182 
   48200    292.22756    114.43012    138255.93    -41067.69    4013.0418   -45080.732    594.75139   0.99703872 
   48300    289.63807   -374.38537    138476.01   -41067.275    3977.4814   -45044.757    596.00695   0.99545417 
   48400    292.57663    -20.98568    138309.98    -41109.59    4017.8355   -45127.425    595.89719   0.99664907 
   48500    285.77134    38.127071    138432.67   -41107.084    3924.3812   -45031.465     597.0281    0.9957658 
   48600    291.36177    170.83995    138578.64    -41131.46    4001.1522   -45132.612    599.30817   0.99471691 
   48700    289.15764    -56.91762    138804.76   -41164.989    3970.8839   -45135.872    601.72301   0.99309648 
   48800    288.78414     200.5032    138363.56   -41125.152    3965.7547   -45090.907    602.52041   0.99626318 
   48900     289.0488    -55.37383    138367.87   -41130.804    3969.3892   -45100.193    604.01278   0.99623215 
   49000    284.81921    10.013204    138418.71   -41089.267     3911.306   -45000.573    604.90503   0.99586621 
   49100    286.97612   -346.25148    138319.28   -41129.704    3940.9259    -45070.63    606.18113   0.99658211 
   49200     287.7734    27.369329    137857.58   -41171.968    3951.8747   -45123.843    605.35142   0.99991972 
   49300     291.7376    171.34721    137973.52   -41075.364    4006.3134   -45081.677    605.75267   0.99907952 
   49400    285.58861    145.35366    138147.27   -41158.184    3921.8718   -45080.056    607.54697   0.99782292 
   49500    290.89224    143.54141    138051.68   -41091.071    3994.7044   -45085.776    608.73351   0.99851385 
   49600    283.71113    232.22389    138275.65   -41076.426    3896.0892   -44972.516    610.39863   0.99689656 
   49700    294.78745    37.438908    138452.26   -41044.761    4048.1957   -45092.957    611.88462   0.99562486 
   49800    294.84273    181.15428    138701.52   -41011.921    4048.9549   -45060.876    613.64622   0.99383566 
   49900    294.05925   -61.596091    138738.43   -41015.911    4038.1956   -45054.107    615.06391   0.99357123 
   50000    291.02085    9.9037961    138394.06   -41083.236    3996.4706   -45079.707    615.47382   0.99604356 
   50100    291.90494   -212.47078     138587.9   -41085.261    4008.6115   -45093.873    616.69042   0.99465048 
   50200    291.45646   -222.95171    138674.93   -41090.256    4002.4526   -45092.708     616.8663   0.99402623 
   50300    295.94525    362.53344    139057.25   -41036.084    4064.0953   -45100.179    618.84294    0.9912933 
   50400    290.57895   -1.8229567    139232.27   -41072.055    3990.4022   -45062.457     621.5615   0.99004717 
   50500    292.12538   -92.268939    138981.33   -41058.714    4011.6386   -45070.353     621.9723    0.9918348 
   50600    287.69423   -195.57736    138855.63   -41111.626    3950.7875   -45062.413    622.04725   0.99273264 
   50700    294.99138   -124.91151    138533.69    -40973.51    4050.9962   -45024.506     621.8792   0.99503965 
   50800    291.94175    286.92105    138598.38   -40985.445    4009.1169   -44994.562    623.59448   0.99457525 
   50900    291.82632   -221.78337    138462.78   -41020.977    4007.5318   -45028.509    625.02538   0.99554923 
   51000    291.06398   -151.66142    138220.57   -41042.256    3997.0628   -45039.319    625.30936   0.99729377 
   51100    294.95357    -20.29739     137957.3   -41040.416    4050.4771   -45090.893     626.7773   0.99919697 
   51200    301.54088    99.028197    138028.12   -40878.138    4140.9379   -45019.075    626.51128    0.9986843 
   51300    293.35701   -180.13864    138293.33   -40986.151    4028.5521   -45014.703    628.07237   0.99676907 
   51400    283.77601   -19.142251    138163.08   -41151.702    3896.9801   -45048.682    628.93458   0.99770877 
   51500     286.9112    29.868567    138258.52   -41089.827    3940.0344   -45029.861    629.80962   0.99702005 
   51600    295.40822    77.413702    138459.88   -41094.604    4056.7206   -45151.324     632.1866   0.99557014 
   51700    294.02661   -229.08072    138391.47   -41089.293    4037.7475    -45127.04    633.61727   0.99606225 
   51800    288.65169    199.28685    138302.14   -41132.478    3963.9359   -45096.414    635.47776   0.99670563 
   51900    285.98749    119.13154    138473.43   -41184.884    3927.3495   -45112.233    637.64004   0.99547265 
   52000    294.22192   -127.85165    138435.91   -41128.279    4040.4296   -45168.709    637.84132   0.99574249 
   52100    292.44818    66.744907    138456.45   -41147.135    4016.0715   -45163.207    639.40562   0.99559474 
   52200    291.93674    13.196896    138616.44   -41170.859    4009.0482   -45179.907    641.29823   0.99444562 
   52300    291.10752   -114.39293    138541.67   -41137.906    3997.6608   -45135.567    642.21572   0.99498238 
   52400    288.97155   -1.1358361    138457.51   -41085.969    3968.3283   -45054.298     643.8453   0.99558713 
   52500    289.93676   -192.43182    138141.35   -41038.628    3981.5833   -45020.212    644.79406   0.99786574 
   52600    284.32474   -168.28711    137923.27   -41106.941    3904.5156   -45011.457    645.52783   0.99944354 
   52700    292.60438   -46.003797     138105.6   -41121.351    4018.2165   -45139.568    648.30274   0.99812399 
   52800    291.32276   -195.17567    138180.95   -41136.988    4000.6166   -45137.605     649.4079   0.99757973 
   52900    286.80738   -225.07577    137895.43   -41195.138    3938.6087   -45133.747    649.73942   0.99964526 
   53000    283.51395   -34.830354    137900.08    -41242.82    3893.3814   -45136.201    651.02358   0.99961156 
   53100    289.32243    -201.5361    137714.19    -41243.22    3973.1469   -45216.367    652.39867    1.0009609 
   53200    290.47153    16.854201    137691.34   -41100.094     3988.927   -45089.021    653.03127     1.001127 
   53300    291.57728   -19.000149    137996.73   -41126.953    4004.1119   -45131.064    656.45642   0.99891146 
   53400    292.83319    36.960644    138045.18   -40980.874    4021.3588   -45002.232    657.77898   0.99856086 
   53500    293.94536   -31.229011    137750.96   -41008.882    4036.6317   -45045.514    657.79585    1.0006937 
   53600    292.10249    304.06739    138247.36   -41003.532    4011.3243   -45014.856    660.15589   0.99710052 
   53700     289.4301    129.95391    138164.03   -41124.877    3974.6255   -45099.503    661.76497   0.99770194 
   53800    293.57595    19.767189    137975.55    -41212.42    4031.5588   -45243.979    662.78769   0.99906482 
   53900    285.33707   -8.6641964    138330.78   -41264.969    3918.4175   -45183.387    665.89092   0.99649925 
   54000    294.31344   -111.09509    138387.71    -41137.06    4041.6863   -45178.746    667.46503   0.99608927 
   54100    290.83554    251.68689    138097.29   -41100.146    3993.9258   -45094.072    667.31831   0.99818407 
   54200    289.86879   -96.481513    138519.17   -41137.354    3980.6498   -45118.004    669.25404     0.995144 
   54300    293.17952    38.734472    138305.04   -41041.384    4026.1147   -45067.499    669.77151   0.99668468 
   54400    291.66929    74.834515    138432.92   -41131.806    4005.3753   -45137.181    671.86197   0.99576396 
   54500    289.44777   -130.52723     138453.1   -41097.664    3974.8681   -45072.532    672.80935   0.99561887 
   54600    288.65738   -27.301703    138044.57   -41128.249     3964.014   -45092.263    672.14069   0.99856531 
   54700    292.95811   -46.105789    137995.64   -41091.635    4023.0741   -45114.709    673.88741   0.99891939 
   54800    293.61472   -126.03866    137841.13   -41043.327    4032.0911   -45075.418    674.98474    1.0000391 
   54900    290.89036    12.118888       137707   -40993.861    3994.6786   -44988.539    675.49107    1.0010131 
   55000    293.19507    223.81335    137532.89   -40964.428    4026.3282   -44990.756    676.53554    1.0022804 
   55100    294.65268    39.038723    137809.03   -40953.789     4046.345   -45000.134    678.82805     1.000272 
   55200    294.15617    242.03436     137863.4   -40979.252    4039.5266   -45018.779    680.00302   0.99987751 
   55300     295.6362    1.9900726    138022.38   -41013.653    4059.8513   -45073.504    683.01212   0.99872582 
   55400    292.13843    6.7421209    138220.23   -40999.357    4011.8179   -45011.175    684.12849   0.99729622 
   55500     297.4046    127.33111    138160.27   -40985.634     4084.136    -45069.77     686.2508   0.99772907 
   55600    294.18305    78.197191    138246.64   -40931.331    4039.8957   -44971.226    687.41416   0.99710576 
   55700     294.6499     133.1463    138213.75   -41012.106    4046.3068   -45058.412    687.93938   0.99734303 
   55800    295.18081    -7.288262    138048.08   -41113.695    4053.5975   -45167.293     689.5988   0.99853989 
   55900    285.99077    1.8431498    137931.83   -41211.285    3927.3945   -45138.679    690.65224   0.99938151 
   56000    288.77441     170.7252    138002.51   -41170.901    3965.6211   -45136.522     691.5339   0.99886963 
   56100    291.78134   -205.63527    137809.66   -41225.685    4006.9141   -45232.599    692.25338    1.0002674 
   56200     294.6161    262.35981    137745.01   -41141.248    4045.8427    -45187.09    693.82978    1.0007369 
   56300    296.40155   -169.17411    137711.03   -41086.324    4070.3615   -45156.685    695.12771    1.0009839 
   56400    294.91297    26.934576    137905.52   -41027.517    4049.9194   -45077.436    696.92654   0.99957216 
   56500    289.22861    77.147371    137879.71   -41097.575    3971.8584   -45069.433     699.1113   0.99975927 
   56600    292.94921   -135.34923     138011.2   -41073.021    4022.9519   -45095.972    700.96356   0.99880676 
   56700    292.73676   -255.69872    138124.85   -41105.519    4020.0345   -45125.553    703.36496    0.9979849 
   56800    286.12317    141.00973    137972.65   -41035.298    3929.2128   -44964.511     704.6984   0.99908583 
   56900    284.84602       142.21    138248.86   -41091.398    3911.6742   -45003.072    705.97802   0.99708971 
   57000    288.28436    253.58134    138020.63   -41150.484    3958.8915   -45109.376     707.2281   0.99873851 
   57100     284.0719   -86.016683    138061.82   -41262.027    3901.0435   -45163.071    708.21297   0.99844056 
   57200    283.20443   -44.428774    138112.49   -41268.933    3889.1308   -45158.063    711.42956   0.99807426 
   57300    288.52888    23.286734    138087.21   -41232.672    3962.2493   -45194.922    712.70448   0.99825696 
   57400     284.6662   -117.07382    138002.96   -41166.541    3909.2048   -45075.746    713.76325    0.9988664 
   57500    287.86617    308.18136    137807.83   -41210.473    3953.1487   -45163.621    713.60945    1.0002807 
   57600    285.43872    17.726389    137828.91   -41250.322    3919.8135   -45170.135    715.23233    1.0001277 
   57700    295.45201    83.220724    138128.88   -41114.014    4057.3218   -45171.336    717.50031    0.9979558 
   57800     286.7904   -143.45195    138247.98   -41108.061    3938.3755   -45046.437    718.01406    0.9970961 
   57900    285.63673    2.9464667     138243.7   -41144.668    3922.5327   -45067.201    719.09159   0.99712692 
   58000    287.77024   -18.576547    138449.26   -41101.692    3951.8313   -45053.524    720.52991   0.99564644 
   58100    289.33291    94.075272    138660.32   -41033.073    3973.2908   -45006.364     722.5309   0.99413096 
   58200    289.20176    21.624415    138460.63   -41140.811    3971.4897     -45112.3    722.92858   0.99556474 
   58300    286.67791   -210.07774    138376.54   -41146.932    3936.8308   -45083.763    723.75715   0.99616972 
   58400    289.48932     178.9042    138491.55   -41037.819    3975.4388   -45013.258    726.13479   0.99534246 
   58500    287.83256    177.37096    138592.37   -41014.557    3952.6872   -44967.245    728.13897   0.99461837 
   58600    295.63918    319.25321    138852.06   -41007.792    4059.8922   -45067.684    729.05835   0.99275816 
   58700    293.99903   -125.90486    138745.11   -41001.545    4037.3687   -45038.914    729.83421   0.99352342 
   58800    294.19241     129.1827    138568.84   -40954.247    4040.0243   -44994.271    731.32557   0.99478724 
   58900    295.02593    190.76239    138286.11    -41014.02    4051.4706    -45065.49    732.67751   0.99682114 
   59000    291.20143    16.287781    138189.46   -41048.702    3998.9504   -45047.653    734.14252   0.99751832 
   59100    292.17899   -15.334446    138008.83   -41081.288    4012.3748   -45093.662    735.11268   0.99882393 
   59200     290.5186   -96.694182    138199.44   -41085.662    3989.5734   -45075.236     736.2797   0.99744628 
   59300    293.68347     125.4299    138156.58   -41052.276    4033.0352   -45085.312    736.34244   0.99775571 
   59400    287.83185    184.45539    138310.43   -41093.184    3952.6773   -45045.861    737.88506   0.99664584 
   59500    293.34189   -3.0947788     138726.5   -41043.644    4028.3444   -45071.989    740.16208   0.99365671 
   59600    296.05983     -265.299    138402.03   -40979.959    4065.6688   -45045.628    740.28827    0.9959862 
   59700    295.89138   -368.25808    138069.62   -40991.322    4063.3556   -45054.678    740.38081   0.99838416 
   59800    290.86586    42.073701    138045.48   -41089.075    3994.3421   -45083.417    741.75105   0.99855875 
   59900    293.41018    -46.17968    138059.92   -41089.506    4029.2822   -45118.789    743.53322   0.99845428 
   60000    294.03842   -135.73534     138132.2   -41092.234    4037.9097   -45130.143    745.39051   0.99793178 
   60100     287.8919    11.758411    138437.63   -41168.769    3953.5019   -45122.271    748.32934   0.99573015 
   60200    287.24704   -295.11913    138105.39    -41171.31    3944.6463   -45115.956    748.39783   0.99812557 
   60300    293.14655    243.15805    138192.08   -41049.447     4025.662   -45075.109    750.56751   0.99749937 
   60400    287.82692    78.890988    138249.76   -41187.804    3952.6096   -45140.414    751.78004   0.99708325 
   60500    293.03112    5.8976184    138178.58   -41190.282    4024.0768   -45214.358    752.62948   0.99759688 
   60600    291.02443   -121.37235    138166.54   -41086.655    3996.5197   -45083.175     753.7861   0.99768381 
   60700    288.14759    40.154562    137944.26   -41093.086    3957.0132     -45050.1    754.32367   0.99929144 
   60800    291.30527     218.1307    137816.66   -41114.626    4000.3764   -45115.003    754.12944    1.0002166 
   60900    293.47334   -23.182513     138262.4   -41030.307    4030.1496   -45060.456    755.65124   0.99699207 
   61000    289.14296    59.625877    138090.58   -40954.037    3970.6822   -44924.719    756.24748   0.99823259 
   61100    292.47431   -154.38086    138294.89   -40903.508    4016.4303   -44919.939    757.58094   0.99675782 
   61200    296.78119   -38.350252    137842.26    -40953.11    4075.5749   -45028.685     757.1738    1.0000309 
   61300    291.49024    125.49085    137750.01   -40862.847    4002.9165   -44865.764    758.34467    1.0007006 
   61400    298.43625    144.91026    138017.42   -40831.749    4098.3032   -44930.052     762.1428   0.99876173 
   61500    296.15978    24.685263    138225.04   -40850.741    4067.0414   -44917.782    764.59812   0.99726156 
   61600    297.68179   -220.88493       137972   -40994.602    4087.9426   -45082.544    764.98414   0.99909048 
   61700    294.84334   -255.13543    137911.82   -41019.541    4048.9632   -45068.504    765.58445   0.99952649 
   61800    294.73661     237.3681    137984.77   -40992.816    4047.4975   -45040.314     768.0587   0.99899804 
   61900    286.12493   -103.59709    137861.48   -41055.006    3929.2369   -44984.243    768.14637   0.99989148 
   62000    300.06751    260.43724     137799.4   -40962.505    4120.7047   -45083.209    769.70295    1.0003419 
   62100    296.84415   -190.21013    137691.18    -41017.22    4076.4395   -45093.659    770.41167    1.0011282 
   62200    293.24785    121.90588    137689.16   -41039.829     4027.053   -45066.882    771.40912    1.0011428 
   62300    289.08882   -92.723322    137562.63   -41093.842    3969.9388   -45063.781    772.43856    1.0020637 
   62400    293.70232    52.438337    137796.21   -41114.017    4033.2942   -45147.311    774.14131    1.0003651 
   62500    289.88839   -30.900502    137678.44   -41086.493     3980.919   -45067.412    775.53311    1.0012208 
   62600    292.32865    16.678482    137320.48   -41026.788      4014.43   -45041.218    775.08615    1.0038307 
   62700     287.7109    55.992326    137471.49   -41089.035    3951.0163   -45040.051    777.36399     1.002728 
   62800    295.06969    86.898516    137659.91   -41014.479    4052.0717   -45066.551    778.66151    1.0013556 
   62900    294.51617    111.71954    137666.39   -41088.724    4044.4704   -45133.195    780.90331    1.0013084 
   63000     295.5071    104.85243    137613.12   -41077.084    4058.0785   -45135.163    782.13851    1.0016961 
   63100    294.44222    311.99584    138147.82   -41063.916    4043.4548    -45107.37     786.2846   0.99781901 
   63200    290.31597     91.53085    138541.29   -41105.472    3986.7907   -45092.263    788.98458    0.9949851 
   63300    294.13932    50.132594    138391.32   -41173.543    4039.2952   -45212.838    789.53154   0.99606332 
   63400    288.36837    165.77899    138339.17   -41252.638    3960.0451   -45212.683    791.03174   0.99643879 
   63500    284.99512    31.253774     138390.6   -41131.175    3913.7217   -45044.896    791.90434   0.99606848 
   63600    290.41606   -49.212848    138254.39   -41070.483    3988.1652   -45058.648    793.48014   0.99704986 
   63700    287.99023    54.550366    138046.93   -41160.831    3954.8522   -45115.684    793.14919    0.9985482 
   63800    291.60676   -168.29321    138061.55   -41139.218    4004.5166   -45143.734    794.62598   0.99844246 
   63900     295.7322    -91.50817    138163.11   -41132.578    4061.1696   -45193.748    797.86402   0.99770853 
   64000    293.40096   -5.4248026    138574.54   -41223.081    4029.1556   -45252.237    799.66541   0.99474636 
   64100     292.8512   -21.432451     138349.6   -41199.526    4021.6061   -45221.132    800.00582   0.99636365 
   64200    292.27077    3.7604704    138335.74   -41239.843    4013.6352   -45253.478    801.11737   0.99646352 
   64300    286.55592    32.110177     138135.3   -41285.584    3935.1555    -45220.74    801.20937   0.99790942 
   64400    281.88048    34.443516     138060.3   -41279.759    3870.9496   -45150.708    801.52616    0.9984515 
   64500    287.83976   -124.49112    138091.05   -41226.893    3952.7859   -45179.679    803.58299   0.99822919 
   64600    293.30169    19.656436    137799.79   -41161.345    4027.7925   -45189.137    803.35348    1.0003391 
   64700    295.13613    90.232266    137914.44   -41120.274     4052.984   -45173.258    804.02369   0.99950749 
   64800    290.54534    85.193492     138191.7   -41074.667    3989.9406   -45064.608    805.72084   0.99750217 
   64900     286.0522   -5.4768842    138116.89   -41067.904    3928.2381   -44996.143    806.80585   0.99804245 
   65000     289.3315     123.4988    137776.86   -41098.435    3973.2714   -45071.707    807.20873    1.0005056 
   65100    290.90132   -128.91215    137761.91   -41161.864    3994.8291   -45156.693     808.4586    1.0006141 
   65200    284.16867    98.537333    137750.53   -41116.988    3902.3724    -45019.36     810.2462    1.0006968 
   65300    287.64869    65.061078    138038.09   -41112.506     3950.162   -45062.668    812.64171   0.99861218 
   65400    290.10012    38.310576    138010.73   -41134.155    3983.8266   -45117.981    812.46387   0.99881015 
   65500    295.21113    204.23779     137735.8   -41060.457     4054.014   -45114.471     812.5648    1.0008039 
   65600    296.57187     112.2958    138031.51   -40994.477    4072.7004   -45067.177    815.25077   0.99865977 
   65700    292.85382    88.143295    138153.21   -41026.651    4021.6421   -45048.293      817.385   0.99778008 
   65800    292.80732     140.1344    138156.21   -41052.623    4021.0034   -45073.626    817.61859   0.99775841 
   65900    295.83825   -198.65577    138318.13   -41037.495     4062.626   -45100.121    819.42567   0.99659039 
   66000    288.37037    62.090015    138694.67   -41118.005    3960.0726   -45078.078    822.34022   0.99388472 
   66100    290.33733    45.042479    138328.54   -41053.576    3987.0841    -45040.66    822.02369   0.99651535 
   66200    296.04965   -130.00937    138508.71   -41012.466    4065.5291   -45077.995    823.16237   0.99521912 
[...]
   84600    290.38675    64.638291    138402.36   -41171.891    3987.7627   -45159.654    1038.3901   0.99598387 
   84700    283.03254   -162.25767    138476.75   -41188.755    3886.7704   -45075.526    1039.1969   0.99544884 
   84800     291.1142    24.987307    138419.05   -41082.526    3997.7525   -45080.279    1040.4166    0.9958638 
   84900    288.52787   -329.18136    138064.07   -41120.804    3962.2355   -45083.039    1039.4166   0.99842428 
   85000    287.14014   -169.72864    137768.97   -41143.953    3943.1784   -45087.132    1038.8613    1.0005629 
   85100    288.97701    114.27662    137920.87    -41142.27    3968.4034   -45110.673    1040.2398   0.99946092 
   85200    291.79701   -59.116913    137935.04   -41047.406    4007.1293   -45054.535    1041.1389   0.99935824 
   85300    292.42199   -22.559002    137885.02   -41090.819    4015.7119   -45106.531    1042.1145   0.99972073 
   85400    292.41179    24.707989    138077.66    -41100.15    4015.5718   -45115.722     1044.956   0.99832598 
   85500    287.66062    309.01691    138188.17   -41021.835    3950.3259   -44972.161    1046.4391   0.99752765 
   85600    289.60383   -131.73619     138443.9   -41039.684    3977.0113   -45016.695    1049.5463   0.99568504 
   85700    289.10918    293.17487    138556.84   -41079.008    3970.2184   -45049.226    1051.5247   0.99487344 
   85800    288.51286   -214.09598    138548.29   -41066.322    3962.0294   -45028.352    1051.1479   0.99493478 
   85900    292.82842   -107.49095    138453.89   -41088.556    4021.2932   -45109.849    1052.0683   0.99561317 
   86000    288.29656   -137.77548    138158.48    -41188.07     3959.059   -45147.129    1050.9999   0.99774197 
   86100     291.7384    8.9034243    138143.01   -41121.935    4006.3244    -45128.26    1051.3418   0.99785369 
   86200    289.74352   -92.925526    137742.81   -41166.823    3978.9295   -45145.753    1050.3421    1.0007529 
   86300    295.53069     149.3073    137925.96   -41151.178    4058.4024    -45209.58    1052.3345   0.99942405 
   86400    289.52683   -11.844218    137878.04   -41183.285    3975.9538   -45159.239    1052.5147    0.9997714 
   86500     292.1061    82.200403    138407.69    -41098.56    4011.3739   -45109.934    1057.3672   0.99594551 
   86600     290.5575    38.735295    138192.84   -41117.957    3990.1075   -45108.065    1056.1533   0.99749393 
   86700    289.81366    64.469618    138252.13   -41102.671    3979.8927   -45082.563    1057.1194    0.9970661 
   86800    295.85344   -68.632723    138643.64   -41057.336    4062.8345    -45120.17    1059.6897   0.99425054 
   86900    288.43903   -184.07484    138516.71    -41090.29    3961.0155   -45051.305    1060.9729   0.99516162 
   87000    289.40962   -115.31473    138368.94   -41151.525    3974.3442   -45125.869    1061.8762   0.99622441 
   87100    288.83063    63.267636    138116.14   -41119.652    3966.3932   -45086.045    1063.4197   0.99804784 
   87200    291.97694   -25.450183    138136.41   -41075.023    4009.6002   -45084.623    1064.8216   0.99790141 
   87300     292.2502    138.12852     138306.8   -41018.382    4013.3527   -45031.734    1066.7498   0.99667204 
   87400    288.81782    13.786349    138283.53   -41063.645    3966.2173   -45029.862    1068.4493   0.99683974 
   87500    291.84681    229.57341     138132.4   -41046.945    4007.8131   -45054.758    1068.9238   0.99793034 
   87600    292.30403   -20.610494    137813.93   -41076.626     4014.092   -45090.718    1067.9019    1.0002364 
   87700    290.36306    227.25535    137769.09   -41096.142    3987.4373    -45083.58    1069.1842     1.000562 
   87800    292.56236     170.1826    137980.02   -41019.688    4017.6395   -45037.327    1071.5097   0.99903247 
   87900    295.04465    79.756895    138196.19    -40993.06    4051.7277   -45044.787    1073.1433   0.99746974 
   88000    287.03093    25.632638    138058.37   -41112.998    3941.6786   -45054.677    1073.8503   0.99846546 
   88100    288.67556      114.516    138385.79   -41039.941    3964.2637   -45004.204    1077.5619   0.99610309 
   88200    297.00719   -131.66036    138191.92   -40964.049    4078.6785   -45042.727    1075.9314   0.99750058 
   88300    292.61471    75.700143    138184.48   -40991.741    4018.3585   -45010.099    1077.9424   0.99755423 
   88400    292.27565   -227.70712    137974.92   -41082.855    4013.7023   -45096.557    1078.1948   0.99906937 
   88500    289.18958   -111.31106    137897.05   -41104.434    3971.3224   -45075.756    1080.4639   0.99963354 
   88600    286.27951   -64.313339     137685.1    -41077.46    3931.3597   -45008.819    1081.0791    1.0011724 
   88700     295.3013    69.286461    137656.29   -41043.807    4055.2523   -45099.059    1081.8747    1.0013819 
   88800    293.48528    58.913182    138286.44   -41080.157    4030.3136   -45110.471    1086.7465   0.99681878 
   88900    288.45846   -154.15151    138391.75   -41145.269    3961.2823   -45106.551    1088.3835   0.99606021 
   89000    294.94855    122.54524    138209.08   -41008.649    4050.4081   -45059.057     1088.274   0.99737668 
   89100    293.46457   -194.75329    138454.35   -41004.897    4030.0291   -45034.926    1092.1378   0.99560988 
   89200    290.41338    4.2555588    138235.75   -41067.451    3988.1284   -45055.579    1092.1309   0.99718429 
   89300    290.83955    182.57971    138185.84   -41018.712    3993.9809   -45012.693    1093.3919   0.99754441 
   89400    295.00486   -3.8052418    137861.94   -41053.123    4051.1814   -45104.304    1091.5024   0.99988812 
   89500    288.02357     -200.791     138024.5   -41073.098    3955.3102   -45028.408    1093.7042   0.99871048 
   89600    297.53695    104.67003    138095.42    -41023.27    4085.9536   -45109.224    1094.2564    0.9981976 
   89700    290.12109    364.55247    138623.23   -41090.605    3984.1145    -45074.72    1096.5169   0.99439692 
   89800    291.23794   -140.42848    138672.34    -41099.52    3999.4518   -45098.972    1097.4433   0.99404475 
   89900    287.29096    212.11365    138584.89   -41165.121    3945.2495    -45110.37    1099.2344   0.99467202 
   90000    294.40229  -0.36050226    138598.47   -41047.386    4042.9065   -45090.293    1101.1394   0.99457457 
   90100    285.86899   -20.925831     138646.8   -41092.015    3925.7222   -45017.737    1101.6477   0.99422787 
   90200    287.88428   -147.65836    138501.07   -41189.327    3953.3973   -45142.724    1103.1615   0.99527401 
   90300    288.28854   -178.74104    137977.79   -41179.424    3958.9489   -45138.373    1101.7051   0.99904862 
   90400    293.06029    82.140414    137944.58   -41042.449    4024.4774   -45066.927    1102.6996   0.99928912 
   90500    292.95746   -173.03162    137972.54   -41047.192    4023.0653   -45070.258    1103.4221   0.99908663 
   90600    294.27294    102.29645    137960.19   -41011.244    4041.1302   -45052.374     1103.118   0.99917603 
   90700     295.0458    203.71643    137956.56   -40992.685    4051.7435   -45044.429    1104.5913   0.99920236 
   90800    290.93949    122.94563    137489.54    -41050.12    3995.3533   -45045.474    1103.0174    1.0025964 
   90900    290.24629   -146.96992    137591.06   -41071.756    3985.8338    -45057.59    1105.4176    1.0018567 
   91000    290.69825   -23.811804     137652.4   -41025.507    3992.0404   -45017.548    1108.0252    1.0014102 
   91100    291.61872   -6.8098989    137699.39    -41005.74    4004.6808   -45010.421    1110.0806    1.0010684 
   91200    289.99102    154.46656    137575.73   -41046.106    3982.3283   -45028.434    1109.4787    1.0019683 
   91300    287.77026    148.98477    137813.57   -41093.087    3951.8315   -45044.918    1112.2719     1.000239 
   91400    293.19348     135.9686    137955.55   -41061.621    4026.3064   -45087.927    1113.9147   0.99920963 
   91500    294.14643   -123.73145    138264.03   -41071.736    4039.3929   -45111.129    1117.0141   0.99698033 
   91600    287.66471    6.0033665    138229.53   -41103.015     3950.382   -45053.397    1119.0952   0.99722916 
   91700     289.1815   -153.74898    138478.81   -41166.677    3971.2116   -45137.889    1122.4063   0.99543404 
   91800     283.3947   -196.35459    138193.36   -41191.231    3891.7438   -45082.975    1121.2604   0.99749018 
   91900    288.68404    7.9442602    138153.92   -41106.348    3964.3801   -45070.728    1122.7649   0.99777496 
   92000     289.8733   -19.963472    137718.35   -41090.184    3980.7118   -45070.895    1122.2919    1.0009306 
   92100    297.56024   -134.83916    137869.57   -40992.174    4086.2733   -45078.448     1124.698    0.9998328 
   92200    295.64077   -66.050865    138094.52   -40940.379    4059.9141   -45000.293    1126.8945   0.99820411 
   92300    290.50723   -8.2085886       138073   -41058.623    3989.4172    -45048.04    1127.6931   0.99835969 
   92400    294.69703   -47.766545    138100.14   -40988.836    4046.9541   -45035.791    1127.3906   0.99816348 
   92500    293.72959    106.57865    138012.48   -40993.631    4033.6687   -45027.299    1127.9765   0.99879745 
   92600    291.05988   -93.451172    138326.19   -40980.548    3997.0066   -44977.555    1132.2046    0.9965323 
   92700    288.30556    152.83197     138368.4   -41095.288    3959.1826   -45054.471    1133.8219   0.99622828 
   92800     292.4686    -78.27425    138367.78   -41050.798    4016.3519    -45067.15    1135.7625   0.99623277 
   92900    297.71446     125.8886    138437.85   -41018.113    4088.3912   -45106.504    1137.7249   0.99572851 
   93000    293.18411   -239.28769    138465.52   -41027.184    4026.1777   -45053.361    1138.5774   0.99552957 
   93100    292.66435   -190.47437    138222.75   -41025.672    4019.0401   -45044.712    1138.5331   0.99727807 
   93200     293.0773    172.56916    138026.24   -40975.646    4024.7109   -45000.357    1139.4925   0.99869792 
   93300    295.48402   -154.75975       138058    -41041.88    4057.7615   -45099.641    1140.5506   0.99846818 
   93400    293.70598    20.683991    137677.42   -41114.816    4033.3443    -45148.16    1139.2638    1.0012282 
   93500    288.54038    143.96927    137621.11   -41129.974    3962.4073   -45092.381    1139.9623    1.0016379 
   93600    290.85558   -24.389377    137576.14   -41128.549    3994.2009    -45122.75    1140.4919    1.0019653 
   93700    286.97741    19.483473    137943.86   -41134.432    3940.9436   -45075.376    1143.9275    0.9992943 
   93800    295.04061    96.192323    138127.21   -41089.556    4051.6722   -45141.228      1145.93   0.99796786 
   93900    290.71726    52.049973    138365.13   -41124.185    3992.3015   -45116.486    1149.7727   0.99625187 
   94000    285.36173    11.121209    138187.79   -41191.265    3918.7561   -45110.021    1150.1742   0.99753038 
   94100    290.41698    75.186315    138316.76   -41195.833    3988.1778   -45184.011     1151.894   0.99660022 
   94200    295.27009   -233.35457    138573.64   -41160.106    4054.8237    -45214.93    1154.6782   0.99475281 
   94300     292.1731   -209.07731    138345.22   -41120.901    4012.2939   -45133.195    1154.7196   0.99639519 
   94400    295.01119   -182.55507    138513.75   -41175.142    4051.2683    -45226.41    1157.8981   0.99518292 
   94500     292.4908   -211.08443    138030.32   -41257.655    4016.6567   -45274.311    1156.6552   0.99866838 
   94600     289.1145    121.39843    138106.39   -41270.649    3970.2914    -45240.94    1157.5611   0.99811834 
   94700    290.58369   -148.63535    138355.28   -41133.324    3990.4673   -45123.791    1158.9527    0.9963228 
   94800     290.6857   -33.208056    138186.79   -41103.741    3991.8681   -45095.609    1158.4591   0.99753761 
   94900    293.13034    96.604376     138256.4   -41117.082    4025.4394   -45142.522     1159.884   0.99703533 
   95000    289.70273    36.825791     138430.1   -41110.692    3978.3694   -45089.062    1162.0168   0.99578428 
   95100    293.89048   -191.05858    138414.62   -41017.706     4035.878   -45053.584    1163.0966   0.99589561 
   95200     289.9212   -62.790593    138018.43   -41060.211    3981.3695   -45041.581    1161.1245   0.99875441 
   95300    289.65973   -17.400775    138015.84   -41056.632    3977.7789   -45034.411    1163.5729   0.99877317 
   95400    293.12355   -137.29659    138206.63   -41093.325    4025.3461   -45118.671    1166.0558   0.99739437 
   95500    287.47317    121.32411    138273.35   -41130.072    3947.7517   -45077.824    1168.2967   0.99691315 
   95600    293.44333    108.47969    138386.36   -41116.281    4029.7375   -45146.019     1170.727   0.99609904 
   95700      287.074    194.58278     138506.9    -41092.04    3942.2701    -45034.31    1171.7464   0.99523215 
   95800    295.01387    85.821312    138401.99   -41113.584    4051.3051   -45164.889    1172.8974   0.99598655 
   95900    288.04831   -93.956592    138456.84   -41098.404    3955.6499   -45054.053    1174.0613   0.99559193 
   96000    288.07301    -170.9517    137904.04   -41032.204    3955.9891   -44988.193    1171.1436    0.9995829 
   96100    292.81958    126.98263     138057.4   -41000.854    4021.1717   -45022.026    1173.7379   0.99847249 
   96200    292.35006    16.642853    138207.67   -41027.756    4014.7241    -45042.48    1175.8812   0.99738687 
   96300     291.1299    162.88742    138239.16    -41065.16    3997.9681   -45063.128    1177.5548   0.99715967 
   96400    294.11063     -14.6331     138415.2   -41040.185    4038.9013   -45079.086    1179.6871   0.99589144 
   96500     295.7611   -194.97319    138526.28   -41017.203    4061.5665   -45078.769    1180.9571   0.99509286 
   96600    296.78863   -203.48363    138194.25   -41017.703    4075.6772    -45093.38    1181.5882   0.99748375 
   96700    295.22437   -42.257196     138518.8   -40963.868    4054.1957   -45018.064    1184.4088   0.99514661 
   96800    298.83233    117.85088    138600.33   -40936.769    4103.7425   -45040.511    1185.0827   0.99456125 
   96900    291.06852   -39.043114    138393.93   -41019.914    3997.1252   -45017.039    1185.2758   0.99604449 
   97000    291.55481   -270.62398     138053.1   -41052.381    4003.8032   -45056.184     1184.338   0.99850362 
   97100    287.44318   -109.83762    137944.63    -41064.85    3947.3399    -45012.19    1184.4226   0.99928874 
   97200    289.44376    127.02514    138450.27   -41064.109     3974.813   -45038.922     1188.175   0.99563918 
   97300    289.56466   -68.739691    138574.41     -41088.5    3976.4732   -45064.973    1191.1469   0.99474725 
   97400    286.95953     42.59486    138707.04   -41041.974    3940.6981   -44982.672    1192.0033    0.9937961 
   97500    293.92767    212.58294       138497   -41053.399    4036.3887   -45089.788    1191.8197   0.99530329 
   97600    293.43175    417.18611    138519.38   -41123.621    4029.5785   -45153.199    1194.0228   0.99514244 
   97700    289.19618    13.857632    138392.98       -41130    3971.4131   -45101.413    1194.1419   0.99605134 
   97800    286.21951    106.89937    138197.63    -41131.55    3930.5358   -45062.086    1195.5405   0.99745933 
   97900    297.63193    78.338866    138293.71   -40981.051    4087.2578   -45068.309    1198.2793   0.99676635 
   98000    296.42949    124.83495    138368.15    -41017.61    4070.7453   -45088.355    1200.4532   0.99623013 
   98100    291.65033    206.22116    138390.37   -40991.537    4005.1149   -44996.652    1201.9054   0.99607013 
   98200    291.85291     104.3605    138444.94   -40977.538    4007.8969   -44985.435     1204.101   0.99567755 
   98300    293.81334   -14.697138    138313.28   -40954.321    4034.8187   -44989.139    1203.5269   0.99662534 
   98400    289.77677   -60.630024     137894.6   -41020.364    3979.3861    -44999.75     1200.576   0.99965128 
   98500    292.04891    94.477681    138061.76   -40985.629    4010.5885   -44996.217    1201.7518     0.998441 
   98600    289.79819   -12.347105     138221.4   -41036.654    3979.6802   -45016.334    1205.7617    0.9972878 
   98700     294.3122   -96.901169    138082.93   -40982.399    4041.6694   -45024.069    1205.5732    0.9982879 
   98800    290.59556    7.1820235    137919.05   -41019.887    3990.6303   -45010.517    1206.5523    0.9994741 
   98900    293.93503   -20.422972    138258.58   -40951.197    4036.4899   -44987.687    1210.1073   0.99701963 
   99000    290.69539      5.94878    137853.18   -40993.192    3992.0012   -44985.193    1208.9297   0.99995165 
   99100    290.23614    398.46705    137964.15   -41006.434    3985.6945   -44992.128    1210.8675   0.99914738 
   99200    290.00432    242.51738    138403.21   -40987.782     3982.511   -44970.293     1214.458   0.99597774 
   99300    294.35835    44.408324    138137.26   -40971.022    4042.3031   -45013.325    1214.0147   0.99789523 
   99400    294.75199   -26.272246    137981.78   -40937.659    4047.7088   -44985.367    1214.5884   0.99901968 
   99500    294.24078    96.356448     137958.9   -40978.571    4040.6885   -45019.259    1215.0667   0.99918537 
   99600    289.39524    165.60761    137748.12   -41039.684    3974.1468    -45013.83     1215.993    1.0007143 
   99700    291.40519   -42.701271    137790.18   -41043.379    4001.7485   -45045.128    1218.0603    1.0004089 
   99800    288.44493   -82.952553    137859.31   -41049.591    3961.0965   -45010.687    1219.0225   0.99990719 
   99900    294.40493    112.87192    137855.83   -41018.991    4042.9428   -45061.934    1219.2135   0.99993246 
  100000    293.21877    81.888273    138080.72   -41032.704    4026.6537   -45059.357     1222.545   0.99830387 
  100100    290.99072   -124.52006    138298.05     -41056.4    3996.0568   -45052.457    1225.8974   0.99673509 
  100200    287.97581    66.431831     137811.2   -41032.175    3954.6542   -44986.829    1224.7027    1.0002562 
  100300    288.64898   -74.798824    137615.63   -41090.767    3963.8986   -45054.665    1226.7768    1.0016778 
  100400    289.09629    36.465753     137753.7   -41053.063    3970.0414   -45023.104    1229.1017    1.0006738 
  100500    285.23842   -44.683983     137423.5    -41094.55    3917.0628   -45011.613    1229.3119    1.0030782 
  100600    293.32145    69.186237    137448.53   -41058.367    4028.0637   -45086.431    1230.2302    1.0028955 
  100638      291.292      345.365    137687.36    -41051.26    4000.1942   -45051.454    1232.0707    1.0011559 
Loop time of 120.442 on 6 procs for 100000 steps with 4608 atoms

Performance: 358.678 ns/day, 0.067 hours/ns, 830.274 timesteps/s
99.1% CPU use with 6 MPI tasks x no OpenMP threads

MPI task timing breakdown:
Section |  min time  |  avg time  |  max time  |%varavg| %total
---------------------------------------------------------------
Pair    | 102.16     | 102.74     | 103.79     |   5.0 | 85.30
Neigh   | 7.1539     | 7.2269     | 7.3065     |   1.9 |  6.00
Comm    | 6.738      | 7.7154     | 8.3438     |  17.4 |  6.41
Output  | 0.17215    | 0.1729     | 0.1763     |   0.4 |  0.14
Modify  | 1.8567     | 1.9269     | 2.0003     |   3.1 |  1.60
Other   |            | 0.6585     |            |       |  0.55

Nlocal:        768.000 ave         779 max         755 min
Histogram: 1 0 0 1 0 2 0 1 0 1
Nghost:        1565.67 ave        1577 max        1540 min
Histogram: 1 0 0 0 0 1 0 0 2 2
Neighs:        0.00000 ave           0 max           0 min
Histogram: 6 0 0 0 0 0 0 0 0 0
FullNghs:      22300.3 ave       22847 max       21831 min
Histogram: 1 1 0 0 1 2 0 0 0 1

Total # of neighbors = 133802
Ave neighs/atom = 29.036892
Neighbor list builds = 7063
Dangerous builds = 0

undump              1
unfix               2
unfix               3
unfix               4


################################################
#######         Run Simulation         #########
################################################

reset_timestep      0
log                 log.run_${NAME}
log                 log.run_liq_292K_1atm_ML
