
# Set production fixes - Nose/Hoover
#
fix                 2 all nph iso ${PRES} ${PRES} ${PCOUPL}
fix                 2 all nph iso 1 ${PRES} ${PCOUPL}
fix                 2 all nph iso 1 1 ${PCOUPL}
fix                 2 all nph iso 1 1 10000.0
fix                 3 all temp/csvr ${TEMP} ${TEMP} ${TCOUPL} 837492
fix                 3 all temp/csvr 292 ${TEMP} ${TCOUPL} 837492
fix                 3 all temp/csvr 292 292 ${TCOUPL} 837492
fix                 3 all temp/csvr 292 292 5000.0 837492

# Define Order parameter
#
compute             2 all orientorder/atom nnn NULL cutoff 3.5
thermo              200
thermo_style        custom step temp press vol etotal ke pe c_1[4]

# Run 1ns simulation
dump		    1 all custom 400 prod.${NAME}.dump id type x y z vx vy vz c_2[*]
dump		    1 all custom 400 prod.ice_292K_1atm_ML.dump id type x y z vx vy vz c_2[*]
run                 200000
Neighbor list info ...
  update every 1 steps, delay 0 steps, check yes
  max neighbors/atom: 2000, page size: 100000
  master list distance cutoff = 6.0032907
  ghost atom cutoff = 6.0032907
  binsize = 3.0016454, bins = 20 17 17
  2 neighbor lists, perpetual/occasional/extra = 1 1 0
  (1) pair sw, perpetual
      attributes: full, newton on
      pair build: full/bin/atomonly
      stencil: full/bin/3d
      bin: standard
  (2) compute orientorder/atom, occasional, copy from (1)
      attributes: full, newton on
      pair build: copy
      stencil: none
      bin: none
Per MPI rank memory allocation (min/avg/max) = 5.819 | 5.819 | 5.819 Mbytes
Step Temp Press Volume TotEng KinEng PotEng c_1[4] 
       0    293.23123   0.37282599    148545.23   -47549.802    4026.8249   -51576.627   0.14827482 
     200    292.93969   0.58589995     148542.5   -47538.703    4022.8212   -51561.524   0.14407985 
     400    294.08875    14.454963    148560.49   -47533.157    4038.6008   -51571.757   0.14492696 
     600    290.66164    4.2233862    148563.99   -47571.066    3991.5377   -51562.604   0.14692981 
     800    287.94358    33.163362    148539.55    -47585.46    3954.2117   -51539.672   0.14765014 
    1000    285.45043   -4.5475157     148527.7   -47598.135    3919.9742   -51518.109   0.14767734 
    1200    294.28006    8.8245795     148518.3   -47623.904    4041.2279   -51665.131   0.14117977 
    1400    289.90202    42.373303    148534.29   -47613.988    3981.1062   -51595.094   0.14176744 
    1600    293.02993    7.6740342    148559.58   -47617.354    4024.0604   -51641.414    0.1407491 
    1800    286.97695    5.0701984    148542.28   -47622.381    3940.9374   -51563.318   0.14624282 
    2000    287.81969    26.974712    148510.44   -47576.525    3952.5104   -51529.036   0.14890407 
    2200    288.97669    10.669703    148568.35   -47544.979     3968.399   -51513.378   0.14294319 
    2400    292.67184   -13.747265    148638.93    -47564.11     4019.143   -51583.253   0.14025326 
    2600    290.90861    12.231996    148562.07   -47609.886    3994.9292   -51604.815    0.1440251 
    2800    287.17091    45.257242    148466.41   -47626.844    3943.6008   -51570.445   0.14424142 
    3000     285.9345   -19.718687    148528.94   -47638.602    3926.6218   -51565.224   0.14996087 
    3200    289.04758   -53.521747    148575.84    -47583.97    3969.3724   -51553.342   0.14923101 
    3400    289.66703   -29.912316    148506.37    -47623.67    3977.8791   -51601.549   0.14826851 
    3600    287.44886    58.922496    148448.24   -47652.689    3947.4179   -51600.107   0.14696779 
    3800    288.53785    8.6134401    148560.97   -47577.942    3962.3725   -51540.315     0.146014 
    4000    289.47133   -62.191951    148648.58   -47571.435    3975.1916   -51546.626   0.14985446 
    4200    289.80253    46.395869    148513.95   -47589.057    3979.7399   -51568.797    0.1466503 
    4400    291.16706    109.59754    148428.03   -47575.802    3998.4784    -51574.28   0.14546002 
    4600     291.8573   -11.826541    148570.23   -47555.878    4007.9572   -51563.835   0.14598699 
    4800    294.79447   -54.425291    148655.77   -47545.706    4048.2922   -51593.998   0.14265583 
    5000    293.77575    17.988567    148516.81   -47525.269    4034.3025   -51559.571   0.14596674 
    5200    294.23669    94.132275    148471.96    -47527.26    4040.6324   -51567.892   0.14125344 
    5400    297.92909   -33.919991    148651.82   -47488.031    4091.3386    -51579.37   0.14533607 
    5600    295.60606    -80.93209    148703.05   -47471.664    4059.4374   -51531.101    0.1472027 
    5800    298.88839    59.699848     148515.6   -47461.241    4104.5122   -51565.753   0.14361533 
    6000    299.57151    113.35066    148502.83   -47446.973    4113.8933   -51560.867   0.14145281 
    6200    298.80401   -43.044974    148688.52   -47440.742    4103.3536   -51544.095   0.14611714 
    6400    290.62526   -67.404762    148657.33   -47406.733    3991.0381   -51397.771   0.15148166 
    6600    295.91558    119.39839     148477.3   -47447.489    4063.6879   -51511.177   0.14506754 
    6800    294.81973    70.624691    148532.27   -47487.631     4048.639    -51536.27   0.14761409 
    7000    290.03991   -66.974852    148690.93   -47490.547    3982.9997   -51473.547   0.15082889 
    7200    297.53673   -25.992648    148610.87   -47438.913    4085.9505   -51524.863   0.14965425 
    7400    295.72388    96.853844    148452.49   -47422.386    4061.0553   -51483.441   0.14731098 
    7600    290.91682   -36.326826     148576.7   -47456.989     3995.042   -51452.031   0.15276599 
    7800    290.34092   -134.48341    148724.25   -47484.658    3987.1334   -51471.792   0.15263367 
    8000    296.76201    18.623953    148523.39   -47451.645    4075.3116   -51526.957   0.14676746 
    8200    295.27283    145.71208    148375.78   -47487.277    4054.8613   -51542.139   0.14688134 
    8400    288.29203   -97.537145     148613.5   -47513.594    3958.9967    -51472.59   0.14981831 
    8600    292.00746   -102.38847    148705.44   -47470.702    4010.0193   -51480.721   0.14674108 
    8800    296.10922    151.44901    148427.72    -47401.01    4066.3471   -51467.357    0.1458466 
    9000    296.99666    110.55439    148418.35   -47380.698    4078.5339   -51459.232   0.14859042 
    9200    296.76273   -147.94352    148768.85   -47365.544    4075.3214   -51440.865   0.14897595 
    9400    297.37926    -133.6162       148751   -47415.094     4083.788   -51498.882   0.14847062 
    9600    297.07658    231.35384    148317.78   -47403.952    4079.6315   -51483.584   0.14717753 
    9800    296.35141    75.578709    148427.33   -47422.269     4069.673   -51491.942   0.15247423 
   10000    294.37331   -187.56111     148882.2   -47416.312    4042.5086    -51458.82   0.14969164 
   10200    290.05583   -87.315702    148694.02   -47408.195    3983.2184   -51391.413   0.15068059 
   10400    297.42363     288.5237    148232.46   -47395.551    4084.3974   -51479.948   0.14831252 
   10600    294.18147    59.748556    148540.57   -47378.952    4039.8741   -51418.826    0.1514995 
   10800    295.84008   -354.87246    149016.11   -47410.432    4062.6511   -51473.083   0.15852342 
   11000    295.22957    12.659016    148566.94   -47453.567    4054.2673   -51507.834   0.15082263 
   11200     296.9988     343.4392    148152.93   -47470.426    4078.5633   -51548.989   0.14762243 
   11400    288.00888   -91.526242     148699.1   -47498.464    3955.1085   -51453.573   0.15058698 
   11600    293.56911   -335.46098    149069.41   -47469.058    4031.4648   -51500.523   0.15217097 
   11800    291.48505    83.094111    148471.68   -47543.949    4002.8452   -51546.795    0.1493187 
   12000    290.14295    347.22841    148172.64   -47544.889    3984.4147   -51529.304   0.14582931 
   12200     293.9171   -147.22298    148805.73   -47525.213    4036.2436   -51561.457    0.1447351 
   12400    294.17038   -258.48353    148970.25   -47492.092    4039.7217   -51531.814   0.14377776 
   12600    294.48089    211.82605    148359.92   -47502.896    4043.9859   -51546.882   0.14143609 
   12800    292.17661    241.51994    148320.95   -47515.306    4012.3422   -51527.649   0.14478401 
   13000    288.74159   -254.28182    148921.69   -47494.288    3965.1704   -51459.458   0.14672477 
   13200    293.55493   -128.64449    148839.08   -47466.265      4031.27   -51497.535   0.14384953 
   13400    294.16609    231.49334    148307.08   -47485.998    4039.6629   -51525.661   0.14364585 
   13600    294.01098    112.94901    148458.24   -47477.459    4037.5327   -51514.992   0.14157656 
   13800    295.40365   -217.14059    148944.27   -47470.784    4056.6577   -51527.442   0.14519341 
   14000     291.9368   -97.893644    148740.44   -47491.561    4009.0489    -51500.61   0.14816829 
   14200    293.00096    227.37267    148299.84   -47518.283    4023.6626   -51541.946    0.1504254 
   14400    290.90282    53.686972    148514.44    -47543.63    3994.8497    -51538.48   0.14668939 
   14600      293.117   -210.43664    148832.46   -47538.882    4025.2562   -51564.138    0.1484795 
   14800     293.3225   -6.1582762    148588.24   -47521.279    4028.0782   -51549.357   0.14412433 
   15000    293.96547    141.80526    148357.84   -47574.281    4036.9079   -51611.189    0.1469901 
   15200    289.85417   -11.773466     148576.2   -47627.942    3980.4491   -51608.391   0.14769338 
   15400    286.87447     -111.804    148702.87   -47643.507      3939.53   -51583.037   0.14714245 
   15600    289.05217    70.405667    148450.75   -47680.823    3969.4355   -51650.258   0.14214586 
   15800     287.5233    89.508983    148382.24   -47632.317    3948.4401   -51580.757   0.14631015 
   16000    290.26566   -53.149973    148630.63    -47619.05    3986.0998    -51605.15    0.1502292 
   16200    289.94939   -97.768052    148654.13   -47565.107    3981.7567   -51546.864   0.14725731 
   16400    292.63987    63.070028    148462.22    -47561.95     4018.704   -51580.654    0.1443655 
   16600    290.11873    48.692781    148505.36   -47579.121    3984.0821   -51563.203   0.14572284 
   16800    294.53069   -76.992135    148656.31   -47532.912    4044.6697   -51577.582   0.14228117 
   17000    295.09314    13.731167     148601.2   -47556.754    4052.3936   -51609.148   0.13772205 
   17200    292.10225    71.410617    148505.35   -47539.266    4011.3211   -51550.587   0.14517296 
   17400    290.29551   -3.7293737    148559.09   -47585.906    3986.5097   -51572.416   0.14833396 
   17600    288.89357   -46.204138    148614.78   -47623.195    3967.2575   -51590.453   0.14596923 
   17800    290.16205    15.372811    148552.02   -47642.781     3984.677   -51627.458   0.13996697 
   18000    290.76275    64.773105    148499.37   -47675.727    3992.9262   -51668.653   0.13957387 
   18200    288.21589    27.861412     148554.4   -47701.399    3957.9512    -51659.35   0.14107798 
   18400    283.22613   -33.626886    148586.46   -47721.484    3889.4289   -51610.913   0.14551523 
   18600    287.45822    86.176407    148514.38   -47676.881    3947.5464   -51624.427   0.14183777 
   18800    290.14665    46.675302    148536.86   -47612.466    3984.4656   -51596.931   0.14150738 
   19000    294.33515   -35.876033    148645.07   -47640.981    4041.9845   -51682.965    0.1354394 
   19200    287.96154    9.1652282    148581.84   -47614.268    3954.4583   -51568.727   0.14337953 
   19400     291.8172    83.382758    148493.67   -47605.349    4007.4065   -51612.755   0.14515318 
   19600    287.64018   -36.627688    148593.43    -47634.74    3950.0452   -51584.785   0.14773615 
   19800    291.58093    -52.69194    148647.83   -47631.528    4004.1619   -51635.689   0.14493064 
   20000    292.98566    5.7753581    148544.96   -47621.853    4023.4525   -51645.305   0.14114734 
   20200    291.05765    33.987059     148491.6   -47648.464     3996.976    -51645.44   0.14341478 
   20400    290.46236   -6.2531306    148590.52   -47626.221     3988.801   -51615.022   0.14266091 
   20600    291.83475   -46.625292    148639.75   -47623.121    4007.6475   -51630.768   0.14070267 
   20800    288.90303    12.713955    148537.95   -47624.187    3967.3874   -51591.575   0.14121967 
   21000    288.24951    80.037334    148476.91   -47618.335    3958.4129   -51576.748   0.14087993 
   21200    292.98571    2.8290745    148582.77   -47608.788    4023.4532   -51632.241   0.13932963 
   21400    287.49008   -65.758746    148619.11   -47603.145    3947.9839   -51551.129   0.14328272 
   21600    291.33916    55.217338    148497.97   -47559.471    4000.8417   -51560.313   0.14599486 
   21800    291.49834    21.913891    148533.66   -47510.104    4003.0278   -51513.132   0.15086407 
   22000    291.19437    -74.56008    148671.94    -47515.85    3998.8535   -51514.703   0.14683668 
   22200    291.17481      16.9288    148583.88   -47474.116    3998.5849   -51472.701   0.14457965 
   22400    287.81172    70.382423    148452.61   -47450.089    3952.4008    -51402.49   0.14984566 
   22600    293.83295   -2.1150252    148587.49   -47457.772     4035.088    -51492.86   0.14826532 
   22800    294.18724   -118.28926    148714.66   -47494.109    4039.9533   -51534.063    0.1483958 
   23000    292.01227    14.279224    148514.62   -47511.685    4010.0853   -51521.771   0.14979295 
   23200    288.34181    148.32934    148394.05   -47504.811    3959.6804   -51464.492   0.14717998 
   23400    294.81955   -74.811836    148617.76    -47514.77    4048.6366   -51563.406   0.14940414 
   23600    293.77534   -123.19031    148710.45    -47531.11    4034.2969   -51565.407   0.14858015 
   23800    293.06986    53.365872     148485.6   -47469.491    4024.6087     -51494.1   0.15307827 
   24000    288.29584    100.31567    148464.89   -47506.874    3959.0492   -51465.924   0.14866701 
   24200    289.68493    -183.2514    148755.46   -47491.258    3978.1249   -51469.382   0.15385503 
   24400    291.40837   -109.90975    148717.71   -47496.124    4001.7923   -51497.916   0.14900964 
   24600    294.20989    187.50362    148402.82   -47496.177    4040.2643   -51536.442   0.14048284 
   24800    297.25181    80.260764    148504.63   -47420.279    4082.0378   -51502.317   0.14643035 
   25000    293.90746   -195.00726    148825.85   -47418.276    4036.1112   -51454.387   0.15151636 
   25200      292.642   -60.941005    148645.28   -47442.489    4018.7332   -51461.222   0.15173557 
   25400    293.17749    205.34328    148297.69    -47505.47    4026.0869   -51531.557     0.146531 
   25600    290.48231    55.746731    148495.92   -47528.276    3989.0751   -51517.351   0.14581574 
   25800    294.61325   -219.16503     148852.4   -47505.557    4045.8036   -51551.361   0.15005946 
   26000    294.49475   -23.393833    148581.65   -47483.364    4044.1762   -51527.541   0.15240998 
   26200    290.67437    211.02019    148268.55   -47529.392    3991.7125   -51521.105   0.15381028 
   26400    291.84086   -35.729678    148575.29   -47553.633    4007.7314   -51561.364   0.14674821 
   26600    289.62974   -215.99565    148824.38   -47561.312     3977.367   -51538.679   0.14594582 
   26800    290.03686    61.337224    148451.84   -47566.628    3982.9579   -51549.585   0.14578609 
   27000    288.86208    203.65615    148262.17   -47566.516    3966.8251   -51533.341   0.14728712 
   27200    291.74276   -104.55054    148694.84   -47560.704    4006.3842   -51567.088   0.14621826 
   27400     289.4177   -196.45151    148826.66   -47524.336    3974.4552   -51498.791   0.14868035 
   27600    291.82335     135.1152    148389.31   -47530.152     4007.491   -51537.643   0.15095711 
   27800    293.82263     208.9395    148335.09   -47526.301    4034.9463   -51561.247   0.14384588 
   28000    293.09001   -162.30923    148788.44   -47514.404    4024.8855   -51539.289   0.14656198 
   28200    289.88916    -207.2454    148746.77   -47531.875    3980.9295   -51512.805   0.15303564 
   28400    292.47099    191.36347    148228.11   -47527.922    4016.3848   -51544.307   0.14935277 
   28600    294.05223    82.700754    148370.22   -47549.308    4038.0992   -51587.407   0.14346016 
   28800    289.50299   -238.05755    148866.82   -47559.344    3975.6265    -51534.97   0.14224767 
   29000     290.4569   -52.487209     148596.7   -47595.956     3988.726   -51584.682   0.14201112 
   29200    287.91852    305.24647    148116.43   -47630.822    3953.8675   -51584.689   0.14575584 
   29400    288.96751    66.343007    148473.56   -47632.529    3968.2729   -51600.802   0.13968641 
   29600    288.34927   -249.36913    148881.58   -47591.631    3959.7828   -51551.414   0.14683526 
   29800    293.69605    54.472408    148455.66    -47514.72    4033.2079   -51547.928   0.14975614 
   30000    294.60202    294.66231    148148.21   -47504.132    4045.6494   -51549.781    0.1447905 
   30200    288.72847   -79.606856    148663.82    -47514.23    3964.9902   -51479.221   0.15357061 
   30400    289.08808   -324.71719    148898.39   -47565.675    3969.9286   -51535.603   0.14955874 
   30600    289.14521     158.4207    148268.53   -47512.408    3970.7131   -51483.121    0.1516348 
   30800    291.03853    300.38687    148158.78   -47480.329    3996.7134   -51477.043   0.14876581 
   31000    292.38863   -257.83945    148894.09   -47467.327    4015.2537   -51482.581   0.14647511 
   31200    293.78326   -223.88329    148900.11    -47469.36    4034.4057   -51503.765   0.14858606 
   31400    299.04166    353.99826    148119.53   -47467.638     4106.617   -51574.255   0.14672666 
   31600    293.13635    223.65879     148267.8   -47532.037    4025.5219   -51557.558   0.14742543 
   31800    290.08328   -412.46278    149087.24   -47502.064    3983.5954   -51485.659    0.1539964 
   32000    297.36162   -150.55784    148786.31   -47472.827    4083.5458   -51556.373   0.14773726 
   32200      293.187    430.53214    148013.72   -47506.459    4026.2174   -51532.677   0.14745858 
   32400    291.89314    75.075636    148448.93   -47503.238    4008.4494   -51511.688   0.14891869 
   32600    294.35838   -395.41332    149121.85   -47486.913    4042.3035   -51529.216    0.1458987 
   32800    293.54564   -50.263637    148607.54   -47484.649    4031.1425   -51515.792   0.14893798 
   33000    296.58998    398.28087     148058.7   -47472.637    4072.9492   -51545.586   0.14492221 
   33200    290.10264   -46.991392    148629.77   -47467.549    3983.8612    -51451.41   0.14941455 
   33400     295.2097   -348.12953    149025.22   -47427.417    4053.9943   -51481.411   0.14852658 
   33600    298.33834    103.35092    148462.76   -47360.207    4096.9587   -51457.166   0.14758308 
   33800     300.0196    284.81893    148222.66   -47397.181    4120.0467   -51517.228   0.14939169 
   34000    293.73032   -114.47391    148742.59    -47418.85    4033.6787   -51452.528   0.15048478 
   34200    290.69179   -193.77819    148886.41   -47448.731    3991.9517   -51440.683   0.15045314 
   34400    293.95224    95.491826    148433.78   -47516.442    4036.7261   -51553.168   0.14501015 
   34600    294.63384    153.26613    148349.89   -47490.012    4046.0863   -51536.099   0.15110904 
   34800    288.13977   -134.56929    148712.37    -47530.98    3956.9059   -51487.886   0.14490241 
   35000    291.96522    -153.0605    148713.97   -47556.185    4009.4392   -51565.625   0.14384783 
   35200    295.17664    142.75474    148381.88   -47543.843    4053.5403   -51597.383   0.14663368 
   35400     291.1121    87.616377    148467.45   -47505.634    3997.7237   -51503.358   0.14891651 
   35600    289.94769   -142.83556    148785.64   -47499.972    3981.7333   -51481.706   0.14612282 
   35800     292.9942   -86.180507    148666.77   -47501.294    4023.5698   -51524.864   0.14777726 
   36000     287.4587    170.05739    148362.82   -47500.794    3947.5531   -51448.347   0.14846848 
   36200    295.22042    51.637802    148504.59   -47518.346    4054.1415   -51572.487   0.14602034 
   36400    287.65369   -157.12148     148762.4   -47544.356    3950.2307   -51494.586   0.14372609 
   36600    285.92519   -20.312034    148592.26   -47518.423     3926.494   -51444.917   0.14573259 
   36800    287.48905    127.55314    148368.99   -47562.788    3947.9697   -51510.758   0.14461902 
   37000    288.13236    5.5084848    148535.04   -47551.942    3956.8041   -51508.746   0.14046078 
   37200    291.60862   -110.77398    148701.02   -47513.491    4004.5422   -51518.033   0.14420946 
   37400    296.63398    44.567843    148513.03   -47505.748    4073.5534   -51579.301   0.14436678 
   37600    291.49035    124.21352    148387.35   -47533.413     4002.918   -51536.331   0.14714939 
   37800    292.66491   -59.687018    148621.09   -47497.565    4019.0477   -51516.613   0.14763703 
   38000    288.47237   -146.82538    148713.34   -47550.803    3961.4733   -51512.276   0.14907779 
   38200    292.16535    126.77158    148464.42   -47544.889    4012.1875   -51557.077   0.14389413 
   38400     294.1117    126.77715    148423.17     -47511.3    4038.9159   -51550.216   0.14434713 
   38600    289.83639   -128.29171    148710.25   -47508.242    3980.2048   -51488.447   0.14793307 
   38800    289.44461   -69.586712    148672.05   -47558.781    3974.8247   -51533.606   0.14451805 
   39000    289.62068    127.10838    148371.21   -47586.098    3977.2426    -51563.34   0.14587724 
   39200    293.26235    88.693159    148433.56   -47606.903    4027.2522   -51634.155   0.14033424 
   39400    287.48096   -136.01574    148729.48   -47596.904    3947.8588   -51544.763   0.14442065 
   39600    286.42587   -32.992862    148631.13   -47667.213    3933.3696   -51600.582   0.14254294 
   39800    285.54996    201.66004    148320.05    -47656.53     3921.341   -51577.871   0.14006731 
   40000    288.93528    8.5861867    148524.37   -47669.797    3967.8303   -51637.627   0.13935415 
   40200    288.54656   -206.80267    148852.37   -47644.555    3962.4922   -51607.047   0.14147606 
   40400    287.53365    -9.470137    148587.59   -47639.393    3948.5823   -51587.975   0.14216788 
   40600    289.97331    214.29064    148264.99   -47668.449    3982.0851   -51650.534    0.1366647 
   40800    287.60476   -73.242997    148626.61     -47688.6    3949.5588   -51638.159   0.13748303 
   41000     287.4955   -282.90369    148948.44   -47642.777    3948.0584   -51590.835   0.13940233 
   41200    290.62008    126.87546    148446.07   -47676.927    3990.9669   -51667.894   0.13955926 
   41400    287.18055    328.06537     148103.8   -47640.564    3943.7332   -51584.297   0.14320366 
   41600    290.18063   -187.40639    148781.79   -47637.045    3984.9322   -51621.978    0.1422263 
   41800    286.80976   -386.81664    149095.26   -47632.659    3938.6414     -51571.3   0.14131116 
   42000    290.44843    262.58073    148252.72   -47605.182    3988.6098   -51593.792   0.14177797 
   42200    292.96239    397.15563    148067.23   -47633.418     4023.133   -51656.551   0.14256227 
   42400    283.98872   -347.54856     148989.3   -47684.331    3899.9011   -51584.232   0.14807051 
   42600    286.94953   -359.82479    148973.28   -47709.855    3940.5607   -51650.416   0.14484189 
   42800    289.44893    393.55341    148007.99   -47710.941     3974.884   -51685.825   0.14048532 
   43000    285.52005    279.96726     148187.7   -47666.964    3920.9303   -51587.895   0.14172728 
   43200    283.11924   -467.39292    149119.96   -47668.438    3887.9609   -51556.399   0.14677843 
   43400    285.45825   -174.03752    148760.14   -47660.013    3920.0816   -51580.095   0.14289695 
   43600    282.80519    440.23475    147976.07   -47653.698    3883.6483   -51537.347   0.14134829 
   43800    287.53559    96.969105    148447.24   -47629.401    3948.6089    -51578.01   0.14084001 
   44000    289.32292   -382.79569    149059.31   -47647.111    3973.1537   -51620.264   0.14272761 
   44200    283.10992   -12.077241    148537.54   -47689.945    3887.8329   -51577.778   0.14339628 
   44400    285.67041    387.34935     148055.5   -47663.124    3922.9951   -51586.119    0.1451435 
   44600    291.68455   -41.093989    148625.48   -47601.043    4005.5849   -51606.628   0.14711496 
   44800    293.65958   -314.78395    148987.57   -47563.835    4032.7072   -51596.542   0.14630396 
   45000    290.33065    115.18734    148422.13   -47599.999    3986.9924   -51586.992   0.13938529 
   45200    288.64865    293.45543    148170.04   -47620.434    3963.8941   -51584.329   0.13850237 
   45400    286.05116   -107.71004     148663.6   -47669.812    3928.2239   -51598.035   0.14209415 
   45600    286.63152   -260.97488    148792.52    -47657.81    3936.1938   -51594.004   0.14749663 
   45800    293.67022     152.2863     148320.8   -47632.448    4032.8533   -51665.301   0.14064321 
   46000     295.0932    167.24174    148305.23   -47630.004    4052.3944   -51682.399   0.14340505 
   46200    286.86115   -172.92697     148739.7   -47662.428    3939.3472   -51601.775   0.14805597 
   46400    288.31536   -132.33177    148674.67   -47645.334    3959.3171   -51604.651   0.14825411 
   46600    290.47462    212.58129    148257.69   -47642.685    3988.9694   -51631.654   0.14549568 
   46800    288.99487    93.982264    148380.95   -47607.562    3968.6486   -51576.211   0.15021475 
   47000    290.47514   -226.20495    148791.64   -47586.092    3988.9765   -51575.068   0.14723772 
   47200    292.21148   -68.101423    148624.06   -47556.741    4012.8209   -51569.562   0.14448305 
   47400    294.21047    256.19136    148277.36    -47485.76    4040.2724   -51526.033   0.14450733 
   47600    289.67552   -11.524923    148542.71   -47460.521    3977.9957   -51438.517   0.15027408 
   47800    291.70676   -201.30025    148884.65   -47428.209    4005.8899   -51434.099   0.14974636 
   48000    292.48835    22.280602    148591.23   -47433.268    4016.6231   -51449.891   0.14506106 
   48200     294.5291    242.35184    148328.27   -47432.858    4044.6479   -51477.505   0.14430157 
   48400    294.58638   -45.683766    148649.08   -47415.067    4045.4346   -51460.502   0.15162743 
   48600    295.99723   -175.26966     148824.4   -47479.932    4064.8092   -51544.742   0.14524072 
   48800    290.26334    90.306824    148464.52   -47420.389    3986.0679   -51406.457   0.14769848 
   49000    299.04374    150.97907       148397   -47398.864    4106.6456    -51505.51   0.14574687 
   49200    299.61789   -148.40449    148776.61   -47434.369    4114.5301   -51548.899    0.1448034 
   49400    292.15867   -128.13523    148762.36   -47443.012    4012.0958   -51455.108     0.146045 
   49600     296.9327    168.58409    148366.07   -47460.928    4077.6556   -51538.584   0.14514042 
   49800    296.03681    91.664695    148454.26   -47439.858    4065.3527   -51505.211   0.14865382 
   50000    294.09288   -213.85508    148842.88   -47440.305    4038.6575   -51478.962   0.14934933 
   50200    292.83083   -134.87209    148693.82   -47477.357    4021.3263   -51498.684    0.1460924 
   50400    295.23362    274.70643    148323.77   -47482.431    4054.3228   -51536.754   0.14304834 
   50600    293.59009   -6.8049111    148571.53   -47505.126    4031.7529   -51536.879   0.15036456 
   50800    294.56654   -230.42993    148903.67   -47515.893    4045.1621   -51561.056   0.14687235 
   51000     294.7392    27.304165    148581.51   -47451.659    4047.5331   -51499.192   0.14550863 
   51200     297.9492    228.73358    148300.01   -47484.075    4091.6147    -51575.69   0.14378549 
   51400    291.35382   -50.368342    148666.19   -47446.424    4001.0432   -51447.467   0.14955373 
   51600    297.16156   -226.24812    148920.18   -47446.968    4080.7985   -51527.766   0.14624453 
   51800    297.04604    111.66321    148484.54   -47443.306     4079.212   -51522.518   0.14707373 
   52000    299.52528    209.47837     148313.3   -47405.281    4113.2585   -51518.539   0.14647294 
   52200    293.76409    -158.7957    148846.67   -47376.642    4034.1424   -51410.784   0.14677011 
   52400    298.69956   -216.20016    148923.43   -47357.263    4101.9192   -51459.182   0.14795377 
   52600    299.05947    254.38721     148257.6   -47395.733    4106.8616   -51502.595   0.14982589 
   52800    298.63897    274.37432    148260.74   -47415.236    4101.0871   -51516.324   0.14947699 
   53000    292.34279   -333.81828     149026.1   -47419.375    4014.6242   -51433.999   0.14891742 
   53200    296.67656   -192.25316    148874.15   -47428.091    4074.1382   -51502.229   0.14518646 
   53400    291.60356    404.86317    148058.46   -47456.708    4004.4727   -51461.181   0.14695949 
   53600    293.56439    146.85906    148373.89   -47485.963       4031.4   -51517.363   0.14433114 
   53800    294.15883   -493.04002     149211.8   -47460.623    4039.5632   -51500.186   0.14775561 
   54000    292.21043   -112.45409    148762.15   -47451.313    4012.8067   -51464.119   0.14694034 
   54200    297.78075    494.47692    147973.18   -47458.282    4089.3015   -51547.584   0.14981372 
   54400    292.24057    16.624338    148539.94   -47488.716    4013.2204   -51501.936   0.15047468 
   54600    293.98871   -502.24343    149210.98   -47480.748    4037.2269   -51517.975   0.15203762 
   54800    302.74497     69.30154    148542.51    -47426.19    4157.4731   -51583.663    0.1460846 
   55000    293.93506    409.91694    148064.28   -47428.125    4036.4902   -51464.615   0.15205454 
   55200     296.0462   -89.611113    148700.83   -47459.546    4065.4816   -51525.027    0.1444609 
   55400    291.05168    -332.8959    149002.97   -47481.421     3996.894   -51478.315   0.14724054 
   55600    297.07711    146.61297     148397.3   -47519.246    4079.6387   -51598.885   0.14272516 
   55800    293.64776    274.03768    148223.44   -47492.112    4032.5448   -51524.657   0.15139809 
   56000    291.43418   -151.76079    148786.46   -47476.435    4002.1467   -51478.582   0.15229833 
   56200    292.78097   -221.35447    148861.23   -47510.482    4020.6416   -51531.124   0.14994078 
   56400     290.6754    166.15923     148383.5   -47512.988    3991.7267   -51504.715   0.14954243 
   56600    295.65739    142.36718    148374.49   -47517.923    4060.1423   -51578.065    0.1461215 
   56800    297.05354   -122.29822    148759.47   -47468.096     4079.315   -51547.411   0.14504076 
   57000     295.0191    -96.70322    148757.29   -47474.558    4051.3769   -51525.935   0.14760065 
   57200    298.06147    110.38264    148471.62   -47505.817    4093.1566   -51598.974   0.14850014 
   57400    296.97746    60.350368    148495.94   -47526.037    4078.2703   -51604.308   0.14587324 
   57600    292.52387   -69.424747    148697.33   -47513.865     4017.111   -51530.976   0.14420635 
   57800    293.54416   -54.329541    148661.18   -47526.435    4031.1221   -51557.557   0.14614934 
   58000    293.68272    82.590151    148447.12   -47539.457     4033.025   -51572.482   0.14851656 
   58200    291.83107    43.545247    148489.55   -47580.213     4007.597    -51587.81   0.15039666 
   58400    289.08983   -61.631253    148660.83   -47572.289    3969.9527   -51542.242   0.14894772 
   58600    294.84085   -42.310491    148573.74   -47550.961     4048.929    -51599.89   0.15308614 
   58800    290.57462    110.17056     148396.3   -47582.994    3990.3426   -51573.337   0.14706389 
   59000    293.45732    40.125857    148500.32    -47607.86    4029.9297    -51637.79   0.14308725 
   59200     291.0267   -64.727707    148645.39   -47606.209    3996.5508    -51602.76   0.14729386 
   59400     289.6638   -26.561214     148553.5    -47548.72    3977.8347   -51526.555   0.15280254 
   59600    290.90883    93.529591    148450.49   -47544.538    3994.9322   -51539.471   0.14573215 
   59800    290.92459    14.861208    148542.67   -47528.862    3995.1487    -51524.01   0.14697249 
   60000    298.38585   -1.4974538     148610.1   -47516.202    4097.6111   -51613.813   0.14594764 
   60200    291.32955   0.27966577    148504.19    -47488.79    4000.7098     -51489.5   0.15679773 
   60400    294.38822    76.984768    148447.37   -47456.691    4042.7133   -51499.404   0.15502559 
   60600    291.98631   -77.185045    148577.72   -47497.747    4009.7288   -51507.476   0.15441442 
   60800    295.43286   -54.624102    148597.41    -47435.31    4057.0589   -51492.369   0.15096322 
   61000    291.58117    41.933698    148483.37       -47475    4004.1652   -51479.165   0.14977218 
   61200    295.26205    48.037624    148494.78   -47480.401    4054.7132   -51535.114   0.15230574 
   61400    294.87611   -85.373763    148649.14     -47478.7    4049.4133   -51528.113   0.15587787 
   61600    299.92074   -21.479656    148618.03   -47469.899    4118.6891   -51588.588   0.15173692 
   61800    289.24203     30.08324    148477.54   -47469.159    3972.0427   -51441.201   0.15655796 
   62000    295.35273    10.363363    148515.49   -47494.657    4055.9585   -51550.616   0.15198351 
   62200    296.12562   -76.271466    148665.84   -47506.009    4066.5722   -51572.581   0.14908025 
   62400    295.89853   -80.013015    148619.51   -47466.597    4063.4537    -51530.05   0.15825392 
   62600    293.91637    71.438331    148465.16   -47486.884    4036.2335   -51523.118   0.15568806 
   62800    292.74786    43.704883    148532.35   -47463.364     4020.187   -51483.551   0.15215955 
   63000    294.83677   -97.375235    148662.21   -47430.043    4048.8731   -51478.916   0.15083865 
   63200    294.96241    -23.07988     148531.9   -47434.618    4050.5985   -51485.216   0.15575864 
   63400    293.36302    109.34512    148427.86   -47390.095    4028.6347    -51418.73   0.15645615 
   63600    299.42919   -5.0983581    148634.04   -47369.983    4111.9389   -51481.922   0.15367546 
   63800    297.46542   -130.47184    148732.05   -47399.179    4084.9712   -51484.151    0.1527417 
   64000    298.15021    26.004684    148484.85   -47391.939    4094.3752   -51486.314   0.15040387 
   64200    299.76119    160.63687    148399.27   -47393.796    4116.4981   -51510.294   0.15125334 
   64400     288.8923   -111.57182     148671.1   -47380.529    3967.2401   -51347.769   0.15969242 
   64600    291.73652   -107.54445    148724.36   -47436.274    4006.2986   -51442.572   0.15660031 
   64800      296.048    142.51208    148429.05   -47446.756    4065.5063   -51512.262   0.14966589 
   65000     293.6853    128.91742    148423.33   -47437.197    4033.0604   -51470.257   0.15288078 
   65200    292.48405   -161.21716    148741.01   -47464.892    4016.5641   -51481.456   0.15378732 
   65400     297.5671   -88.043444    148699.79   -47490.891    4086.3676   -51577.258    0.1485677 
   65600    291.98979    152.56519    148339.38    -47514.74    4009.7766   -51524.516   0.15397264 
   65800    292.99975     74.23959    148451.52   -47490.078     4023.646   -51513.724   0.15132837 
   66000    290.26446   -201.40206    148839.22   -47489.339    3986.0833   -51475.423   0.15282073 
   66200    287.92471   -102.90785    148687.03   -47515.115    3953.9526   -51469.067   0.15327546 
   66400     288.7632    221.76368     148284.7   -47510.692    3965.4672   -51476.159   0.15254784 
   66600    288.63713    79.964001    148492.91   -47524.852    3963.7359   -51488.587   0.15051165 
   66800    294.11098   -212.62261    148878.04   -47507.196    4038.9061   -51546.102   0.15487356 
   67000    290.96561   -23.263581    148634.15   -47536.811     3995.712   -51532.523   0.14860661 
   67200    292.56005      257.997    148294.83   -47557.554    4017.6077   -51575.162   0.14462361 
   67400    293.69055    1.9327857     148598.4   -47593.443    4033.1324   -51626.576   0.14272015 
   67600     292.6192   -203.44508    148889.89    -47546.94    4018.4201    -51565.36   0.14408726 
   67800    288.95855    46.625343    148521.36   -47494.298    3968.1499   -51462.448   0.15059082 
   68000     295.0779    251.46943    148284.08   -47490.822    4052.1844   -51543.007   0.14932529 
   68200    288.80255   -143.82279    148733.29   -47564.008    3966.0075   -51530.015   0.15293629 
   68400    293.25867   -196.12114    148889.58   -47506.494    4027.2016   -51533.695   0.14634242 
   68600    297.37145    162.08987    148419.16     -47492.4    4083.6808    -51576.08   0.14809777 
   68800    290.04475    147.49928    148362.01    -47459.67    3983.0662   -51442.737   0.15789534 
   69000    289.66969   -242.14143    148857.77   -47505.305    3977.9156   -51483.221   0.15502096 
   69200    295.72252    -141.4376    148790.66   -47510.482    4061.0367   -51571.518   0.14917886 
   69400    289.04306    245.21323    148256.92   -47547.791    3969.3104   -51517.101   0.15115747 
   69600    293.40867     144.4048    148386.22   -47562.661    4029.2615   -51591.922   0.14912908 
   69800    293.53497   -287.77429     148938.2   -47528.534     4030.996    -51559.53   0.15067547 
   70000    293.27343    -124.1392     148710.6    -47488.33    4027.4043   -51515.734   0.15551523 
   70200    297.19567    317.21165    148146.43   -47471.219    4081.2668   -51552.486   0.15422393 
   70400    295.93362    85.721935    148472.41    -47486.21    4063.9356   -51550.146   0.14935583 
   70600    295.51547   -377.64085     149061.5   -47456.563    4058.1933   -51514.756   0.14959334 
   70800    296.67447   -28.483319    148624.47   -47482.089    4074.1094   -51556.198   0.15434886 
   71000    291.73639    399.55374    148045.85    -47526.19    4006.2968   -51532.487   0.15753248 
   71200    293.69224   -11.847649     148593.8   -47536.792    4033.1557   -51569.948   0.15041077 
   71400    292.83171   -491.38745     149122.2   -47500.547    4021.3384   -51521.885   0.15457253 
   71600    290.98421    72.929601    148417.89   -47479.351    3995.9674   -51475.318   0.14734182 
   71800     293.0715    464.48017    147960.82   -47498.025    4024.6313   -51522.656   0.15006702 
   72000    289.80943   -207.05177    148775.78    -47525.52    3979.8346   -51505.354   0.15311992 
   72200    290.48903   -447.75849     149104.6   -47557.389    3989.1672   -51546.557   0.15653593 
   72400    287.35537     216.2083    148178.65   -47539.307    3946.1341   -51485.441   0.16037396 
   72600     289.4124    407.64395    147979.09   -47505.566    3974.3824   -51479.949   0.15855048 
   72800    290.36461   -325.28753    148928.41   -47582.502    3987.4587    -51569.96   0.15389036 
   73000    293.19502   -318.76389     148945.6   -47579.141    4026.3276   -51605.469   0.15318536 
   73200    289.80958    318.67695     148095.1   -47591.999    3979.8367   -51571.836   0.15573372 
   73400     288.7453    188.05183    148229.07    -47589.06    3965.2214   -51554.282   0.15503206 
   73600    289.87116   -308.21488     148941.4   -47570.437    3980.6823    -51551.12   0.15531947 
   73800    291.97952   -143.95716    148702.71    -47565.17    4009.6356   -51574.805   0.15250925 
   74000    297.04617    325.42181    148147.45   -47613.416    4079.2139    -51692.63    0.1445089 
   74200    290.78761    66.816983    148424.54   -47610.018    3993.2675   -51603.286   0.15188648 
   74400    291.87295   -222.36484    148802.98    -47570.31    4008.1721   -51578.482   0.15651835 
   74600    289.70621    8.6385368    148508.03   -47593.403    3978.4172    -51571.82   0.15699535 
   74800    291.49871    181.35545    148262.77   -47604.006    4003.0328   -51607.039   0.14982322 
   75000    292.58624   -14.567117    148550.21   -47567.612    4017.9675   -51585.579   0.14948871 
   75200    292.70266   -152.38046    148717.04   -47553.183    4019.5662   -51572.749    0.1505066 
   75400    292.22976    104.76667    148419.98    -47540.57     4013.072   -51553.642   0.15462271 
   75600    291.66201    96.700024    148341.57   -47519.969    4005.2753   -51525.244   0.15709862 
   75800    296.45324   -79.205009    148635.44   -47497.753    4071.0713   -51568.824   0.15215771 
   76000    295.58843   -122.19113    148668.41   -47482.259    4059.1953   -51541.454   0.15312765 
   76200    294.47958    128.63542    148402.55   -47508.602    4043.9679    -51552.57   0.15153163 
   76400    292.13575    61.594652    148435.45   -47478.678     4011.781   -51490.459   0.15846088 
   76600    293.96631   -114.81545    148704.01   -47465.126    4036.9193   -51502.045   0.16204621 
   76800    294.08076   -41.731374    148634.64   -47465.092    4038.4911   -51503.583   0.15554177 
   77000    290.13919    107.28106    148421.43   -47466.671     3984.363   -51451.034   0.15389503 
   77200    294.93402    71.216693    148531.91   -47514.798    4050.2085   -51565.006   0.14490083 
   77400    290.03454   -107.15563    148694.68   -47503.485     3982.926   -51486.411   0.15400534 
   77600    291.37315   -35.896807    148539.24   -47520.236    4001.3085   -51521.544    0.1598188 
   77800    292.56066    121.19367    148396.19   -47532.927    4017.6162   -51550.543   0.15376678 
   78000    292.61035   -23.792537    148554.74   -47533.216    4018.2986   -51551.514   0.15443899 
   78200    291.77709   -140.96756    148703.87   -47527.115    4006.8557   -51533.971   0.14978703 
   78400    290.44084    20.815777    148518.01   -47546.411    3988.5056   -51534.916   0.14776146 
   78600     287.9413    140.37627    148378.12   -47565.785    3954.1804   -51519.966   0.15444169 
   78800     288.1977   -78.665696    148635.56     -47552.5    3957.7014   -51510.201   0.15491891 
   79000    298.51032   -144.21632    148712.06   -47535.394    4099.3204   -51634.714   0.14929252 
   79200    291.32965    94.281154     148376.1   -47545.069    4000.7112    -51545.78   0.14563207 
   79400    294.58473    125.19313    148323.53   -47498.641    4045.4119   -51544.053   0.14897581 
   79600    293.97129   -141.75014     148710.3   -47488.005    4036.9877   -51524.993   0.15336562 
   79800    289.88337   -135.15417    148702.24   -47513.099      3980.85   -51493.949   0.15388619 
   80000    292.75792    182.59381     148251.8   -47484.561     4020.325   -51504.886   0.15780314 
   80200    302.61467    199.87956    148380.78   -47450.696    4155.6838   -51606.379   0.14603589 
   80400    293.19238   -268.08058    148932.94   -47418.311    4026.2914   -51444.603   0.15570124 
   80600    294.02603   -103.81331    148674.87   -47439.154    4037.7395   -51476.894   0.15712912 
   80800     296.4731    397.64634    148061.48    -47382.12    4071.3441   -51453.464   0.15907359 
   81000    294.89015    45.539508    148482.57    -47436.29     4049.606   -51485.896   0.15890346 
   81200    291.99534   -414.51019    149110.95   -47414.074    4009.8528   -51423.927   0.15975634 
   81400     295.8451    22.560482    148543.43    -47391.19    4062.7201    -51453.91   0.15317546 
   81600    293.35606    417.72162    147950.26   -47410.254    4028.5391   -51438.793   0.15500892 
   81800    300.79996   -61.586159    148644.24   -47418.108    4130.7631   -51548.871   0.15404052 
   82000    294.44476   -460.33967    149195.22   -47380.606    4043.4897   -51424.095   0.16119348 
   82200    297.02783    134.76562    148383.59   -47427.698    4078.9619    -51506.66    0.1548133 
   82400    296.31553    465.77914    147987.03   -47430.067    4069.1803   -51499.248   0.15177964 
   82600    292.73929   -220.81536     148911.7   -47475.921    4020.0692    -51495.99   0.14794004 
   82800    288.98777   -376.08105    149134.11   -47512.503    3968.5512   -51481.054   0.14672567 
   83000    296.67757    309.59843    148220.39   -47498.169     4074.152   -51572.321   0.15061648 
   83200    294.76463    320.81446    148189.46   -47521.506    4047.8824   -51569.389   0.15193161 
   83400    291.79793   -298.80436    148970.24    -47541.63     4007.142   -51548.772   0.15077144 
   83600    293.38253   -179.18673    148833.53    -47557.75    4028.9026   -51586.652   0.14265101 
   83800    295.33888    258.56173    148248.65   -47508.111    4055.7683    -51563.88   0.14534908 
   84000    290.61121    113.95681    148479.46   -47539.875    3990.8452    -51530.72   0.14834866 
   84200     292.8876   -236.12372    148885.01   -47527.275    4022.1059   -51549.381   0.15124006 
   84400    289.11882   -61.200641    148665.12    -47530.89    3970.3507   -51501.241   0.15211465 
   84600    291.28812     201.7132    148379.93   -47527.484    4000.1409   -51527.625   0.14620254 
   84800    288.25292    -8.657452    148583.06   -47538.523    3958.4597   -51496.983   0.14881755 
   85000     292.5132   -146.19372    148773.33   -47502.453    4016.9645   -51519.417   0.14722076 
   85200    296.28816    5.8701091    148600.84   -47472.022    4068.8044   -51540.827   0.15549595 
   85400    294.34664     118.7368    148458.42   -47459.332    4042.1423   -51501.474   0.15944591 
   85600    294.71321   -33.638429    148633.59   -47457.395    4047.1763   -51504.572   0.15159158 
   85800    292.31839   -92.433904    148710.68   -47471.339    4014.2892   -51485.628   0.14824649 
   86000    294.09897    22.983398     148537.3    -47424.61    4038.7411   -51463.351   0.15165451 
   86200    294.18898    28.766549    148555.68   -47436.598    4039.9772   -51476.575   0.15460728 
   86400    295.11832   -93.621405    148730.44   -47429.928    4052.7395   -51482.667   0.15371108 
   86600    297.60878    -12.68935    148646.74   -47428.846      4086.94   -51515.786   0.14791448 
   86800     297.6454    92.668783     148478.9   -47459.534    4087.4428   -51546.977   0.14520734 
   87000    288.62678   -29.290352    148577.67   -47481.069    3963.5938   -51444.663   0.14794224 
   87200    290.94622    -19.15066    148673.93   -47450.471    3995.4457   -51445.917   0.15084939 
   87400    291.37682   -17.924577    148585.14   -47413.514     4001.359   -51414.873   0.15939181 
   87600    290.52435    28.304537    148513.03   -47480.327    3989.6523    -51469.98    0.1565207 
   87800    299.32696    5.5036147    148588.38   -47488.038     4110.535   -51598.573   0.14766386 
   88000    295.58043   -9.4055524    148659.43   -47437.801    4059.0854   -51496.887    0.1441926 
   88200    293.97806    7.3953809    148599.58   -47448.964    4037.0808   -51486.045   0.15137283 
   88400    296.70832    74.376974    148527.83    -47434.46    4074.5742   -51509.034   0.15393602 
   88600    294.41479   -15.823765    148624.81   -47449.776    4043.0782   -51492.854   0.15297561 
   88800    295.81468   -55.792385    148697.86   -47440.369    4062.3022   -51502.672   0.15067252 
   89000    294.08668    27.977239    148555.85   -47461.817    4038.5724    -51500.39   0.14833478 
   89200    296.38678    121.77085    148487.67    -47434.57    4070.1587   -51504.729   0.15030744 
   89400     299.5799   -45.495608    148696.85   -47407.423    4114.0086   -51521.432   0.15236891 
   89600    294.79262   -100.58303    148745.95   -47429.204    4048.2668   -51477.471    0.1556987 
   89800    291.70193    84.767534    148504.39   -47464.489    4005.8235   -51470.313   0.15599563 
   90000    294.70867    100.85092    148480.82   -47482.324    4047.1139   -51529.438   0.14289882 
   90200    288.48201   -137.86605    148730.64   -47527.028    3961.6057   -51488.633    0.1468053 
   90400    291.99865   -58.264374    148652.88   -47547.627    4009.8983   -51557.525   0.14840804 
   90600    294.59643    149.20898    148343.36   -47540.094    4045.5726   -51585.667   0.15041411 
   90800     287.5543    15.844449    148476.86   -47563.993    3948.8658   -51512.859   0.14932833 
   91000    291.38374    -199.6466    148754.54   -47564.556     4001.454    -51566.01   0.14814884 
   91200    295.02527   -16.206992    148548.93   -47577.494    4051.4616   -51628.955    0.1485188 
   91400    291.35804    179.26961    148300.56   -47566.995     4001.101   -51568.096   0.14778718 
   91600    288.74185   -8.0905481    148569.38   -47572.136     3965.174    -51537.31   0.15012648 
   91800    295.65606   -204.19701     148847.5   -47548.614     4060.124   -51608.738   0.14644607 
   92000     289.5139    54.000393     148533.7   -47562.399    3975.7763   -51538.175   0.14770943 
   92200    288.57076     205.5251    148276.95   -47585.716    3962.8245    -51548.54   0.14480608 
   92400    293.83881   -42.071115     148639.7   -47565.404    4035.1684   -51600.573   0.14343359 
   92600    287.16946   -229.64975    148854.98   -47621.357     3943.581   -51564.938   0.15090368 
   92800    290.08332    106.89072    148437.55   -47590.536    3983.5959   -51574.132   0.14889231 
   93000    292.34198    230.78528    148286.59   -47518.586    4014.6131   -51533.199   0.15226348 
   93200    290.41357   -119.75059    148774.36   -47518.533     3988.131   -51506.664    0.1477498 
   93400     294.5155   -257.14038    148893.73   -47520.471    4044.4612   -51564.932   0.14478406 
   93600    291.11216    150.46107    148382.13   -47503.639    3997.7244   -51501.363   0.14910017 
   93800    294.55968    199.04128    148337.51   -47496.198    4045.0678   -51541.266   0.14944394 
   94000    295.14567   -166.41372    148881.89   -47496.809    4053.1151   -51549.924    0.1461289 
   94200    292.15393   -195.26202    148829.31   -47579.996    4012.0307   -51592.027   0.14403932 
   94400    289.30237    247.76453    148260.72   -47563.805    3972.8714   -51536.677   0.14027376 
   94600    291.28055    138.51523    148393.81   -47562.154    4000.0369   -51562.191    0.1426768 
   94800    288.09004   -298.65076    148924.06   -47613.779     3956.223   -51570.002   0.14925197 
   95000    286.60154   -95.880547    148647.55   -47619.532     3935.782   -51555.314   0.15367995 
   95200    289.47265    310.63537    148122.04    -47624.84    3975.2098    -51600.05   0.14594859 
   95400    288.23303    46.128969    148505.67   -47638.324    3958.1866    -51596.51   0.13816191 
   95600    291.33533    -301.5184    148966.92   -47598.502    4000.7893   -51599.291   0.14080417 
   95800    290.31539    37.469466    148526.86   -47561.411    3986.7828   -51548.194   0.14670164 
   96000    292.61993    303.85257    148176.27   -47553.313      4018.43   -51571.743   0.14831794 
   96200    286.46962   -102.45333    148666.78   -47596.293    3933.9703   -51530.263   0.15086657 
   96400    291.95185   -255.23539    148898.66   -47588.786    4009.2556   -51598.042   0.14471566 
   96600     294.2084    171.04682    148372.94   -47601.408    4040.2439   -51641.652   0.14086209 
   96800    291.25823    229.63268    148252.13   -47653.731    3999.7304   -51653.462    0.1439712 
   97000    284.24091   -197.17102     148753.1    -47637.35    3903.3644   -51540.714   0.15453857 
   97200    286.12227   -184.24744    148778.74   -47623.579    3929.2003   -51552.779   0.15132702 
   97400    291.74054    148.46851    148344.51   -47579.041    4006.3537   -51585.395   0.14830578 
   97600    293.51749    124.06333    148418.64   -47552.215    4030.7559   -51582.971   0.14177357 
   97800      290.164   -121.32646    148782.86   -47545.492    3984.7038   -51530.196   0.14620558 
   98000    294.77932   -40.351075    148665.83   -47517.279     4048.084   -51565.363   0.14713153 
   98200    291.00623    134.35094    148415.85   -47527.874    3996.2698   -51524.144   0.14870515 
   98400     298.3585    38.821229    148559.73   -47458.055    4097.2355    -51555.29   0.14817711 
   98600    297.78374   -106.61291    148727.91   -47504.968    4089.3425    -51594.31   0.14230801 
   98800    292.20401    18.219726    148557.45   -47466.123    4012.7184   -51478.842   0.14735872 
   99000     296.7318    126.27274    148447.17   -47469.504    4074.8967     -51544.4   0.14695774 
   99200    288.84733   -6.0266828     148583.2   -47534.144    3966.6225   -51500.766   0.14883905 
   99400    282.54629   -128.95733    148640.89   -47627.801    3880.0928   -51507.894   0.15570402 
   99600    285.56138   0.27009303    148472.56   -47651.523    3921.4978   -51573.021   0.14783331 
   99800     291.2387    61.888948    148432.32   -47623.249    3999.4622   -51622.711   0.14503674 
  100000    286.64751   -61.858935       148596   -47623.087    3936.4132   -51559.501   0.14809597 
  100200    293.09438   -7.9613158     148605.1   -47580.137    4024.9456   -51605.082   0.15172439 
  100400    283.90702   -2.1717349    148487.07   -47576.767    3898.7792   -51475.546   0.15595291 
  100600     291.7667    60.082925     148491.9   -47526.069    4006.7131   -51532.782   0.15089704 
  100800    290.12308   -41.984231    148648.48   -47555.965    3984.1419   -51540.107   0.15230909 
  101000    295.67025   -28.314261     148645.1   -47538.381    4060.3189     -51598.7   0.14803144 
  101200    296.35612     47.77191    148517.93   -47518.426    4069.7377   -51588.164   0.14666234 
  101400    292.19982    18.876674    148549.56   -47524.736    4012.6608   -51537.396   0.15228201 
  101600    293.48485   -58.148445    148647.89   -47541.881    4030.3076   -51572.188   0.15317993 
  101800    294.90291   -41.767644    148612.55    -47509.26    4049.7813   -51559.041    0.1519063 
  102000    290.17986    65.272056     148520.1   -47509.505    3984.9216   -51494.427   0.14674635 
  102200    291.95132      63.4267    148580.78   -47501.602    4009.2484   -51510.851   0.14375134 
  102400    295.47954   -48.581349     148693.2   -47444.944    4057.6999   -51502.644    0.1480313 
  102600    291.54072   -27.515501    148621.08    -47457.14    4003.6098    -51460.75   0.15366714 
  102800    298.57021    105.45838    148508.79   -47468.818    4100.1428   -51568.961   0.14650527 
  103000    292.51062     31.97902    148587.37    -47462.29     4016.929   -51479.219   0.14763338 
  103200    293.31593   -101.49005    148708.04   -47442.673     4027.988   -51470.661   0.14864296 
  103400    291.42273     11.25231    148626.41   -47470.807    4001.9894   -51472.796   0.15074969 
  103600    295.14604    66.366406    148490.35   -47475.512    4053.1201   -51528.632   0.15214879 
  103800    294.10693   -12.228381    148556.65   -47480.216    4038.8504   -51519.066   0.15556564 
  104000    291.91876   -67.380897    148696.37   -47488.164    4008.8012   -51496.965   0.15004852 
  104200    290.77566   -28.074919    148612.35    -47501.52    3993.1034   -51494.623   0.15272448 
  104400    288.14666    80.856343     148427.8    -47517.49    3957.0005    -51474.49   0.15214568 
  104600    292.83487    63.667723    148494.56   -47513.488    4021.3817   -51534.869   0.15346217 
  104800    291.84301   -81.369702    148717.64   -47503.692     4007.761   -51511.453   0.15391747 
  105000    295.10768   -91.464641    148641.05   -47533.082    4052.5933   -51585.676   0.15111629 
  105200    292.09217    121.26944    148376.51   -47533.413    4011.1826   -51544.595   0.14760464 
  105400     290.2852    56.788895    148505.03    -47526.06    3986.3682   -51512.428   0.14920942 
  105600    293.82211   -195.11565    148801.67   -47523.247    4034.9392   -51558.186   0.15595882 
  105800    291.63841   -36.342985    148587.17   -47540.366    4004.9513   -51545.317   0.15604726 
  106000    289.86508    192.31963    148271.76    -47520.75    3980.5988   -51501.348   0.15252544 
  106200    298.26603    25.623925    148556.22   -47498.889    4095.9657   -51594.855    0.1474887 
  106400    294.31756   -237.76802    148871.26     -47509.1     4041.743   -51550.843   0.15125864 
  106600    294.53039    35.333628    148522.97   -47511.072    4044.6657   -51555.737   0.15397782 
  106800    297.69851    249.26639     148267.8   -47504.909    4088.1722   -51593.081   0.15141041 
  107000    295.22031   -51.580008    148692.48   -47461.327      4054.14   -51515.467   0.15049548 
  107200    290.37265   -277.26659    148896.32    -47448.65    3987.5691    -51436.22   0.14952195 
  107400    295.64541    105.95841    148425.01   -47456.418    4059.9777   -51516.396   0.14996134 
  107600    291.15399    225.70616    148315.23   -47434.341     3998.299    -51432.64   0.15439081 
  107800    292.06571   -194.32088    148858.03   -47456.098    4010.8192   -51466.917   0.15381907 
  108000    296.42806   -223.89192    148877.52   -47432.039    4070.7255   -51502.764   0.14972228 
  108200    299.02609    216.69994    148300.12   -47467.187    4106.4032    -51573.59   0.14923784 
  108400    295.88513     153.8522    148398.47   -47464.372    4063.2698   -51527.642   0.15112998 
  108600    292.05325   -260.30962    148955.51   -47435.137    4010.6481   -51445.785   0.15451759 
  108800    300.63189   -106.35805    148772.61   -47458.152     4128.455   -51586.607   0.14811909 
  109000    292.98061    261.82095    148239.73   -47496.134    4023.3831   -51519.517   0.15091326 
  109200    291.89168     50.55197    148496.67    -47499.51    4008.4293   -51507.939   0.15367513 
  109400    297.73046   -280.37031    148968.09   -47483.251    4088.6109   -51571.862   0.14755646 
  109600    297.94252    8.4468168       148651   -47444.732    4091.5231   -51536.255   0.14473103 
  109800    295.07821    220.64571    148261.46   -47496.159    4052.1887   -51548.348   0.15245415 
  110000    292.39826    14.495377    148590.76   -47434.622     4015.386   -51450.008   0.15081579 
  110200    294.64885   -260.40125    148950.66   -47420.895    4046.2923   -51467.187   0.15287081 
  110400    295.58491    15.631634    148566.94   -47473.048    4059.1469   -51532.195   0.15024114 
  110600    286.61538    259.44867    148229.52   -47544.906    3935.9721   -51480.878   0.14999065 
  110800    291.41266   -58.584891    148603.19   -47541.806    4001.8511   -51543.657   0.14660717 
  111000    293.21615   -227.52877    148865.89   -47542.763    4026.6177   -51569.381   0.14154318 
  111200    291.06306    71.770091    148472.01   -47530.712    3997.0502   -51527.762    0.1502527 
  111400    289.71977    183.36153    148302.04   -47585.273    3978.6033   -51563.877   0.14880035 
  111600    286.90383   -86.549714    148710.54   -47639.122    3939.9332   -51579.055    0.1432806 
  111800    284.93976   -182.02689    148831.91   -47670.042    3912.9615   -51583.003   0.14011801 
  112000    285.42631    140.02372    148388.55   -47662.606     3919.643   -51582.249   0.14590452 
  112200    288.92611    176.00353    148354.04   -47621.918    3967.7043   -51589.623   0.15194002 
  112400    293.89101   -138.97864    148810.95   -47589.584    4035.8853   -51625.469   0.14856809 
  112600    289.92721   -133.36074    148771.38    -47563.96    3981.4521   -51545.412   0.14806982 
  112800    290.56257    194.66973    148327.12   -47579.997    3990.1772   -51570.174    0.1440162 
  113000    293.56064    142.65526    148418.87   -47559.455    4031.3484   -51590.803   0.14282078 
  113200    287.97391    -205.5202    148824.89    -47594.61    3954.6282   -51549.238   0.14737769 
  113400    290.89668   -82.720932    148632.24   -47574.359    3994.7654   -51569.124   0.15553417 
  113600    290.34727    204.98849    148247.39   -47577.863    3987.2206   -51565.083   0.15132721 
  113800    295.25089    66.802871    148479.16   -47560.834    4054.5599   -51615.394   0.14590157 
  114000    289.69511   -185.99957    148781.36   -47544.499    3978.2648   -51522.764   0.14765403 
  114200     288.3738   -37.450856    148538.41   -47556.293    3960.1197   -51516.412   0.15326264 
  114400    292.59086     152.5722    148320.59   -47497.323    4018.0309   -51515.354   0.15053523 
  114600    291.77197   -10.861784     148567.6   -47470.578    4006.7854   -51477.364   0.14910876 
  114800    292.67965   -143.79285    148728.74   -47455.497    4019.2502   -51474.747   0.14884207 
  115000    290.54696    39.990906    148498.33    -47484.77    3989.9628   -51474.732   0.14767777 
  115200    296.34205    92.787908    148403.53   -47500.263    4069.5444   -51569.808   0.14989828 
  115400    296.86849   -8.0401133    148573.12   -47512.547    4076.7738   -51589.321   0.14876478 
  115600    288.06627   -85.643239    148638.05   -47493.414    3955.8965    -51449.31   0.15677607 
  115800    294.28649    46.206189    148493.82   -47510.357    4041.3163   -51551.673    0.1496403 
  116000    290.46728    58.700494    148456.92   -47495.311    3988.8686   -51484.179   0.15094284 
  116200    292.40443   -4.7875534    148572.37   -47512.546    4015.4707   -51528.017   0.15102514 
  116400    289.00246   -107.07181    148566.74   -47554.299    3968.7528   -51523.052   0.15401788 
  116600    290.22158    85.944137     148448.2    -47565.39    3985.4945   -51550.884   0.14693827 
  116800    288.25386    31.572565    148485.96   -47521.348    3958.4727    -51479.82   0.15050659 
  117000    288.22878   -23.829315    148601.52   -47527.697    3958.1282   -51485.825   0.14604068 
  117200    293.81532   -27.655162    148604.86    -47518.79    4034.8459   -51553.636   0.15064847 
  117400    291.65548    19.653572    148512.48   -47545.214    4005.1857     -51550.4   0.14955129 
  117600    290.20054    6.5709937    148525.16   -47525.223    3985.2056   -51510.429   0.15338226 
  117800    292.23911    -31.94171    148626.25   -47485.464    4013.2004   -51498.665   0.15140283 
  118000    293.32105   -52.184874    148604.47   -47477.817    4028.0582   -51505.875   0.15116991 
  118200    290.67502    70.967446    148488.53   -47511.563    3991.7214   -51503.285   0.14888293 
  118400    290.41867    39.416873     148499.4   -47561.589     3988.201    -51549.79   0.14652538 
  118600    293.97145    -58.05877    148583.29   -47590.239      4036.99   -51627.229   0.14587388 
  118800    287.60631    3.8084396    148564.76    -47640.37    3949.5801    -51589.95   0.14269623 
  119000    285.73066    -20.00979    148511.93   -47639.144    3923.8225   -51562.966   0.14581233 
  119200    288.53243    18.489136    148537.87   -47640.873    3962.2981   -51603.171   0.14445916 
  119400    286.49992   -39.227977    148590.73   -47667.118    3934.3865   -51601.505   0.14631194 
  119600    288.08388    19.443537    148535.97   -47606.539    3956.1383   -51562.677    0.1481065 
  119800    285.95332    30.407144     148501.5   -47602.867    3926.8803   -51529.747   0.15113111 
  120000    285.47824   -30.854289    148582.97   -47621.969    3920.3561   -51542.325   0.14984822 
  120200    288.02918   -37.504286    148619.64   -47594.861    3955.3871   -51550.248   0.14748843 
  120400    286.90914    6.7762031    148536.59   -47641.223    3940.0061   -51581.229    0.1456446 
  120600    293.68167    52.738788    148492.44    -47635.85    4033.0106   -51668.861   0.14472161 
  120800    290.02784   -15.450489    148588.52   -47626.716     3982.834    -51609.55   0.14774401 
  121000    287.84657   -60.092477    148646.72    -47611.06    3952.8795   -51563.939   0.14919954 
  121200    290.64595    22.775109    148530.52   -47609.822    3991.3222   -51601.144   0.14598809 
  121400    290.47985     83.21377    148489.48   -47608.882    3989.0413   -51597.924    0.1460587 
  121600    291.83688   -16.460352    148655.85   -47600.367    4007.6767   -51608.044    0.1417204 
  121800    287.78931   -131.06265    148715.48   -47598.254    3952.0931   -51550.347   0.14854529 
  122000    294.65899    86.773082     148483.1   -47576.123    4046.4316   -51622.555   0.14823604 
  122200    290.98156    85.859973    148472.53   -47544.786     3995.931   -51540.717   0.14572845 
  122400    296.29533   -84.750039    148787.54   -47499.462    4068.9029   -51568.365    0.1428079 
  122600    300.00381   -70.741674     148789.4   -47420.416    4119.8299   -51540.246   0.14176367 
  122800     289.0417    105.18829    148473.31    -47419.75    3969.2918   -51389.042   0.15229747 
  123000    294.91994    106.13404    148511.48   -47468.441    4050.0151   -51518.456   0.14804293 
  123200    293.05089   -171.20434    148816.79   -47492.391    4024.3483    -51516.74   0.15015592 
  123400    287.05973   -76.592039    148681.11   -47575.263    3942.0742   -51517.337   0.14723508 
  123600    293.06395    208.38124    148314.28   -47522.638    4024.5276   -51547.166   0.14153662 
  123800    293.34903    12.992441    148547.86   -47546.725    4028.4425   -51575.168   0.14719039 
  124000    292.00602   -228.97605     148917.7   -47527.969    4009.9995   -51537.969   0.14886635 
  124200    292.47984    7.6230656    148587.33   -47511.727    4016.5063   -51528.234   0.15119787 
  124400    290.01064    233.58474    148276.14   -47524.935    3982.5978   -51507.533   0.14982306 
  124600    286.80169   -61.678394    148689.73   -47543.363    3938.5305   -51481.893   0.14740804 
  124800    293.32551   -249.91251    148945.52    -47547.88    4028.1195   -51575.999   0.14665918 
  125000    296.81552    99.106006    148465.03   -47556.564    4076.0465   -51632.611   0.14955993 
  125200    296.07438      273.671    148260.12   -47546.901    4065.8686   -51612.769   0.14914124 
  125400     291.9209   -173.94949    148788.38   -47615.593    4008.8306   -51624.424   0.14453652 
  125600    291.93259   -211.07538    148844.43   -47607.866    4008.9911   -51616.857   0.14178478 
  125800    289.80324    240.03308    148260.82   -47597.706    3979.7496   -51577.456   0.14408276 
  126000    291.84913    237.98138    148315.87   -47566.261     4007.845   -51574.106   0.14546075 
  126200    292.99047   -294.14801    148939.72    -47546.29    4023.5185   -51569.809   0.14853686 
  126400    291.06723      -198.68    148791.09   -47575.051    3997.1074   -51572.158     0.149234 
  126600    292.27096    314.85731     148180.4   -47599.785    4013.6379   -51613.423   0.14351059 
  126800    287.36534    136.18287    148428.51   -47572.655     3946.271   -51518.926   0.14709629 
  127000    290.74254   -319.83622    149038.53   -47588.105    3992.6486   -51580.754   0.14427034 
  127200     290.8236   -77.359519    148650.91   -47623.885    3993.7619   -51617.647   0.14520689 
  127400    290.86975    354.41896    148094.24   -47622.577    3994.3956   -51616.972   0.14254772 
  127600    286.98743    6.4246324    148576.51   -47617.435    3941.0812   -51558.516   0.14322234 
  127800    288.48459   -379.40804    149032.74   -47605.427    3961.6411   -51567.068   0.14708712 
  128000     290.2954     50.67627    148502.07   -47603.043    3986.5082   -51589.551   0.14383493 
  128200    293.75557    328.80608    148152.42   -47568.546    4034.0254   -51602.572   0.14887615 
  128400    286.14962   -96.553048    148743.07   -47596.718     3929.576   -51526.294   0.14831796 
  128600    286.83334   -327.58006    148991.68   -47627.304    3938.9653    -51566.27   0.14989179 
  128800    291.49045    140.23802    148366.77   -47663.462    4002.9194   -51666.381   0.14723518 
  129000    289.34418    268.17745    148180.43   -47697.334    3973.4456   -51670.779   0.14309642 
  129200    282.92037   -131.29263    148748.07   -47654.743      3885.23   -51539.973   0.14537258 
  129400    289.25423   -221.42591    148868.02   -47653.198    3972.2103   -51625.408   0.14469164 
  129600    284.53076     135.9059    148365.18   -47652.902    3907.3449   -51560.247    0.1500531 
  129800    287.72618    166.60606    148339.67    -47665.88    3951.2263   -51617.106   0.14472609 
  130000    294.01701   -129.09504    148762.68    -47677.07    4037.6155   -51714.685   0.14141084 
  130200    290.18238   -121.41672    148701.02    -47693.71    3984.9563   -51678.666   0.14494461 
  130400    286.87452    151.52736    148322.64   -47678.547    3939.5308   -51618.078   0.15189143 
  130600    286.98152    66.072776    148444.83   -47635.183    3941.0001   -51576.183   0.15071312 
  130800    287.17428   -141.92287     148780.3   -47655.326    3943.6472   -51598.973   0.14557602 
  131000    288.91896   -35.718803    148614.18   -47674.843    3967.6061   -51642.449   0.14694484 
  131200    289.25338    166.44624    148328.44   -47647.624    3972.1986   -51619.822   0.14370424 
  131400    290.11296    15.571491    148564.13   -47648.933    3984.0028   -51632.935   0.14519106 
  131600    281.54996   -173.69519    148792.79   -47639.014    3866.4107   -51505.424   0.15080476 
  131800    288.17417    25.312793    148506.64   -47610.155    3957.3782   -51567.533   0.15250961 
  132000    293.48764     207.8836    148317.44    -47553.78     4030.346   -51584.126   0.14843767 
  132200    290.60648   -54.692716    148630.14   -47559.752    3990.7802   -51550.532   0.15024239 
  132400    291.29465    -153.7821    148746.03   -47562.659    4000.2305    -51562.89   0.15491077 
  132600    290.27657    72.337071    148444.47   -47538.426    3986.2497   -51524.676    0.1575956 
  132800    292.67542    147.01369    148443.21   -47509.041    4019.1921   -51528.233   0.15209738 
  133000    294.49251    -124.5898       148771   -47504.409    4044.1455   -51548.554   0.15251837 
  133200    294.78121   -98.877158    148703.49   -47452.223    4048.1101   -51500.333   0.15306103 
  133400    299.35392    155.92582    148406.31   -47439.057    4110.9052   -51549.962   0.15043979 
  133600    302.51934    62.435369    148567.57   -47453.028    4154.3746   -51607.403   0.14971406 
  133800    293.23082   -185.35132    148850.96   -47472.986    4026.8192   -51499.805   0.15708931 
  134000    291.92386    1.7829285    148599.28   -47422.015    4008.8713   -51430.887    0.1545705 
  134200    291.52081    209.36126    148367.95   -47436.086    4003.3363   -51439.422   0.15004604 
  134400    294.01223    -31.68325    148674.84    -47436.27    4037.5499    -51473.82   0.14999869 
  134600     294.0117   -207.87656    148878.11   -47453.096    4037.5427   -51490.639    0.1544559 
  134800     288.2571    49.815966    148500.56   -47495.549    3958.5172   -51454.066   0.15235511 
  135000    288.96598    190.39503    148321.09   -47551.914    3968.2519   -51520.165   0.14935817 
  135200      290.951   -126.96084    148707.17   -47563.016    3995.5114   -51558.527   0.14945051 
  135400     285.2862   -250.92284    148825.44   -47582.904     3917.719   -51500.623   0.15435171 
  135600    288.34786    113.41602    148385.49   -47546.036    3959.7635   -51505.799   0.15246275 
  135800    287.05874    140.49575    148308.56   -47617.563    3942.0605   -51559.624   0.14912975 
  136000    287.35136   -183.57287    148740.77   -47649.916     3946.079   -51595.995   0.15229582 
  136200    285.80568   -182.52138    148748.51   -47659.686    3924.8527   -51584.539    0.1534517 
  136400    293.17368    191.95388    148300.41   -47614.306    4026.0345    -51640.34   0.14820033 
  136600    291.57624     134.8753    148402.13    -47557.29    4004.0976   -51561.387   0.15202277 
  136800    290.13618    -258.7646    148846.43   -47566.869    3984.3218   -51551.191    0.1557917 
  137000    290.42735   -98.652799    148677.59    -47571.38    3988.3203   -51559.701   0.15368644 
  137200    291.63311    254.89916    148256.97   -47603.103    4004.8785   -51607.982   0.15024013 
  137400    289.36095    47.460217    148492.02   -47562.345    3973.6758   -51536.021   0.15693624 
  137600    291.73943   -265.72421    148942.56   -47553.569    4006.3385   -51559.908   0.15180595 
  137800    288.23737   -46.861053    148622.13    -47527.49    3958.2462   -51485.736   0.15272352 
  138000      289.025    292.76476    148207.38   -47524.543    3969.0624   -51493.606   0.15428277 
  138200     284.6846   -76.197554    148627.59   -47576.442    3909.4575     -51485.9   0.15535018 
  138400    288.26644   -294.06499    148959.32    -47560.06    3958.6453   -51518.705   0.15345617 
  138600     289.5781    107.22602    148430.66   -47574.924    3976.6579   -51551.582   0.14542855 
  138800    291.75521    294.33145    148162.55   -47524.777    4006.5552   -51531.332   0.15026281 
  139000    292.91085   -205.54192    148853.85   -47514.051    4022.4252   -51536.476   0.14971789 
  139200    296.76253    -320.1609    149054.46    -47513.84    4075.3188   -51589.159   0.14603327 
  139400    290.60311    309.44759    148175.73   -47539.841     3990.734   -51530.574   0.15098223 
  139600    290.89758    365.38036    148089.63   -47522.238    3994.7778   -51517.016   0.15162685 
  139800    289.52181   -418.17411    149145.68   -47481.709    3975.8849   -51457.594   0.15104295 
  140000     293.9643   -345.72514    149071.71   -47448.119    4036.8918   -51485.011   0.15048325 
  140200    293.52045    508.39271     147934.7   -47489.676    4030.7965   -51520.473   0.15103008 
  140400    292.33331      268.981    148232.82   -47518.824     4014.494   -51533.318   0.15349984 
  140600    291.10718   -565.49059    149307.42   -47515.653    3997.6561   -51513.309   0.15799856 
  140800    291.02053   -160.21174    148809.37   -47509.279    3996.4662   -51505.745   0.14919215 
  141000    293.21917    520.34608    147919.63   -47546.018    4026.6592   -51572.677   0.15106088 
  141200    295.88044    51.072314    148502.94   -47501.715    4063.2053    -51564.92   0.15326018 
  141400     292.6818    -472.1044    149162.72    -47503.53    4019.2797    -51522.81   0.15916961 
  141600    291.78788   -15.127515    148570.93   -47487.726    4007.0038    -51494.73   0.15684979 
  141800    290.68015    361.98055       148107   -47540.058    3991.7919    -51531.85   0.15216806 
  142000    289.06649   -36.241952    148623.84   -47557.162    3969.6321   -51526.794   0.15180303 
  142200    292.85202   -233.76703    148917.92   -47553.315    4021.6173   -51574.932   0.14556003 
  142400    299.06402    83.841193    148469.84   -47557.637    4106.9241   -51664.561   0.14659463 
  142600    290.39503     203.8005    148286.38   -47547.596    3987.8764   -51535.472   0.15504388 
  142800    294.29218   -139.46437    148710.84   -47553.827    4041.3945   -51595.221   0.15140373 
  143000    287.86617   -152.25445    148757.41   -47613.964    3953.1486   -51567.112   0.14655699 
  143200    294.09549    156.23169     148370.9   -47582.439    4038.6933   -51621.133   0.14431861 
  143400    290.47709    144.14364    148410.19   -47546.849    3989.0033   -51535.853   0.15156514 
  143600    293.53039   -119.26373    148776.81   -47535.865     4030.933   -51566.798   0.14641587 
  143800    295.03934   -52.086567    148699.04   -47548.877    4051.6548   -51600.532   0.15063367 
  144000    293.54314    161.03539    148392.41   -47536.181    4031.1081   -51567.289   0.14872198 
  144200    297.03713    68.970074    148525.97   -47510.853    4079.0897   -51589.943   0.15063805 
  144400    289.16644   -172.31232    148811.53   -47512.069    3971.0047   -51483.074   0.15174983 
  144600    297.64551    2.1785278    148645.66   -47486.921    4087.4443   -51574.365   0.14969533 
  144800     295.8781    143.96427    148433.01   -47456.442    4063.1732   -51519.616   0.16190735 
  145000    290.66535   -30.534314    148630.11   -47500.921    3991.5886    -51492.51   0.15689865 
  145200    291.17149   -153.71803    148775.42   -47531.644    3998.5393   -51530.183   0.15260692 
  145400    293.76122    75.116433    148551.71   -47536.353    4034.1029   -51570.455   0.14627088 
  145600    294.11178      104.416     148416.4   -47555.337     4038.917   -51594.254   0.15256845 
  145800    288.15795   -122.20348     148639.5    -47570.86    3957.1556   -51528.016   0.15766736 
  146000    287.16962    -123.0347    148697.74   -47557.372    3943.5831   -51500.955   0.15551795 
  146200    289.56344    63.631376    148483.35   -47588.808    3976.4565   -51565.264   0.15399537 
  146400    293.90024    136.31222    148436.13   -47541.104     4036.012   -51577.117    0.1466944 
  146600    293.64204   -83.048168    148636.56   -47504.539    4032.4663   -51537.005   0.15232452 
  146800    288.63748   -76.466413    148695.45   -47459.449    3963.7407    -51423.19   0.15639053 
  147000    293.37336    37.844837    148533.38   -47474.132    4028.7767   -51502.908   0.15961311 
  147200    289.94199    53.896935    148516.23   -47441.124     3981.655   -51422.779   0.15725096 
  147400    287.90889   -59.271679    148665.67    -47506.04    3953.7353   -51459.775   0.14981609 
  147600    292.31911    4.6507383    148597.19   -47518.558     4014.299   -51532.857   0.14691759 
  147800    289.49465    52.741406    148421.56    -47560.59    3975.5119   -51536.101   0.15781766 
  148000    293.91841    29.813345    148520.27   -47525.602    4036.2616   -51561.864   0.15475871 
  148200     289.1971   -134.92656     148724.9   -47567.344    3971.4258    -51538.77   0.15458308 
  148400    289.19982   -30.829384    148554.65   -47616.373    3971.4631   -51587.836   0.15761671 
  148600     290.3096    156.99288    148303.59   -47586.234    3986.7032   -51572.937   0.15358619 
  148800    293.78346   -37.265136    148592.77   -47590.068    4034.4084   -51624.476   0.15422204 
  149000    289.63489    -188.3314    148828.48   -47594.396    3977.4378   -51571.834   0.15330549 
  149200    286.93169    62.680539    148436.11   -47600.961    3940.3157   -51541.277   0.15757627 
  149400    286.31417    190.48381    148262.16   -47624.704    3931.8357   -51556.539   0.15624351 
  149600    295.53006   -116.32353    148719.35   -47624.872    4058.3937   -51683.266   0.14115275 
  149800     294.2226   -182.85318    148796.52   -47609.319    4040.4389   -51649.758     0.149406 
  150000    288.07424    161.45805    148263.01   -47567.279     3956.006   -51523.285   0.15715838 
  150200    292.85696    218.14473    148275.56    -47512.77    4021.6851   -51534.455   0.15015464 
  150400    291.42464    -250.8962    148847.47   -47482.859    4002.0157   -51484.875   0.15668822 
  150600    295.87051   -154.22937    148737.35    -47534.46     4063.069   -51597.529   0.15182416 
  150800    290.18472    285.34567     148184.2   -47496.381    3984.9883   -51481.369   0.15615985 
  151000    288.19366    101.80426    148384.36   -47536.871     3957.646   -51494.517   0.15350429 
  151200    292.14765   -239.09622    148910.67   -47523.521    4011.9445   -51535.466   0.15321807 
  151400    296.78515   -53.068773    148662.06   -47437.052    4075.6293   -51512.681   0.15500526 
  151600    299.92772     263.1179    148237.21   -47424.109     4118.785   -51542.894   0.15343039 
  151800    297.45291    4.9427801    148583.36    -47437.42    4084.7994   -51522.219   0.15176798 
  152000    294.31674   -273.39528    148959.21   -47438.273    4041.7317   -51480.004   0.15877482 
  152200    294.21089    23.817445    148565.61   -47458.548    4040.2781   -51498.826   0.15604537 
  152400    293.22026     265.2001    148242.31   -47507.492    4026.6741   -51534.166   0.15627558 
  152600    290.10853   -54.719442    148646.36   -47476.782     3983.942   -51460.724   0.15673625 
  152800    299.03447   -201.33773    148893.81   -47408.484    4106.5183   -51515.003   0.15314778 
  153000    293.01424    92.982289    148462.29   -47477.268     4023.845   -51501.113   0.15790632 
  153200    295.62337    208.75492    148240.48   -47417.425    4059.6751     -51477.1   0.15838294 
  153400    295.33666   -75.729376    148709.44   -47472.605    4055.7379   -51528.343   0.15473056 
  153600    290.52175   -190.02546    148857.82   -47498.675    3989.6166   -51488.292   0.15568429 
  153800    292.92283    131.70643    148347.13   -47527.692    4022.5897   -51550.282    0.1514171 
  154000    291.59475    200.69007    148267.91    -47542.47    4004.3517   -51546.822   0.14973622 
  154200    291.28662   -149.33563    148803.73   -47488.363    4000.1203   -51488.483   0.15144212 
  154400    293.53118   -184.01785    148833.96   -47481.878     4030.944   -51512.822   0.15518407 
  154600    290.85576    164.37151    148299.97   -47503.549    3994.2035   -51497.753   0.15453746 
  154800    287.72403    198.12696    148343.29   -47519.602    3951.1967   -51470.799    0.1498244 
  155000    292.74903   -256.70566    148852.08   -47508.011    4020.2029   -51528.214   0.15237345 
[...]
  163200      293.738    39.420707    148501.64   -47576.829    4033.7841   -51610.613   0.14832432 
  163400    288.62034   -144.27925    148694.93   -47610.045    3963.5053    -51573.55   0.15667469 
  163600    293.44071    48.087696    148539.01   -47559.766    4029.7015   -51589.467    0.1510614 
  163800    290.16634    166.33395    148356.77    -47620.49    3984.7359   -51605.226   0.14897349 
  164000    291.25901   -63.335889    148599.22   -47637.897    3999.7412   -51637.638   0.15360055 
  164200    286.37145    -156.5971    148793.14   -47633.455    3932.6222   -51566.078   0.14897577 
  164400    296.39537    104.97247    148443.12   -47576.909    4070.2766   -51647.186   0.14961341 
  164600    293.38033    208.48762    148269.06   -47555.999    4028.8723   -51584.871   0.15241053 
  164800    292.89013   -192.65569    148762.26   -47594.549    4022.1407    -51616.69   0.15101597 
  165000    290.49956   -244.01377    148880.61   -47569.095    3989.3119   -51558.407   0.15025199 
  165200    291.53592    233.77791    148276.86   -47565.449    4003.5438   -51568.993   0.15299886 
  165400    288.49839    213.06117     148249.9   -47595.309    3961.8307   -51557.139   0.15730244 
  165600    292.40604   -279.99826    148931.32   -47533.836    4015.4929   -51549.329   0.15640273 
  165800    287.44112   -198.62351    148807.88   -47558.204    3947.3116   -51505.515   0.15264782 
  166000     287.2845    320.54753    148108.21    -47515.98    3945.1609   -51461.141   0.15229692 
  166200    290.60609    145.47645     148378.7   -47549.321    3990.7749   -51540.096   0.14839444 
  166400    291.91284   -373.26139    149078.65   -47543.588    4008.7199   -51552.308   0.15241659 
  166600    290.69927   -83.666361    148687.65   -47539.524    3992.0544   -51531.578   0.15119382 
  166800    294.72001    401.73889    148040.96   -47600.262    4047.2696   -51647.532   0.14476823 
  167000    287.58744    51.612748    148514.61   -47602.437     3949.321   -51551.758   0.14621192 
  167200    289.80529   -384.93464    149090.39   -47548.596    3979.7778   -51528.374   0.15061432 
  167400    291.89201    1.2743707    148562.97   -47596.362    4008.4338   -51604.796   0.15391248 
  167600    293.52155    361.72104    148106.96   -47577.187    4030.8116   -51607.999   0.15309011 
  167800    283.56684   -89.256594    148656.09   -47646.896    3894.1077   -51541.003   0.15245946 
  168000    287.97998   -320.33952    148946.07    -47634.64    3954.7115   -51589.351   0.15053888 
  168200    290.67927    112.03377    148404.79   -47631.658    3991.7799   -51623.437   0.14694786 
  168400    288.84206    234.21033    148212.32   -47588.258    3966.5501   -51554.808   0.15657773 
  168600    291.27517   -151.42224     148729.1   -47601.023    3999.9631   -51600.986   0.15009802 
  168800    285.81582   -195.79899    148824.71   -47639.447     3924.992   -51564.439   0.15101673 
  169000    284.27608    157.98191    148367.55   -47624.774    3903.8474   -51528.621   0.14435467 
  169200    297.27081    145.12496    148380.51   -47595.853    4082.2988   -51678.151   0.14409779 
  169400    287.50343   -158.88883    148786.08   -47621.137    3948.1673   -51569.304   0.15320042 
  169600    298.07962   -96.880186     148695.7   -47632.199    4093.4057   -51725.604   0.14533135 
  169800    293.68772    129.83604    148324.67   -47637.841    4033.0936   -51670.935   0.15408207 
  170000    290.11965    39.264246    148461.99    -47676.33    3984.0947   -51660.425   0.14673901 
  170200    293.11543   -153.06285    148748.44    -47685.33    4025.2346   -51710.564   0.14344431 
  170400    283.82019   -5.3516567    148554.52   -47654.069    3897.5868   -51551.656   0.14782628 
  170600    286.83902    189.31519     148362.9   -47635.741    3939.0431   -51574.784   0.14593148 
  170800    283.80862   -32.090207    148599.17   -47659.423     3897.428   -51556.851   0.14562643 
  171000    289.35345   -141.86732    148726.88   -47660.598    3973.5728    -51634.17   0.14398514 
  171200    289.59259    14.677184    148481.32   -47687.001    3976.8568   -51663.858   0.14153516 
  171400    288.06923    116.69521    148382.29   -47682.214    3955.9371   -51638.152   0.14439638 
  171600    284.35216   -63.042402    148646.23   -47645.692    3904.8922   -51550.584   0.15104881 
  171800    291.71926   -119.50174    148702.79   -47623.858    4006.0615    -51629.92   0.14690993 
  172000    286.69556    42.343612    148448.31   -47629.648    3937.0731   -51566.721   0.15423194 
  172200     287.5249    92.627022     148416.9   -47635.828    3948.4621    -51584.29   0.14855739 
  172400    289.30055   -55.826748    148641.91   -47603.798    3972.8464   -51576.644   0.14888653 
  172600    292.37239   -23.939249    148637.03   -47587.173    4015.0308   -51602.204   0.14590416 
  172800    294.36419    78.441367    148428.09    -47596.18    4042.3833   -51638.563   0.14933337 
  173000    288.51858    73.287748    148441.72   -47613.964    3962.1079   -51576.072   0.15030979 
  173200    285.05431     -121.307    148626.66   -47651.086    3914.5345    -51565.62   0.15146874 
  173400    289.81542   -12.444756    148545.66   -47636.908    3979.9168   -51616.825   0.14748404 
  173600    292.44484    162.95115    148395.64   -47587.305    4016.0257    -51603.33   0.14497627 
  173800    293.24748   -25.287039    148548.96   -47589.197    4027.0479   -51616.245   0.15309338 
  174000    293.32558   -93.697803    148693.17   -47552.179    4028.1204     -51580.3   0.15511187 
  174200    290.28609    9.7894578    148523.69   -47545.306    3986.3804   -51531.686   0.15657951 
  174400    289.84073    112.17756    148402.74   -47527.971    3980.2645   -51508.236   0.14814571 
  174600    291.49182   -26.583748    148625.55   -47539.999    4002.9382   -51542.937   0.14484547 
  174800    294.44046   -139.01928    148738.03   -47503.651    4043.4307   -51547.081   0.15099602 
  175000    289.81133    49.749458    148448.46   -47551.767    3979.8608   -51531.628   0.15452585 
  175200    292.93585    175.08336    148401.63   -47548.853    4022.7685   -51571.621   0.15025031 
  175400    291.47073    -150.1774    148826.26   -47558.953    4002.6486   -51561.602   0.14668157 
  175600    292.66199   -124.63953    148799.54   -47570.472    4019.0077    -51589.48    0.1464885 
  175800     291.8947    249.97291     148285.7    -47554.29    4008.4708   -51562.761   0.14971064 
  176000    290.63227      135.801    148405.75   -47542.868    3991.1343   -51534.002   0.15383326 
  176200    292.33377   -301.96728    148978.19    -47491.24    4014.5003   -51505.741   0.15797783 
  176400    291.43559   -126.58217    148755.88   -47530.562     4002.166   -51532.728   0.15176404 
  176600    292.27704    356.25831     148134.5   -47509.959    4013.7213    -51523.68   0.14681934 
  176800    296.34663      108.674    148477.52   -47519.307    4069.6073   -51588.914   0.14440132 
  177000    293.57928   -370.27558     149082.3   -47533.329    4031.6044   -51564.934   0.15469404 
  177200    291.33204   -1.6559868     148607.4   -47547.776     4000.744    -51548.52   0.15080922 
  177400    290.13193    342.27893    148053.19   -47637.538    3984.2634   -51621.801   0.15309714 
  177600    288.73735   -23.367337    148607.61    -47603.76    3965.1122   -51568.872   0.14573041 
  177800    291.17073   -405.90694    149067.86   -47579.923    3998.5288   -51578.452   0.14845787 
  178000    290.71975    104.90071    148445.16   -47538.827    3992.3357   -51531.162   0.15136795 
  178200     296.1435    324.05395    148158.46   -47575.281    4066.8179   -51642.099   0.15047917 
  178400     293.6854   -164.33006     148809.2   -47552.098    4033.0618   -51585.159   0.15113704 
  178600    290.57568   -269.54515    148954.33   -47566.382    3990.3573   -51556.739   0.14494743 
  178800    290.70389    205.92503    148294.93   -47535.822    3992.1179    -51527.94   0.14684379 
  179000    294.00415    229.74841    148286.29   -47510.728    4037.4391   -51548.167    0.1451732 
  179200    296.74217   -236.72526    148902.32   -47535.435    4075.0391   -51610.474   0.14410898 
  179400    294.79496    -154.6796    148772.26   -47507.745    4048.2989   -51556.044   0.14658618 
  179600    292.46109    300.48657    148228.59   -47512.753    4016.2487   -51529.001   0.14639426 
  179800    293.14698    99.789739    148465.56   -47543.984    4025.6679   -51569.652   0.14695394 
  180000    292.85579   -235.27597    148921.57   -47509.549     4021.669   -51531.218   0.14784964 
  180200    285.76769   -77.993633    148692.26   -47469.525    3924.3311   -51393.856    0.1522865 
  180400    292.95801    182.47775    148348.18   -47426.418    4023.0727    -51449.49   0.15448585 
  180600    291.50913     14.66077    148595.84   -47516.384    4003.1759    -51519.56   0.15189591 
  180800    293.46978   -145.24139    148822.44   -47480.627    4030.1008   -51510.728   0.15215744 
  181000    294.12661    9.0117484    148583.98    -47522.02    4039.1207   -51561.141   0.14798138 
  181200    295.76709    145.29205    148436.74   -47506.623    4061.6488   -51568.271   0.14053155 
  181400    293.10146   -58.278107    148694.03   -47546.639    4025.0427   -51571.682   0.14321813 
  181600    292.30025   -121.36372    148764.13    -47566.82      4014.04    -51580.86    0.1443419 
  181800    292.43023    81.653429    148493.39   -47538.154    4015.8249   -51553.979   0.14992149 
  182000    287.14434    84.701369    148469.14   -47544.737    3943.2361   -51487.973   0.15197293 
  182200     290.5493   -89.568977    148720.98    -47560.58    3989.9949   -51550.575     0.143859 
  182400    291.17925   -89.182679    148674.07   -47561.242    3998.6457   -51559.888   0.14619178 
  182600    293.24252    138.09031    148422.31   -47524.758    4026.9798   -51551.738   0.14654116 
  182800    292.94287    43.582271    148529.65   -47489.683    4022.8649   -51512.548   0.15098261 
  183000    295.66461   -108.63681    148765.89   -47489.612    4060.2414   -51549.854   0.14369835 
  183200    297.72312   -5.7287867    148637.24   -47471.963    4088.5101   -51560.473   0.14094948 
  183400    293.04527    144.71887    148458.01   -47479.801    4024.2712   -51504.072   0.14455937 
  183600    293.86743   -24.382986    148589.03   -47510.486    4035.5615   -51546.048     0.148993 
  183800    291.37694   -124.23076    148717.17   -47542.388    4001.3606   -51543.749   0.14733545 
  184000    290.31562    24.578257    148549.43   -47554.943    3986.7859   -51541.729   0.14717815 
  184200    292.72493    156.65143     148452.1   -47598.077    4019.8719   -51617.949   0.14006737 
  184400    286.10105   -50.328359    148608.87   -47607.673    3928.9089   -51536.582   0.14901971 
  184600    287.68071   -59.680967    148672.91   -47615.621    3950.6017   -51566.223   0.14545506 
  184800    287.54306    27.061838    148526.93   -47602.777    3948.7115   -51551.488   0.14662184 
  185000    291.69133    87.671695    148469.82   -47593.974     4005.678   -51599.652   0.14673218 
  185200    288.12043   -35.924478    148629.03   -47651.277    3956.6403   -51607.917   0.14019986 
  185400     288.1002   -67.296257    148653.58   -47628.453    3956.3625   -51584.815    0.1427837 
  185600    291.22601    25.216009    148489.56   -47632.289    3999.2879   -51631.577   0.14383099 
  185800    293.21809    93.497396    148488.38   -47577.266    4026.6444   -51603.911   0.14506323 
  186000    290.66175   -85.751057    148703.82   -47564.116    3991.5392   -51555.655    0.1469249 
  186200    294.32562   -42.293757    148660.57   -47555.319    4041.8536   -51597.172   0.14289491 
  186400    292.68375    97.713133     148434.6   -47504.887    4019.3065   -51524.194   0.14894578 
  186600    291.27468    36.349937    148523.37   -47538.641    3999.9563   -51538.598   0.14951285 
  186800     290.7389   -125.96582    148759.31   -47565.304    3992.5987   -51557.903   0.14498496 
  187000    296.09872    6.3108987    148612.03   -47537.084    4066.2029   -51603.287   0.14236153 
  187200     293.9613    198.63917    148348.97   -47555.922    4036.8506   -51592.772   0.14133934 
  187400    290.52701   -2.9489393     148571.1   -47541.742    3989.6889   -51531.431    0.1430814 
  187600    292.13678   -211.83464    148848.78   -47581.658    4011.7951   -51593.453   0.14437871 
  187800    287.57178      65.2398    148518.93   -47568.789    3949.1059   -51517.895   0.14441576 
  188000    287.73183     202.3887     148261.4   -47542.843    3951.3037   -51494.147   0.15289474 
  188200    292.32961   -79.515567    148664.86     -47535.1    4014.4432   -51549.543   0.14952586 
  188400    294.28937   -228.94239    148867.93   -47521.979    4041.3558   -51563.335   0.14750952 
  188600    292.43115    181.84021    148353.96   -47526.849    4015.8376   -51542.687    0.1458489 
  188800    291.14848    275.60492    148197.35   -47540.224    3998.2232   -51538.447   0.15076455 
  189000    288.08962     -216.013    148757.96   -47533.327    3956.2172   -51489.544     0.153457 
  189200    297.10185   -212.57088    148866.63   -47536.922    4079.9784   -51616.901   0.14733576 
  189400     294.0594    192.66441    148284.07   -47498.118    4038.1978   -51536.316   0.15450167 
  189600    293.42002    193.06846    148252.77   -47513.602    4029.4174    -51543.02   0.14840752 
  189800    290.84148   -257.04349    148879.35   -47552.084    3994.0074   -51546.091   0.14758794 
  190000    288.67113    -211.5232    148786.81   -47582.583    3964.2028   -51546.786   0.14774115 
  190200    288.60007    266.22166    148133.29   -47556.087     3963.227   -51519.315   0.15638601 
  190400    292.59351    141.54541    148347.05   -47557.106    4018.0672   -51575.174   0.15123788 
  190600    294.51781   -314.34083     149012.2   -47498.281    4044.4929   -51542.774   0.15196923 
  190800    296.36841   -119.69103    148724.42   -47531.774    4069.9065    -51601.68    0.1478557 
  191000    295.04395    366.75348    148100.07   -47544.376    4051.7181   -51596.094   0.14215516 
  191200    291.94575    59.588063    148473.83   -47539.351    4009.1718   -51548.522   0.14491596 
  191400    292.40596   -322.22442     149006.5   -47562.379    4015.4917    -51577.87   0.14651337 
  191600    292.22148    9.0547688    148570.47   -47515.939    4012.9583   -51528.898   0.14905266 
  191800    291.96594    282.38062    148142.44   -47549.538    4009.4491   -51558.987   0.15154742 
  192000    287.22716    -77.79265    148621.59   -47550.319    3944.3733   -51494.693   0.14998032 
  192200    292.63064   -330.80871    148950.54   -47519.673    4018.5772   -51538.251   0.15242575 
  192400    298.41085    111.55986    148444.86   -47527.821    4097.9544   -51625.775   0.14616157 
  192600    293.53517    225.16777    148221.92   -47559.036    4030.9986   -51590.034   0.15004658 
  192800    292.48261    -108.8686    148725.94   -47535.808    4016.5443   -51552.352    0.1481375 
  193000    293.53799   -198.02505     148894.7   -47525.487    4031.0375   -51556.525   0.14358796 
  193200    290.14301    122.21086    148462.27   -47478.902    3984.4156   -51463.317    0.1487044 
  193400    294.84576    164.84664    148393.86   -47483.064    4048.9965    -51532.06   0.14490056 
  193600    292.62707   -135.65498    148777.16   -47495.699    4018.5282   -51514.227   0.14634132 
  193800    291.48831   -143.54757    148750.36   -47545.453      4002.89   -51548.343   0.14797577 
  194000    289.55105    122.81767    148400.79   -47570.773    3976.2864    -51547.06    0.1445261 
  194200    295.12742    81.383011    148457.44   -47557.707    4052.8644   -51610.571   0.14329542 
  194400     295.7495    -129.1101    148723.37   -47537.905    4061.4072   -51599.312   0.14943832 
  194600    285.33104   -100.25451    148627.35   -47561.656    3918.3348    -51479.99   0.15561342 
  194800    292.70149    135.24901    148369.92   -47548.032    4019.5501   -51567.582   0.14709749 
  195000     290.7867     36.56167    148506.79   -47529.966    3993.2551   -51523.221   0.14577845 
  195200     291.2902     -141.818    148716.84   -47514.416    4000.1694   -51514.586   0.15218479 
  195400    293.67416   -13.845124    148556.98   -47516.778    4032.9073   -51549.685   0.14543333 
  195600    294.46441    160.75908    148401.25   -47521.091    4043.7596    -51564.85   0.13886086 
  195800    290.89315   -48.616429    148595.66   -47566.811    3994.7169   -51561.527   0.14283472 
  196000    294.75803   -79.265893    148708.33   -47536.764    4047.7917   -51584.555   0.14530589 
  196200    295.41677    33.701619    148579.42   -47523.756    4056.8379   -51580.594   0.14367629 
  196400    292.46302    92.496857     148517.9   -47523.453    4016.2752   -51539.728   0.14278161 
  196600    289.48001      2.33006    148628.36   -47590.454    3975.3108   -51565.765   0.14299401 
  196800    292.00833    -70.68643    148634.37    -47582.77    4010.0312   -51592.801   0.14596544 
  197000    290.60546    46.288853    148498.49   -47593.092    3990.7663   -51583.858   0.14488802 
  197200     287.4332    55.520009    148505.12   -47648.786    3947.2028   -51595.989   0.14241778 
  197400    287.19298   -48.611285     148622.6   -47606.371    3943.9039   -51550.275   0.14374167 
  197600    293.50045    -24.90186     148595.4   -47519.611    4030.5218   -51550.133   0.14564507 
  197800    295.05764    66.126836    148486.69   -47506.553    4051.9062   -51558.459   0.14265997 
  198000    294.81591  -0.42916667    148522.46   -47536.489    4048.5866   -51585.076    0.1434739 
  198200    290.10505   -50.958952    148596.17   -47560.825    3983.8942   -51544.719   0.14728313 
  198400    290.39301    16.710461    148561.89   -47486.754    3987.8487   -51474.603   0.15180149 
  198600    297.26321    18.695072    148534.11   -47476.948    4082.1943   -51559.142   0.14523453 
  198800    293.64684   -46.145695    148587.54   -47510.127    4032.5323   -51542.659   0.14867098 
  199000    287.74357    -74.56439     148604.3   -47515.408    3951.4651   -51466.873   0.14926326 
  199200    290.11438   -3.1172028    148501.11   -47509.461    3984.0224   -51493.484   0.15076783 
  199400    288.45708    23.985782     148427.2   -47520.338    3961.2634   -51481.602   0.15052173 
  199600    294.97396   -1.2667269    148547.12   -47543.297     4050.757   -51594.054   0.14351744 
  199800    288.87968    -54.65925    148623.84   -47519.429    3967.0668   -51486.496   0.14616515 
  200000    294.29446    46.345453    148464.22    -47539.97    4041.4257   -51581.396   0.14336794 
Loop time of 109.446 on 6 procs for 200000 steps with 4608 atoms

Performance: 789.434 ns/day, 0.030 hours/ns, 1827.393 timesteps/s
98.0% CPU use with 6 MPI tasks x no OpenMP threads

MPI task timing breakdown:
Section |  min time  |  avg time  |  max time  |%varavg| %total
---------------------------------------------------------------
Pair    | 77.278     | 77.558     | 78.14      |   3.2 | 70.86
Neigh   | 12.558     | 12.716     | 13         |   5.4 | 11.62
Comm    | 8.7574     | 9.2221     | 9.6008     |  10.0 |  8.43
Output  | 3.0455     | 3.0466     | 3.0507     |   0.1 |  2.78
Modify  | 5.632      | 5.7354     | 5.8161     |   2.4 |  5.24
Other   |            | 1.168      |            |       |  1.07

Nlocal:        768.000 ave         780 max         754 min
Histogram: 1 1 0 0 0 1 1 0 0 2
Nghost:        1394.83 ave        1416 max        1372 min
Histogram: 1 0 0 1 1 1 0 1 0 1
Neighs:        0.00000 ave           0 max           0 min
Histogram: 6 0 0 0 0 0 0 0 0 0
FullNghs:      21910.0 ave       22252 max       21530 min
Histogram: 2 0 0 0 0 1 1 0 0 2

Total # of neighbors = 131460
Ave neighs/atom = 28.528646
Neighbor list builds = 12613
Dangerous builds = 0
write_data		data.${NAME}
write_data		data.ice_292K_1atm_ML
System init for write_data ...
Total wall time: 0:02:41
