LAMMPS data file via write_data, version 29 Oct 2020, timestep = 100000

8525 atoms
1 atom types

0.3650823521118127 104.25905096136717 xlo xhi
-0.355472758785762 50.546625284771935 ylo yhi
-0.355472758785762 50.546625284771935 zlo zhi

Masses

1 18.015

Atoms # atomic

37 1 17.775900143590274 20.263885595469365 -0.2830980541560169 0 0 0
205 1 1.8645878448599096 1.0599573830581261 2.5205044928514804 0 1 0
108 1 4.749118285838963 0.8889211945342814 -0.16657760167989502 0 1 0
208 1 15.13673510594375 1.061957458239311 2.9059533942295936 0 1 0
926 1 21.015116917946003 1.1603734532567833 2.627889603396516 0 1 0
928 1 27.180243727618688 0.5708374282305574 2.3471584883694616 0 1 0
744 1 28.534633597898317 2.43587578017021 0.9811045202336706 0 0 0
840 1 30.187372757707468 0.9790658634136118 -0.23269914534182154 0 1 0
930 1 33.49093824571034 1.0907842850956355 2.84078730440011 0 1 0
106 1 3.376148390192491 3.6786745142291615 1.2657813260911557 0 0 0
74 1 0.3693864009093341 47.18480141898249 4.153944136506391 0 0 0
115 1 4.828967630029117 5.128076675543802 2.9187818889074 0 0 0
110 1 9.860862832874615 3.290798754884204 1.1721872895355936 0 0 0
4 1 7.908213826416176 4.869208391768421 0.045088250152682696 0 0 0
117 1 11.585744726761712 4.887004155042371 2.8399781191913847 0 0 0
6 1 16.46298515499463 3.28351978123961 1.1620002471133952 0 0 0
5 1 14.71063651197381 4.653314426173576 -0.057266361031436286 0 0 0
120 1 17.950703190571943 4.956469313981561 2.485036787356855 0 0 0
844 1 22.254992655817702 3.5353776843765212 0.7468330252100599 0 0 0
847 1 23.852905196229717 4.7260082546491216 2.582195134290041 0 0 0
848 1 30.082811296421443 4.625860889305768 2.355982706345839 0 0 0
843 1 34.60319477439537 3.581706419111894 1.1583228618493762 0 0 0
124 1 1.6854096593118846 8.095172453794527 2.8182218229379368 0 0 0
3 1 6.278093396548215 6.59646486706483 1.43183258467886 0 0 0
126 1 7.98919296691573 8.081342932379025 2.8247062400595144 0 0 0
11 1 13.095202203241016 6.584327378328671 1.5736086252147399 0 0 0
9 1 10.998831301534539 7.8563531481634055 -0.055785986333827364 0 0 0
788 1 19.483907293049928 6.918110065940823 1.1636978288623214 0 0 0
846 1 25.422764419011223 6.2990712252070375 0.9149857799030405 0 0 0
853 1 26.883359491607283 7.871872272189805 2.6396846016334674 0 0 0
747 1 31.789876333852117 6.896346859977184 1.298432011360672 0 0 0
14 1 1.5403911051716603 11.38783843529077 -0.036324075000672196 0 0 0
7 1 3.3662678675294635 10.027738700876895 1.492402370917039 0 0 0
10 1 9.62698331772732 9.689669205182868 1.432777901843254 0 0 0
133 1 11.485644574971893 11.307728728718745 2.671550248245934 0 0 0
13 1 16.003731214258234 9.991630400369145 1.5820896745333586 0 0 0
134 1 17.917049457933466 11.536328500572733 2.7396809733155765 0 0 0
749 1 22.227746127101152 9.53332340993692 1.0172656607955508 0 0 0
858 1 23.557013327101515 11.375721240695752 2.392769483842342 0 0 0
753 1 28.549955213935647 9.593404796822625 1.065819524203879 0 0 0
859 1 29.854401819667913 11.234712830125556 2.6267568649476676 0 0 0
755 1 34.589609206131726 10.112968109449458 1.1065158797041181 0 0 0
15 1 6.243930662561717 12.751566445971022 0.8616147058817201 0 0 0
138 1 7.851498754828354 14.098701124528844 2.5048851385817965 0 0 0
18 1 12.385759431761873 12.609834249204727 0.8585978464509194 0 0 0
794 1 19.377631772284968 12.928374955288458 0.8107845170430643 0 0 0
862 1 20.9167660150185 14.352863165584917 2.659570263980716 0 0 0
758 1 25.336180100062744 12.871176979338367 1.0175333903573278 0 0 0
864 1 26.91861701028842 14.190341873259959 2.612123912680217 0 0 0
761 1 31.629532528182104 12.881470907316125 1.2968959578376102 0 0 0
865 1 33.378874931019496 14.528093006025234 2.4701538195838846 0 0 0
20 1 3.3533324461975105 15.726390020244455 1.3285798766409576 0 0 0
143 1 4.753610768848832 17.87341879903435 2.91435556675952 0 0 0
22 1 9.669241278224966 15.669557706342736 1.0731553951543382 0 0 0
28 1 7.827668872112334 17.446968068684242 -0.2318960592081209 0 0 0
145 1 11.275366114237432 17.100005039773972 2.3183789723389685 0 0 0
25 1 15.529236331914998 15.718759026136759 1.2264021514805732 0 0 0
146 1 17.470271978353047 17.229405345625928 2.388800132614787 0 0 0
769 1 21.09426905549593 17.696101606700207 -0.23606978285417168 0 0 0
763 1 22.761747717857457 16.063464914253785 1.176658898289286 0 0 0
868 1 24.180156528287036 17.689266776969728 2.8181767753760507 0 0 0
765 1 28.72559039015838 15.93241302864995 1.0440676894639924 0 0 0
870 1 30.072159580080122 17.613796322328618 2.730150170028678 0 0 0
767 1 34.682460145065114 16.09620352507935 0.6127272012645342 0 0 0
148 1 1.4898497782316666 20.18540749897395 2.3668600359108587 0 0 0
27 1 6.184569507643098 19.187061139611178 1.2695602248893696 0 0 0
150 1 7.577849059045168 20.606311529911135 2.822885257616664 0 0 0
30 1 12.968254179133284 18.994756134541205 0.903514638176167 0 0 0
151 1 14.362916109707196 20.72699952802164 2.504771097204448 0 0 0
1312 1 19.479324266460445 18.975972186416328 1.3645518286972151 0 0 0
771 1 25.971926875387766 18.99312232973012 1.4490427542277189 0 0 0
874 1 27.405224041248683 20.5954422357105 2.861527501849515 0 0 0
779 1 24.760684602627332 20.66664956810529 -0.06521395615274256 0 0 0
775 1 31.467673619910844 19.033797915933178 0.8795095430259796 0 0 0
875 1 33.190237130468006 20.191283044905656 2.6621320420032393 0 0 0
31 1 3.1789801234575905 21.90812861169551 1.0974589253394915 0 0 0
155 1 5.158984260239646 23.880398283538405 2.6866125298005388 0 0 0
34 1 9.788481726771497 21.863882445201533 1.1924519177116513 0 0 0
156 1 11.286003625191174 23.403680131645235 2.919790716789146 0 0 0
38 1 16.39222271967749 22.2398469553692 1.3205229062518398 0 0 0
44 1 14.591131705307394 23.77840197607322 -0.10309540730352451 0 0 0
783 1 20.741940683244973 23.567515779122424 -0.08455363036905766 0 0 0
778 1 22.66894844660619 22.247238791627783 1.3853799406335146 0 0 0
879 1 24.618979855687645 23.898663574850104 2.8558953031515 0 0 0
780 1 28.709639394956078 22.160253140403334 0.9098947109876123 0 0 0
880 1 30.141244984243272 23.69127548057452 2.6222627382114294 0 0 0
162 1 1.7409200502275217 27.05705303132689 2.3227235813551603 0 0 0
41 1 6.425952601110562 25.35469862634103 0.8472173795194418 0 0 0
158 1 8.082649798284876 26.822224457008673 2.408579722197991 0 0 0
45 1 12.901618694069485 25.170940452903526 1.5520042707421655 0 0 0
46 1 17.55161325044001 26.7333533807945 0.03889402080595866 0 0 0
631 1 18.911431065681544 25.17942488956034 1.6344929004842572 0 0 0
786 1 25.8241540177986 25.46041425118532 0.8508731020515266 0 0 0
792 1 31.54416960522593 25.372763887908174 0.9462868632233234 0 0 0
888 1 33.56509182494727 26.896485654520177 2.4092553433339945 0 0 0
48 1 3.5138620256943103 28.244510495258226 1.0299051739492913 0 0 0
170 1 4.799960471732404 29.771510100750934 2.6081075036087866 0 0 0
52 1 9.668065010329377 28.498742316828853 0.9549509421701758 0 0 0
62 1 12.454729951043602 31.27508204350736 1.1305620616336665 0 0 0
55 1 15.951430367942933 28.58184493031779 1.3550498362976575 0 0 0
167 1 17.47945723919578 30.07524452219672 2.8812115434802528 0 0 0
796 1 20.579155208164625 30.157940459698953 -0.008452899112852741 0 0 0
795 1 22.40715643712802 28.48593700166435 1.3453299681507698 0 0 0
886 1 23.909327957150474 30.53439026453304 2.7050802944807053 0 0 0
798 1 28.37357316861679 28.538166371742108 1.1109738383961003 0 0 0
887 1 30.226704827913473 30.085876165073085 2.3802611826001274 0 0 0
2929 1 34.9330484012292 28.253707508329345 0.8097203005890219 0 0 0
169 1 1.6503078229563342 33.174181710479644 2.3378831193912917 0 0 0
59 1 6.3000369716248485 31.57274660453216 1.088285955828385 0 0 0
69 1 9.35042866679165 34.50622390839075 0.9587603415523758 0 0 0
173 1 14.183617502214597 32.70503524041203 2.794847086261885 0 0 0
738 1 18.760560897746476 31.452034742054707 1.2264643211373982 0 0 0
891 1 20.639451701036744 33.541455738765094 2.283594868941678 0 0 0
801 1 25.188716397446672 32.03894586841122 0.9585869875179429 0 0 0
892 1 26.945105729277223 33.063151619241026 2.9021288745198546 0 0 0
805 1 31.45101532921457 31.61033205209428 1.0450250461299924 0 0 0
900 1 33.11779012214954 33.363289025270035 2.481776258200734 0 0 0
67 1 3.5018223314078742 34.85455755501893 0.844493448184539 0 0 0
76 1 6.62019059403203 37.75200642492166 0.9443929760079186 0 0 0
176 1 5.219023468618717 36.25920399479341 2.680443491510463 0 0 0
177 1 10.736532089135784 35.721281501559176 2.714022355809994 0 0 0
72 1 15.499325984056053 34.677577139942855 1.4037240108166054 0 0 0
516 1 18.70712576809567 37.743585741876615 1.55470735928649 0 0 0
806 1 21.971348905853787 35.06990392269417 0.8689615255931946 0 0 0
898 1 23.7435120194974 36.073150902525214 2.8485031559177747 0 0 0
809 1 28.4533018052444 34.6359001799174 1.1915573231248289 0 0 0
899 1 30.043998432453982 36.111244152126204 2.7087528343757197 0 0 0
811 1 34.73035168807281 34.677341345429625 0.9514252740047782 0 0 0
817 1 31.60647108309894 37.62068236201381 1.2585636560451314 0 0 0
180 1 1.935023462855946 39.46808302106338 2.4448750122519574 0 0 0
85 1 9.765564018649387 40.732144510509855 1.279958485176289 0 0 0
182 1 7.904796690102272 39.26953620399338 2.8474967195824816 0 0 0
78 1 12.511067437198948 37.935400963059166 1.381912676013152 0 0 0
184 1 13.949303990246214 39.18976305317551 2.8687942533140025 0 0 0
88 1 15.69373929782046 40.771151151160296 1.3328600781985371 0 0 0
79 1 17.360944402790295 39.31153047856155 -0.16720042399677218 0 0 0
902 1 20.62688905115747 39.23590049792604 2.8784791341435727 0 0 0
813 1 23.601359449827772 39.47976481484986 -0.20087114555012434 0 0 0
814 1 25.48991187098083 37.76048819968172 1.3873835387364812 0 0 0
822 1 28.572387012530093 40.67454558945923 1.2281310262319292 0 0 0
816 1 30.20723088551386 39.27614481285897 -0.1728563394157485 0 0 0
824 1 34.699850995798116 40.526359944714926 1.4112348878385255 0 0 0
906 1 32.908322746707476 39.14962471268747 2.7801310080612205 0 0 0
82 1 3.5568586727469347 41.115316702121405 1.2913489697306861 0 0 0
226 1 0.39684205301434394 -0.29405576628427976 0.9957992516288565 0 1 0
91 1 6.371035261560131 43.73276747932559 1.0057499463314539 0 0 0
187 1 4.939322866026459 42.51939853678509 2.887405393137183 0 0 0
189 1 11.4608833466589 42.66076829710421 2.574106607754591 0 0 0
191 1 17.43988075177697 42.32161839817867 2.601093647011203 0 0 0
762 1 19.08375647778524 43.96440532606606 1.3434891192555076 0 0 0
820 1 21.91782564026477 41.08629619489298 1.5259965510705373 0 0 0
825 1 25.246411710237915 43.59092370772501 1.2181354929240835 0 0 0
828 1 31.70739621419592 43.644872048190564 1.418441878958196 0 0 0
97 1 3.737632028508399 47.09716562018846 1.252973368281097 0 0 0
193 1 2.238506513241754 45.31105307241465 2.5600457617018573 0 0 0
102 1 9.936497045987222 47.13208535364383 0.9436793231352301 0 0 0
194 1 7.900086965047023 45.76075023393011 2.308339840815196 0 0 0
93 1 13.404164120164083 44.135827911742226 1.2486024677693919 0 0 0
104 1 16.41124087648298 47.26529286565824 1.31738563398953 0 0 0
196 1 14.983846807722982 45.830135203443106 2.7847133220433733 0 0 0
830 1 22.250976600841703 46.40887827804835 1.0746836086646474 0 0 0
916 1 26.87722032427477 45.28976518134431 2.5637065798076524 0 0 0
833 1 28.477704652897483 47.01295634943223 1.244002897953903 0 0 0
827 1 29.80914796763461 45.23008289654169 -0.06687555530092287 0 0 0
835 1 34.47194836030064 47.00406769501096 1.450548867563188 0 0 0
99 1 6.748068732080008 50.47885191262732 1.4094522461992032 0 0 0
199 1 5.051575172582599 48.878491739226945 2.5924240122251896 0 0 0
112 1 13.12000343927836 50.21940013996033 1.5031805697848084 0 0 0
200 1 11.411154835817086 48.63372937500199 2.8955079705044096 0 0 0
103 1 14.621284145872428 48.83809582495515 -0.09801487037708684 0 0 0
741 1 19.567684767037242 50.337705832202516 1.0532755262052766 0 0 0
202 1 18.102289109941598 48.71795636596521 2.805043227133883 0 0 0
921 1 24.026125354694777 48.70417970672365 2.725861274742231 0 0 0
838 1 25.416291607739964 50.217673494899074 0.8943714861789358 0 0 0
922 1 30.037621954049687 48.71985025200259 2.541519813683774 0 0 0
842 1 31.57029588264462 50.331183036715856 1.3608909980666466 0 0 0
834 1 33.04205127314918 48.594841482370995 -0.21625301654238602 0 0 0
204 1 3.3344778636752155 -0.27740481360017677 4.204356918727337 0 1 0
312 1 5.034653826135098 0.9993103600935909 5.795101449744548 0 1 0
206 1 8.295891665739429 1.1144582052139471 3.0840659780532733 0 1 0
313 1 11.422452717138361 1.1059341667808225 5.893404997366125 0 1 0
316 1 17.875707972079525 0.9520879162303388 5.908525730566799 0 1 0
1022 1 23.71816046615693 0.9988849087754672 5.6087669960095825 0 1 0
927 1 25.589616881837518 2.3043027701987633 3.8789723601889907 0 0 0
929 1 31.361283616340902 2.3843745547819126 4.608750730820164 0 0 0
211 1 2.1115270708347103 4.908884365439004 5.767377041208956 0 0 0
116 1 6.334996155784203 3.2895928487672523 4.328962773958448 0 0 0
214 1 7.90369528455914 4.770797115537747 5.473532379435513 0 0 0
119 1 13.32965824717397 3.4047203180723855 4.130600259776667 0 0 0
216 1 14.881715581924972 5.231983494061338 5.510573906844657 0 0 0
752 1 19.535552597880883 3.3373941840352237 4.102293317843169 0 0 0
933 1 20.703230210221342 5.00725017532919 5.6717913306250445 0 0 0
936 1 27.51047883192343 4.538597208542697 5.306348644722953 0 0 0
937 1 32.82717274841959 4.917635626240927 5.865949356478591 0 0 0
123 1 3.4362462433372225 6.917720738907502 4.486466683463913 0 0 0
222 1 4.790028571237552 8.310091481377334 6.05428617694788 0 0 0
118 1 9.970855959688437 6.65049166352517 4.260779329952944 0 0 0
223 1 11.298721037648393 8.150723916223674 5.8437380319321655 0 0 0
127 1 14.661258936800072 8.250111858790692 3.0822752079587024 0 0 0
121 1 16.711312590488475 6.5946013053890375 3.9092481493971993 0 0 0
224 1 17.506050102967354 8.194476458868749 5.7310071375637675 0 0 0
851 1 20.96273276657301 8.262044230955121 2.9987002997454915 0 0 0
845 1 22.538145892764234 6.440318039769435 4.483739616667873 0 0 0
943 1 23.968807487649045 8.035517047767692 5.990156947205027 0 0 0
849 1 28.6549325336862 6.365855634218013 3.64098270129446 0 0 0
945 1 30.081739192740827 7.712669456968479 5.743371931939334 0 0 0
854 1 33.16920682217556 8.529749401184041 2.9535074475675174 0 0 0
850 1 34.40003407554393 6.727998607309692 4.295787108570386 0 0 0
227 1 1.7842927726479425 11.264097665066721 6.086942685896188 0 0 0
131 1 5.027515932679029 11.33678749377983 2.970736395506539 0 0 0
125 1 6.4469417914042735 9.420283401973487 4.209542358138078 0 0 0
230 1 8.13502130055921 10.960110548796603 5.806692569843095 0 0 0
128 1 12.712835140945847 9.757383739429283 4.354850557839272 0 0 0
231 1 14.39675399323984 11.128995921427315 5.906232485780597 0 0 0
773 1 19.3265702280964 9.639382837448393 4.496416083658424 0 0 0
948 1 20.804932330563915 11.299958841642942 5.8358171821395555 0 0 0
852 1 25.24204673150669 9.561221335988803 3.9723548980056274 0 0 0
950 1 27.151483312183842 10.97261198109508 5.690294974057617 0 0 0
855 1 31.211218653144122 9.631913537483458 4.554001233092941 0 0 0
951 1 33.112893941487556 10.946252838485524 6.057974552068452 0 0 0
136 1 1.4344850500105049 14.421564737442717 3.235729019812524 0 0 0
130 1 3.3405793990538 13.007713290434866 4.53703131773091 0 0 0
234 1 4.558542766396413 14.710559292798104 6.038415077736822 0 0 0
132 1 9.488851643496231 12.595702809254474 4.101963052410389 0 0 0
139 1 14.113934926780733 13.753846937582322 2.9691331550236573 0 0 0
236 1 11.095790499566332 14.31929550446113 5.922591473947785 0 0 0
135 1 15.958685296146712 12.759178554710525 4.397973541788299 0 0 0
237 1 17.576674359536018 14.612419932561433 5.953878361369914 0 0 0
857 1 22.33791174112696 12.82773492885688 4.548398137498937 0 0 0
956 1 23.851832476688923 14.325624899369098 5.898283445545192 0 0 0
860 1 28.405180345898486 12.778860956582964 4.250182819777317 0 0 0
958 1 30.214975803662394 14.46422707878565 5.864763621733379 0 0 0
861 1 34.68796929537288 12.645828169779103 4.421915287610605 0 0 0
239 1 1.7039036556494649 17.79707714151789 5.67255428298931 0 0 0
137 1 6.448206031180965 15.912501550284126 4.039000107577545 0 0 0
241 1 7.953327691618434 17.566738291709353 5.630038409898386 0 0 0
140 1 12.454031796551325 15.549073448260108 4.135304741392285 0 0 0
242 1 14.11852607959614 17.24074984991705 5.559991626224486 0 0 0
1165 1 19.3300537300282 15.762249155136697 4.061694016171045 0 0 0
955 1 20.52430761245642 17.367665318628216 5.671335922246883 0 0 0
863 1 25.443802807104667 15.919383601890718 4.293847743704627 0 0 0
962 1 27.168223534601115 17.45885707073204 5.4549773276396385 0 0 0
866 1 31.78463551207864 15.922039091495915 4.318598466428706 0 0 0
963 1 33.25088181345676 17.62858907600559 5.6344266451195315 0 0 0
142 1 3.1671925639548615 19.046789552458467 4.450326960861383 0 0 0
245 1 4.915587422530912 20.316815223231874 5.760213907572532 0 0 0
144 1 9.709638560250085 18.858226123792196 3.955871046495491 0 0 0
152 1 13.08847409364722 21.703231409129028 4.581160058663766 0 0 0
247 1 11.084185044903142 20.327349126224508 5.99072309247731 0 0 0
147 1 15.8238159682179 18.962181290489347 4.101931225542781 0 0 0
249 1 17.65298501821035 20.1415487202261 5.522008633109842 0 0 0
872 1 21.015123703383658 20.927908807808677 2.994990956978965 0 0 0
867 1 22.51112454251906 18.806389917045976 4.39611958859041 0 0 0
869 1 28.834775115321893 19.096556313030728 4.375478955730971 0 0 0
969 1 30.523525438109658 20.750755095343436 5.8120867270973084 0 0 0
871 1 34.80424858638821 19.0108288733102 4.333430564338224 0 0 0
252 1 1.7393967953190836 23.656983929655627 5.553965294078611 0 0 0
149 1 6.201369066438132 22.2545959903072 4.615581021549774 0 0 0
255 1 8.066871479150594 23.786531337926192 5.9525509298281625 0 0 0
159 1 17.2215053078109 23.638709264945224 3.3472583911652998 0 0 0
256 1 14.456554414803904 23.54173402244854 5.95902433414905 0 0 0
989 1 19.295567082243867 21.962669935415953 4.574373924908722 0 0 0
971 1 20.752752270291204 23.76996717197197 5.815852704185733 0 0 0
873 1 25.547119322224926 22.189235255959765 4.566603276925587 0 0 0
876 1 31.93610925176024 22.09655378277821 4.402790413480411 0 0 0
883 1 34.48653037812151 24.948218187068278 4.066725914262621 0 0 0
975 1 33.15199121341246 23.674025046350852 5.850370277701104 0 0 0
154 1 3.3535779467422815 25.455155218961732 3.9149413854816952 0 0 0
262 1 4.83457828195792 26.64129428455267 5.697453300853098 0 0 0
157 1 9.586909232952816 25.25769079312815 4.2681638912887925 0 0 0
264 1 11.247553505399976 27.054532446388126 6.102075671718468 0 0 0
165 1 14.413959277800993 26.836639054319836 2.9440447809754238 0 0 0
160 1 15.886738795109554 25.480338180381647 4.647909928154893 0 0 0
266 1 17.605421226182276 27.041013835773303 6.0701242935519 0 0 0
878 1 20.427141351382854 26.72783784463618 2.9452700003547636 0 0 0
877 1 22.45442990558159 25.2546147580602 4.163055893138438 0 0 0
978 1 23.809686361231005 26.69188820342237 5.933543947925815 0 0 0
882 1 27.18014030924354 26.729115661304238 3.029380172387241 0 0 0
881 1 28.63969597907634 25.149495352243285 4.423445127438701 0 0 0
979 1 30.32159066812838 26.88602919509799 5.67339704315274 0 0 0
261 1 1.418973145302467 29.91518600363143 5.4624969779692885 0 0 0
163 1 6.445840708314254 28.24824211006358 4.221112322787065 0 0 0
164 1 10.737096710146485 30.029321132670212 2.925410306230082 0 0 0
265 1 7.947092873208806 29.638912348948065 5.936455953426489 0 0 0
166 1 12.968655693196762 28.586702625039106 4.389698967688368 0 0 0
271 1 14.346694568100528 29.837016763653928 6.083377780594418 0 0 0
818 1 19.33748234722654 28.511747883297133 4.039412853730953 0 0 0
984 1 20.91796242905908 30.117080013380505 5.467368851241937 0 0 0
885 1 25.27325138283721 28.44106161179135 4.281587939286338 0 0 0
981 1 27.030190254120296 30.10268959126078 5.67635292169487 0 0 0
889 1 31.73716163775066 28.305478122663914 4.1457034746024055 0 0 0
894 1 34.39188163519918 31.227640887490395 4.1760030706970035 0 0 0
168 1 2.9802210495875947 31.4544162841589 3.8827282854816394 0 0 0
175 1 6.182394830144604 34.18366711253162 4.279532480470864 0 0 0
269 1 4.320433506275567 32.616963578799314 5.758605071458149 0 0 0
172 1 7.8519876897748055 32.83494016886439 2.959796676525486 0 0 0
171 1 9.247421441205992 31.49586850727129 4.585763465369115 0 0 0
178 1 12.234828717490036 34.43780185254896 4.17879336633507 0 0 0
270 1 10.833535831843012 32.90166176642339 6.02452282356743 0 0 0
174 1 16.005638431905417 31.577539150734673 4.680090043080138 0 0 0
273 1 17.615998823149916 33.193454931777836 6.0886602042048885 0 0 0
890 1 22.236311008407245 32.17650047099123 4.373241263543333 0 0 0
897 1 25.185776993678996 34.47278016690953 4.657954569641183 0 0 0
893 1 28.41421826041166 31.415676167501836 4.003797812199746 0 0 0
987 1 29.83183904640373 33.137269997546326 5.710765840532377 0 0 0
276 1 1.7525928792002385 36.27005089900875 5.311178066412158 0 0 0
183 1 9.467282425886848 37.60923120456326 4.379246153405125 0 0 0
277 1 8.03346017043772 35.78764640142114 5.950275426861015 0 0 0
279 1 13.835594646639036 35.98078996948719 5.6392068270566424 0 0 0
179 1 17.19241711602447 36.090787741544986 3.1671725590603694 0 0 0
185 1 15.336073370841923 37.67593305626232 4.4659841341689654 0 0 0
913 1 19.19881696010825 34.63603434500406 4.120372415245474 0 0 0
896 1 20.567070029080973 36.07962323324681 5.861182685661932 0 0 0
903 1 22.22960947780928 37.49874807763808 4.100287576391591 0 0 0
991 1 26.600405712815885 35.949260657845414 6.074136839108414 0 0 0
905 1 28.58289358239546 37.54966797957181 4.3424924749533975 0 0 0
901 1 31.830613087468528 35.01407542537501 4.2970564499907695 0 0 0
994 1 33.082496635992 36.02865816196187 6.02646370058845 0 0 0
181 1 3.4453392626819657 37.92283245958639 3.947034500800674 0 0 0
89 1 0.4209799262279057 40.58147848807788 4.001188669923926 0 0 0
283 1 4.86807460937022 39.31284572657381 5.777993744196027 0 0 0
190 1 12.318383501744773 40.83959896708781 4.44082961380616 0 0 0
287 1 17.330123068774977 39.28029305366029 5.909702944895791 0 0 0
733 1 18.85729946292036 40.86303587751816 4.348055702775016 0 0 0
996 1 23.749925144834815 39.093620032996014 6.05661492267782 0 0 0
904 1 26.982561931278923 39.34646793751374 3.2680851477175614 0 0 0
910 1 25.235597145501444 40.808264536495656 4.4874029153530355 0 0 0
998 1 30.05169077233364 38.88670463737783 6.06495231516036 0 0 0
907 1 34.632790488800076 37.771415131349784 4.3492239892097055 0 0 0
912 1 31.570617068783424 40.67577913821924 4.308847806722982 0 0 0
288 1 1.7530652653120788 42.42530556099314 5.782318615623467 0 0 0
188 1 6.217567191243036 41.10271028585032 4.211666014259425 0 0 0
290 1 8.017720286053587 42.98954920520676 5.7392535962354945 0 0 0
197 1 15.963864333696081 43.84005403940334 4.362433715433928 0 0 0
293 1 14.296127964566889 42.15396232879306 6.031873819849633 0 0 0
1002 1 20.677032228706423 42.64101536828531 5.9761470231135 0 0 0
909 1 23.733248657148508 42.511055916024034 2.9640120689153058 0 0 0
914 1 22.44243212819912 44.07108860459941 4.535492277703389 0 0 0
911 1 30.039056158091867 42.335243313440344 3.0173133101356866 0 0 0
917 1 28.455731843053286 43.94762437904845 4.429616876111714 0 0 0
1007 1 33.12114843574483 42.426929918056004 5.847257886605858 0 0 0
192 1 3.551359477980593 44.159586815702184 4.390155852842576 0 0 0
823 1 33.51603656076995 42.383561895024656 -0.30912258532982434 0 0 0
297 1 5.167445470054597 45.75021477929231 5.756193153218145 0 0 0
195 1 10.015200991447745 44.32446969436771 4.228910832847393 0 0 0
298 1 11.686455010460156 45.886512098878555 5.740149378188233 0 0 0
201 1 13.269069949096036 47.21440595803789 4.077979714515579 0 0 0
915 1 20.70971240183001 45.49090945610605 2.936122120574061 0 0 0
785 1 19.318347416637106 47.162600888184826 4.441854377655709 0 0 0
302 1 17.688004049586645 45.44938372398151 5.64399585128817 0 0 0
1010 1 23.253568607224896 46.63938471432948 5.449464314527653 0 0 0
920 1 25.59147369462985 47.02680551400934 4.139400659799441 0 0 0
1012 1 29.952815870278613 45.71264102877956 5.789827293316423 0 0 0
918 1 33.124028917489596 45.47004942818285 3.028916151112888 0 0 0
919 1 34.69999999747196 44.21063691721463 4.747214338465661 0 0 0
304 1 1.8719830238183857 48.61076751675141 5.754741463020109 0 0 0
198 1 6.680412314865233 47.43870529078116 3.8982414659507123 0 0 0
207 1 10.071681391422931 50.27325576623343 4.408829662053352 0 0 0
305 1 8.148086632867876 48.898828693025564 5.70847157389889 0 0 0
209 1 16.290697663683908 50.26412828424037 4.500693411315156 0 0 0
308 1 14.59962082061541 48.71525249234897 5.7866611431838715 0 0 0
1016 1 20.625279614852413 48.568960879845704 5.843253786603265 0 0 0
925 1 22.416268479342442 50.074275425148855 4.401595481121579 0 0 0
1017 1 26.67699474186088 48.6691700248236 6.014641013501645 0 0 0
923 1 28.420925299925297 50.09375430511585 4.396970314524312 0 0 0
924 1 31.548210529000905 47.30677651908218 4.347292001045439 0 0 0
931 1 34.32691851250842 50.20006563781321 4.61247571064614 0 0 0
212 1 3.4494700617697105 2.2878534349096546 7.237079527483321 0 0 0
442 1 1.9101674597969953 0.5221516403829066 8.858224264521109 0 1 0
445 1 7.92159579992076 1.4818028932962757 8.850290498153987 0 1 0
315 1 14.513512535668292 1.1060125204061269 8.775181369295822 0 1 0
1126 1 20.65977116419658 0.9199170424256029 8.998701302696979 0 1 0
1128 1 26.998153612349004 1.2613463825367202 8.590829511250632 0 1 0
1021 1 25.38338975065274 50.5223759941608 7.158169842317682 0 0 0
1024 1 30.16335788272111 0.5893972950953986 6.209353624594662 0 1 0
1130 1 32.875215480737715 1.0946250100155892 9.214352796070658 0 1 0
2283 1 20.427719497567455 48.637507493861875 24.535893923646032 0 0 0
320 1 4.922001358065124 4.727115548787813 8.585295735847643 0 0 0
215 1 9.831017357238398 3.3349973208805244 7.381408670294393 0 0 0
322 1 11.475040808260598 4.87014944585969 8.855872184249272 0 0 0
218 1 15.92131093267408 3.5437400099615664 7.11139087332712 0 0 0
327 1 17.7176982212044 5.38530316970374 8.326085414347023 0 0 0
934 1 22.238095975091117 3.561328750609919 7.2830198115475575 0 0 0
1027 1 23.75711974835275 5.196031952840703 8.76234786018237 0 0 0
1023 1 28.6925227285015 3.329937313875126 7.205123351340788 0 0 0
1030 1 29.97652434177214 4.966220914274085 9.04171468284754 0 0 0
939 1 34.12213140495541 3.4440453193811136 7.566096135506918 0 0 0
221 1 1.5970723138036862 7.770829813837789 8.948737821679094 0 0 0
8 1 4.889116964115902 8.170074168623273 -0.2803064178833168 0 0 0
213 1 6.42937861446252 6.4267246474111435 7.226016693224361 0 0 0
332 1 8.393993252874132 7.719630028143202 8.90508044330258 0 0 0
217 1 13.184695910942045 6.757579704580568 7.303732766245603 0 0 0
334 1 14.507224975559664 7.975151926629062 9.120373209666651 0 0 0
742 1 19.45622346435945 7.0481873842246845 7.050853566782436 0 0 0
942 1 21.075423766186354 8.289505175588456 8.969821809155185 0 0 0
935 1 25.719988886519825 6.136700941874144 7.290767907517082 0 0 0
1037 1 27.147234872631735 7.922177410347915 9.015244542879014 0 0 0
938 1 31.27862068742114 6.383088501256579 7.336985302305994 0 0 0
1038 1 32.978188595578274 7.789182275423098 9.094819347911487 0 0 0
220 1 3.122701070192294 9.688601001779658 7.860673943010468 0 0 0
229 1 9.553036790801391 9.458832527867116 7.187259816301539 0 0 0
344 1 11.38782562850646 10.848975609128619 8.795857393456151 0 0 0
225 1 16.231555406736586 9.653730902826272 7.520040482356878 0 0 0
346 1 17.72853731201666 11.288917302460417 9.220132615456098 0 0 0
941 1 22.570875875862644 9.900149358404526 7.334952733843757 0 0 0
1043 1 23.99871923930265 11.323276777121684 9.019064621867862 0 0 0
944 1 28.461728944047646 9.330839588003832 7.414187373038927 0 0 0
1045 1 29.775910179466237 10.929148394671936 9.137005549997 0 0 0
946 1 34.38778736058924 9.761761101527702 7.572691607876996 0 0 0
349 1 1.6825452506840712 13.844554228198435 9.156839783494949 0 0 0
228 1 6.61902279989309 12.482119498331821 7.467594557553773 0 0 0
352 1 8.314299753331715 14.19166800460535 9.104483561565193 0 0 0
232 1 12.743476616211595 12.7368541856124 7.644232451242152 0 0 0
354 1 14.370859962058919 14.26183929973166 8.95443719457652 0 0 0
1047 1 19.228739150575255 12.738736305817705 7.536729319618388 0 0 0
1048 1 20.764998812165764 14.237368014367085 9.154868790180279 0 0 0
949 1 25.694400873254725 12.64740858695159 7.11573328645054 0 0 0
1050 1 26.834546212608323 14.48740901101246 8.547251955007379 0 0 0
952 1 31.279630227937595 12.523537658417403 7.396100054756797 0 0 0
1052 1 33.07030181220435 13.980167416356371 8.65320804313234 0 0 0
233 1 2.7680852575499824 15.770981914979181 7.404245010525562 0 0 0
358 1 4.863278337322238 17.454868786664605 9.140135026810928 0 0 0
235 1 9.520616969755288 15.779738896785968 7.408024318876686 0 0 0
359 1 11.315203241361216 17.11365961204074 8.914869551797617 0 0 0
238 1 15.72936521272942 15.97555663201814 7.289622301119795 0 0 0
363 1 17.317229373821768 17.218419894222997 9.137059882979832 0 0 0
954 1 22.308193809237313 15.91551820414908 7.517754328929352 0 0 0
961 1 24.149580855492108 17.517319037982016 8.716209331532593 0 0 0
957 1 28.829796616559644 16.049856381480723 7.343340107197019 0 0 0
1057 1 30.205988999136597 17.30370974351199 8.950288416948103 0 0 0
365 1 1.7649935372364265 20.735695984509405 9.069481428874571 0 0 0
2287 1 33.02079205038413 48.20079627243764 24.774550026410786 0 0 0
240 1 6.316364484420431 19.03494458604436 7.630849658977907 0 0 0
243 1 12.804670854120259 18.806299276427062 7.435782214141841 0 0 0
250 1 16.16917093286021 21.67700101794261 7.3760823101751685 0 0 0
369 1 14.36470191838864 20.53362749135731 8.822825764893343 0 0 0
637 1 19.05138145886031 19.215393836225502 7.62819345404328 0 0 0
1061 1 20.91554687270764 20.72914571073541 8.96234194569743 0 0 0
967 1 23.803601715020864 20.408318529650565 6.195672379445815 0 0 0
960 1 25.671665961816565 19.044977937824417 7.34796582046764 0 0 0
1064 1 27.12186669157083 20.376600320300515 9.27618322050996 0 0 0
964 1 31.810629783207727 18.978129781371365 7.359292886998441 0 0 0