LAMMPS data file via write_data, version 29 Oct 2020, timestep = 0

9216 atoms
1 atom types

0.45526262101901693 104.1688706924582 xlo xhi
-0.3112895886654918 50.50244211465013 ylo yhi
-0.3112895886654918 50.50244211465013 zlo zhi

Masses

1 18.015

Atoms # atomic

5 1 2.056978423157944 2.0372360432705383 1.6988493871434698 0 0 0
1561 1 19.172079680708197 7.2861841532687555 0.5403600049844854 0 0 0
10 1 6.462111755996202 3.749116221306288 3.7953504427702587 0 0 0
13 1 8.089402287253293 2.0248582733652354 2.4110135045287984 0 0 0
21 1 14.880015927200716 1.8093391009576185 2.3088365815486407 0 0 0
19 1 16.62932248271614 0.4419224275492089 3.525986535722612 0 0 0
27 1 3.555341173144724 7.17443334365253 3.855815079504838 0 0 0
8 1 5.075546594782892 5.319993727903851 2.0861837235411356 0 0 0
16 1 11.174654432339203 5.006817328971915 2.310314386307223 0 0 0
35 1 9.805187984663785 6.836950738582316 3.7962941188583574 0 0 0
18 1 13.267386021885867 3.736999803321798 3.9368803592698556 0 0 0
24 1 17.94242963182161 5.527866820915447 2.071965201768087 0 0 0
43 1 16.170865809509607 7.1383877273654885 3.94534668543678 0 0 0
29 1 1.7326341435370025 8.532171936963742 2.3297425116483894 0 0 0
34 1 6.428008328715803 9.893532507833072 3.226122465549282 0 0 0
37 1 8.195190287719052 8.296703588681398 1.6891052663559067 0 0 0
45 1 14.552617292483857 8.381357903137435 2.090075732380461 0 0 0
42 1 12.559174847211807 9.752046358989592 3.2231108434046463 0 0 0
601 1 0.551885525476848 6.927614064061093 19.132986367134073 0 0 0
51 1 3.54242820777988 12.86319177096347 3.6922769820381727 0 0 0
32 1 4.998092890798699 11.431041078653287 1.9444735427730555 0 0 0
59 1 9.84737258509444 12.806458118291953 3.4372959189466696 0 0 0
40 1 11.015462389058925 11.185435492515452 1.6994393118708968 0 0 0
48 1 17.45168678718458 11.654299378400957 1.9570612021224425 0 0 0
67 1 15.697194653060906 12.855574024305941 3.5902766380067077 0 0 0
53 1 1.8926280831319886 14.047077681683259 1.8018292256494526 0 0 0
58 1 6.368750225109328 16.31785514500524 3.633359788747391 0 0 0
61 1 8.008997159461464 14.58078288583714 2.1345100415507536 0 0 0
69 1 14.093144251383398 14.029276732923432 1.9754190552247297 0 0 0
66 1 13.140658380290764 16.1258839825489 3.2679496593159447 0 0 0
75 1 3.3683785616930515 19.034198828023666 3.4615572580614233 0 0 0
506 1 0.6474754797244073 34.72909112456747 16.076373288775873 0 0 0
56 1 5.079558272242364 17.76260425325424 1.712807055159988 0 0 0
83 1 9.966406031523945 18.99002947313375 3.5563853420422724 0 0 0
64 1 11.245419228849045 17.362944137840827 1.9428625054665196 0 0 0
9 1 6.68559674955611 0.4887464611098409 0.4950497488606277 0 0 0
72 1 17.939958243204273 17.392810227301492 2.083396933565721 0 0 0
91 1 16.558682891401112 19.36534130671147 3.6842339985969224 0 0 0
314 1 0.7846231100900596 34.97014984129673 9.81340155110131 0 0 0
77 1 2.1365591398086314 20.805914319820406 1.8618665956492562 0 0 0
82 1 6.6097142761136185 22.474785576945447 3.2117501330299203 0 0 0
85 1 8.626695928476993 21.005446238408975 1.9976592843869707 0 0 0
12 1 9.412096072260697 3.5700106503362568 0.6373813439170919 0 0 0
93 1 14.760718581577702 20.901225386891117 2.263087094768939 0 0 0
90 1 13.074138574819399 22.29134640877154 3.91531351008309 0 0 0
96 1 17.716060713413434 23.85104697867197 2.4048300284005704 0 0 0
602 1 0.595783364635011 9.71591821172112 22.3883548961439 0 0 0
99 1 3.702679106986768 25.359580715536612 3.3941207803793274 0 0 0
80 1 5.048611776234294 23.842652087625037 1.7274606630239155 0 0 0
697 1 0.5993981528268719 31.803968350982636 19.18062582530991 0 0 0
88 1 11.657125901909207 23.96835580325119 2.055606784131731 0 0 0
107 1 9.846198359207396 25.613371189176224 3.319296669585363 0 0 0
109 1 7.990907036646347 27.2603606970784 1.661811942899607 0 0 0
117 1 14.680607178551995 27.038587734819494 1.9804998066463975 0 0 0
115 1 16.118655757768835 25.6963295360404 3.718700989690003 0 0 0
433 1 0.724586498836567 12.995551687430202 12.732589114413763 0 0 0
649 1 0.6063803025119313 19.396199477164735 19.38300487405097 0 0 0
101 1 1.914029135029148 26.969005980472463 1.6589099837106884 0 0 0
106 1 6.484017236897993 28.682038987436957 3.4524002128793607 0 0 0
104 1 5.002563472812917 30.276002591449608 1.8458490135676187 0 0 0
112 1 11.450487603424135 30.130505990594664 1.8328812001888346 0 0 0
114 1 12.62802563326763 28.384891173832397 3.4946029271173065 0 0 0
120 1 17.642924159737646 30.15965526344833 2.0042631432106472 0 0 0
92 1 16.22773814539235 22.641673958238318 0.7938494616552347 0 0 0
20 1 16.312376564909478 3.7060684677569493 0.6026679636580355 0 0 0
125 1 1.8091395996873403 33.43020146694553 1.563811120734815 0 0 0
123 1 3.690660313680209 31.95815269489792 3.209030930455879 0 0 0
84 1 10.171809529373133 22.448365018223306 0.4649334618505705 0 0 0
131 1 9.529113434221415 31.61042375752009 3.3230994558279523 0 0 0
133 1 8.305704558922013 33.35462321884494 1.5139098936050743 0 0 0
141 1 14.462730831474683 33.62190538721274 2.0977326712517046 0 0 0
139 1 15.667336229740084 31.78147951885959 3.767290665557363 0 0 0
505 1 0.8247733429718687 31.486537149528182 12.585464021414515 0 0 0
361 1 0.5636623102971549 44.26699118331424 6.5127363930056505 0 0 0
128 1 5.054261244008298 36.483972113410246 1.8213937171921202 0 0 0
130 1 6.8036150707418095 34.85057157659681 3.308757032113908 0 0 0
136 1 11.510345844454918 36.40059503694875 1.5716644943057354 0 0 0
138 1 12.684265317217347 35.0336477407427 3.7455171953584547 0 0 0
144 1 17.525722867999875 36.40738828735085 2.1990933647606155 0 0 0
1681 1 19.180484438222415 37.74501613111703 0.6057549326717915 0 0 0
149 1 2.0343973405171103 39.45577728087217 1.7625608433109836 0 0 0
147 1 3.7456011116084404 38.208043127463746 3.655110708200607 0 0 0
577 1 0.8069348759324514 0.4135125312367549 19.18861691617536 0 0 0
157 1 8.281565431753531 38.92639279360745 1.8634041835739676 0 0 0
155 1 9.943528108677835 37.82553612502142 3.643739997594101 0 0 0
165 1 14.530971015030078 39.31421253373448 1.9705940391304975 0 0 0
674 1 0.7924321331296825 28.85037798254839 22.420586352653938 0 0 0
163 1 15.861412040854253 37.86447504991689 3.696549753140749 0 0 0
337 1 0.6151662689541458 37.6751316596866 6.360246110807501 0 0 0
152 1 4.734016854896337 42.252376257274385 1.8084184154453147 0 0 0
154 1 6.554892273386298 40.82094999479252 3.370007486377797 0 0 0
160 1 11.793456626370594 42.4525332508763 1.577304757425941 0 0 0
162 1 13.57581157911158 41.22331071193909 3.6124384144166215 0 0 0
168 1 17.774201655308506 42.40151664366351 2.0034380171431767 0 0 0
193 1 0.4591816693171822 0.5563750589204383 6.663125950216157 0 0 0
173 1 1.9942820315269891 45.835538111291974 1.9508764645719503 0 0 0
171 1 3.9260606437656937 44.17950752078668 3.616801727019448 0 0 0
4 1 3.6595354259260104 3.7080408247782373 0.4704062717774704 0 0 0
178 1 6.931271211593733 47.55532318602087 3.773008956689306 0 0 0
241 1 0.4644750917179934 13.429157399984694 6.710194974694729 0 0 0
181 1 8.383985640931229 45.93144934914591 1.991375316826816 0 0 0
179 1 10.114164395279955 44.21436663337639 3.308044618146774 0 0 0
189 1 14.790818677328883 45.91741546052152 2.2681588118537244 0 0 0
187 1 16.57766803257473 44.34734289637344 3.681102172657391 0 0 0
188 1 16.088911034074112 47.724190044850445 0.5018174823885957 0 0 0
3 1 3.5652045431624257 0.836391169608133 3.629587450140151 0 0 0
766 1 15.092102633127615 49.2165756280441 23.877266674699626 0 0 0
176 1 4.935790955031295 48.865212581325984 2.199715105853799 0 0 0
698 1 0.5578422210315059 35.01288114478406 22.171382796424503 0 0 0
11 1 10.038661483603423 0.4491887648527779 3.536155893379668 0 0 0
184 1 11.68336333521279 48.878935835573316 1.8686650535332898 0 0 0
186 1 13.292144202831922 47.29632182315116 3.866574567356301 0 0 0
192 1 18.08488090179562 49.03799014474188 1.9758019953377162 0 0 0
116 1 16.19323020260088 28.71744849763104 0.5349170364988 0 0 0
7 1 5.015501680292575 2.2832771602837636 5.279718394300245 0 0 0
201 1 6.518915731708646 0.44798495219712464 6.687451197078158 0 0 0
15 1 11.760548972423427 2.042623143088978 5.201051428390043 0 0 0
204 1 10.14846366170515 3.8030492269317837 6.619386119930496 0 0 0
209 1 13.50143504875329 0.5629125595405542 6.489433041383042 0 0 0
23 1 18.114457831073096 2.1119677101064402 4.84672627678576 0 0 0
212 1 16.87721882032798 3.74725589478482 6.2684651995626135 0 0 0
758 1 7.990252122220364 49.058568795269295 24.00563882945155 0 0 0
196 1 3.625198066082164 4.069814391074482 6.844681678874677 0 0 0
6 1 1.8774009446181485 5.245222042890608 5.179332901194585 0 0 0
225 1 6.63066702905017 6.56803259070454 6.568238095798913 0 0 0
14 1 8.170240847489836 5.231416529605107 5.185806061329763 0 0 0
22 1 14.830724071785784 5.399892472172056 5.442927887992715 0 0 0
233 1 12.885682751049394 6.904547720001208 6.713294039614475 0 0 0
587 1 9.79823722790569 50.34279298180338 22.646751764598893 0 -1 0
220 1 3.529697300000697 10.149234679874485 6.895158532640605 0 0 0
31 1 5.213705301926398 8.481209620185806 5.331582707571695 0 0 0
228 1 9.667296107828307 9.737939451301617 6.460845548376216 0 0 0
39 1 11.660622595083575 8.452201301310955 5.032915949214683 0 0 0
47 1 18.080862521511822 8.68040422262285 5.100928398946604 0 0 0
236 1 16.125898091375433 9.901131401906648 6.756342161811209 0 0 0
30 1 1.6269119419077303 11.560631672492649 5.596115303130417 0 0 0
249 1 6.631929074099281 13.048980210296913 6.397991907583644 0 0 0
38 1 8.032785673361856 11.238328552700654 4.866540171156805 0 0 0
46 1 14.284350219452017 10.89407303464157 5.329982250323657 0 0 0
257 1 12.627328690775869 12.686183021586825 6.4941293559906015 0 0 0
185 1 13.35063892771862 44.574490642874345 0.5280235881038441 0 0 0
244 1 3.356611465462748 16.177827070148304 6.8086046950423205 0 0 0
55 1 4.9402756390643265 15.006493295221361 5.275299756273805 0 0 0
252 1 9.8876997372013 15.989590988698001 6.315007159038733 0 0 0
63 1 11.45070917898743 14.234422186776493 4.68035778071031 0 0 0
71 1 17.634860650250793 14.363597852939538 4.750656689439566 0 0 0
260 1 15.991262897390323 16.093365688617254 6.46081377676013 0 0 0
54 1 1.6821805566364827 17.314468369241297 4.728754680872136 0 0 0
273 1 6.385520619772455 19.38006473723892 6.97357187371371 0 0 0
62 1 7.75961103505283 17.734641708316577 5.183988240122773 0 0 0
70 1 14.53289916958717 17.85512019135564 4.866426327755785 0 0 0
281 1 13.260669592328991 18.829657328200458 6.9392106658209896 0 0 0
385 1 0.8137737611787732 50.22036269595776 12.59558436768888 0 -1 0
268 1 3.5426732821341513 22.57506777633166 6.274148552155806 0 0 0
79 1 5.344945399700454 21.00304462816887 5.047952082560374 0 0 0
87 1 11.461328223159898 20.52715406177871 5.280725470851168 0 0 0
276 1 9.765183468734227 22.37794614989727 6.626757861625103 0 0 0
86 1 8.263535437253394 23.93976377417725 4.770401941539537 0 0 0
95 1 17.38652584010489 20.761775183126208 5.707451058841781 0 0 0
284 1 16.054076489885816 22.60020701998493 7.005844657148325 0 0 0
554 1 0.8083241790473488 47.6715993256225 16.01544767914072 0 0 0
78 1 1.9328149691701206 24.174184684715566 4.684694847459958 0 0 0
297 1 6.629567857446719 25.363305852236586 6.579787974921405 0 0 0
111 1 10.913374213734446 27.141292911230725 5.286335304651715 0 0 0
94 1 14.583853726442925 23.954153347662874 5.304937429839675 0 0 0
305 1 13.141059197323848 25.701178797776684 6.748081952420121 0 0 0
119 1 17.644029965427972 27.18713657748569 5.242213271213196 0 0 0
292 1 3.169964534739018 28.563914089191968 6.241991374286744 0 0 0
102 1 1.8423600452560156 30.280693992664066 4.699828068449395 0 0 0
103 1 4.986544878592531 26.883929440772384 4.969583341553851 0 0 0
300 1 9.426285029782512 28.605294351004243 6.943806080985233 0 0 0
110 1 8.033273759514332 29.94204137634958 5.320661980006857 0 0 0
118 1 14.353911825527641 29.812361963616496 5.155998743197865 0 0 0
308 1 16.17276971621498 28.686823213750863 7.037968907204728 0 0 0
321 1 6.366579322863939 31.288426922145963 6.6381067148696085 0 0 0
127 1 5.404880379662508 33.36036066022906 5.041793753756669 0 0 0
135 1 10.912810572908903 32.823372003591274 5.075314324951658 0 0 0
329 1 12.408506149543152 31.542120482768084 6.537542484425445 0 0 0
143 1 17.357488145591244 33.19223677858145 5.527677856795577 0 0 0
126 1 2.1265814171376975 36.56366905372025 4.80663422275762 0 0 0
316 1 3.634275299892095 35.02110105626717 6.306185953639357 0 0 0
134 1 8.085991083107782 36.36546691508647 5.208556976446972 0 0 0
324 1 9.64576433450679 34.70804421486009 6.737647284284024 0 0 0
142 1 14.120005083188236 36.28583225092756 5.229817537535649 0 0 0
332 1 15.504367024018471 34.774630271753885 6.824234687404594 0 0 0
1705 1 19.226165537057565 44.291882948799575 0.4403363096880678 0 0 0
151 1 5.125665338954087 39.60968746783942 5.248396368310575 0 0 0
345 1 6.401690624537787 38.19545859600603 6.570358065240823 0 0 0
159 1 11.635904352407158 39.75081180943127 4.9356414714537555 0 0 0
353 1 12.491915882203044 37.93280404003284 6.799123835436828 0 0 0
167 1 17.604522183021956 39.412250676714535 4.962581661052639 0 0 0
340 1 3.740111463476262 41.247028370300185 6.748538044419312 0 0 0
150 1 2.4295376191712315 42.39649567485214 4.921605035111958 0 0 0
158 1 8.081289534162714 42.84541215946592 4.670336077178018 0 0 0
348 1 10.192731710229856 41.411625011326166 6.587572946722897 0 0 0
166 1 15.152751928276091 42.91467667626024 5.145882571253091 0 0 0
356 1 16.131068138085197 40.928050304775134 6.720864032803199 0 0 0
369 1 6.863732246314968 44.5204542765073 6.25747762378325 0 0 0
175 1 5.237722774848722 45.95774124724932 4.953927076802956 0 0 0
183 1 11.586262170551903 45.71340379192725 5.256484879555968 0 0 0
377 1 13.440951932315704 44.29654432871951 6.436903845696128 0 0 0
191 1 18.265780596399278 45.797484564337886 5.166177183509771 0 0 0
2233 1 19.10087910738456 31.754965952015013 19.185320994134095 0 0 0
364 1 3.523606356923146 47.700911321970814 6.563061658341834 0 0 0
174 1 2.0562680757869845 49.03595185002281 4.882132410136142 0 0 0
182 1 8.47640711557797 49.090358058437225 5.444715549299761 0 0 0
372 1 10.249114059899851 47.3500839557415 6.767179435787914 0 0 0
190 1 15.305374811515572 49.037948453064864 5.266912169964266 0 0 0
380 1 16.45733408349851 47.34097231911023 6.8588837090431705 0 0 0
745 1 0.7588530079578526 44.506033885222706 19.220207216496572 0 0 0
197 1 2.302778613819581 2.0644653693133383 8.123368368739438 0 0 0
195 1 3.638398927888544 50.26171626714175 9.590519442891589 0 -1 0
202 1 6.613134341886013 3.5796706716681443 9.579475813777549 0 0 0
205 1 8.084891589611292 1.9266178396863616 7.830033823018938 0 0 0
203 1 10.008867819887621 0.493310601879053 9.734598029465618 0 0 0
213 1 15.050798002884246 2.387003595956018 7.867011046119389 0 0 0
210 1 13.356724367985763 3.909951362520933 9.657056971241532 0 0 0
211 1 16.088588610016906 0.7016909124296828 9.465048984974661 0 0 0
409 1 0.6583833915119115 6.90098767603927 12.775879267090989 0 0 0
219 1 3.3121972091936938 6.835884389586629 10.213031294861935 0 0 0
198 1 1.789216953258913 4.921442463655326 11.299206288266374 0 0 0
200 1 4.976630219934902 5.459767969783318 8.40977942853801 0 0 0
208 1 11.474023558115045 5.30067706765566 8.199596796334907 0 0 0
216 1 17.67057666383065 5.344353655630529 8.087061603459574 0 0 0
235 1 16.39829449785603 6.801074825328943 9.872989175890337 0 0 0
170 1 0.5910702992294943 47.68428927543773 3.360074066139692 0 0 0
221 1 1.9761123962904377 8.408645981441436 8.442379245595841 0 0 0
226 1 6.80244930390078 9.624553321671522 9.820634297519861 0 0 0
227 1 9.731369829341782 6.606514795089633 9.54078621902019 0 0 0
229 1 8.315816022292594 8.10518658858463 8.162615645384935 0 0 0
237 1 14.566678310355522 8.27377877521998 8.261982759446006 0 0 0
234 1 12.916271032534546 9.878845788044366 9.996965546791207 0 0 0
243 1 2.9581970116785326 12.907706253907781 9.757394725676754 0 0 0
224 1 4.745546275806477 11.84912453160765 8.393935881647884 0 0 0
251 1 9.699006289294465 12.916448033543048 9.761167473125761 0 0 0
232 1 11.271445308634956 11.458539979498253 8.278313348313954 0 0 0
240 1 17.741078316277633 11.751155541874969 8.30954592151586 0 0 0
259 1 15.89697610896639 13.111925828040706 9.642971001965302 0 0 0
245 1 1.8958628352698235 14.930284167269853 8.028710223383182 0 0 0
250 1 6.500316405035689 16.166002666664397 9.983605987132188 0 0 0
253 1 8.134437834520941 14.700345187052202 7.98626815809674 0 0 0
261 1 14.28893340200039 14.374922663104998 7.916342976049013 0 0 0
258 1 12.977359036887947 15.937754286642802 9.788877180522606 0 0 0
267 1 3.407567556942465 19.062977800819912 9.264865713339624 0 0 0
248 1 5.101971100327226 17.44564796892003 8.116217670343794 0 0 0
275 1 9.46506389333732 19.287844521172904 9.819986329268367 0 0 0
256 1 11.259860001109407 17.45616358499661 8.346326689954514 0 0 0
254 1 7.998122642855771 17.60898349317312 11.65509152428247 0 0 0
264 1 17.817256499201655 17.27068572959021 7.878425921633162 0 0 0
283 1 16.33601832379067 18.80347247312744 9.729280915938158 0 0 0
754 1 7.05176529972058 47.112039264805574 22.406012651040314 0 0 0
269 1 1.931294358641103 20.78001812291247 7.9103271056506435 0 0 0
274 1 6.4944125060089135 22.379583344265498 9.87368385186922 0 0 0
271 1 4.851324294713 20.615887496314137 10.949766084204132 0 0 0
277 1 8.247784509373387 20.90934063612461 8.308220794403253 0 0 0
285 1 14.62637491803842 20.66496829021805 8.314682960856508 0 0 0
282 1 13.102354268068328 22.232810909553358 9.979745475093292 0 0 0
286 1 14.373940592183612 23.622596902301996 11.52121994860761 0 0 0
482 1 0.6184832815294545 28.71648673871269 15.732461960594064 0 0 0
291 1 3.3203346769089492 25.505821278495954 9.265260712575435 0 0 0
293 1 1.611426965957022 27.02735592144509 7.8190175790743615 0 0 0
272 1 5.0211025920964465 23.759147697560394 8.053566016406151 0 0 0
299 1 9.396899884634431 24.89891294165821 9.842836900984418 0 0 0
280 1 11.422944853001976 24.171668475527415 8.457485960465856 0 0 0
301 1 8.1282138397929 26.751561879444854 8.292153758974893 0 0 0
288 1 17.769775278194814 24.158173333299892 8.425590050079371 0 0 0
307 1 16.131779490214928 25.35849923847496 9.994908323168113 0 0 0
298 1 6.374742194215464 28.508725966157503 9.672016807769662 0 0 0
296 1 4.507850374755177 29.724443194923875 8.114611627178936 0 0 0
304 1 11.009645916550303 30.008647144825506 8.380067744513394 0 0 0
309 1 14.51670578867164 26.94932238372628 8.43882052899021 0 0 0
306 1 12.55125908720518 28.499649282794717 10.066455249421924 0 0 0
312 1 17.78033451239184 30.299933755535758 8.444093782282442 0 0 0
750 1 2.1764151976290176 49.357649921927944 23.889107916980862 0 0 0
315 1 3.4847653966760106 32.19883138442107 9.428672032422428 0 0 0
317 1 1.9444675340434532 33.37118873415604 7.667961358033619 0 0 0
325 1 8.214431202888466 32.889621693596034 8.305949241722473 0 0 0
323 1 9.972340752474667 31.387653288661213 10.127235403804626 0 0 0
333 1 14.006493139666686 33.082429963303106 7.995420658828777 0 0 0
331 1 15.809743700166957 31.90357621534077 9.651740343307734 0 0 0
1657 1 19.001661999875296 31.928530797515602 0.7875449316360095 0 0 0
322 1 6.915143476910494 35.284966329220616 9.585931369262319 0 0 0
320 1 5.054540769688143 36.40870125208423 8.133966641067772 0 0 0
328 1 11.245222255502725 36.152261248072115 8.601724393717644 0 0 0
330 1 13.053427477506398 34.76175088141941 9.836906076086137 0 0 0
767 1 17.59540416598089 45.54476758551407 23.329621183159595 0 0 0
336 1 17.494955040000622 36.3762050908049 8.265447193823558 0 0 0
341 1 1.944939100090205 39.51575783800502 8.138284004492437 0 0 0
339 1 3.660612083844789 38.21043889088033 9.624517381599173 0 0 0
349 1 8.198718643035885 40.07902195194988 8.095293746230578 0 0 0
347 1 9.674025463001852 38.386160656187684 9.65976947934195 0 0 0
351 1 11.275599513135576 39.8769187107347 11.339663009884518 0 0 0
357 1 14.46622696905814 39.244885659246485 8.38740597942319 0 0 0
355 1 15.939606569094659 37.771162564684104 9.869793432710651 0 0 0
359 1 17.345831888074468 39.4446924781417 11.579243276478225 0 0 0
346 1 7.16101562378212 41.52206545158708 9.99041961639695 0 0 0
344 1 5.353391920805629 42.834894994434876 8.112203896042674 0 0 0
352 1 11.861084422479665 42.97095570107697 8.09618797310057 0 0 0
350 1 8.654198153165444 43.13715133591675 11.303217783833786 0 0 0
354 1 13.015437852526025 41.08426801235525 9.863367719245279 0 0 0
358 1 14.537477938250564 42.71407429178049 11.29920277573874 0 0 0
360 1 17.852214737333977 42.5345861835968 8.000201369286394 0 0 0
363 1 3.411351150429099 44.41893650979025 9.961358456849046 0 0 0
365 1 2.063650416671406 45.69048179559367 8.110754725987622 0 0 0
373 1 8.328858673108883 45.97804289598019 8.064565161664783 0 0 0
371 1 10.21275115595793 44.52167889602869 9.237238725517539 0 0 0
375 1 11.60365015596159 45.69077620403894 10.995903623603365 0 0 0
381 1 14.769192959731825 45.79478538465959 8.142618993399969 0 0 0
379 1 16.257482332883818 44.06271287780167 9.566213347661842 0 0 0
338 1 0.7291309049132257 41.27676029188158 9.85941829091976 0 0 0
370 1 6.98689342348899 47.418454075969684 9.791812994344214 0 0 0
368 1 5.220830803957496 48.975410110647566 8.151044647538894 0 0 0
376 1 11.597540438684899 49.08184881778255 8.249177539626071 0 0 0
378 1 13.347698434555632 47.51586239996192 9.677780443747897 0 0 0
382 1 14.683234159271283 49.0819270353828 11.125951130900999 0 0 0
384 1 18.03959280471924 48.92826964522225 8.26427202314556 0 0 0
529 1 0.7001430650124942 37.91132933332039 12.906205146268446 0 0 0
2258 1 19.15608424551309 41.169675642538195 22.3202617525746 0 0 0
389 1 2.3730186321179247 2.0875006503407603 13.977739695935963 0 0 0
199 1 5.1083739012319125 1.8830121043915917 10.93639514002423 0 0 0
393 1 6.648242006903429 0.8507368038004897 12.639915448718758 0 0 0
207 1 11.650037236572677 2.0257976937816675 11.206501866127216 0 0 0
396 1 9.916519715183643 3.424255506848732 12.67360545362879 0 0 0
397 1 8.42650198354762 2.02154575783978 13.989483960904703 0 0 0
401 1 13.153626746258047 0.8483249325921534 12.967529608189952 0 0 0
405 1 14.58715760484226 2.2075141960023927 14.646648258695388 0 0 0
215 1 17.8818573596971 2.540057107744012 10.67763480915991 0 0 0
746 1 0.6360904069334783 47.49545243660804 22.50694821295716 0 0 0
2137 1 18.98621823773494 6.812421454022799 18.854341243359045 0 0 0
388 1 3.938269558284075 3.608486735291414 12.699600122065965 0 0 0
417 1 7.153753911008422 6.213719830054949 12.9400163746381 0 0 0
206 1 8.574338397782206 4.870331561088767 11.255624699354334 0 0 0
400 1 11.288193605526313 5.125942245865242 14.619655831777672 0 0 0
214 1 14.676957514403519 5.125409872062921 11.470543716215538 0 0 0
425 1 13.054180040627982 6.595690070840679 12.925412668079927 0 0 0
404 1 16.039152060494565 3.1505253976122916 12.568537757212404 0 0 0
408 1 18.142157832860256 5.058459590909593 14.165837644389578 0 0 0
530 1 0.477121910004664 41.289825914905705 16.30798332832959 0 0 0
412 1 3.536218215429218 9.663105318382854 12.714673533934896 0 0 0
413 1 2.260075692631263 8.172796682832017 14.560157302113591 0 0 0
223 1 5.590439335873235 8.026400755664756 11.76759758498763 0 0 0
421 1 8.651723719697944 7.769043467016517 14.485328619000407 0 0 0
420 1 10.116740731417606 9.47945059322548 12.933096909991537 0 0 0
231 1 11.562973462881503 7.994244579822447 11.146591261361403 0 0 0
429 1 14.431868246011044 7.906054070640251 14.51594946031883 0 0 0
239 1 17.89267763378297 8.433422531799419 11.57012993909324 0 0 0
428 1 16.311371045835173 9.684187552719683 13.014908823102857 0 0 0
763 1 15.66044546057962 44.108101417657764 21.83338740875398 0 0 0
222 1 1.8745415086204702 10.984622856870754 11.50694698385751 0 0 0
441 1 6.803997132300904 13.070887494546986 12.856706302006891 0 0 0
416 1 5.194385004440553 11.331753158331908 14.546932435207497 0 0 0
230 1 8.494783246621326 11.331134041729198 11.454681652636413 0 0 0
424 1 11.551935028059086 11.171161093682183 14.50594090235441 0 0 0
238 1 14.540829231365308 11.401183519076715 11.30489576701926 0 0 0
449 1 12.947703914351905 13.033105386822665 12.801277646333661 0 0 0
432 1 18.05205181912301 11.454299857379256 14.432538735386728 0 0 0
436 1 3.217287415843238 16.055225681129965 13.053310533123524 0 0 0
247 1 5.049752823996837 14.588669888124869 11.490271226729355 0 0 0
255 1 11.49047714862568 14.248053054624954 11.265396813899779 0 0 0
444 1 10.119353701123568 15.754949181744456 12.780574090937465 0 0 0
445 1 8.513003759506066 14.48535924837864 14.460668564711447 0 0 0
453 1 14.477129683271455 14.443195505998439 14.558782607387025 0 0 0
263 1 17.482083728576885 14.352631472344466 11.487201421365405 0 0 0
452 1 15.937405919643297 16.077601121115766 13.07217945891797 0 0 0
246 1 1.956846664464634 17.86380155074519 11.419740283852732 0 0 0
465 1 6.269014095936112 19.24165922787876 13.081296075995347 0 0 0
440 1 4.959603793311992 17.445012150410538 14.516108003195514 0 0 0
448 1 11.496742072986569 17.336327057170667 14.39958770002447 0 0 0
262 1 14.534681878094686 17.66208384967838 11.17351281554849 0 0 0
473 1 13.107782036848842 19.101265001288347 12.91071190369301 0 0 0
456 1 17.880930447547225 17.800171839593432 14.30207348510258 0 0 0
287 1 17.78090066824294 20.54372866832762 11.402367734038314 0 0 0
460 1 3.425493628220897 21.903098711810973 13.011343385993392 0 0 0
461 1 2.0175057023433096 20.53940882328627 14.664833094509243 0 0 0
464 1 4.9675906113746455 23.45505345554696 14.504600777593465 0 0 0
469 1 8.100308223372735 20.710058710649264 14.642114193577365 0 0 0
279 1 11.409360865511138 20.4164769299378 11.435200895934395 0 0 0
468 1 9.68810083453716 21.933494072009776 13.34071399707461 0 0 0
477 1 14.612407369199039 20.831510293083603 14.059184407163212 0 0 0
476 1 16.281740423968376 22.352320320779985 12.961644158175494 0 0 0
480 1 17.375337538951484 24.004339761834466 14.211313574587889 0 0 0
270 1 2.110842020549459 23.654121139031428 11.267600894515436 0 0 0
489 1 6.370586818450822 25.11397619985391 13.250822153568881 0 0 0
493 1 7.904404701349797 27.19745188569828 15.047116803141376 0 0 0
303 1 10.88933292475267 26.767392135274036 11.321342005502048 0 0 0
472 1 10.914190244498613 23.70772269693667 15.076296078154497 0 0 0
278 1 8.224965203705807 23.59736260333587 11.599158106659294 0 0 0
497 1 12.353790274609008 25.322321085320215 12.862245084333841 0 0 0
501 1 13.99357302979091 26.876745462688152 14.52280207704554 0 0 0
68 1 16.20306773234611 16.015717865760323 0.7173781074270452 0 0 0
311 1 17.515840824641423 27.183979117768153 11.361519597753079 0 0 0
294 1 2.15379625064628 30.054187181073242 10.863391417990378 0 0 0
484 1 3.4836033570192186 28.39792952862682 12.689098309910314 0 0 0
485 1 1.7782568204353018 26.99575039592212 14.051085613551702 0 0 0
295 1 4.750971958521133 26.661749589766938 11.228122813725818 0 0 0
488 1 4.851171055870309 30.2882421045383 14.259313561401925 0 0 0
302 1 8.03907650775232 29.912394446959595 11.485466836973915 0 0 0
492 1 9.5586140027394 28.363278852587282 13.081963132096298 0 0 0
496 1 11.112474816290305 30.314186067790097 14.414724138322772 0 0 0
310 1 14.368960344180357 30.16883264303343 11.640651354796221 0 0 0
500 1 15.646098189603887 28.374655351994903 12.975310141397916 0 0 0
504 1 17.4137433323465 30.12533948993693 14.818555829871862 0 0 0
509 1 2.1488363640799033 33.4147166697243 14.136466741851757 0 0 0
319 1 5.356788634717759 33.626992883450555 11.161009665058483 0 0 0
513 1 6.37051063143017 31.563697175175314 12.6469155266643 0 0 0
517 1 8.262908099391993 33.297454908225674 14.2445269308309 0 0 0
327 1 11.423111837554622 33.052619909601034 11.14605493526565 0 0 0
521 1 12.926452824076895 31.80592445909643 13.0266616274935 0 0 0
525 1 14.674924565795445 33.43683660946898 14.38014150093433 0 0 0
335 1 17.713935427361555 33.605793679372844 11.301267906665736 0 0 0
2090 1 19.177143208491916 48.065808634138406 15.979136225794978 0 0 0
318 1 2.0574380935513195 36.455920942165044 11.061230719124126 0 0 0
508 1 3.387169086461722 34.75656393289033 12.363727819903126 0 0 0
512 1 4.807614268070196 36.41803429367653 14.216085361413986 0 0 0
326 1 8.244070124611781 36.928523477944324 11.207417271517354 0 0 0
516 1 9.62394243643409 34.91048544756689 12.321443769313026 0 0 0
520 1 10.94481941017142 36.13247496195952 14.19306418707859 0 0 0
334 1 14.573340300926821 36.15089041748139 11.168382897571457 0 0 0
524 1 16.385958283340315 34.94540190056352 12.850330718289023 0 0 0
528 1 17.641004759191656 36.3975289247662 14.742669903102959 0 0 0
673 1 0.6108901254804735 25.384382167888898 19.229599740305723 0 0 0
533 1 2.196061651969932 39.73320946497366 14.505144786025674 0 0 0
343 1 5.012303123430558 40.01478734604817 11.282114260025564 0 0 0
537 1 6.412878775160639 38.211873296028074 12.949473929790223 0 0 0
545 1 12.534198732532202 37.88306679906725 12.775977139762436 0 0 0
549 1 14.041413471064725 39.396984657005746 14.326627139663502 0 0 0
410 1 0.5308771088986612 10.072094148419838 15.899899191371361 0 0 0
342 1 2.014528983796943 42.8675414659207 11.779764437455404 0 0 0
532 1 3.6879643818272023 41.267153097363575 13.187221292149825 0 0 0
536 1 5.483086496241275 42.91615436614422 14.5846367218533 0 0 0
540 1 9.985850188461391 41.64343241636342 13.028886992570799 0 0 0
544 1 11.532462983709706 43.0215500762672 14.48032463010775 0 0 0
548 1 15.760944960136326 41.071984572972305 12.912293924793103 0 0 0
552 1 17.427534071171607 42.89394230418419 14.281478895779827 0 0 0
557 1 2.199926239004013 46.207839613230526 14.596340799121005 0 0 0
367 1 5.174055125609392 45.51708255649757 11.498422197825667 0 0 0
561 1 7.184016032163612 44.55865073261778 12.900015413755908 0 0 0
565 1 8.591557374204877 46.24668786498072 14.390234190783136 0 0 0
569 1 13.255281389205836 44.394847014340876 12.563170399664696 0 0 0
573 1 14.436743715419844 45.9738330750564 14.434908571276855 0 0 0
383 1 17.664085680400543 45.69064854201144 11.23610731304269 0 0 0
366 1 2.1017685642456145 48.49907974126755 11.208849863173086 0 0 0
556 1 3.9074546093134668 47.6647030777085 13.093905426711572 0 0 0