LAMMPS data file via write_data, version 29 Oct 2020, timestep = 200000

4608 atoms
1 atom types

-0.2664285778055486 53.66642857780809 xlo xhi
0.09338829668516624 50.81373170331621 ylo yhi
0.09338829668516624 50.81373170331621 zlo zhi

Masses

1 18.015

Atoms # atomic

225 1 8.638304123292885 8.095553415547096 1.3199247917496002 0 0 0
1942 1 8.568641731744503 41.177171522878425 1.5222978524641748 1 -1 -1
2013 1 4.401436530751788 1.8381297592472459 0.7700038562359839 0 1 0
2347 1 3.4337110663982062 36.62250560322482 16.124612426960535 0 0 1
2960 1 0.20546997912412918 33.58656333124431 20.46357601375169 1 -1 1
3491 1 8.25687059721519 0.6046517205994939 4.475856300944247 0 1 0
594 1 0.3233182218451487 42.08755582385682 5.248077967313714 0 -1 1
2875 1 3.1314487643509827 13.596861259742946 15.134444964114351 1 -1 0
695 1 8.349086870245518 50.56641045683115 1.1806548924920042 0 0 -1
3230 1 11.891298985229053 50.00497486118711 6.121798425021394 1 -1 1
1412 1 12.364996605814333 45.553937139634854 1.7681005757227428 0 0 0
1638 1 14.713290698055783 6.62522351896003 1.5771285092843517 0 2 0
1954 1 7.422162299396934 3.9591192521164786 0.7989101703146744 1 0 0
332 1 1.9186175616603438 33.298039237017605 23.880898188315733 1 0 0
2038 1 9.101378871498737 5.459555151393202 1.5475901353861865 -1 0 0
2442 1 0.1933780891044311 34.8312804275146 8.433119678198908 1 -1 0
4240 1 1.5690296587820418 29.051582181374012 21.095673732967782 1 0 0
2709 1 0.519319445782625 46.79147559636033 3.9709411938211336 0 -1 0
2526 1 0.45697461896730096 47.68406132071223 8.3643406300734 0 0 0
1208 1 1.0322406008720324 17.603397532945724 20.984358896550038 -1 1 2
969 1 2.8746108047021677 10.995156981926783 4.019423195848642 1 1 1
2323 1 1.136868800917912 29.798783509505718 13.066563817790602 0 -1 1
1779 1 6.589824741307015 7.879631181561492 3.1342048387526704 0 0 -2
2522 1 0.5994500296193693 20.470901011177343 18.76695431489693 2 0 0
2963 1 1.0373430307498364 31.97074449022963 11.250893934171263 1 0 0
3263 1 2.917445166802408 16.694516737611504 6.510018756110313 0 1 0
2005 1 1.0727560563095877 27.693128999939248 23.29604138441896 1 -1 -1
3767 1 0.5949859623773455 43.541731658637346 15.142567070395966 0 0 0
1252 1 10.939861514145852 15.438323424770667 2.797954116695823 0 -1 2
2826 1 2.279455841525919 25.521800448741175 1.3375535202218503 0 0 0
2233 1 0.9377045535197486 13.714644780265957 17.591439160997638 0 1 1
513 1 2.4927940980468533 16.793420935218577 3.6241358245252715 0 1 0
3626 1 3.343262098783857 19.513243796648148 3.9401049296691593 1 -1 0
3816 1 13.683449612542434 32.29208712052787 2.2217966675921756 1 0 1
2070 1 9.779995011056489 28.859888714675524 25.030565525164768 -1 1 0
4507 1 12.519810932044756 19.269426002153523 7.3241688732830585 0 0 1
1339 1 2.2339500783440127 7.536948107000271 2.2994624299273183 -1 1 1
988 1 3.5870367407245483 18.529594234409934 19.885500058279717 2 0 1
2546 1 4.3015782362125154 24.01919210113716 3.785959251228764 1 1 1
4192 1 3.9754802908026177 19.755589441715145 0.8292669125155262 2 0 -1
569 1 0.8967575836386581 12.595352331170375 11.375127981997155 0 0 1
2145 1 0.8301491195642239 0.40796166986565985 1.0616440146291934 0 0 0
1882 1 5.739818039186736 20.026047915638518 5.101420437902901 1 0 0
390 1 7.723977204538807 18.345235560999164 4.294337175868849 0 0 0
1513 1 13.95806328679367 20.99504370852891 2.209567939639452 0 -2 0
1368 1 14.609078963847905 18.690596371781638 3.6325123029331863 -1 0 2
47 1 0.10051613344021931 20.99680793779723 21.949252476495236 1 0 1
362 1 5.975312566594528 22.16829702970765 3.509337283543833 0 0 0
3332 1 -0.12344603071313781 16.05445568538796 9.36147608767182 1 0 0
470 1 13.68041900166811 37.60901459847926 24.976536167984683 -1 -1 -1
1266 1 11.52904774954592 28.431741996103717 0.43012537040221854 0 0 1
4422 1 10.879617697417755 22.295905907601313 2.794353382586218 0 0 0
3681 1 -0.22145612840348008 16.106427208178594 6.0755219233703395 1 1 1
750 1 8.765721005111303 38.446838336490785 24.613908800437695 1 0 0
250 1 0.261254614732785 17.463086524846 2.408111722734016 1 0 1
2924 1 3.3032668672927894 31.12769503080438 1.485841651596371 1 -1 1
3275 1 14.673563209226128 32.96154777009525 23.64818200831164 1 0 0
4510 1 1.0852639580844683 29.656324964410203 2.0439399749806357 1 0 2
4114 1 9.644535078947321 27.00215953638795 2.1500963317444213 1 -1 1
1944 1 12.467899489605271 29.765995902835353 24.497087293311978 0 -1 0
3368 1 0.4022635089182047 32.86022928698043 6.742142535379808 1 0 0
2470 1 -0.14060709375947056 13.44641848622147 7.65942250100387 2 1 1
3307 1 6.575941016181304 42.481836160677716 3.7621222836451453 1 -1 0
2582 1 1.429899423790843 1.6341541225547969 5.6824151038528745 0 1 1
977 1 9.578064866289125 16.607023694204614 0.5664634574993439 1 0 1
139 1 4.826836904805247 14.691445864006576 3.1650561112952618 1 -1 -1
3022 1 7.599852088655664 28.6463622263929 0.982403059731946 1 0 1
1973 1 14.887922600753658 30.862806010106738 4.651627180355825 1 0 1
1551 1 4.254012188736132 40.41410830672963 1.1328796076406409 1 0 1
1960 1 16.88729651998725 46.51813549799395 22.127656623205546 -1 0 -1
2014 1 17.10007588048345 26.709781832953627 3.4944193520330926 0 -1 1
1735 1 15.348279736202016 34.38171467830338 4.042980912318138 0 -1 1
864 1 15.641682388106238 14.894075324823628 2.711781908276058 0 1 0
637 1 2.908306168001137 6.608834173554725 24.650481842663385 1 0 -1
3975 1 16.05740298887474 12.432345741285133 0.45124055852542777 0 0 0
935 1 9.43401890360319 48.112402082501106 23.267719382591714 1 0 0
489 1 1.8146283126581335 42.95687372056605 0.2551014320305123 1 0 0
4098 1 -0.2634828592192022 33.79387331511123 0.7548498979010116 1 -1 1
673 1 12.84015752803894 40.3448575983669 1.1135572945807632 1 0 0
851 1 0.35175377146035613 22.513903671502135 15.343228084690695 1 -1 -1
2353 1 15.857699730688097 6.37433732039018 4.094185570394511 0 1 0
1886 1 5.321670440530525 46.176458363330966 3.416359815848869 1 0 0
3567 1 7.420757478373781 45.03918378315602 4.904390110713385 1 -1 0
3064 1 9.257568416681114 43.91869175021252 1.4382230899453798 1 0 1
1360 1 2.452653313127756 9.302162669166735 24.840029608464523 -1 0 0
4140 1 0.09669704752510322 12.252111884248205 19.669251104477187 1 0 0
3330 1 1.283083686777387 38.7533144217105 18.372294958872562 1 -1 -1
4090 1 2.63110894295922 15.6341155457335 18.879724635110396 1 0 0
4029 1 -0.14374134829745444 27.615029149274257 6.933205705391237 -1 -1 -1
4312 1 13.551161251772857 16.61034098599554 1.8456890620536326 0 0 1
4227 1 16.567572117492848 11.21017772155497 25.00628251190344 0 0 -1
2333 1 12.855112076630036 49.428565257908744 1.1863509384650537 0 -2 2
3379 1 4.305045005380086 50.05632076380141 1.7473830635440273 1 -1 1
3390 1 3.4428576477794754 5.060724586007087 3.0975780053858792 1 0 0
4568 1 7.137906718159467 2.705575791211681 3.0617249779992597 0 0 0
1477 1 10.058057553490828 48.55385790441882 1.0238070639039243 0 0 1
4220 1 16.33139702475702 45.9608893298075 2.825802920757285 2 0 1
3555 1 0.40753376066085656 9.726512520853957 2.1280219477617477 1 1 0
1634 1 1.8293772791804366 4.330671418169363 5.239550528821139 1 0 1
2200 1 5.80562955010092 5.7516337684804375 4.875036906004276 1 -1 0
3795 1 10.388322254746049 1.9341774724602832 1.4258227945433866 0 0 -1
641 1 12.89189520596152 4.4614106544170475 4.620910440004731 1 0 0
1233 1 11.814447031128708 0.4277830788622712 8.954483928527416 -1 1 0
845 1 1.901365890872496 8.306914065961275 5.145570220722119 -1 1 0
4485 1 4.822862750394512 10.13003124700747 6.308426668445669 1 1 0
28 1 2.6750817096095965 5.112906604153576 7.885801482669911 1 0 -1
2466 1 4.563049634703172 7.714596096918376 0.9861998302195225 0 -1 -1
3853 1 15.302254362232354 18.460792709286082 16.571903667443543 1 1 -1
273 1 11.171094325384681 9.453449539427464 2.0738348713643444 -2 1 0
4201 1 11.578100847408457 31.318633007691133 0.769047828324306 1 0 0
1615 1 4.012664733982007 14.136102264355756 6.241588225900755 -1 2 0
3376 1 10.441733212098796 6.073683205383425 4.252157006752357 0 1 0
2898 1 11.888017059709846 11.980735867008367 3.4776832731127367 1 1 1
4353 1 7.341734262682895 0.2197235875945296 25.35650018640963 1 1 0
2279 1 15.307437804401532 9.669569128696542 2.6450398983885663 0 -1 -1
2693 1 12.82082336711595 40.086737858971176 25.304309494867592 0 1 0
3484 1 6.992783937731019 15.329133916342633 4.911406058690273 1 1 0
63 1 7.065563446461687 14.616539987002286 8.308571199457043 0 -1 0
3417 1 5.245258790362082 11.943666768376872 2.947356128454306 0 -1 1
1026 1 14.923379709802868 12.453432039562257 3.5279069345367766 1 0 0
2523 1 14.924909958624145 18.39537002404061 6.416593456509374 1 0 0
2325 1 5.872100602032778 17.339928896242856 7.180681933105134 1 0 -1
3238 1 10.460863785434496 13.111327750543554 1.7092697533720793 0 -2 0
2854 1 8.028600925645506 12.743571750628702 2.200509836395716 0 1 2
339 1 14.19215729420702 1.8233429280812246 4.145520393578059 -1 0 1
2894 1 1.9453789757787927 23.557776305974212 4.555164263258002 1 0 0
1763 1 7.006535577439597 23.631791514096147 6.878477375492746 1 0 1
3026 1 8.158130766449123 23.606510008030988 4.155289176634697 0 1 1
3308 1 10.477492212726787 19.101253251081314 4.697908592672218 1 0 0
2266 1 13.416217560409155 22.419463174676356 7.344664290273893 1 0 0
1751 1 5.080732742354958 25.57317788806621 6.044827112541283 0 1 1
2979 1 0.49211694265491734 25.84153238776069 5.26612221096141 -1 0 0
4086 1 5.388783316351016 25.414526913948738 0.9131998389293899 1 -1 -1
1230 1 6.969312955971683 26.227290174911097 2.8828206524376987 0 0 1
2784 1 8.90467574836046 30.327195926244467 4.952804155725709 1 -1 1
497 1 10.973997886590372 21.413071655305036 5.671188867586241 0 1 1
1392 1 9.179693046648667 25.598181403227194 6.665390085925659 -1 0 0
3800 1 10.08585536369069 24.476080199064697 1.1807902245862885 1 1 0
2587 1 7.17175324007441 27.80672160728957 4.862244829765832 0 0 0
2984 1 8.927453893214162 31.022781611435576 1.8298319668116916 1 -1 0
346 1 10.973604003218343 29.280621544068268 7.1287504901574295 -1 0 1
4180 1 12.931973556671908 25.553875687571047 5.408047631602508 0 0 1
3741 1 1.4846841517495037 27.4145499990257 3.23618028170988 0 -1 0
1417 1 5.348728054343889 29.7336583077451 2.537404837326108 0 -1 1
89 1 10.78945377454001 12.53817368651687 25.198954459928817 0 0 -1
354 1 5.976930629009944 34.245011278914376 3.5857054966686794 0 1 0
2869 1 13.906170744064259 27.090173069250234 1.353800629052063 0 0 0
1228 1 6.6507852049438085 43.98822934754034 0.4256741370432075 1 -1 1
2958 1 0.8726911734803273 17.868093631784607 15.893848451503835 0 0 2
2892 1 5.347194016337359 31.836781815927022 5.067309716826397 1 0 0
3726 1 8.227268952162461 35.58586151682039 1.1115267068771306 0 0 0
155 1 16.73643435357228 20.753620514329228 6.031012375634779 0 1 0
3023 1 2.562610394039761 37.00007848976075 2.4886276955773936 -1 -1 0
3677 1 6.101951854130523 36.496789569643425 5.089942508852674 2 -1 1
147 1 8.460121720497087 33.20686957820929 3.2097131883052863 0 1 0
285 1 4.945753958649592 37.86025887621 1.736087793613465 0 -1 0
3961 1 12.502791912410805 34.84177708538567 4.435683815566203 1 0 1
2736 1 0.18794872295100562 10.050156822817417 9.75307269293791 1 -1 1
2302 1 13.59884542642691 9.670525503975515 24.518518194206 0 -1 0
635 1 3.444437992852198 42.26841011636907 2.8679069449629373 1 0 -1
829 1 1.558838593400782 39.58380655288423 3.5142667529880067 -1 0 1
2135 1 2.879725587482976 39.424371760966125 5.7996550111713985 0 -1 1
2019 1 4.338736004612393 41.78312868713353 5.85818493961135 1 0 0
4575 1 7.278647126531783 37.74925448270264 2.8676037316255267 0 1 1
137 1 10.076470689058583 37.736250394235384 7.264958435326439 1 -1 1
370 1 10.65621300749646 39.18208573428858 1.7493504445377541 0 0 0
4483 1 10.996150848238186 50.21967027413433 22.303323744327876 1 -1 0
4231 1 6.50873308998274 48.52240238847641 2.298409248658934 0 -1 1
135 1 8.383525625323376 40.090815467720645 4.484974896200152 -1 0 1
3507 1 12.643335349444438 42.95708024854106 5.185736112527193 1 0 -1
3605 1 15.405704816261306 39.342593506047905 1.4329427915564137 0 0 1
199 1 16.82952009567839 6.31240731896877 9.120928131576688 0 0 0
4131 1 11.021285616924942 39.42548879375565 5.585966732656779 0 0 1
1950 1 0.47182603234200327 27.236360721755325 11.479061024291097 0 1 -1
306 1 3.1421102972264685 47.30974912194358 4.4467942030514145 -1 0 1
3881 1 10.01092509523569 42.99488446084074 4.360245502253306 0 1 1
2649 1 5.563598325346086 47.47714846175684 6.831992843254408 0 0 1
3754 1 13.037742548037938 42.8414827178275 2.590382026144682 0 0 0
758 1 15.88690582687515 42.8471371908045 2.88968120656084 0 1 0
86 1 3.073755685406705 49.378010021113425 7.099492280818962 0 -1 -1
878 1 2.6212517402361057 50.0381524726062 4.008515507566758 0 1 2
4365 1 4.899244217734008 2.1623324564435946 4.032517920376421 2 1 2
679 1 14.413925081360265 46.699066522469224 4.662572065116629 1 -2 0
4358 1 9.223923728445543 46.56962076577885 2.8156264343582382 0 0 0
1282 1 1.9808723398160613 33.48357765700011 2.3040550723201196 0 0 0
1655 1 16.493931524293256 29.12959429427583 1.044983935049249 -1 0 0
1913 1 4.278281177262206 2.588476021224023 6.896327804487093 0 1 0
6 1 8.640419628466644 1.3166060345685766 7.425433912798763 -1 0 0
4383 1 7.36491239081404 48.95431609576477 4.979304788437279 1 -1 -1
654 1 10.955770292307383 1.5215389254495948 4.02741317625707 1 1 1
794 1 15.558339089223605 0.15170637482688676 9.413640035179853 0 0 2
751 1 8.815688904819755 8.809568423383855 23.116014921198833 1 0 0
3431 1 -0.17894319162267458 3.3405605231423032 18.750043042085785 -1 -1 0
4018 1 2.7729366411392258 2.964047353401651 10.118786598613799 2 1 1
3097 1 8.549834145868962 4.1948057568822055 5.083151306450776 2 0 0
3323 1 11.20812199186674 3.1451287900614537 6.391671983855651 1 0 2
764 1 9.925818524816684 0.46792356980243643 10.955693929915702 0 1 1
1117 1 14.412519168263074 8.543397946577494 5.089615501027837 0 1 1
671 1 0.6932865451572198 7.017286226042734 10.023802549297022 0 1 1
682 1 10.367746338720712 10.031384340965074 6.924569443811124 1 1 0
4484 1 9.198418299374616 10.90196687818597 4.43446921298503 0 0 1
1236 1 9.949219121055563 5.658432592856291 7.902272844810568 1 0 1
2652 1 13.807938830640774 15.868703755709786 7.48533097101074 0 -1 0
466 1 6.206355501203137 11.556923013571046 24.671870688091833 1 -1 0
1524 1 5.455423360863503 12.229557509932397 8.268933415522532 -1 0 1
3730 1 4.90931120458125 16.805330656263383 11.186340692904945 0 0 1
3810 1 9.56187089867371 12.829481569024118 8.409721049577767 0 0 -1
4605 1 11.59600053138937 8.386545547940305 4.654373709480399 0 1 0
2763 1 15.193242927079295 47.08848779367304 15.594207452906709 -1 0 0
3925 1 2.452513493432216 17.294300753809313 9.391428410733388 0 -1 1
1792 1 6.457205603460463 10.185843376825803 9.680752288699509 1 0 0
1398 1 8.95326311558546 13.541638469919011 5.587515103455049 1 0 1
3280 1 12.556397649389845 12.14687501518232 6.081604710449033 0 0 -1
1003 1 11.055387048724961 16.575355380470416 8.071832210837709 0 -1 2
1640 1 5.41344780594032 6.021589741990755 24.195682481007854 0 2 0
552 1 13.406250345132142 24.144849114242508 2.4779953409705233 0 -1 0
3018 1 3.893645834584114 0.14463547603790516 24.65423454688792 0 1 0
1793 1 1.4002873482309568 20.904808311357687 4.987067714365399 0 -1 0
4254 1 11.262638458059959 14.664452358803517 5.548953207603375 0 1 0
3287 1 12.724814209475062 20.072872205016303 9.995053689992385 0 0 1
1451 1 17.440198990136185 21.432453953769954 9.4177685485137 0 1 0
3760 1 14.142711600882414 14.876501561540826 12.640241879454605 1 0 0
2439 1 17.55050084270639 11.5924614911542 6.337809251835625 0 0 1
3030 1 5.97893164532133 40.64033098274845 21.90202063488263 0 0 0
2394 1 4.35995253669956 20.263340070765416 8.914023881273293 1 1 1
3083 1 6.734388720612827 20.943711832624512 7.3322837548656805 1 0 -1
2514 1 14.870246929589273 21.85780578219527 9.658833795608087 0 0 1
1945 1 7.20501515104944 21.789675573576073 13.407336182856533 0 -1 -1
452 1 9.381653147969983 20.520465076962964 8.077129528734071 0 0 0
3140 1 12.246620447712235 4.241940019467668 1.8942248326775522 2 1 0
1567 1 2.00056815673497 22.655335393718943 9.369415897185004 1 1 0
2369 1 7.3471560830422655 24.243597195583842 10.441564077607065 -1 0 2
4182 1 11.112676069583545 21.43131960993694 11.435289696424674 0 1 1
2915 1 14.347754006487415 26.896489801111215 13.130465693760206 0 0 0
1296 1 6.422483690016993 50.69523764922103 22.008056882255044 0 -1 1
972 1 3.837669226053463 27.80658350746897 4.262051256374748 0 -1 0
242 1 7.77309875496568 26.573925928590146 8.952595917160362 0 1 0
3946 1 3.012814078613421 29.938124415053 5.681853697539117 1 1 1
267 1 10.145105343365932 28.537066893447832 9.214578429061419 0 1 0
1860 1 11.460325599875812 24.46965264132016 7.992188058897344 0 1 0
4599 1 10.707359304751144 27.51156217219657 4.7537749850724 1 0 0
4120 1 0.4239738933446314 30.926097846104472 8.70371402734154 1 0 0
3228 1 3.718445303261428 32.41212567655823 11.797266051824531 1 -1 0
1705 1 6.633558362799782 28.383687478553778 7.59447516211471 1 0 -1
2663 1 11.242696529260877 32.1320779234014 7.105504105698579 -1 -1 0
4196 1 13.715313430442498 28.259332045625275 3.9164659812101617 -1 0 -1
213 1 12.142607381471787 48.443342283591065 25.069216737429638 0 0 -2
394 1 1.8837660141013526 35.225913216220164 4.67618784450041 0 0 1
493 1 7.790453465708557 31.99664295709004 6.404666202914465 -1 -2 -1
2362 1 13.483146557735196 35.671385279663525 7.224418600953056 1 0 0
870 1 13.527340249601176 27.876729432937175 7.091244495013491 0 0 1
4017 1 14.062747246079361 31.862099737024714 7.3493414439141524 0 -1 1
4374 1 14.275739526522724 29.557362802144592 9.020239218912646 1 0 1
180 1 14.91907580258359 47.70517367011924 20.751135087576028 0 0 -2
1914 1 15.102546285224943 13.44538597791622 6.404343582770877 0 0 -1
1303 1 3.7923128961362353 36.93269080749113 6.186252945128201 0 1 1
2166 1 8.21347590353952 35.42870993727237 6.689386288879406 0 -1 0
1464 1 12.399546034971191 37.746442905453264 3.840511082643529 1 -1 1
3533 1 15.09355213295601 39.49523739269286 8.888624288895763 1 -1 -1
174 1 15.380817791551806 36.695322907060316 0.8263976690789403 1 -2 0
1893 1 11.495329601029638 41.08546861492859 7.833265844502235 0 0 -1
1881 1 11.75633197479158 37.09656457947084 9.23917534168856 0 1 1
2039 1 14.987290539892482 37.95095599524343 6.716539117997868 0 0 0
3792 1 16.025452195501952 26.701186144241507 24.886436130427867 1 0 -1
849 1 2.3014388119257694 45.99245642145115 7.1736344098427836 0 0 1
2018 1 16.26833792082078 47.25352603303949 24.697670726731292 1 0 0
1324 1 6.972023353416147 41.125712795530674 6.763763798512449 0 -1 1
2449 1 6.73234167301403 45.45045631377667 7.338404749996276 1 0 1
724 1 9.253528314691863 42.619589424178784 7.548170327987105 0 0 -1
1129 1 2.827675611552481 11.952828537522974 21.26039876830091 -1 -1 0
1231 1 10.56680508565075 36.828021541859556 0.48764949366987587 0 -1 0
1191 1 3.4382886137177566 45.18840822519634 10.125819750209411 -1 -1 1
198 1 14.979424820752866 41.407500247310395 5.450821386042771 0 0 0
1657 1 16.02321173049604 44.95742089140485 6.2400126185203595 0 0 0
3389 1 6.860440540216832 48.02156468531854 22.647273136340026 1 0 -1
3521 1 6.877500366018275 49.8003337463949 8.253139243632104 1 -1 -1
3266 1 8.373183496579573 48.66993952756471 10.408264435756431 0 0 0
771 1 11.732012930383371 46.08385338438961 4.723093060377848 -1 -1 0
4380 1 13.156817605139443 44.88064174210501 7.765632734120638 0 -1 0
4552 1 13.908872061700954 49.53817971443175 3.7273472190073447 1 0 1
279 1 0.8078475773871221 37.67928241020749 21.607761378521086 -1 -1 -1
2472 1 4.430593702251774 0.4202589484631177 8.938238244690842 0 0 1
2006 1 7.443420941467392 1.8859376989146661 10.3558183037209 1 1 0
2905 1 10.764293851262801 4.466469937908798 10.340858077381666 1 0 0
1172 1 10.146759158305045 47.858527276475016 6.01193327778604 -1 -1 0
4331 1 13.506715718593071 3.2625812827295495 8.82463286420024 1 1 0
338 1 13.478116524219327 50.575725184095205 11.605404747238401 0 1 0
2910 1 2.3584176181048013 3.4767953270591394 14.902028342279888 1 0 1
2403 1 6.911646654509577 3.341272494963562 7.382541288717049 0 0 1
1164 1 0.39891358539144317 5.610032395331414 14.69794518873928 0 1 1
138 1 3.884019778910713 7.018255168776145 6.447778711870859 0 0 -1
2236 1 7.078731835637044 5.6927527680346595 8.575064776377989 -1 0 -1
2805 1 11.545279843713713 2.4255837793691453 12.332470784096987 0 1 1
740 1 13.44939051939015 6.631613778387296 7.086204741164134 -1 -1 0
2844 1 16.658642112739827 28.65456961542126 9.070463330910108 0 1 0
2599 1 5.301862920839962 7.951433937977996 8.440189671671751 1 1 0
1460 1 3.2639979584074483 8.004266841010647 10.285819044433703 0 -1 -1
2891 1 8.960414920550145 10.174559601275453 10.076019451425209 1 0 1
4416 1 6.703108549302302 10.255490555671235 4.504712380183852 1 0 0
3965 1 11.593200824328965 7.644993710435792 8.718524231846214 0 1 1
4326 1 2.5441053904740603 12.821305795036068 8.69818037154379 2 0 0
3373 1 9.410463890072146 42.081925651316666 24.867820078118967 0 -2 -1
1248 1 9.30260068525206 12.65411685929508 11.488858460927748 0 0 0
377 1 13.760383681689683 10.369493277573975 8.593524995686153 1 -1 0
1540 1 14.721185339270736 12.556139702550029 17.123203339298527 0 0 -1
3306 1 0.5696488397743208 17.64572118620607 11.96289864734321 1 1 0
3983 1 9.697506637603457 18.239232987518665 9.789892393631009 1 0 0
4052 1 11.87481374974777 14.277150377356056 9.586501702614491 0 0 1
2681 1 14.852882407005975 13.947083380559356 10.512700731473785 0 0 0
1294 1 15.249991573797402 11.097274491960679 10.504404836612213 -1 0 0
1227 1 2.784565484546955 16.563607453684682 13.178855103575223 1 1 0
4091 1 7.288508267878057 17.277966488734407 9.27876430909105 0 1 1
204 1 9.048629080931745 15.407253242271006 13.781567539022294 0 0 -1
1099 1 13.646877193598783 17.91780843809286 10.889466674502744 1 -1 0
4384 1 11.512753027043571 16.025520852314365 11.606145264724802 2 0 1
4310 1 5.108671951576712 22.93593460070649 10.584935514244872 1 -1 1
1409 1 4.642142268931065 17.961579005272284 24.489166570037785 0 0 0
3806 1 1.847739401585069 20.11801147037619 7.773807016857048 0 0 0
3250 1 6.043378640589997 19.675547382034125 11.46284573545302 1 -1 1
3123 1 10.302330480196918 18.881100372547955 12.36657772797866 2 0 0
1652 1 14.695187861814288 24.008947041935983 11.399261123728637 1 0 1
2213 1 14.81576611819719 18.537714974952042 13.268241490962145 -1 1 0
3917 1 4.228914418899534 24.50076877790022 12.949359054709955 1 1 1
2608 1 10.054096120688012 22.742951255205064 9.423925181143812 0 0 1
1933 1 5.226546365974026 23.043497241027328 15.110615985042953 1 0 0
3513 1 10.353138209078416 27.117817925651266 13.319223910644366 2 0 0
3825 1 12.215091680823273 27.512969157489334 11.194959365541145 1 0 0
964 1 13.665396259360438 25.59581930258364 9.565163358648533 1 -1 0
1269 1 4.080247798218694 27.165514657035892 8.606959737089204 0 -2 0
336 1 2.0268584649506276 28.893587425477804 7.84670281296174 0 0 0
105 1 6.67008464515454 27.573926034462804 13.389134266445554 -1 1 1
2318 1 10.622293798030451 32.318761110765635 9.825246069958167 1 0 0
4014 1 6.890861208901206 30.85118585388369 8.729931985869829 0 0 1
4244 1 16.696452647898518 27.920242798705686 11.795015535340545 2 -1 1
4257 1 16.15389919988817 25.964231005460725 8.352875041922179 0 0 0
2637 1 4.499379234278265 32.65480971940484 9.216612591844747 0 1 1
4040 1 6.381686803847991 34.62729846717066 8.88165549711313 1 0 0
2908 1 10.958905844672309 40.48769636979918 21.732573635368468 -1 0 1
2628 1 9.751277521521864 33.74802366423759 24.526671806982556 -1 0 1
636 1 4.477787766806531 34.375866155811565 0.8795665591386889 0 1 0
4473 1 3.2847080826696784 33.21137190405679 6.410566718099048 1 1 0
3833 1 2.353103942683058 35.09212764854091 9.865460617225136 0 -1 0
1961 1 9.853877193213203 33.95745102120986 5.225639144606529 1 0 0
1591 1 13.490166457379646 30.192539744242282 11.741254668138875 0 0 0
3132 1 14.470030443150163 34.08632411352234 9.085306034818261 1 1 1
1292 1 16.7418279265299 31.41378623517197 11.330002737484833 0 0 0
1125 1 0.9617457629643646 37.74853823769294 9.316203969896234 0 -1 0
1680 1 4.654468277638174 36.626707592347884 9.041390981740205 1 1 0
1816 1 9.51739940695683 36.449420787163234 10.692945894711194 0 0 0
842 1 8.194471686518199 33.803818256698435 10.776593904195492 0 0 1
3068 1 12.511673911118162 39.597543889141576 10.31832651944873 0 1 -1
499 1 16.83341864872865 38.939821753208335 10.985155315579924 -1 -1 -1
3791 1 1.0541717673314266 39.95216020350898 7.401846238418926 0 1 0
4252 1 1.7248431360733063 41.42064810467029 9.512634091856233 0 0 1
3476 1 1.23751760797498 50.140902147221794 9.50534977031093 2 -1 0
731 1 5.94023750246565 37.44996779919133 11.876348657716864 0 -1 1
2721 1 6.507003969017395 39.48156367003132 9.127915461513828 1 -1 1
4307 1 9.130037209993485 41.51571299616721 10.316961471456313 0 -1 2
1458 1 12.447852818241321 40.60792473781598 12.795108550002936 -1 -1 -1
4088 1 15.927902094051628 42.13211311810541 8.07069068380493 1 -1 -1
4284 1 0.616543857637141 44.44424231520708 10.83452474616595 1 -1 0
1908 1 2.5105360731979514 43.40935094476828 6.982044605301274 1 0 1
3518 1 5.160452907020944 43.53990269425786 8.723375920274192 1 0 -1
445 1 6.586904137063376 42.86454300258059 11.24842705652846 0 0 0
3171 1 13.450695886213287 42.7719637613604 9.173199711558555 1 -1 0
2208 1 12.876414977869326 43.55939343643466 12.192297605441473 1 0 -1
1722 1 17.43240155039051 40.91157786730814 1.5486031647370124 0 -1 -1
3930 1 1.4957998964434338 23.233768950846816 23.076989518689953 1 0 2
83 1 1.1348375484566025 47.34387570454351 11.074932324964688 1 -1 1
3370 1 6.005970109238287 46.93417991153515 11.778038720789866 0 -1 0
3775 1 10.566998153829378 44.95216014196873 8.712270253761197 1 1 0
4246 1 8.7580234688671 46.96798813332026 8.346249052341227 1 1 1
4601 1 15.029167204833247 46.12829481492406 8.918930446584426 1 1 2
1855 1 2.704223996280847 48.171726538836836 0.40076098437374846 0 -1 0
4168 1 16.990586505149956 23.748466357318588 20.239111966927727 1 1 0
2182 1 16.466614685823345 24.584846420557888 1.369116135630522 0 0 1
4115 1 2.941803305567234 4.011378877497783 17.44323443560866 0 -1 0
1527 1 7.755162066757455 49.39247994888714 13.280655496083936 0 0 1
811 1 6.141731533080368 0.7990082615586306 12.37773072426983 0 0 0
3829 1 7.870545871391272 44.73341632210064 12.632007594159651 0 -1 -1
397 1 14.10036306977998 48.94925689014106 7.486496662420511 0 0 1
881 1 17.455076065087777 3.1740238003830736 5.720187654490598 0 1 0
2579 1 16.78297916263778 44.918876025500126 10.87800253896555 0 -1 -1
425 1 6.605558341971975 1.542412170020131 15.126884059918543 -1 1 -1
3988 1 10.741481951421848 49.41532230710884 13.133991382926872 0 0 -2
2506 1 13.46676913448457 2.100018786976213 14.753475151648045 1 1 1
905 1 3.809569850694867 50.54572168564036 12.003021873945636 0 -1 1
1773 1 3.7280791122142154 3.720743691872584 12.639574677140388 0 1 0
2156 1 5.720332705390537 5.201639411825904 17.955632209535814 0 0 1
1234 1 5.109732101464933 5.759354358896035 11.683808630115498 0 1 2
3432 1 10.070852432955752 3.8840962634619913 14.232269651021152 1 1 -1
742 1 7.583207521482636 4.5358154790845155 10.994163869713406 0 1 0
2702 1 14.099107982572502 3.538785834073072 11.568020554739984 0 -1 1
2109 1 5.5989137232080175 9.583683281850067 12.428059892049136 1 0 -1
3582 1 4.077942572502259 7.94624009708658 17.852739171030596 2 0 0
3644 1 5.766184857896172 10.200670842537134 16.725020499743163 1 0 1
3301 1 5.405947221898035 7.460389102533968 14.157714063580196 1 0 0
2210 1 11.844959944173992 6.733891454880677 11.363421018982962 -1 1 1
4540 1 14.575207833222352 6.16144772680476 14.287080521792499 0 0 0
4444 1 1.5482433932036264 10.275114620372149 7.200666874314677 1 0 1
1120 1 3.185122872135175 10.424147053793448 12.070901845539922 1 1 0
3441 1 1.5337029275817888 10.131764884451377 14.21433132987199 1 0 0
3297 1 7.319521585916207 11.11347748245193 14.467163526611143 1 0 -2
1515 1 9.491620303566677 8.458948843367423 12.308515368054318 0 0 1
271 1 14.249231501975098 10.793040886293378 13.002824928831235 0 2 -1
2540 1 3.347252720748234 13.590540712987837 12.436809292433166 0 1 0
3188 1 8.111534561784783 15.772395758857348 16.31128738453889 1 0 0
855 1 7.42955280155831 13.639348840006624 12.931127081462927 1 0 1
21 1 11.818102441689899 12.618280036040002 12.860218098512291 -1 1 -1
2639 1 13.845888182798314 14.914652600374556 15.916400640717633 0 1 1
4567 1 15.793937028523956 21.203365371508852 15.324964403109881 -1 1 0
593 1 14.736247865191272 8.916536961456986 17.274236325289216 1 0 -1
4362 1 5.556565007696167 46.209034551616256 24.233021240771418 0 -1 0
4224 1 5.665545234433573 14.026788756700475 11.054015380101461 1 0 1
3490 1 12.108984532420214 18.703520517344508 14.317292656999758 1 0 0
2824 1 11.746675635473995 16.14797329737693 15.034611080167766 0 -1 0
1290 1 13.380968757838387 20.82277886943193 17.779493496414936 -1 0 0
2376 1 16.029855550940926 11.274993620698254 14.968112276940474 1 -1 2
3609 1 1.9108959566013826 20.28274513338208 11.19442671603379 1 0 0
1235 1 3.8206367703947572 19.70509623129631 13.188480520256364 -1 1 2
3466 1 13.550686614768912 24.671274766747654 14.698772249719793 1 0 0
3526 1 13.747505227549588 21.96864324976236 13.25411428187403 0 1 0
1800 1 13.556946389983011 42.3045195625151 23.539839969999484 0 0 0
187 1 0.9581311509654449 22.90262018946074 1.9712407422994802 1 1 1
4608 1 12.941201077491051 35.26057810862001 1.6032317919748564 1 -1 1
2969 1 2.3131049502302754 26.140742985185884 14.82149735718687 0 1 1
1165 1 7.7605004587440725 25.14371339182335 13.428361686152904 1 1 0
433 1 11.016024740567916 23.885958365794192 13.168752384737362 0 1 1
4176 1 16.29598707027635 24.736594856135813 17.919438563157847 1 -1 1
3424 1 14.094366521398396 34.22711894362736 21.477651675307587 0 0 0
2089 1 -0.09028632915804435 1.570529924587366 21.627500693600464 0 0 -2
2611 1 3.7458176807251533 26.817869974911797 11.228012509915718 1 -1 1