

read_data data.ice_${TEMP}K_${PRES}atm_mW group ice
read_data data.ice_273K_${PRES}atm_mW group ice
read_data data.ice_273K_-500atm_mW group ice
Reading data file ...
  orthogonal box = (0.45526262 0.40467789 0.40467789) to (56.815247 50.502442 50.502442)
  3 by 1 by 2 MPI processor grid
  reading atoms ...
  4608 atoms
  reading velocities ...
  4608 velocities
  read_data CPU = 0.018 seconds
read_data data.liq_${TEMP}K_${PRES}atm_mW add append shift ${X_HI} ${YZ_LO} ${YZ_LO} group water
read_data data.liq_273K_${PRES}atm_mW add append shift ${X_HI} ${YZ_LO} ${YZ_LO} group water
read_data data.liq_273K_-500atm_mW add append shift ${X_HI} ${YZ_LO} ${YZ_LO} group water
read_data data.liq_273K_-500atm_mW add append shift 50.5024421146501 ${YZ_LO} ${YZ_LO} group water
read_data data.liq_273K_-500atm_mW add append shift 50.5024421146501 -0.404677885350658 ${YZ_LO} group water
read_data data.liq_273K_-500atm_mW add append shift 50.5024421146501 -0.404677885350658 -0.404677885350658 group water
Reading data file ...
  orthogonal box = (0.45526262 -0.31128959 -0.31128959) to (104.16887 50.502442 50.502442)
  3 by 1 by 2 MPI processor grid
  reading atoms ...
  4608 atoms
  reading velocities ...
  4608 velocities
  read_data CPU = 0.008 seconds

write_data data.icewater_test
System init for write_data ...
WARNING: Communication cutoff is 0.0. No ghost atoms will be generated. Atoms may get lost. (../comm_brick.cpp:167)

# Define potential
#
pair_style sw
pair_coeff * * /data/emrosky-sim/Freezing_Simulations/Melting/mW_fancy/mW.sw mW
Reading sw potential file /data/emrosky-sim/Freezing_Simulations/Melting/mW_fancy/mW.sw with DATE: 2019-02-27

# Delete water and ice atoms that are overlapping
#
delete_atoms overlap 2.5 water ice
System init for delete_atoms ...
Neighbor list info ...
  update every 1 steps, delay 10 steps, check yes
  max neighbors/atom: 2000, page size: 100000
  master list distance cutoff = 6.3065
  ghost atom cutoff = 6.3065
  binsize = 3.15325, bins = 33 17 17
  2 neighbor lists, perpetual/occasional/extra = 1 1 0
  (1) command delete_atoms, occasional, copy from (2)
      attributes: full, newton on
      pair build: copy
      stencil: none
      bin: none
  (2) pair sw, perpetual
      attributes: full, newton on
      pair build: full/bin/atomonly
      stencil: full/bin/3d
      bin: standard
Deleted 691 atoms, new total = 8525

# set timestep
#
timestep 10.0

# Define output
#
compute 1 all msd
thermo 50
thermo_style custom step temp press vol etotal ke pe c_1[4]

# Neighbor lists
#
neigh_modify delay 0 every 1 check yes

# Set fixes
#
fix 1 all momentum 10 linear 1 1 1 rescale
fix 2 all nph iso ${PRES} ${PRES} ${PCOUPL}
fix 2 all nph iso -500 ${PRES} ${PCOUPL}
fix 2 all nph iso -500 -500 ${PCOUPL}
fix 2 all nph iso -500 -500 10000.0
fix 3 all temp/csvr ${TEMP} ${TEMP} ${TCOUPL} 837492
fix 3 all temp/csvr 273 ${TEMP} ${TCOUPL} 837492
fix 3 all temp/csvr 273 273 ${TCOUPL} 837492
fix 3 all temp/csvr 273 273 5000.0 837492


# Fix ice atoms in place
#
velocity ice set 0.0 0.0 0.0
fix 4 ice setforce 0.0 0.0 0.0

# Run 1.0 ns equilibration of water
#
dump 1 all atom 1000 eq.all.${NAME}.dump
dump 1 all atom 1000 eq.all.coexist_273K_-500atm_mW.dump
run 100000
Neighbor list info ...
  update every 1 steps, delay 0 steps, check yes
  max neighbors/atom: 2000, page size: 100000
  master list distance cutoff = 6.3065
  ghost atom cutoff = 6.3065
  binsize = 3.15325, bins = 33 17 17
  1 neighbor lists, perpetual/occasional/extra = 1 0 0
  (1) pair sw, perpetual
      attributes: full, newton on
      pair build: full/bin/atomonly
      stencil: full/bin/3d
      bin: standard
Per MPI rank memory allocation (min/avg/max) = 4.597 | 4.604 | 4.612 Mbytes
Step Temp Press Volume TotEng KinEng PotEng c_1[4] 
       0    126.85481   -1672.3636     267792.2   -86369.556     3223.181   -89592.737            0 
      50    150.11636   -1290.8303    265659.47   -86103.819    3814.2203   -89918.039   0.97180849 
     100    160.01469    -186.5331    262010.89   -85816.278    4065.7212       -89882    2.1674024 
     150     168.6791    52.901869    260534.87   -85512.512    4285.8703   -89798.383    3.4307977 
     200    170.15498   -131.23899    261066.33   -85307.645      4323.37   -89631.015    4.6707037 
     250    173.59306   -413.96864     262381.1   -85032.193    4410.7261    -89442.92    5.9623707 
     300    176.89311    -525.6204    263395.14   -84722.465    4494.5752    -89217.04    7.3495662 
     350    181.54851   -834.96001    263796.72   -84528.355    4612.8616   -89141.217      8.75905 
     400    188.99837   -576.96593    263364.32   -84332.589     4802.151    -89134.74    10.394406 
     450    192.75932    -299.8474     262776.4   -84100.159    4897.7108   -88997.869    12.178878 
     500     194.3232   -394.82564    262745.82   -83925.786    4937.4465   -88863.233    14.038016 
     550    196.95948   -542.63328    263364.75   -83753.017    5004.4302   -88757.448    15.882126 
     600    199.77759   -357.58509    264231.08   -83580.022    5076.0338   -88656.056    17.786155 
     650    204.46467   -686.80779    265025.78   -83397.659    5195.1253   -88592.784    19.727067 
     700    204.78483   -617.11952    265216.48   -83224.566    5203.2599   -88427.826    22.014234 
     750    207.52228   -324.84763    264794.42   -83087.322    5272.8143   -88360.136    24.224411 
     800    211.95689   -364.53306    264487.31   -82923.735    5385.4906   -88309.225    26.523554 
     850    217.62315   -349.99263    264624.46   -82758.428    5529.4614   -88287.889    28.773068 
     900    219.49947   -357.08742    264964.97   -82610.264    5577.1358     -88187.4    31.075637 
     950    220.63528   -504.17684    265529.94   -82466.693     5605.995   -88072.688    33.467397 
    1000    223.51423   -466.89523    265978.82   -82337.789    5679.1445   -88016.933    35.972392 
    1050    229.52264   -653.31687    266086.84   -82232.809    5831.8088   -88064.617     38.39336 
    1100    230.76192   -508.38718    265917.16    -82143.91    5863.2969   -88007.207    40.870028 
    1150    229.08045   -377.59602    266012.44    -82039.95    5820.5734   -87860.524     43.53166 
    1200    231.53405   -678.81053    266455.54   -81954.776    5882.9155   -87837.691     46.18899 
    1250     231.5552   -414.99701    266451.64   -81864.385     5883.453   -87747.838    48.680711 
    1300     238.0323   -529.07075    266406.96   -81789.651    6048.0258   -87837.677    51.507164 
    1350    232.26047   -297.80282    266356.33   -81710.277    5901.3726    -87611.65    54.101842 
    1400    236.42634   -255.41442    266570.94   -81599.602    6007.2208   -87606.823    56.920885 
    1450    241.00528   -643.70621    267186.75   -81495.991    6123.5644   -87619.556    59.604661 
    1500    245.21868    -619.5803    267768.46   -81425.453    6230.6203   -87656.073    62.262603 
    1550     242.5645   -867.66995    267818.29   -81353.304    6163.1818   -87516.486    64.880963 
    1600    244.71963   -355.49103    267355.43   -81279.229    6217.9404   -87497.169    67.164453 
    1650    246.43864     -412.332    267117.09   -81218.991    6261.6178   -87480.609    69.189126 
    1700    246.84702   -451.33086    267202.98   -81130.352    6271.9939   -87402.346    72.091937 
    1750    247.47322   -496.91668    267509.95   -81079.911    6287.9047   -87367.816    74.890969 
    1800    250.44467   -723.90081    267855.44   -80991.955    6363.4045   -87355.359    78.253785 
    1850    248.56604   -627.20106    268010.33   -80911.586    6315.6715   -87227.258    81.257626 
    1900     250.6175   -599.48907    267910.38   -80829.711     6367.796   -87197.507    83.801121 
    1950    251.25163   -316.41918    267702.83   -80764.214    6383.9083   -87148.123    86.334932 
    2000     253.8885   -502.68006    267977.45   -80683.437     6450.907   -87134.344    88.969191 
    2050    257.54254   -395.43532    268174.77    -80670.86    6543.7502    -87214.61    91.998027 
    2100    256.26274   -527.27608     268446.9   -80643.468    6511.2326   -87154.701    95.092168 
    2150    255.16078   -533.44771    268443.81   -80590.746    6483.2334    -87073.98    98.044911 
    2200    256.59372   -460.95287    268261.34   -80529.955    6519.6423   -87049.597    101.77114 
    2250    259.79674   -393.48713    268130.34   -80506.087    6601.0259   -87107.113    104.49499 
    2300    255.67314   -281.35097    268311.65   -80416.058    6496.2519   -86912.309    107.71942 
    2350     257.3522   -669.59555     268910.7   -80334.456    6538.9141   -86873.371    111.25144 
    2400    259.49382     -689.556    269284.75   -80305.631    6593.3293   -86898.961    114.06264 
    2450    262.91317   -415.19642    269079.29   -80267.502    6680.2094   -86947.712    116.51216 
    2500    268.90826   -438.46631    268705.58   -80204.557    6832.5354   -87037.092    119.58446 
    2550    265.80059   -388.58685     268687.6   -80180.163    6753.5742   -86933.737    122.90994 
    2600     265.0161   -467.01912    268892.01   -80167.487    6733.6418   -86901.129    125.52038 
    2650    266.33767   -568.27534    269218.95   -80088.957    6767.2207   -86856.177    128.23748 
    2700    265.08414   -414.25823     269277.9   -80061.417    6735.3705   -86796.788    131.41404 
    2750    264.03356    -561.1401    269199.23   -80076.614    6708.6769   -86785.291    134.26792 
    2800    267.09183   -584.93597    269000.63   -80057.688    6786.3827   -86844.071    137.57265 
    2850    263.39837   -519.98672    268666.57   -80068.528    6692.5377   -86761.065    141.10038 
    2900    271.39877   -314.11717    268630.59   -80086.592    6895.8153   -86982.407    144.27755 
    2950    266.10275   -597.21112    269108.97   -80079.267    6761.2516   -86840.518    147.39665 
    3000    268.58637   -559.28689    269324.84   -80031.725    6824.3566   -86856.082    150.50995 
    3050     266.0801    -529.7091     269212.3   -80037.394    6760.6761    -86798.07    153.64437 
    3100    268.10088   -525.53255    268769.45   -80027.061    6812.0211   -86839.082    156.71136 
    3150     264.7038   -333.64066    268477.04   -80031.739    6725.7066   -86757.446    159.63529 
    3200    268.82519   -444.53498    268672.58   -79994.028    6830.4247   -86824.452    162.82027 
    3250     264.3657   -235.78154    268863.46   -79963.257     6717.116   -86680.373    165.72379 
    3300    269.49471   -562.77229    269382.53   -79918.902     6847.436   -86766.338     169.4924 
    3350    267.49339   -485.59798    269829.16   -79820.444    6796.5857    -86617.03    173.04937 
    3400    266.76182   -592.60627     270131.1   -79867.767    6777.9977   -86645.765      175.768 
    3450     269.0337   -747.71723     269813.1   -79887.177    6835.7225   -86722.899    178.83547 
    3500     269.6842   -564.77398    269210.25    -79882.58    6852.2506   -86734.831     182.1858 
    3550    270.53842   -503.13204    268563.22   -79844.031    6873.9551   -86717.986    185.04172 
    3600      268.757   -166.83406    268535.43   -79861.702     6828.692   -86690.394    188.08998 
    3650     271.5153   -397.11478    269150.29   -79867.656    6898.7762   -86766.433    191.92275 
    3700    269.63783   -512.04969    269808.62   -79856.016    6851.0726   -86707.089    196.19053 
    3750    269.37174   -675.35806       270190   -79871.131    6844.3117   -86715.443    200.02216 
    3800    269.86605   -701.58505    270117.76    -79875.54    6856.8712   -86732.411    203.75264 
    3850    269.90791   -432.35092    269717.03   -79866.324    6857.9349   -86724.259    206.33495 
    3900    270.18704   -566.70473    269181.83   -79874.101    6865.0272   -86739.129    209.26491 
    3950    270.46602   -328.85173     268804.2   -79838.802    6872.1156   -86710.917    212.16324 
    4000    273.72505   -460.31374    268963.33   -79850.066    6954.9223   -86804.989    215.12881 
    4050     271.8189   -448.96134    269377.93   -79837.234    6906.4901   -86743.724    218.33999 
    4100    271.49532   -591.28813    269648.96    -79833.05    6898.2684   -86731.318    220.94616 
    4150    270.37906   -507.79348    269662.91   -79801.293    6869.9061     -86671.2    224.07211 
    4200    270.20664   -418.91818    269471.25   -79801.056    6865.5251   -86666.581    227.85377 
    4250     272.5967   -319.43926    269462.94   -79776.698    6926.2529   -86702.951    231.01885 
    4300    275.69979   -762.28508    269702.38   -79792.025    7005.0975   -86797.123    234.38492 
    4350    276.75824   -411.16426    269333.87   -79813.068    7031.9909   -86845.059    237.00658 
    4400    274.46632   -549.34738    268834.96   -79811.321     6973.757   -86785.078    239.03745 
    4450     280.9131   -366.74352    268748.25   -79759.014    7137.5593   -86896.573     242.2655 
    4500    276.47289    -185.1755    269171.29   -79713.574    7024.7406   -86738.314    246.45647 
    4550    276.84244   -632.95617    269794.96   -79670.112    7034.1303   -86704.242    250.71247 
    4600     276.3159   -558.09127     269976.2   -79672.064    7020.7518   -86692.816     254.4993 
    4650    275.24788   -604.94783     269854.1   -79614.996    6993.6151   -86608.611    258.03827 
    4700    276.51383   -208.76586    269324.05   -79605.337     7025.781   -86631.118     261.2423 
    4750    276.49581   -451.45653    269299.82   -79625.372     7025.323   -86650.695    264.97471 
    4800    273.90936   -335.94036    269469.27   -79629.799    6959.6055   -86589.404    268.58457 
    4850    277.56003   -602.80344    269563.17   -79633.515    7052.3632   -86685.878    271.38763 
    4900    280.13265   -330.30448    269353.27   -79639.212    7117.7294   -86756.941    273.96951 
    4950    274.48736   -267.76429    269415.96   -79643.736    6974.2915   -86618.028    277.53651 
    5000    276.41673   -616.27178    269717.78   -79660.541    7023.3136   -86683.855    281.24921 
    5050    271.12182   -390.87204     269833.8   -79670.578    6888.7785   -86559.357    285.03497 
    5100    273.62112   -500.43208    269940.58   -79679.886    6952.2816   -86632.167    287.86829 
    5150    272.36882    -300.5428    269832.55   -79699.617    6920.4628    -86620.08     291.4268 
    5200    277.45318   -624.62468    269866.74   -79701.834    7049.6482   -86751.483    295.25032 
    5250    270.17691   -430.11525    269552.47   -79683.687    6864.7697   -86548.456    297.77324 
    5300    279.98353   -619.44172    269303.39   -79678.641    7113.9404   -86792.581    300.12785 
    5350    273.71029   -420.96025    269281.69   -79641.432    6954.5473   -86595.979    303.06742 
    5400    275.02406   -357.98452    269357.31    -79691.48    6987.9281   -86679.409    306.09092 
    5450    274.10067   -439.18811    269696.64   -79673.762    6964.4664   -86638.228    309.39021 
    5500    275.72168   -561.80519     270092.2   -79666.531    7005.6535   -86672.184    313.84656 
    5550    273.11802   -622.72235    269973.68   -79712.257    6939.4988   -86651.755    317.20117 
    5600    270.86572   -481.05263    269351.88   -79770.296    6882.2713   -86652.567    319.25051 
    5650    271.03935   -373.63737    268861.28   -79852.063    6886.6829   -86738.746    322.28396 
    5700    273.86735   -489.72934    268977.71   -79834.572    6958.5381    -86793.11    324.80325 
    5750    271.60859   -365.95946    269202.98   -79813.693    6901.1466    -86714.84    328.65549 
    5800    274.00727   -754.22622     269450.4   -79807.428    6962.0932   -86769.521    332.15817 
    5850    272.36563   -549.70311    269304.62   -79749.571    6920.3818   -86669.953    335.31957 
    5900    270.80627   -500.08075    269247.19   -79780.557    6880.7609   -86661.318    338.31368 
    5950    277.10242   -504.46351    269260.47   -79793.146     7040.736   -86833.882    340.39729 
    6000    273.91648   -402.49797    269339.92   -79796.962    6959.7864   -86756.749    343.62188 
    6050      274.328   -470.67994    269418.63   -79745.373    6970.2423   -86715.615    346.84106 
    6100    270.11281   -540.97273    269411.27   -79748.505     6863.141   -86611.646    350.60865 
    6150    275.92031   -508.40482     269389.4   -79740.073    7010.7006   -86750.774    353.23347 
    6200    275.54665   -487.52702     269518.6   -79764.177    7001.2063   -86765.384    356.50055 
    6250     274.8876   -599.97149    269749.17   -79741.634     6984.461   -86726.095    361.06804 
    6300      272.716   -542.57213    269781.51   -79703.878    6929.2839   -86633.162     364.1296 
    6350    270.83743   -484.33178     269589.5    -79676.84    6881.5526   -86558.393    367.06811 
    6400    276.04328   -551.60044     269309.7   -79739.356    7013.8248   -86753.181    369.91985 
    6450    279.74241   -442.09983    268933.94   -79753.937    7107.8141   -86861.752     372.4177 
    6500    276.98746   -346.31535    268733.77   -79703.435     7037.815    -86741.25     375.3794 
    6550     273.7354    -320.0847     269195.9   -79686.093    6955.1852   -86641.278    379.02771 
    6600    274.13481   -585.31542    269807.79   -79698.566    6965.3338     -86663.9    382.36098 
    6650     274.7227   -460.46468    269757.54   -79745.028     6980.271   -86725.299    385.39147 
    6700    274.13313   -494.30807    269432.34   -79763.309    6965.2909     -86728.6    387.95561 
    6750    273.26746   -465.05772    269129.94   -79792.581    6943.2958   -86735.876    391.40047 
    6800    274.11757   -573.50821    269134.22   -79762.929    6964.8958   -86727.825    395.04112 
    6850     274.1767    -441.4955    269234.39   -79757.224    6966.3981   -86723.622    397.35623 
    6900    276.94973   -755.56085    269339.41   -79727.121    7036.8565   -86763.977    400.79644 
    6950    273.57305   -466.01275    269265.89   -79723.846    6951.0604   -86674.906    404.68058 
    7000     275.8576   -351.57411    269433.51   -79702.064     7009.107   -86711.171    408.35406 
    7050    277.28704   -581.74455     269883.6   -79687.709    7045.4268   -86733.136    412.27537 
    7100    274.89747   -437.36893    269915.76   -79686.462    6984.7117   -86671.174    415.77587 
    7150    277.01771   -502.95561    269740.75   -79742.431    7038.5838   -86781.015    419.85148 
    7200    275.63367   -470.58154    269463.65   -79777.367    7003.4175   -86780.785    423.45332 
    7250    276.41157   -355.62133     269140.9   -79734.136    7023.1827   -86757.318    426.13947 
    7300    276.59891   -269.01747    269117.83   -79714.142    7027.9426   -86742.084    430.04311 
    7350    275.14732   -258.83431    269513.88   -79704.083    6991.0601   -86695.143    433.64518 
    7400    274.12946    -607.9316    270038.53   -79659.249    6965.1979   -86624.447    437.72339 
    7450    271.52215   -472.74537    270149.84   -79628.554    6898.9501   -86527.504    440.61847 
    7500    275.76186   -722.73411    270089.98   -79692.834    7006.6744   -86699.509    442.73906 
    7550    277.00204   -551.16617    269719.93   -79732.168    7038.1855   -86770.353     444.6739 
    7600    272.61631   -325.67767    269272.13   -79684.435     6926.751   -86611.186     447.0911 
    7650    276.81611   -430.55715    269024.37   -79703.775    7033.4612   -86737.236     449.9356 
    7700    272.42399   -303.20923    269123.17   -79692.378    6921.8646   -86614.242    453.03935 
    7750    274.22247   -411.90553     269637.3   -79653.272    6967.5609   -86620.833    457.36081 
    7800     270.9635   -702.53905    270185.59   -79677.303    6884.7557   -86562.059    460.26316 
    7850    272.62898   -652.17476    270142.52   -79658.433    6927.0728   -86585.505    463.38182 
    7900    275.48138   -536.00365    269576.78   -79694.278     6999.548   -86693.826    465.84011 
    7950    272.04922   -415.38594    269174.42    -79735.02    6912.3423   -86647.362    467.74462 
    8000    274.37649   -429.15767     269188.2   -79726.479    6971.4744   -86697.954    470.63675 
    8050    276.30687   -299.76878    269587.18   -79710.173    7020.5224   -86730.695     474.1851 
    8100    270.56285   -663.33332    270112.51   -79740.359    6874.5758   -86614.935    478.17563 
    8150    273.75398   -578.76091    270165.04   -79691.281    6955.6575   -86646.938     481.9356 
    8200    273.60614   -627.07455    269783.31   -79717.803     6951.901   -86669.704    484.47089 
    8250    275.67819   -459.19757    269312.39   -79721.306    7004.5485   -86725.855    487.77988 
    8300    278.93072   -398.92135    269200.44   -79709.993    7087.1902   -86797.183    489.25245 
    8350    274.32502   -375.98933    269392.67   -79764.127    6970.1667   -86734.294    492.85003 
    8400     274.7033   -431.02545     269759.2   -79762.712    6979.7782   -86742.491     496.7117 
    8450    268.04718    -665.5592     270155.3   -79748.751    6810.6566   -86559.408    501.42899 
    8500    276.07142   -964.71101     269852.3   -79735.725    7014.5401   -86750.265     503.6219 
    8550    273.56213    -333.9057    268725.83   -79770.594    6950.7829   -86721.377    504.35393 
    8600    273.67408   -333.07322    267984.48   -79770.953    6953.6273   -86724.581    505.87039 
    8650    278.69467    -223.7322    268217.11   -79776.029    7081.1926   -86857.222    509.44963 
    8700    275.65211   -669.21431    269306.17   -79767.127    7003.8859   -86771.013    513.14508 
    8750    268.95002   -670.65086    270056.43   -79726.138    6833.5965   -86559.734    517.59782 
    8800    273.81003   -586.57802    270225.94   -79741.844    6957.0815   -86698.925    519.61676 
    8850    270.87947   -621.35178    269914.49   -79783.141    6882.6207   -86665.761    521.00661 
    8900    279.41396   -768.00669    269383.14   -79811.207    7099.4686   -86910.675    523.76109 
    8950    271.79982   -477.95864    268971.34    -79795.97    6906.0054   -86701.975    525.47478 
    9000    275.24628   -442.24721    268969.63   -79787.577    6993.5744   -86781.151    528.17175 
    9050    271.56077   -476.53168     269157.4   -79782.635    6899.9315   -86682.567     530.8396 
    9100    275.47449   -466.04347    269246.65   -79843.331    6999.3729   -86842.704    533.51826 
    9150    272.05991   -560.72215    269471.22   -79807.503    6912.6137   -86720.117    536.31466 
    9200    272.92751   -439.42811    269549.67   -79815.561    6934.6581   -86750.219    540.17826 
    9250    271.30119   -375.52677     269694.2   -79848.426    6893.3359   -86741.762    543.53898 
    9300    268.63666   -576.58889    269633.49   -79890.439    6825.6345   -86716.074    546.62692 
    9350    271.46913   -559.51905    269125.21    -79874.22    6897.6031   -86771.823    548.28737 
    9400    265.52838    -411.5416    268565.86   -79868.747     6746.658   -86615.405    550.45267 
    9450     273.3181    -300.2959    268530.34   -79835.046    6944.5825   -86779.629    553.00364 
    9500    269.53073   -506.98269    268844.86   -79851.639    6848.3514   -86699.991    555.97513 
    9550    275.80456   -701.61085    269388.89   -79837.078    7007.7594   -86844.837     559.8414 
    9600    268.86878   -715.22474    269734.89   -79802.456    6831.5322   -86633.988    563.17177 
    9650     270.5148   -631.20774    269605.23   -79833.336    6873.3549   -86706.691    565.62736 
    9700     271.3141   -403.10659     268974.4   -79833.968    6893.6639   -86727.632    568.17919 
    9750    271.26051   -224.46135    268554.11   -79839.841    6892.3022   -86732.143    569.66264 
    9800     268.7965   -542.04741    268852.16    -79840.19    6829.6956   -86669.885    572.11699 
    9850    272.63175   -518.85505    269323.18   -79829.321    6927.1433   -86756.464    575.39097 
    9900    276.13517   -683.34634    269590.14   -79827.108    7016.1598   -86843.267    578.26794 
    9950    274.61465   -390.76577    269264.33   -79807.852    6977.5258   -86785.377    579.95321 
   10000    273.44072   -404.51388    269050.39   -79809.833     6947.698   -86757.531    581.48793 
   10050    273.13322   -390.52888    269113.04   -79813.828     6939.885   -86753.713    584.67878 
   10100    275.00365   -538.71341    269397.74   -79785.549    6987.4097   -86772.958    586.30494 
   10150    273.04943   -807.10368    269649.01   -79769.859    6937.7558   -86707.615     590.0901 
   10200    273.33742   -570.50953    269578.18   -79759.519    6945.0732   -86704.592    593.13153 
   10250     274.9739   -418.10697    269360.22   -79767.665    6986.6537   -86754.319    594.84578 
   10300    273.58097   -477.30923    269143.51   -79748.124    6951.2616   -86699.386    597.13146 
   10350    275.23833   -431.46207    268875.31   -79757.794    6993.3724   -86751.166    600.83298 
   10400    273.87175   -507.55391    268983.82   -79818.884    6958.6499   -86777.534    604.24034 
   10450     272.5006   -432.52894    269403.41   -79791.652    6923.8109   -86715.463    606.53075 
   10500    272.70124   -591.87319    269591.76   -79787.709    6928.9091   -86716.618    609.82326 
   10550    269.29029    -474.4062    269668.19   -79770.401    6842.2422   -86612.643    612.88764 
   10600    276.85652   -619.99282    269680.64   -79769.236    7034.4881   -86803.724    615.57079 
   10650    271.87694   -379.25504    269473.84    -79750.13    6907.9648   -86658.095     616.7867 
   10700    276.52071   -571.45862    269348.18   -79777.862    7025.9557   -86803.818    619.94736 
   10750    272.80057    -351.5513    269173.62   -79749.657    6931.4329    -86681.09    623.12978 
   10800    275.46019     -406.071     269359.2   -79768.108    6999.0095   -86767.117    626.37577 
   10850    272.51855   -543.07328    269811.54   -79713.636     6924.267   -86637.903    629.50481 
   10900    272.45269   -829.97704    269873.84   -79712.699    6922.5937   -86635.293     633.1425 
   10950     276.3944   -492.85022    269333.78   -79723.135    7022.7462   -86745.881    633.79528 
   11000    279.40753   -361.25082    268997.24   -79765.926    7099.3052   -86865.232    636.42765 
   11050    271.59399   -392.18285     269090.7   -79791.702    6900.7756   -86692.477    639.66841 
   11100     271.6989    -478.1033     269472.5   -79774.447     6903.441   -86677.888    643.33286 
   11150    269.26475   -740.07976    269737.78   -79772.301    6841.5931   -86613.894    645.41705 
   11200    270.30641   -338.01898    269549.89   -79763.419      6868.06   -86631.479    647.93507 
   11250    274.46828   -634.40585    269320.53   -79798.169    6973.8066   -86771.976    651.39963 
   11300    273.13994   -513.77372    268985.39   -79794.643    6940.0555   -86734.699    653.71185 
   11350    274.04425   -291.61578    268771.66   -79823.616    6963.0327   -86786.648    656.52982 
   11400    270.83093   -294.42991    268964.32   -79826.007    6881.3872   -86707.395     659.6105 
   11450    272.09411   -497.80798    269465.12   -79869.913    6913.4828   -86783.395     663.5356 
   11500    270.01874   -543.88674    269962.24   -79860.418    6860.7509   -86721.169    667.27925 
   11550    268.36244   -744.48434    270044.41   -79879.064     6818.667   -86697.731    671.78582 
   11600    266.88768   -439.81636    269676.86   -79858.571    6781.1957   -86639.766    673.75939 
   11650    267.13666   -309.49738    269356.17   -79844.997    6787.5218   -86632.519    676.21619 
   11700    271.02032   -528.78698    269289.89   -79812.101    6886.1994   -86698.301    677.99657 
   11750    273.89499   -471.59128    269253.84   -79827.384    6959.2402   -86786.624    682.35666 
   11800    269.40988   -466.12442    269230.39   -79844.021    6845.2807   -86689.302    684.59339 
   11850    271.66363   -426.26926    269434.32   -79771.885    6902.5449    -86674.43    687.70721 
   11900    272.07331   -665.50912    269606.11   -79845.216    6912.9541    -86758.17    690.03399 
   11950    271.39269   -315.70007    269316.38   -79844.536    6895.6607   -86740.197    693.09204 
   12000    274.97416   -577.81683    269041.29   -79848.553    6986.6602   -86835.213    694.23084 
   12050    276.83105   -366.59912    268991.51   -79841.581    7033.8408   -86875.422    697.55972 
   12100    271.25809   -613.38351    269102.32   -79809.646    6892.2407   -86701.887    701.48665 
   12150    275.00146   -614.18313    269222.99   -79799.845    6987.3539   -86787.198    704.93414 
   12200     270.5091   -540.64581    269109.71   -79791.897    6873.2101   -86665.107    707.33505 
   12250    278.49749   -616.08503     268952.5   -79765.086    7076.1826   -86841.268    710.47423 
   12300    268.22413    -501.1519    269051.58   -79773.721    6815.1527   -86588.873    713.38976 
   12350    276.73874   -569.47101    269153.87   -79805.612    7031.4955   -86837.108    716.82104 
   12400    274.42267   -721.13824    269009.18   -79841.314    6972.6477   -86813.962    719.52328 
   12450    274.35967   -556.73461    268797.84   -79821.518    6971.0471   -86792.565    721.97551 
   12500     273.3393   -203.13942     268860.5   -79789.493    6945.1211   -86734.614    725.44856 
   12550    272.92852   -612.18478    269483.83   -79834.961    6934.6837   -86769.644    730.25233 
   12600    270.35057   -496.22606    269976.26   -79777.253     6869.182   -86646.435    732.85083 
   12650    275.05883    -824.0653    269995.23   -79790.731    6988.8116   -86779.542      735.778 
   12700    271.39972    -443.5674    269483.24   -79770.754    6895.8393   -86666.593    738.65166 
   12750    274.91889   -191.26364    268988.46   -79825.074     6985.256    -86810.33    739.67895 
   12800    272.26388   -492.70179    268637.12   -79850.825    6917.7963   -86768.621    741.60802 
   12850    276.33312   -63.227258    268375.08   -79847.046    7021.1893   -86868.235    742.72029 
   12900    271.73897   -342.22869    268925.14   -79829.845    6904.4592   -86734.304    746.33248 
   12950    271.71416   -733.76982    269730.29   -79828.142    6903.8287    -86731.97    749.85284 
   13000    276.72917   -509.93174    269920.18   -79805.456    7031.2522   -86836.708    751.67037 
   13050    272.15349   -691.40098    269618.38   -79792.498    6914.9916    -86707.49    755.03048 
   13100    271.83241   -48.663155    269046.98   -79772.257    6906.8334    -86679.09    757.62373 
   13150    275.28498   -673.01943    269144.99   -79795.779    6994.5578   -86790.337    760.87733 
   13200    273.50288   -540.76233    269217.84   -79815.117    6949.2774   -86764.394    765.34237 
   13250    274.28259   -599.90554    269180.24   -79868.921    6969.0887    -86838.01    767.57082 
   13300    273.35931    -579.5231    269112.31   -79865.623    6945.6294   -86811.253    769.17963 
   13350    270.85418   -386.92047     269066.7   -79842.381    6881.9781   -86724.359    772.70966 
   13400    274.40408   -636.50418    269108.97   -79872.049    6972.1754   -86844.224    777.18109 
   13450    276.87092   -529.93579    269009.65   -79901.397    7034.8538   -86936.251    779.10707 
   13500    274.85948   -644.23268    268968.54   -79866.433    6983.7463   -86850.179    781.86607 
   13550     268.0326   -424.15733    268756.34   -79946.327    6810.2863   -86756.613     783.5846 
   13600    270.31887   -350.24931       268662   -79953.826    6868.3766   -86822.203    786.08726 
   13650     271.2439   -392.31833       269009   -79957.349    6891.8803   -86849.229    788.28045 
   13700    269.19432   -654.40691    269595.34   -79940.207    6839.8035   -86780.011    792.46898 
   13750    270.47643   -691.65044    269688.72   -79921.468      6872.38   -86793.848    795.50968 
   13800    270.85806   -819.31178    269295.22   -79966.025    6882.0767   -86848.102    797.20707 
   13850    270.90232   -485.87323    268420.56   -79964.752    6883.2013   -86847.954    798.59406 
   13900    272.46266   -292.98843     267909.2   -79939.993    6922.8471    -86862.84    799.77096 
   13950    272.99809   -426.87997    268340.52    -79960.18    6936.4514   -86896.631    802.92479 
   14000     271.7371   -625.99311    268989.36   -79905.353    6904.4117   -86809.764    806.78277 
   14050     271.9533   -630.75021    269206.98   -79888.072    6909.9049   -86797.977    809.33463 
   14100    271.14206   -444.19416    268937.22   -79884.656    6889.2926   -86773.949    810.77376 
   14150    272.96599   -390.68535    268540.39   -79888.366    6935.6359   -86824.002    812.37694 
   14200    274.15418   -438.47334    268654.43   -79878.024    6965.8259    -86843.85    814.87613 
   14250    273.96776   -501.71719    269153.57   -79802.685    6961.0892   -86763.774    819.61131 
   14300    271.94774   -688.28102    269670.75   -79821.391    6909.7636   -86731.155    823.49365 
   14350    272.97334   -625.05881     269787.4   -79815.548    6935.8227   -86751.371    827.09265 
   14400     268.5481      -553.32     269666.3   -79792.208    6823.3843   -86615.592    828.59386 
   14450    268.42934   -238.91569    269280.58   -79838.044    6820.3666   -86658.411    830.10901 
   14500     272.3276   -204.34431    269119.04   -79847.953    6919.4153   -86767.368    832.90483 
   14550    270.21237   -648.15857    269359.06   -79890.919    6865.6706    -86756.59    833.16008 
   14600    272.51927   -502.56027    269520.32   -79880.005    6924.2855   -86804.291    837.20058 
   14650    267.97637    -568.7864    269763.75   -79887.269    6808.8574   -86696.126    841.48988 
   14700    271.30531    -679.2515    269612.72   -79855.059    6893.4406   -86748.499    843.54032 
   14750    275.80334   -452.08825    268823.01   -79869.521    7007.7284   -86877.249     845.0246 
   14800    269.52601   -384.34019    268390.99   -79921.053    6848.2313   -86769.284    845.46754 
   14850    268.66648   -438.16683    268408.52   -79932.843    6826.3921   -86759.235    847.39736 
   14900    271.29863   -771.93791    268769.55   -79935.144    6893.2708   -86828.415    852.12509 
   14950    271.55462   -487.12435    269120.21   -80005.523    6899.7752   -86905.298    856.55725 
   15000    267.79805    -663.1253    269394.56   -79993.858    6804.3266   -86798.185    858.95909 
   15050    267.78743   -499.04515    269285.61   -79993.599    6804.0569   -86797.656    861.36731 
   15100    267.58797   -258.14526     268933.6   -79969.358    6798.9889   -86768.347    864.04187 
   15150    269.87202   -323.37703    268941.52   -79978.735     6857.023   -86835.758    867.20831 
   15200    268.82472   -345.74786    269211.24   -79965.124    6830.4126   -86795.537    869.83722 
   15250    270.77183   -407.89559    269399.89   -79974.677    6879.8858   -86854.563    873.04004 
   15300    270.49946    -603.7613    269331.13   -79936.089    6872.9652   -86809.054     876.0339 
   15350    269.48385   -433.84394    269137.27   -79927.813    6847.1601   -86774.973    876.46343 
   15400    273.40237   -486.51615    268941.72   -79897.017    6946.7235   -86843.741    879.17871 
   15450    270.71722    -430.5986    269036.17    -79905.69    6878.4983   -86784.188    882.09826 
   15500    274.68037   -558.47398    269344.44   -79889.693    6979.1955   -86868.888    886.27386 
   15550     273.3645   -599.72775    269453.61   -79895.367    6945.7614   -86841.128    890.53919 
   15600    268.85382   -729.89095    269354.53   -79894.748    6831.1521     -86725.9    894.00402 
   15650    275.02164   -257.76106    268971.73   -79907.273    6987.8667    -86895.14    895.84698 
   15700    272.68165   -482.18049     269232.3   -79875.419    6928.4113    -86803.83    899.88365 
   15750    271.64809     -777.126     269639.5   -79876.932    6902.1501   -86779.082    904.30549 
   15800    270.59878   -617.38678    269681.32   -79872.017    6875.4889   -86747.506    906.70288 
   15850    276.08331   -730.58282    269310.21   -79852.665     7014.842   -86867.507    909.06173 
   15900    271.12298   -254.76294    268894.52   -79856.966    6888.8078   -86745.774    910.60532 
   15950    271.87587   -336.62502       268944   -79830.942    6907.9377    -86738.88    912.96901 
   16000    271.07821   -685.17486    269334.51   -79802.189    6887.6703   -86689.859    916.45969 
   16050    275.39323   -741.06639    269695.21   -79759.817    6997.3082   -86757.125    919.78974 
   16100    272.92151   -439.45693    269698.72   -79752.782    6934.5058   -86687.288     920.8798 
   16150    271.63295   -593.24205    269684.48   -79751.083    6901.7655   -86652.848    924.04609 
   16200    268.83115   -398.65323    269688.76   -79693.694    6830.5761    -86524.27    927.15604 
   16250     273.3229   -556.88153     269585.3   -79678.248    6944.7044   -86622.953    929.91448 
   16300    278.73343   -690.92945    269151.69   -79701.606    7082.1774   -86783.783    930.49165 
   16350     276.3933   -478.96224    268757.49   -79725.424    7022.7183   -86748.142    931.36348 
   16400    274.78183   -309.04931    268896.12   -79715.024    6981.7734   -86696.797    935.37429 
   16450    271.19256   -458.95007    269594.47   -79745.359    6890.5757   -86635.935    938.34638 
   16500    272.36495   -711.80706    270234.77   -79713.863    6920.3645   -86634.228    942.18438 
   16550    273.06269   -620.00023    270175.74   -79681.769    6938.0928   -86619.862    943.05411 
   16600     275.3135   -431.91394    269512.28   -79665.183    6995.2825   -86660.466    942.97522 
   16650    277.13597   -248.61351     268856.8   -79625.928    7041.5884   -86667.516    943.70055 
   16700    275.25576   -394.42269    269089.72    -79704.82    6993.8153   -86698.635    947.59496 
   16750    269.74092   -499.51741    269680.92   -79714.193    6853.6919   -86567.885    952.93222 
   16800    275.10675   -742.03883    270049.49   -79727.756    6990.0291   -86717.785    956.23532 
   16850    275.04674   -526.78293    270054.63   -79757.816    6988.5044   -86746.321    958.75561 
   16900    269.54329   -640.76475    269759.74   -79751.423    6848.6703   -86600.093     961.6368 
   16950    273.84182   -399.77506    269027.01   -79723.889    6957.8892   -86681.778    961.16986 
   17000    273.81684    -265.4616    268665.61   -79758.115    6957.2547    -86715.37    963.66146 
   17050    273.84748    -341.4541    268888.49   -79729.676    6958.0332   -86687.709    966.99228 
   17100    277.70585   -642.53108    269539.25   -79734.308    7056.0682   -86790.376    972.89724 
   17150    272.15152   -294.10786    269849.32   -79675.418    6914.9415   -86590.359    974.69483 
   17200    275.85873    -528.0984    269954.84   -79636.882    7009.1359   -86646.018    978.90331 
   17250    270.89058   -576.01411    269826.18   -79634.634     6882.903   -86517.537    980.44206 
   17300    278.02689   -426.67053    269493.47   -79595.495    7064.2254    -86659.72    981.53682 
   17350    272.88907    -442.9738     269568.6   -79634.107    6933.6814   -86567.788    985.02649 
   17400    273.16965   -446.61901    269721.04   -79653.157    6940.8105   -86593.968    989.23056 
   17450    276.91649   -660.36463    269834.24    -79619.95     7036.012   -86655.962    992.78357 
   17500    274.93037   -479.73008    269767.83   -79669.511    6985.5477   -86655.059    996.39936 
   17550    276.02471   -706.42871    269683.69    -79707.44     7013.353   -86720.792    999.62318 
   17600    277.23809    -382.0773    269438.79    -79689.28    7044.1831   -86733.463    1003.0866 
   17650    276.19905   -712.98698    269723.02   -79645.592    7017.7829   -86663.374    1007.9891 
   17700     277.3892   -500.22568     269831.6   -79622.398    7048.0225    -86670.42    1011.2584 
   17750    275.49812    -547.6109    269868.67    -79615.19    6999.9732   -86615.163    1013.2493 
   17800    278.05002   -551.79923    269755.04   -79613.605     7064.813   -86678.418    1014.4402 
   17850     278.8102   -565.99316    269819.96   -79643.148    7084.1279   -86727.276    1017.5497 
   17900    272.38518   -569.86321    269821.39   -79664.347    6920.8784   -86585.226    1019.0488 
   17950     271.3052   -547.34456    269768.61   -79674.423    6893.4377   -86567.861    1019.8714 
   18000     273.6439   -473.38621    269658.02   -79738.321    6952.8606   -86691.182    1022.0717 
   18050    273.89238   -576.60714    269652.16   -79773.201     6959.174   -86732.375     1024.769 
   18100    273.62223   -626.55506    269622.05   -79808.485    6952.3097   -86760.794     1029.843 
   18150    270.16438   -393.59717    269362.11   -79839.468    6864.4514   -86703.919    1032.4568 
   18200     275.9786   -554.91764     269095.5   -79791.229    7012.1815    -86803.41    1033.6208 
   18250    273.64689   -223.21678    268990.49   -79744.774    6952.9364    -86697.71    1036.9727 
   18300    273.19313   -516.97873    269367.94   -79727.426     6941.407   -86668.833    1041.2908 
   18350    275.09792   -442.59533    269599.07   -79716.807    6989.8049   -86706.612    1044.3291 
   18400    269.58008   -708.19508    269626.16   -79718.881    6849.6053   -86568.486    1047.2399 
   18450    274.82573   -510.08117    269293.17   -79750.482    6982.8888   -86733.371    1049.5283 
   18500    275.03529   -427.57658    268901.26   -79727.828    6988.2134   -86716.042    1049.9286 
   18550    276.22003   -374.74028    268832.68   -79702.801     7018.316   -86721.117    1051.3489 
   18600     272.8626   -553.76623     269221.4   -79676.119    6933.0088   -86609.128    1054.6474 
   18650    275.18928   -404.15627    269473.54   -79700.059    6992.1261   -86692.185    1057.0922 
   18700    273.20318   -712.05563    269725.25    -79709.35    6941.6625   -86651.012    1059.7665 
   18750     278.2515   -664.27131    269723.75   -79640.802    7069.9324   -86710.734    1061.3044 
   18800    279.16212   -613.60035     269683.9   -79649.929    7093.0698   -86742.999     1063.564 
   18850      278.146   -551.94082     269503.4   -79683.932    7067.2517   -86751.184    1066.3004 
   18900    274.59254    -313.9771     269143.2   -79704.807    6976.9639   -86681.771    1067.3256 
   18950    274.45544   -535.67462    269194.57   -79736.861    6973.4805   -86710.342    1068.6532 
   19000    273.87662   -585.98271    269524.39   -79708.082    6958.7736   -86666.856    1070.6592 
   19050    276.50372   -440.78782    269576.84   -79682.031    7025.5239   -86707.555    1073.5217 
   19100    271.96417   -433.80656     269501.3   -79718.469    6910.1811    -86628.65    1076.3321 
   19150    273.50853   -581.52522       269651   -79683.963     6949.421   -86633.384    1077.9279 
   19200     277.4223   -500.84242    269827.89   -79694.799    7048.8637   -86743.663     1081.998 
   19250    275.66153   -710.41723    269988.68   -79683.376    7004.1253   -86687.501    1084.8181 
   19300    274.49162   -629.83458     269830.4   -79699.808    6974.3998   -86674.207    1086.0785 
   19350    268.42247   -522.84839     269409.6   -79727.285    6820.1922   -86547.478    1087.2985 
   19400    276.35568   -582.75189    268966.16    -79742.32    7021.7626   -86764.082    1089.1729 
   19450    274.42339   -456.87132    268875.62   -79771.896    6972.6662   -86744.562     1091.668 
   19500    271.54188   -404.06281     269088.1   -79834.482    6899.4516   -86733.934    1096.2119 
   19550      272.568   -360.74771    269492.55   -79770.375    6925.5236   -86695.899    1100.3182 
   19600    270.44369   -598.29089    270147.55   -79746.936    6871.5483   -86618.484     1105.216 
   19650    270.01415   -607.92869    270223.65   -79700.627    6860.6343   -86561.261    1107.9564 
   19700    275.58559   -562.98266    269849.02   -79652.946    7002.1959   -86655.142    1108.9775 
   19750    273.91313   -449.27395    269250.49   -79677.133    6959.7011   -86636.834    1109.1034 
   19800    274.49017    -213.7426     268799.2   -79700.381    6974.3628   -86674.744     1108.101 
   19850    274.25361   -450.17498    268924.22   -79684.274    6968.3523   -86652.627    1110.1988 
   19900    277.71218   -515.49923    269359.31   -79631.903    7056.2292   -86688.132    1116.2636 
   19950     274.4569   -557.77662    269871.26   -79631.539    6973.5174   -86605.056    1121.1815 
   20000    272.75618   -683.59891    270177.76   -79597.924    6930.3049   -86528.229    1124.1788 
   20050    274.14969   -370.12011    269889.53   -79641.817    6965.7118   -86607.529    1125.7875 
   20100     275.5156   -456.93434    269462.07   -79667.491    7000.4174   -86667.908    1127.4533 
   20150    273.02338   -354.77007     269290.1   -79690.688    6937.0941   -86627.782    1131.0006 
   20200    272.14224   -315.56651    269375.93    -79683.43    6914.7057   -86598.135    1132.9803 
   20250    268.95357   -503.34653    269685.42   -79697.939    6833.6865   -86531.626    1135.4195 
   20300     270.6689   -583.01417    269921.52    -79670.31    6877.2703   -86547.581     1139.565 
   20350    271.97838   -686.81923    269922.12   -79663.371    6910.5421   -86573.913    1143.2806 
   20400    276.37936   -473.72449    269457.18   -79646.045    7022.3642    -86668.41    1144.6495 
   20450     274.4111   -312.57771    269272.91   -79604.647    6972.3538   -86577.001    1146.3366 
   20500    277.93964    -772.1575    269596.25   -79609.069    7062.0085   -86671.078    1149.5999 
   20550    273.44064   -774.09642    269825.32   -79590.696    6947.6958   -86538.392    1153.5674 
   20600    275.88431    -410.5503     269642.8   -79588.381    7009.7858   -86598.167    1154.2322 
   20650    281.01112   -420.42108    269431.02   -79550.296    7140.0499   -86690.346    1157.1567 
   20700    274.48578   -282.32749    269328.93    -79627.61    6974.2514   -86601.861    1156.4563 
   20750    273.93395   -602.66076    269405.23   -79617.782    6960.2303   -86578.012    1158.1424 
   20800    278.53521   -442.64201    269492.51   -79605.952    7077.1408   -86683.093    1160.3461 
   20850    281.88653   -635.00786    269678.44   -79609.292    7162.2927   -86771.585     1161.342 
   20900    278.39483   -202.67703    269727.21   -79542.659    7073.5742   -86616.233     1164.718 
   20950    279.25421   -641.98056     269912.1    -79598.01    7095.4095    -86693.42    1168.3474 
   21000     276.9003   -740.06164    269871.42   -79623.199    7035.6005   -86658.799    1170.3546 
   21050    279.68268   -665.40804     269578.6   -79580.041    7106.2962   -86686.337     1171.992 
   21100    273.92909   -279.53376    269054.44   -79574.096    6960.1066   -86534.202    1174.0657 
   21150    277.28444   -525.07022    269120.92   -79608.155    7045.3609   -86653.515    1177.1007 
   21200    277.39916    -502.5283     269379.6   -79628.579    7048.2758   -86676.855    1180.4304 
   21250    272.88604    -477.6186    269838.66   -79658.501    6933.6043   -86592.106    1183.9243 
   21300    274.58194   -598.72753    270209.59   -79649.562    6976.6947   -86626.257    1186.3719 
   21350    270.86399   -631.85708    270062.93   -79713.225    6882.2274   -86595.452      1189.88 
   21400    273.42416   -299.33245    269328.17   -79716.899    6947.2771   -86664.176    1191.0032 
   21450    273.97085   -106.56595    268654.14   -79706.848    6961.1676   -86668.016    1192.3965 
   21500    274.50217   -551.50069    268749.65   -79685.921    6974.6677   -86660.588    1196.4239 
   21550    271.80733   -322.99015    269324.18   -79692.029     6906.196   -86598.225     1202.374 
   21600     274.1104   -775.52634    269993.13   -79727.548    6964.7134   -86692.261    1208.3906 
   21650    272.94536   -641.87739    270043.65   -79738.333    6935.1116   -86673.444    1211.2729 
   21700    274.28124   -719.75737    269538.99   -79714.246    6969.0544     -86683.3    1213.0978 
   21750    275.84827   -499.28302    268993.05   -79720.639      7008.87   -86729.509    1215.4958 
   21800    271.60455   -223.03319    269003.22   -79729.999    6901.0438   -86631.043    1219.4927 
   21850    272.51568    -480.4723    269753.09   -79728.851    6924.1941   -86653.045    1225.0031 
   21900    273.25738   -675.13976    270259.14   -79705.466    6943.0396   -86648.505    1230.5373 
   21950    271.98921   -726.30101    270374.54    -79705.01    6910.8174   -86615.828    1232.8341 
   22000    273.53465   -571.88504    269970.24   -79660.529    6950.0847   -86610.613    1235.4936 
   22050    274.12606   -265.15445    269471.03   -79652.442    6965.1113   -86617.553    1236.1898 
   22100    275.25304   -458.57427    269401.75   -79639.035    6993.7461   -86632.781    1238.7347 
   22150     274.1056   -471.95549    269582.78   -79637.065    6964.5916   -86601.656      1243.05 
   22200    277.19994   -462.71826    269671.42   -79626.972    7043.2139   -86670.186    1247.1298 
   22250    275.15375    -433.3726     269711.2   -79637.196    6991.2234   -86628.419    1250.4236 
   22300     272.4514   -540.61646    269703.26   -79665.657     6922.561   -86588.218     1255.035 
   22350    271.74008   -526.14596    269691.79   -79672.347    6904.4875   -86576.834    1257.2204 
   22400    275.61189   -657.44021     269766.6   -79693.413    7002.8641   -86696.277    1258.0389 
   22450    275.72006   -806.44534    269842.82   -79670.163    7005.6125   -86675.775    1260.3711 
   22500    277.97664   -446.07063    269476.53   -79604.497    7062.9485   -86667.445    1262.5454 
   22550    281.20069   -326.80869    268931.46   -79642.331    7144.8665   -86787.197    1263.4748 
   22600    279.77226   -298.67069    268834.79   -79679.879    7108.5725   -86788.452     1266.999 
   22650    275.58175   -535.30403    269269.99   -79659.889    7002.0983   -86661.987    1272.6406 
   22700    275.35013   -678.77302    269759.91   -79667.844     6996.213   -86664.057    1277.0615 
   22750    272.47994    -557.3914    269947.79   -79635.473    6923.2861   -86558.759    1280.1864 
   22800    274.32345   -558.63811    269973.45   -79661.189    6970.1268   -86631.315    1282.5842 
   22850    273.34364   -573.95118    269719.63   -79646.096    6945.2314   -86591.327     1284.952 
   22900    280.59917   -522.39356    269251.97   -79601.606     7129.583   -86731.189    1284.6689 
   22950    275.35828   -265.57335    269125.42   -79614.812    6996.4201   -86611.232    1284.1533 
   23000    277.58707   -533.18728    269453.58   -79675.933    7053.0503   -86728.984    1286.3591 
   23050    275.13289   -589.95848    269721.76   -79661.954    6990.6934   -86652.647    1291.6224 
   23100    276.09157   -499.03246    269723.61   -79709.792    7015.0518   -86724.844    1294.9192 
   23150    275.90015   -552.29572    269766.79   -79719.673    7010.1882   -86729.861    1298.7183 
   23200    273.68027   -323.84412    269899.01   -79677.539    6953.7845   -86631.323    1302.5759 
   23250    274.08776   -671.57429    269836.31   -79665.076    6964.1382   -86629.214    1305.1261 
   23300     280.4314   -480.79848    269313.18   -79685.053    7125.3202   -86810.373    1306.2128 
   23350    281.52976   -496.57538    268951.99    -79710.64    7153.2277   -86863.868    1307.6197 
   23400     276.8271   -339.68344    268860.19   -79702.522    7033.7406   -86736.262    1308.7497 
   23450    273.95751   -593.64116     269268.9   -79721.071    6960.8289     -86681.9    1312.2793 
   23500     271.0248   -340.91887    269473.88   -79742.705    6886.3134   -86629.018    1317.4554 
   23550    278.82224   -545.15157    269459.28   -79740.926    7084.4339   -86825.359    1320.5549 
   23600    272.55532   -495.54799    269410.64   -79748.781    6925.2014   -86673.983    1322.6946 
   23650    275.42596   -615.80266    269253.63   -79783.162    6998.1397   -86781.302    1324.9285 
   23700    270.30753   -355.55969    269070.02    -79795.35    6868.0886   -86663.438    1328.8458 
   23750    278.78768   -381.32916    269280.57   -79796.479    7083.5557   -86880.035    1333.1843 
   23800    273.20521   -600.42775    269687.01   -79766.828    6941.7141   -86708.542    1338.1891 
   23850    273.96991   -671.48889    269716.74   -79730.967    6961.1439   -86692.111    1342.4969 
   23900    275.21422   -691.96938    269563.14   -79741.668    6992.7598   -86734.428    1341.0211 
   23950    273.89115   -354.99768    269319.55   -79781.692    6959.1426   -86740.835    1342.1959 
   24000    273.52435   -335.59548     269200.2   -79762.003    6949.8228   -86711.825    1344.3947 
   24050    276.07713   -561.23388    269265.95   -79750.697    7014.6851   -86765.383    1344.9709 
   24100    273.26895   -594.08187    269524.35   -79749.114    6943.3336   -86692.448    1350.0008 
   24150    276.04109   -606.14031    269640.48   -79724.021    7013.7692    -86737.79    1353.6711 
   24200    272.79769   -565.56292    269461.92   -79734.935    6931.3597   -86666.295    1355.5306 
   24250    276.97354   -523.09905    269240.76   -79677.807    7037.4614   -86715.269    1357.1079 
   24300    269.88363   -259.05782       269221   -79707.299     6857.318   -86564.617    1359.0497 
   24350    271.37982   -486.62773    269312.96   -79737.929    6895.3339   -86633.263    1363.5838 
   24400    273.29555   -538.15199     269427.4   -79750.146    6944.0094   -86694.156    1364.5698 
   24450    275.35282   -509.09073    269720.55   -79752.225    6996.2814   -86748.506    1367.3067 
   24500    272.99911   -717.76898    269822.05   -79753.703    6936.4775    -86690.18    1371.5879 
   24550    276.81413   -635.38212    269651.15   -79778.749     7033.411    -86812.16    1375.9576 
   24600    267.41036   -405.81101     269385.1   -79799.299     6794.476   -86593.775    1378.2015 
   24650    270.49461   -535.87686     269351.5   -79790.061    6872.8419   -86662.903    1382.4212 
   24700    274.48945   -434.40949    269311.96   -79790.994    6974.3445   -86765.338    1385.2891 
   24750     267.0766   -277.89531    269382.07   -79772.383    6785.9956   -86558.379    1387.6732 
   24800    270.88312   -760.48687    269523.02   -79792.317    6882.7135   -86675.031    1389.0585 
   24850    273.49307   -533.81967    269247.35   -79790.301     6949.028   -86739.329     1390.485 
   24900    272.31741   -557.86092    268812.86   -79831.302    6919.1565   -86750.458    1391.8876 
   24950    270.85873   -305.75785    268764.33   -79827.927    6882.0936    -86710.02    1392.4198 
   25000    274.78386   -506.99712    269468.51   -79795.906     6981.825   -86777.731    1398.0437 
   25050    271.32043   -658.23882    270205.48    -79771.96    6893.8248   -86665.785    1404.2451 
   25100    270.91543   -875.25727    270272.57   -79788.572    6883.5345   -86672.106    1406.1005 
   25150    272.07281   -500.06207    269555.77   -79774.924    6912.9416   -86687.866    1406.3501 
   25200    277.61526   -414.98396    268944.51   -79745.019    7053.7665   -86798.785    1406.6101 
   25250    279.30111    -444.8599    268698.09   -79736.368    7096.6014    -86832.97    1409.3679 
   25300    275.67303   -567.62177    268864.45   -79704.451    7004.4174   -86708.869    1412.8401 
   25350     277.1828   -359.01077    269431.73   -79708.487    7042.7785   -86751.265    1418.6535 
   25400    276.08215    -633.0764    270130.35   -79727.826    7014.8125   -86742.639    1424.7662 
   25450    277.31972   -808.20736    270306.34   -79748.407    7046.2572   -86794.664    1427.6878 
   25500    275.84224   -444.43106    269595.75   -79769.918    7008.7169   -86778.635     1426.861 
   25550    270.12904   -422.83073    268852.04   -79779.474    6863.5535   -86643.027    1427.7771 
   25600     274.2696   -194.17258    268509.54   -79794.401    6968.7586    -86763.16    1430.0173 
   25650    276.31786   -343.14835    269054.76   -79780.548    7020.8015    -86801.35     1435.097 
   25700    276.95697   -776.49035    269617.13   -79747.881    7037.0403   -86784.921    1440.1061 
   25750    274.49082    -517.7886    269663.54   -79756.816    6974.3793   -86731.195    1442.4085 
   25800    270.51647   -246.28639    269630.53   -79736.625    6873.3973   -86610.023    1445.4483 
   25850    271.78387   -567.82066    269763.06   -79735.887    6905.6001   -86641.487    1446.3259 
   25900    277.06288   -611.68651    269738.19   -79767.278    7039.7315   -86807.009    1449.0353 
   25950    273.02981   -602.47965    269268.99   -79791.684    6937.2573   -86728.941    1450.5786 
   26000    268.72008   -247.81113    268716.28   -79813.963    6827.7539   -86641.717    1450.6074 
   26050    276.28448   -454.08466    268541.86   -79818.781    7019.9535   -86838.734     1451.427 
   26100    270.02343   -389.79347    268944.72   -79831.951    6860.8701   -86692.821    1456.0476 
   26150     272.1944   -598.26156    269765.78   -79764.516     6916.031   -86680.547    1462.4525 
   26200    275.61809   -778.73626    270244.45   -79752.271    7003.0216   -86755.293    1467.2242 
   26250    270.94997   -528.87793    270076.16   -79717.833    6884.4119   -86602.245    1469.8779 
   26300    268.72255   -279.15949    269479.35   -79721.724    6827.8166   -86549.541    1471.3559 
   26350    273.58399   -424.73901    269080.58   -79674.144    6951.3383   -86625.483    1474.1291 
   26400    277.95544   -235.09044    268912.11   -79679.284    7062.4098   -86741.693    1476.9624 
   26450     275.5657   -434.51736    269253.21   -79719.086    7001.6903   -86720.777    1480.5347 
   26500    272.79209   -422.74835    269695.85   -79692.662    6931.2174   -86623.879    1486.7473 
   26550    273.39874   -546.79474    269847.68   -79732.222    6946.6314   -86678.853    1490.9952 
   26600    274.31695   -506.83606    269482.04   -79727.127    6969.9615   -86697.088    1493.6039 
   26650    277.21872   -471.23127    269023.88   -79760.525    7043.6911   -86804.216     1494.808 
   26700    271.46391   -363.09166    268952.53     -79808.9    6897.4704    -86706.37    1498.2685 
   26750    271.97596   -631.13941    269214.79   -79842.028    6910.4807   -86752.508    1502.2932 
   26800    270.60879   -400.82307    269323.35   -79841.851    6875.7432   -86717.594    1506.1985 
   26850    269.94296   -567.43378    269497.92   -79878.403    6858.8255   -86737.228    1511.2602 
   26900    271.75806   -524.37529    269345.01   -79900.746    6904.9442    -86805.69    1512.9725 
   26950    266.32594   -318.25024    269141.36   -79892.888    6766.9226   -86659.811    1514.8805 
   27000    270.98342   -608.24299    269032.51   -79903.886    6885.2619   -86789.148     1515.797 
   27050    274.30622   -325.10512    268843.53   -79903.864    6969.6889   -86873.553    1516.3078 
   27100    268.64927   -639.18483    269043.43   -79934.847    6825.9548   -86760.802    1521.0174 
   27150    270.47251      -682.51    269617.86   -79842.007    6872.2804   -86714.287    1524.5725 
   27200    273.08028   -805.61675    269834.64    -79835.53    6938.5398    -86774.07    1527.7105 
   27250    269.52033   -559.96706    269336.09   -79838.952    6848.0871   -86687.039     1528.476 
   27300    270.58499   -368.78967    268682.12   -79833.273    6875.1384   -86708.411    1528.5113 
   27350    270.07948   -156.32943    268541.86   -79840.604    6862.2942   -86702.898     1529.861 
   27400    270.22942   -378.66046    269361.77   -79805.023    6866.1039   -86671.127     1533.687 
   27450    269.87415    -946.7993    270584.31   -79758.798    6857.0771   -86615.875    1541.3891 
   27500    270.80777    -885.2486    270778.97    -79714.24    6880.7989   -86595.039    1545.1232 
   27550    270.17761   -319.80836    269756.66   -79707.094    6864.7875   -86571.881    1545.5041 
   27600    275.84784   -282.96499    268801.71   -79700.156    7008.8592   -86709.015    1546.0488 
   27650    275.35528   -308.15114    268455.01   -79737.991    6996.3439   -86734.335    1548.9508 
   27700    276.51485   -477.63688    268816.05    -79743.93    7025.8067   -86769.737    1554.8819 
   27750    278.93782   -546.75757    269553.61   -79710.908    7087.3706   -86798.279    1562.1116 
   27800    273.55474   -703.37051    269955.28   -79756.612     6950.595   -86707.207    1566.1301 
   27850    271.14692   -535.42423    269814.54   -79726.465    6889.4161   -86615.881    1568.9278 
   27900    276.82953   -225.75476     269331.9   -79664.097    7033.8024   -86697.899    1571.3208 
   27950    274.65978   -625.24418       269414   -79669.568    6978.6724    -86648.24     1573.089 
   28000    272.84278    -572.6782    269743.49   -79668.605    6932.5052    -86601.11    1575.4156 
   28050    273.06186   -466.41562    269666.92   -79652.355    6938.0719   -86590.427    1577.9657 
   28100    276.83374   -638.55613    269699.48   -79660.019    7033.9092   -86693.928    1578.9154 
   28150     276.9046   -617.93891    269735.45   -79688.447    7035.7097   -86724.156    1584.0089 
   28200    272.17713   -396.23861    269473.69   -79717.488    6915.5922    -86633.08    1585.3523 
   28250     276.9246   -468.54707    269152.75   -79670.549    7036.2178   -86706.767    1585.3878 
   28300     275.4072   -339.47428    269013.62   -79679.339    6997.6631   -86677.002    1586.8722 
   28350    276.81375    -512.6147    269388.89   -79706.593    7033.4015   -86739.994    1589.5712 
   28400    276.99412    -719.3289    269932.47   -79693.928    7037.9843   -86731.913    1593.9564 
   28450    271.93697   -941.41405    270116.62   -79682.905      6909.49   -86592.395    1596.0108 
   28500    276.40372   -480.88162    269536.74   -79643.452    7022.9833   -86666.435    1595.7664 
   28550    280.77663   -473.29733    269042.13   -79614.456    7134.0919   -86748.548    1595.8804 
   28600    274.95382   -448.23491    269028.69   -79575.852    6986.1434   -86561.996    1599.3246 
   28650    274.63013   -562.80262    269630.56   -79588.796    6977.9191   -86566.715    1606.3076 
   28700    277.35423   -643.64189    270399.62   -79540.816    7047.1342    -86587.95    1614.1315 
   28750    274.80545   -559.52922    270660.81   -79562.118    6982.3736   -86544.492    1619.0559 
   28800    278.62652   -834.22839     270353.9   -79637.296    7079.4611   -86716.757    1621.0876 
   28850    278.54341   -375.66281    269476.99   -79655.942    7077.3493   -86733.291     1620.482 
   28900    273.73096   -375.99121    268931.07   -79658.987    6955.0726    -86614.06    1620.1353 
   28950    273.23732     -207.668    269101.41   -79669.582    6942.5298   -86612.112    1621.3054 
   29000    276.98246   -602.61358    269651.14    -79705.49     7037.688   -86743.178    1628.4573 
   29050    277.14741   -803.32963    269999.63   -79709.164    7041.8791   -86751.043    1635.1702 
   29100    271.15486   -443.22964    269838.78   -79688.844    6889.6179   -86578.462    1637.6335 
   29150    274.29732    -397.1368    269550.07   -79699.382    6969.4628   -86668.845    1639.8338 
   29200    275.73411   -418.79458    269539.37   -79699.121    7005.9694   -86705.091    1642.9665 
   29250    276.35473   -564.80477    269753.39   -79657.211    7021.7383   -86678.949    1649.4987 
   29300    274.22975   -660.03515    269990.25   -79696.332     6967.746   -86664.078    1653.1492 
   29350    278.29387   -558.53599    269805.55   -79731.432    7071.0089   -86802.441    1654.1898 
   29400    275.29889   -551.79916    269312.27   -79754.087    6994.9113   -86748.998    1654.4377 
   29450    275.81981   -524.01271    268882.53   -79759.891    7008.1468   -86768.038    1658.6845 
   29500    275.30056   -556.33889    268915.55   -79770.614    6994.9535   -86765.568    1664.7765 
   29550    272.37028    -433.1178    269046.86   -79736.082    6920.4999   -86656.582    1667.7034 
   29600    272.42375   -337.92041    269397.44   -79708.364    6921.8584   -86630.222    1672.4201 
   29650    274.89693   -541.49615    269860.67   -79691.219    6984.6981   -86675.917    1676.7395 
   29700    274.86134   -599.65977    269799.26   -79721.774    6983.7936   -86705.567    1680.4683 
   29750    273.71952   -411.83187    269425.43   -79705.038    6954.7818    -86659.82    1681.9874 
   29800    277.27757   -448.19376    269391.75   -79681.883    7045.1863   -86727.069    1684.5198 
   29850    277.44012   -660.65001    269557.89    -79677.22    7049.3164   -86726.536    1687.1654 
   29900    276.42121   -528.19627    269530.79   -79639.249    7023.4276   -86662.677    1689.2083 
   29950    279.33515    -495.2691    269560.77   -79630.384    7097.4662    -86727.85    1690.6646 
   30000    277.74338   -610.65428    269535.88   -79665.094    7057.0217   -86722.116    1692.9367 
   30050    275.93882   -339.88835    269252.41   -79695.929    7011.1708     -86707.1    1694.4692 
   30100    275.93031   -487.30427    269236.61   -79654.958    7010.9546   -86665.912     1696.403 
   30150    276.10106   -618.66726    269364.26    -79651.34    7015.2931   -86666.634     1699.411 
   30200    275.00207    -479.6375    269480.95    -79653.39    6987.3695   -86640.759    1700.6231 
   30250    279.08763   -707.96265     269702.4   -79659.995     7091.177   -86751.172    1704.7438 
   30300    277.08898    -531.7432    269641.43   -79639.374    7040.3946   -86679.768    1706.9859 
   30350    275.86332   -472.27073    269538.53   -79661.814    7009.2525   -86671.066    1709.2193 
   30400    271.13441   -533.17459    269550.03   -79727.664    6889.0983   -86616.762    1711.0037 
   30450     276.3407   -584.04408    269533.71   -79750.381     7021.382   -86771.763    1714.5825 
   30500    279.47674   -395.70661       269507   -79703.584    7101.0637   -86804.648    1720.3293 
   30550    273.96526   -564.79177    269487.29   -79702.915    6961.0257    -86663.94    1722.0806 
   30600    276.22129   -466.71322    269279.54    -79734.96    7018.3479   -86753.308    1723.2901 
   30650    272.44104   -386.40338     269202.9   -79761.097    6922.2977   -86683.395    1725.8249 
   30700    275.82045   -559.67358    269462.91   -79757.275    7008.1631   -86765.438    1731.7017 
   30750    270.36419   -743.53126    269895.57   -79780.159    6869.5283   -86649.687    1736.0267 
   30800     276.5248   -617.68708    269788.39   -79830.505    7026.0595   -86856.564    1739.8582 
   30850    275.05296   -620.34552    269458.15   -79849.427    6988.6624   -86838.089    1741.7607 
   30900    268.90908   -205.07043     268992.8   -79831.958    6832.5561   -86664.514    1740.5072 
   30950    272.39349   -326.35639    268666.99   -79843.489    6921.0896   -86764.579    1738.8328 
   31000    271.95362   -581.26132    268860.08   -79846.553     6909.913   -86756.466    1741.0025 
   31050    271.23512   -304.02111    269278.33    -79831.86    6891.6572   -86723.517    1744.1204 
   31100    269.23005   -584.40197    269810.51   -79798.771    6840.7115   -86639.482    1747.8239 
   31150    274.98167   -778.43947    269810.92   -79769.585    6986.8512   -86756.436    1749.0685 
   31200    274.11663   -340.66476    269236.81   -79765.465    6964.8718   -86730.337    1748.2728 
   31250    272.88176   -303.91394    268755.11   -79770.262    6933.4957   -86703.757    1748.1184 
   31300    273.59238   -269.58563    268768.69   -79771.023    6951.5513   -86722.575    1752.8621 
   31350    270.92379   -427.03943    269269.49   -79784.779    6883.7468   -86668.526    1757.8153 
   31400    265.99614   -709.20997    269856.51   -79801.733     6758.543   -86560.276    1762.8778 
   31450    272.84911   -458.20248    269992.46   -79788.537    6932.6661   -86721.204    1766.5307 
   31500     272.7377   -661.38833    269828.42   -79780.551    6929.8352   -86710.386    1765.7794 
   31550    275.26975      -507.66    269408.32    -79795.98    6994.1707   -86790.151    1766.5051 
   31600     273.5036   -463.82412     269184.5   -79812.208    6949.2958   -86761.503    1767.7855 
   31650    276.84635   -436.04425    269026.73   -79760.017    7034.2296   -86794.246    1768.9174 
   31700    275.49018   -454.84468    269008.82    -79780.62    6999.7715   -86780.391    1771.4844 
   31750    276.85891   -563.61339    269231.38   -79780.176    7034.5487   -86814.725    1777.3416 
   31800    278.66582   -655.71817    269527.72   -79784.765    7080.4597   -86865.224    1783.8348 
   31850    271.79238    -952.0136    269666.33   -79814.178    6905.8163   -86719.994    1786.9714 
   31900    270.63358   -465.28105    269158.17   -79836.415    6876.3729   -86712.788    1784.7608 
   31950     275.3034   -448.36938    268776.88   -79809.857    6995.0258   -86804.883    1785.4766 
   32000    276.16819   -443.66736    268747.09   -79833.853    7016.9987   -86850.852    1790.2133 
   32050    275.61092   -450.57573    268945.98   -79850.695    7002.8395   -86853.534    1792.2612 
   32100    271.01724   -615.79571    269430.51   -79828.616    6886.1212   -86714.737    1794.3853 
   32150    269.84716   -606.37683    269715.77   -79859.817    6856.3912   -86716.209     1797.656 
   32200    269.22841   -716.61155    269716.96   -79822.832    6840.6699   -86663.502     1798.929 
   32250    273.46328   -404.29678    269284.88    -79805.08    6948.2712   -86753.351     1798.041 
   32300    271.28962   -422.37585     268975.5    -79830.67    6893.0419   -86723.712    1799.2535 
   32350     271.8885   -386.29026    269106.58   -79825.254    6908.2585   -86733.513    1804.3074 
   32400    274.47985   -389.79137    269585.83   -79824.784    6974.1007   -86798.885     1810.201 
   32450    270.59158   -823.88757    270005.85   -79852.554    6875.3058   -86727.859     1813.246 
   32500    269.71782   -587.91675    269699.31   -79826.879     6853.105   -86679.984     1817.314 
   32550    274.99797   -546.46633    269030.74   -79849.591    6987.2652   -86836.856    1819.3581 
   32600    275.08905    -33.30388    268484.36   -79803.533    6989.5795   -86793.113    1819.2906 
   32650    275.21055   -561.89362    268983.42   -79805.603    6992.6665    -86798.27    1824.4783 
   32700    274.84921   -757.42431    269694.02   -79806.009    6983.4856   -86789.495    1828.1323 
   32750    272.32072   -663.50093    269989.83    -79783.03    6919.2405   -86702.271    1831.6997 
   32800    271.72368   -754.28973    269665.19   -79805.646    6904.0707   -86709.716     1832.625 
   32850    273.50816   -336.64207    268889.25   -79798.222    6949.4116   -86747.634    1834.4929 
   32900    269.57596    -8.900596    268379.41   -79824.355    6849.5005   -86673.856    1834.8562 
   32950    270.90261   -443.46944     268581.8    -79862.74    6883.2087   -86745.948    1838.8621 
   33000    272.83471   -435.89541    269108.03   -79817.537    6932.3002   -86749.837    1845.7693 
   33050    274.24244   -663.31349       269510   -79813.496    6968.0684   -86781.565    1851.6728 
   33100    271.60597    -686.9977    269593.06   -79820.974      6901.08   -86722.054    1853.9672 
   33150     275.4273    -515.6438    269407.88   -79834.963    6998.1739   -86833.137     1854.428 
   33200    274.68615   -678.13255    269431.25   -79856.806    6979.3424   -86836.149    1859.9997 
   33250    268.38508   -425.45245    269558.68   -79858.536    6819.2422   -86677.779      1862.52 
   33300    271.33453    -716.1495    269624.61   -79844.833     6894.183   -86739.016    1864.0095 
   33350    270.52242    -702.1841    269248.01   -79882.776    6873.5486   -86756.325    1864.2873 
   33400    271.62403   -412.76942    268699.31   -79852.869    6901.5387   -86754.408    1862.7299 
   33450    273.18835   -269.36082    268746.91   -79840.657    6941.2857   -86781.943    1864.0384 
   33500     269.9545   -668.24549    269353.91   -79861.653    6859.1185   -86720.771    1867.5135 
   33550     271.3109   -609.28265    269703.69    -79833.73    6893.5827   -86727.313    1870.6068 
   33600    274.37082   -549.85988     269714.9   -79846.836    6971.3304   -86818.166    1870.5189 
   33650     271.2757   -276.56262    269559.81     -79851.8    6892.6883   -86744.488    1870.5696 
   33700    269.78256   -581.98414    269234.01   -79814.812      6854.75   -86669.562    1870.8849 
   33750    275.56446   -449.79395    268654.22    -79801.32     7001.659   -86802.979    1868.3661 
   33800     273.4959   -146.30514    268657.04   -79814.747    6949.1001   -86763.847    1870.1349 
   33850    273.32426   -521.75685    269186.38   -79819.325     6944.739   -86764.064    1873.8632 
   33900    268.96707   -672.77165     269901.1   -79830.529    6834.0296   -86664.558    1879.6591 
   33950    274.26207   -890.71844    270048.94   -79842.128    6968.5672   -86810.695    1883.8774 
   34000    271.44159   -475.65568    269424.11   -79812.428    6896.9033   -86709.331    1884.1029 
   34050     272.8631     -318.726    268729.88   -79829.721    6933.0215   -86762.742    1881.0404 
   34100    276.31986   -474.04038     268640.5   -79856.433    7020.8525   -86877.285    1881.0978 
   34150    275.04898   -527.13542    268940.57   -79858.362    6988.5613   -86846.923    1882.8701 
   34200    274.08064   -453.25687       269344    -79868.38    6963.9573   -86832.337    1888.9498 
   34250    269.44539   -568.74747    269813.43   -79855.212    6846.1829   -86701.395    1892.9901 
   34300    267.23431   -406.00427    269686.67   -79808.244    6790.0029   -86598.247    1893.8978 
   34350    271.99383   -603.77583    269287.69   -79823.963    6910.9347   -86734.897      1895.76 
   34400    273.21898   -143.81867    268839.08    -79872.78     6942.064   -86814.844    1894.8787 
   34450    268.64205   -331.17632    268978.04   -79832.651    6825.7713   -86658.422    1897.1111 
   34500    270.54438   -706.32224    269630.33   -79868.536    6874.1067   -86742.643    1904.1947 
   34550    269.05658   -784.85064    269924.96   -79909.342    6836.3038   -86745.646    1907.7374 
   34600    267.42074   -641.86575    269535.94   -79936.995    6794.7399   -86731.735    1910.7946 
   34650    268.91689   -281.90398    268932.36   -79918.623    6832.7547   -86751.377     1910.645 
   34700    272.84452   -447.47654     268722.8   -79890.984    6932.5494   -86823.533    1913.2498 
   34750    273.24151   -429.75816    268770.33   -79913.382    6942.6365   -86856.018    1916.9362 
   34800    270.29859   -556.72659    269161.55   -79876.516    6867.8613   -86744.378    1920.4431 
   34850    268.69632   -498.57858    269540.84   -79908.484    6827.1502   -86735.635    1925.0303 
   34900    271.59379    -668.9563    269693.46   -79908.125    6900.7704   -86808.896     1929.098 
   34950    272.46312    -635.0495    269353.43   -79862.208    6922.8587   -86785.067      1930.23 
   35000    271.11708   -212.50055    268791.37   -79868.283    6888.6579   -86756.941    1929.1432 
   35050    273.50993   -614.67029    268601.72    -79856.07    6949.4566   -86805.527     1932.921 
   35100    274.36825   -518.61809    268766.31   -79889.769    6971.2651   -86861.034    1937.2771 
   35150    267.69052   -559.17722    269297.12   -79900.084    6801.5944   -86701.678    1941.2566 
   35200    269.83111   -871.29822    269815.95   -79889.464    6855.9834   -86745.447    1946.4458 
   35250    272.74964   -615.37037    269457.61   -79850.488    6930.1388   -86780.627    1946.8096 
   35300    272.24899   -208.78463    268822.53   -79829.292    6917.4181    -86746.71    1947.1168 
   35350    272.22884   -396.59376     268626.3   -79810.622     6916.906   -86727.528     1950.328 
   35400     272.8394   -426.26933    268756.41   -79853.975    6932.4194   -86786.395    1953.6847 
   35450    275.86824   -704.72398    269304.97   -79834.598    7009.3774   -86843.975    1958.0479 
   35500     273.3748   -503.08766     269603.4   -79805.028    6946.0231   -86751.051    1962.3149 
   35550    274.15306     -468.588     269664.6   -79847.453    6965.7975   -86813.251    1966.2209 
   35600     271.1329   -546.06979    269628.71   -79764.328    6889.0598   -86653.388    1968.1795 
   35650    273.66182   -392.18942    269312.11   -79755.665    6953.3157   -86708.981    1968.1284 
   35700    271.29821   -282.46303    268933.79    -79803.91    6893.2602   -86697.171    1968.7332 
   35750    275.32319   -528.29106     268930.3   -79803.528    6995.5286   -86799.057    1970.1645 
   35800    276.64819   -428.17079    269278.82   -79818.907    7029.1946   -86848.102    1972.9914 
   35850    274.22332   -623.92463    269704.28   -79787.082    6967.5827   -86754.665    1977.9226 
   35900    272.91626   -388.24428    269719.53   -79784.364    6934.3722   -86718.736    1981.5108 
   35950    266.39234   -595.07109    269597.69   -79795.036    6768.6098   -86563.645     1985.168 
   36000    272.85755   -496.40715     269145.8   -79819.561    6932.8806   -86752.441    1986.1098 
   36050    271.31062   -527.75065     268768.4   -79851.758    6893.5755   -86745.334    1984.6362 
   36100    274.71132   -380.77287    268539.26   -79828.268    6979.9819    -86808.25    1986.8722 
   36150    272.73394   -524.99504    268704.78   -79820.008    6929.7397   -86749.748    1991.5857 
   36200    277.39987   -485.43239    269042.63   -79823.921    7048.2938   -86872.215    1997.7812 
   36250    274.47622   -401.67864     269532.6   -79808.769    6974.0083   -86782.777    2002.1866 
   36300    270.86528    -604.1103    270119.59   -79844.395    6882.2602   -86726.655    2008.8535 
   36350    271.36783   -584.16573    270123.53   -79776.344     6895.029   -86671.373    2011.9421 
   36400    275.52653   -731.90008     269599.5   -79825.483    7000.6952   -86826.178    2013.6468 
   36450    273.39445    -540.4689    268866.71   -79804.899    6946.5224   -86751.421    2013.0104 
   36500    269.03639   -294.72968     268676.6   -79803.024    6835.7909   -86638.815    2012.8835 
   36550     276.8858   -370.73269    269094.81   -79768.569     7035.232   -86803.801     2017.309 
   36600    272.17402   -397.13931    269532.39   -79746.066    6915.5132   -86661.579    2021.8728 
   36650    274.37056   -719.49735    269644.43   -79763.606    6971.3238   -86734.929     2026.197 
   36700    272.25463    -474.8429     269224.3    -79756.87    6917.5613   -86674.431    2028.2243 
   36750    273.55516   -452.76624    268966.76   -79786.525    6950.6058   -86737.131    2028.0366 
   36800      274.857   -556.64505    268887.17   -79755.344    6983.6834   -86739.027     2030.672 
   36850    275.01585    -286.6043    269038.77    -79761.55    6987.7195    -86749.27    2033.4494 
   36900     274.3197   -547.94397    269550.45   -79766.264    6970.0315   -86736.295    2038.4329 
   36950    275.19972    -586.5428    269888.94   -79801.403    6992.3915   -86793.795    2041.3708 
   37000    270.08649   -686.79354    269995.37   -79820.355    6862.4723   -86682.827    2043.4325 
   37050    273.91895   -589.48612    269490.54   -79834.478    6959.8491   -86794.327    2043.6823 
   37100    273.41537   -212.79525    268805.13   -79798.843     6947.054   -86745.897    2042.6187 
   37150     267.8808   -512.14595    268712.08   -79815.049    6806.4291   -86621.478    2042.2153 
   37200    274.12446     -486.034    269104.78   -79827.364    6965.0706   -86792.435    2048.8519 
   37250    272.18931   -648.41827    269771.21   -79818.024    6915.9017   -86733.926    2055.6629 
   37300    269.87112   -637.54552    269989.62   -79821.814    6857.0002   -86678.814    2059.8133 
   37350    268.52468   -590.05404    269616.42   -79809.865    6822.7893   -86632.654    2062.6866 
   37400    274.40478   -553.14297    269305.96    -79803.02    6972.1932   -86775.213    2063.8605 
   37450    269.41296   -376.34899    269028.65   -79802.608    6845.3591   -86647.967    2065.3661 
   37500    276.96472   -359.03471    268843.42    -79808.74    7037.2372   -86845.977    2066.6968 
   37550    272.27286   -560.10228    268978.57   -79800.365    6918.0244    -86718.39     2067.515 
   37600    274.70424   -458.34712    269297.62   -79811.635     6979.802   -86791.437    2070.6173 
   37650    271.72585   -781.17373    269656.03   -79801.004    6904.1259    -86705.13    2075.1369 
[...]
   90850    275.98904    -459.4253    269311.47   -79660.738    7012.4469   -86673.185    4686.0168 
   90900    275.69202   -612.53911    269611.31   -79664.475       7004.9   -86669.375    4694.1247 
   90950    276.38199   -508.20762    269546.77    -79697.41     7022.431   -86719.841     4695.629 
   91000    271.61605   -251.37687    269339.57   -79674.723    6901.3359   -86576.059    4695.5001 
   91050    272.57375   -339.50593    269391.52   -79705.505    6925.6696   -86631.174    4699.0922 
   91100    275.68321   -452.26811    269787.12   -79655.767    7004.6761   -86660.443    4707.1944 
   91150    275.01765   -608.20921    270138.71   -79666.569    6987.7653   -86654.335    4711.4242 
   91200    275.84282   -524.86142    270003.19   -79693.018    7008.7317    -86701.75    4716.9439 
   91250    274.28212   -531.77771    269443.13   -79710.416    6969.0766   -86679.493    4713.0776 
   91300    275.06013   -307.69498     268849.3   -79706.629    6988.8446   -86695.474    4710.2853 
   91350    273.69517    -281.0794     268791.1   -79715.988    6954.1633   -86670.151    4711.7894 
   91400    271.00256   -587.55614    269500.42   -79739.158    6885.7482   -86624.907    4718.7691 
   91450     273.8093   -690.24069    269988.52   -79755.737     6957.063     -86712.8    4726.3893 
   91500    275.42532   -749.90925    269828.07   -79757.729    6998.1236   -86755.853    4724.4382 
   91550    271.71209   -241.58322    269207.03   -79754.828    6903.7763   -86658.605    4721.9851 
   91600    272.85454   -540.08874    269119.48   -79780.673    6932.8041   -86713.478    4725.7098 
   91650    271.55882   -562.68335    269207.73   -79836.304    6899.8818   -86736.185    4729.0412 
   91700     276.5401   -500.27639    269162.98   -79848.332    7026.4482    -86874.78    4729.5381 
   91750    274.71581    -411.7834    269030.97   -79805.144    6980.0961   -86785.241    4729.7003 
   91800    273.62802   -575.13829    269188.79   -79810.014     6952.457   -86762.471    4732.0557 
   91850    276.71179   -750.01391    269218.74   -79836.302    7030.8108   -86867.113    4733.1333 
   91900    275.84481   -660.59929    268790.68   -79823.833    7008.7821   -86832.615    4729.9076 
   91950    269.46957   -425.18646    268643.11    -79879.39    6846.7972   -86726.187    4729.8312 
   92000    273.64263   -493.34812    268822.35   -79843.058    6952.8282   -86795.887    4731.9121 
   92050    269.42718    -495.7438    269021.72   -79891.096    6845.7202   -86736.816    4736.8732 
   92100    272.57719   -406.11527    269495.96   -79821.468    6925.7569   -86747.225    4743.7729 
   92150    267.79171   -777.56675    270017.36   -79808.546    6804.1655   -86612.711    4753.3538 
   92200    273.72713   -682.18973    269800.49   -79806.005    6954.9753   -86760.981    4753.0468 
   92250    270.27813   -373.47444    269110.51   -79788.686    6867.3415   -86656.027    4745.3277 
   92300    277.62823   -276.81942    268463.34   -79808.693    7054.0961   -86862.789    4737.6595 
   92350    280.32442   -507.80605    268422.79   -79824.874     7122.602   -86947.476    4736.1759 
   92400     274.8906   -299.41866    268732.39   -79831.671    6984.5373   -86816.208    4743.1584 
   92450    273.55115   -662.17479     269424.4   -79819.835    6950.5038   -86770.338    4748.9568 
   92500    268.34703   -483.95861    269761.69   -79828.216    6818.2753   -86646.491    4752.0529 
   92550    273.09779   -465.36998    269547.36   -79840.055    6938.9846   -86779.039    4748.5696 
   92600    276.13778   -705.77041    269243.11   -79873.425    7016.2261   -86889.651    4748.1505 
   92650    274.95593   -439.47633    269011.62   -79862.117     6986.197   -86848.314    4746.3041 
   92700     276.0439   -392.47508    269054.68   -79861.763    7013.8408   -86875.604    4747.0731 
   92750    274.96675   -630.13117    269295.52   -79911.178    6986.4719    -86897.65    4748.9079 
   92800    268.85303   -637.39865    269566.43   -79894.468     6831.132     -86725.6    4753.5933 
   92850    270.79879   -466.78223    269316.21   -79874.422    6880.5706   -86754.993    4753.5587 
   92900    274.24432    -498.9506    269083.58   -79885.224    6968.1162    -86853.34     4749.785 
   92950    272.94227   -733.31771    268950.77   -79877.849     6935.033   -86812.882    4749.7062 
   93000    271.95479   -444.42697    268938.72   -79840.464    6909.9428   -86750.407    4753.2365 
   93050    273.60519   -669.97112    269250.66   -79810.421    6951.8769   -86762.298    4759.5516 
   93100    277.37224    -495.9099    269522.51   -79770.255    7047.5917   -86817.847    4760.2825 
   93150    271.51852   -566.60805    269776.77   -79785.377    6898.8579   -86684.235    4765.5439 
   93200    273.95785   -589.01999    269558.81   -79764.103    6960.8374    -86724.94    4764.5066 
   93250    275.68123   -588.49032    269350.31   -79735.939    7004.6257   -86740.564    4768.6833 
   93300    276.19471   -575.63139    269385.26   -79763.219    7017.6726   -86780.891    4771.7226 
   93350    273.00942   -529.14162    269448.93   -79797.709    6936.7394   -86734.448    4775.2044 
   93400    276.01449   -448.17904    269281.31   -79812.819    7013.0934   -86825.912     4776.925 
   93450     275.1082   -351.25351    269087.32    -79814.39     6990.066   -86804.456    4777.3086 
   93500    273.03843   -714.24059    269189.91   -79804.546    6937.4763   -86742.022    4783.3386 
   93550    276.19795   -433.44445    269390.42    -79798.94    7017.7548   -86816.695    4785.9296 
   93600    278.71318   -758.91568    269540.15   -79762.775    7081.6629   -86844.438    4789.8075 
   93650    273.07682   -431.60654    269255.53   -79778.562    6938.4518   -86717.014    4787.8248 
   93700    276.02398   -481.66781    269138.76   -79772.657    7013.3345   -86785.991    4790.5043 
   93750    276.39124   -580.90004    269238.36   -79764.421     7022.666   -86787.087    4793.5987 
   93800     280.6897   -612.62961    269078.44   -79764.811    7131.8831   -86896.694    4795.9469 
   93850    276.07741   -582.43583    268713.25    -79774.34    7014.6921   -86789.032    4791.5678 
   93900    279.46354   -457.92078    268718.92   -79765.018    7100.7283   -86865.746    4795.1602 
   93950    269.52344    -424.0196    269116.77   -79750.411     6848.166   -86598.577    4799.7181 
   94000    270.13931   -601.55815    269495.44   -79738.717    6863.8145   -86602.531    4804.9579 
   94050    274.89654   -716.58348    269566.85   -79703.738     6984.688   -86688.426    4806.9199 
   94100    279.56843   -378.19694    269306.33    -79728.17    7103.3936   -86831.563    4805.8307 
   94150    271.74741   -301.94278    269337.45   -79717.926    6904.6737     -86622.6    4807.4101 
   94200    271.44756   -423.53336    269475.07   -79705.369     6897.055   -86602.424    4811.8735 
   94250    272.30155   -415.57891    269617.96   -79679.615    6918.7534   -86598.368    4817.1067 
   94300    270.64582   -441.02358    269833.66   -79654.301     6876.684   -86530.985    4823.1332 
   94350    275.16813   -507.37045    269785.81   -79662.806    6991.5887   -86654.395      4824.31 
   94400    281.29728   -487.47945    269504.21   -79693.147    7147.3208   -86840.468    4820.9638 
   94450    275.40417   -591.98478    269280.37   -79690.169    6997.5861   -86687.755    4821.4207 
   94500    273.51235   -327.63997    269206.52   -79671.429    6949.5181   -86620.947    4819.8192 
   94550    276.61121   -539.65592    269199.69   -79714.306    7028.2553   -86742.561    4818.7962 
   94600    279.03417   -444.74605    269019.85   -79703.952    7089.8188   -86793.771    4818.4329 
   94650    275.30253   -439.24067    269040.69   -79675.608    6995.0036   -86670.612    4821.9143 
   94700    275.69759   -520.00912    269451.28   -79631.804    7005.0415   -86636.845    4826.5035 
   94750    275.89302   -588.55614    270033.13   -79674.881    7010.0072   -86684.888    4833.3355 
   94800    270.16098   -694.71964    270262.24   -79680.354     6864.365   -86544.719    4836.9369 
   94850    274.73584   -487.97023    269881.34   -79694.093     6980.605   -86674.698    4834.2297 
   94900     277.0362    -623.6231    269294.83   -79704.385    7039.0536   -86743.438    4829.8603 
   94950    275.48723   -379.87238    268582.35   -79743.845    6999.6966   -86743.542     4824.861 
   95000    274.69902   -291.14613    268307.56   -79758.721    6979.6695    -86738.39    4823.6681 
   95050    272.76645   -430.95789    268635.03   -79726.816    6930.5658   -86657.382    4828.0618 
   95100    279.94996    -508.1541    269330.48   -79739.851    7113.0875   -86852.939    4839.2891 
   95150    274.57065   -584.33638     270108.6   -79744.322    6976.4078    -86720.73       4851.9 
   95200    269.61818   -650.55388    270260.98   -79744.417    6850.5733    -86594.99    4857.9422 
   95250    277.80653   -558.06211    269575.49   -79746.436    7058.6263   -86805.063    4851.8739 
   95300    272.60469   -306.56615    268786.38   -79793.209    6926.4559   -86719.665    4846.9691 
   95350    274.84069   -414.34437    268582.69   -79814.297    6983.2691   -86797.566    4848.0325 
   95400    272.39245   -297.79879    268775.26   -79767.881    6921.0631   -86688.944    4854.5527 
   95450    274.14371   -498.95422    269316.04   -79785.281    6965.5599   -86750.841    4861.4589 
   95500    272.78542    -606.1227    269532.64   -79776.112    6931.0479    -86707.16    4864.3207 
   95550    276.12772   -827.34137     269359.2   -79786.209    7015.9705   -86802.179    4863.1326 
   95600    277.01366   -355.50973    268734.51   -79792.938    7038.4808   -86831.419    4855.7345 
   95650    273.97245   -366.80028    268591.83   -79824.318    6961.2085   -86785.526    4857.4999 
   95700    272.57887   -594.46387    268978.73   -79805.766    6925.7997   -86731.565    4866.9665 
   95750    272.06529    -505.5908    269208.13   -79798.456    6912.7505   -86711.206    4874.1737 
   95800    276.18999   -665.35566    269296.97   -79827.489    7017.5527   -86845.041    4880.3558 
   95850    274.25623   -565.75722    269251.07   -79806.422    6968.4189   -86774.841     4885.823 
   95900    275.57227   -596.05399    269142.09    -79811.25    7001.8574   -86813.108    4886.9775 
   95950    274.72755   -444.52886    268935.95   -79806.022    6980.3943   -86786.417    4887.8427 
   96000    271.31084   -550.63753    269026.89    -79812.46    6893.5811   -86706.041    4889.6787 
   96050     273.4857   -376.60564    269112.78   -79797.542    6948.8409   -86746.383    4893.3539 
   96100    272.15522   -471.92452    269634.82   -79727.692    6915.0354   -86642.727    4901.5593 
   96150    272.06253   -569.42244    270056.93    -79748.72    6912.6805     -86661.4    4907.3696 
   96200    273.92273   -807.93001    269977.55   -79702.788     6959.945   -86662.733    4909.3765 
   96250    275.32077   -655.05739    269462.27   -79697.322     6995.467   -86692.789    4904.3147 
   96300    278.37237   -293.25247    268816.78   -79703.748    7073.0034   -86776.751    4897.4668 
   96350     275.5189    -366.0263    269131.94   -79712.304    7000.5014   -86712.805     4905.697 
   96400    275.86467   -535.44814    269583.34   -79737.056    7009.2867   -86746.343    4915.0553 
   96450     273.0929   -600.81934    269693.19   -79701.376    6938.8604   -86640.237     4916.758 
   96500    273.89502   -575.85124    269275.77   -79705.596     6959.241   -86664.837    4913.3511 
   96550    276.12184   -432.25909     268708.3   -79699.688    7015.8209   -86715.509      4910.52 
   96600    278.18404   -377.34569    268623.12   -79700.463    7068.2183   -86768.681    4915.2448 
   96650    276.02325   -788.35415    269126.74   -79735.016    7013.3159   -86748.332    4927.4215 
   96700    273.77344   -684.34845    269471.45   -79731.797    6956.1518   -86687.949    4935.0385 
   96750    271.86594   -482.55135    269765.35   -79713.989    6907.6853   -86621.674    4939.9485 
   96800    271.46719   -698.85289    269858.15   -79717.432    6897.5536   -86614.986    4942.4663 
   96850    273.08147   -734.45998    269627.42   -79751.302    6938.5701   -86689.872    4941.5814 
   96900    279.06451   -760.91071    269327.74   -79707.413    7090.5895   -86798.002    4940.5135 
   96950    274.90065   -623.23674    268967.72   -79721.031    6984.7924   -86705.823    4937.5752 
   97000    278.35375   -581.19051    268725.44   -79732.498    7072.5304   -86805.029    4935.7729 
   97050     273.4409   -446.23003    269049.45   -79715.408    6947.7026   -86663.111    4942.9186 
   97100     274.7129   -688.70028    269739.64   -79751.478     6980.022     -86731.5    4952.9462 
   97150    271.36204   -622.48274    270258.61   -79745.536     6894.882   -86640.418    4963.5793 
   97200    272.55784   -733.78149    270220.87   -79734.613    6925.2655   -86659.878    4967.0413 
   97250    275.71011    -507.6538    269599.98    -79741.69    7005.3596    -86747.05    4962.2675 
   97300    275.45983     -424.663    268807.41   -79775.898    6999.0003   -86774.898    4952.7139 
   97350    276.81092   -215.39116    268481.47   -79804.137    7033.3294   -86837.466    4951.7226 
   97400    272.64326   -594.35786    269131.22   -79821.918    6927.4359   -86749.354     4964.213 
   97450    270.21035   -797.95307    269873.67   -79824.829    6865.6194   -86690.448    4975.5585 
   97500    270.95491   -560.64762    269893.32   -79823.791    6884.5376   -86708.329     4977.634 
   97550    275.49334    -637.6722    269539.27   -79790.711    6999.8519   -86790.563    4978.5866 
   97600    272.97408   -233.69391    268989.92   -79773.448    6935.8414    -86709.29    4973.7684 
   97650    275.23683   -587.97991    268938.63   -79758.852    6993.3343   -86752.187    4973.2945 
   97700    278.08254   -422.90426    269151.33   -79763.859    7065.6394   -86829.499    4978.0533 
   97750    278.12739   -639.05493     269588.9   -79761.111     7066.779    -86827.89    4988.1798 
   97800    274.33965   -598.27984    269809.07   -79792.443    6970.5385   -86762.981    4995.1324 
   97850    270.03606    -562.3657    269311.81   -79822.946     6861.191   -86684.137     4991.931 
   97900     271.0473   -257.95053    268554.51   -79869.658    6886.8849   -86756.543    4983.7692 
   97950    275.69849   -353.71429    268688.24   -79833.962    7005.0645   -86839.026    4987.6262 
   98000    275.18284   -676.26587    269497.74   -79852.104    6991.9625   -86844.067    4998.3885 
   98050     270.9665   -616.61557    270073.84   -79836.678    6884.8319   -86721.509     5006.888 
   98100    273.73924   -597.23829    269967.23   -79856.152    6955.2829   -86811.435    5007.4882 
   98150    275.42562   -528.38444    269476.23   -79871.659    6998.1312    -86869.79    5002.6577 
   98200    273.11694   -408.79343    269031.88   -79893.899    6939.4712    -86833.37    5003.2844 
   98250     273.7141   -576.35822    268995.07   -79883.714    6954.6441   -86838.358    5006.5806 
   98300    269.73665   -526.14482    269042.77   -79913.845    6853.5835   -86767.428    5009.3226 
   98350     271.8941   -524.62883    268962.88    -79923.35    6908.4007   -86831.751    5011.6889 
   98400    268.32218   -232.07769    268943.92   -79890.067     6817.644   -86707.711    5013.4906 
   98450    271.86236   -361.71366    269192.45   -79860.061    6907.5942   -86767.656    5020.2492 
   98500    272.47487   -402.32095    269195.75   -79879.208    6923.1573   -86802.365    5022.0648 
   98550    271.81814   -499.57775    269197.61   -79908.247    6906.4707   -86814.717    5024.1773 
   98600    272.23459   -513.34504    269385.94   -79914.155     6917.052   -86831.207    5027.6783 
   98650    267.10021   -407.10613    269217.07   -79909.577    6786.5957   -86696.172    5031.0341 
   98700     270.0265   -407.92888     269016.3   -79900.212     6860.948    -86761.16    5031.1063 
   98750    272.84839   -465.79364    268876.01   -79889.331    6932.6479   -86821.979    5032.2959 
   98800    271.81718   -346.23062    269104.31   -79890.041    6906.4464   -86796.488    5041.2081 
   98850    271.95213   -565.72796    269694.83   -79862.832    6909.8751   -86772.708    5052.0984 
   98900    275.73393   -783.06082    270032.33    -79869.09    7005.9648   -86875.055    5060.8738 
   98950    270.97071   -498.05491    269476.29   -79855.864     6884.939   -86740.803    5055.8081 
   99000     271.2918   -252.69144    268673.02   -79840.039    6893.0973   -86733.136    5042.4933 
   99050    265.52024   -125.24797    268296.93   -79851.384     6746.451   -86597.835    5036.8576 
   99100      275.916   -465.25256    268589.12   -79860.617    7010.5909   -86871.208    5041.6647 
   99150    271.76335   -535.87348    269104.45   -79859.791    6905.0787    -86764.87    5049.5509 
   99200    271.75998   -474.49075    269614.85     -79875.9     6904.993   -86780.893     5054.863 
   99250    273.29451   -846.54901    270101.72   -79894.827    6943.9831    -86838.81    5068.8917 
   99300    265.74324     -479.774    269627.99   -79929.167    6752.1171   -86681.284     5067.769 
   99350    273.15114   -525.80094    268843.23   -79955.345    6940.3401   -86895.685    5060.7073 
   99400    271.89951   -195.84244    268240.01   -79935.377    6908.5382   -86843.915    5055.7881 
   99450    272.27435   -230.45284    268439.94   -79933.471    6918.0624   -86851.533    5065.7788 
   99500    268.85673   -697.33996    269146.15   -79952.623    6831.2261   -86783.849    5079.1371 
   99550    267.10955   -468.45496    269584.68    -79897.99    6786.8328   -86684.822    5089.3909 
   99600    272.60667   -622.48378    269654.92   -79909.016    6926.5061   -86835.522    5090.2428 
   99650    271.30508   -607.89279    269413.25   -79908.583    6893.4346   -86802.017    5089.4705 
   99700    272.04392   -516.26466    269074.66   -79900.272    6912.2074    -86812.48    5088.4881 
   99750    265.74822    -483.2031    268986.26   -79905.638    6752.2437   -86657.882    5087.2276 
   99800    269.60691   -295.00576    268835.99   -79902.648     6850.287   -86752.935    5083.4027 
   99850    273.59875   -667.39401    268879.47   -79890.439    6951.7134   -86842.152    5085.9685 
   99900    270.96105   -466.99512    269083.03    -79911.62    6884.6934   -86796.313    5090.7283 
   99950    272.07431   -510.64534    269290.23   -79895.379    6912.9796   -86808.358    5098.4411 
  100000    272.98283   -397.66397    269191.72   -79860.102    6936.0636   -86796.165    5100.6571 
Loop time of 356.506 on 6 procs for 100000 steps with 8525 atoms

Performance: 242.352 ns/day, 0.099 hours/ns, 280.500 timesteps/s
99.6% CPU use with 6 MPI tasks x no OpenMP threads

MPI task timing breakdown:
Section |  min time  |  avg time  |  max time  |%varavg| %total
---------------------------------------------------------------
Pair    | 170.57     | 231.82     | 302.22     | 335.3 | 65.03
Neigh   | 32.169     | 37.732     | 41.46      |  59.3 | 10.58
Comm    | 6.6846     | 80.746     | 147.56     | 605.5 | 22.65
Output  | 0.13477    | 0.13685    | 0.14476    |   1.0 |  0.04
Modify  | 5.0014     | 5.0321     | 5.0713     |   1.2 |  1.41
Other   |            | 1.04       |            |       |  0.29

Nlocal:        1420.83 ave        1463 max        1385 min
Histogram: 1 0 0 1 2 1 0 0 0 1
Nghost:        2163.50 ave        2211 max        2113 min
Histogram: 1 0 1 1 1 0 0 0 0 2
Neighs:        0.00000 ave           0 max           0 min
Histogram: 6 0 0 0 0 0 0 0 0 0
FullNghs:      44925.3 ave       45949 max       43651 min
Histogram: 1 1 0 1 0 0 0 0 1 2

Total # of neighbors = 269552
Ave neighs/atom = 31.619003
Neighbor list builds = 20441
Dangerous builds = 0

# Create data file for import to other simulations
#
write_data data.${NAME}
write_data data.coexist_273K_-500atm_mW
System init for write_data ...

Total wall time: 0:05:56
