
# Create simulation box of size 50 x 50 x 50 Angstrom
#
lattice	            sc 1
Lattice spacing in x,y,z = 1.0000000 1.0000000 1.0000000
region 	            all block 0 ${X} ${YZ_LO} ${YZ_HI} ${YZ_LO} ${YZ_HI} units box
region 	            all block 0 53.4 ${YZ_LO} ${YZ_HI} ${YZ_LO} ${YZ_HI} units box
region 	            all block 0 53.4 0.4046778853506581.0 ${YZ_HI} ${YZ_LO} ${YZ_HI} units box
region 	            all block 0 53.4 0.4046778853506581.0 50.50244211465013.0 ${YZ_LO} ${YZ_HI} units box
region 	            all block 0 53.4 0.4046778853506581.0 50.50244211465013.0 0.4046778853506581.0 ${YZ_HI} units box
region 	            all block 0 53.4 0.4046778853506581.0 50.50244211465013.0 0.4046778853506581.0 50.50244211465013.0 units box
create_box          1 all
Created orthogonal box = (0.0000000 0.40467789 0.40467789) to (53.400000 50.502442 50.502442)
  3 by 1 by 2 MPI processor grid

# fill box with 4175 randomly distributed atoms
#
create_atoms        1 random 4608 63782 all
Created 4608 atoms
  create_atoms CPU = 0.001 seconds
mass                1 18.015

# Define potential
#
pair_style          sw
pair_coeff          * * /data/emrosky-sim/Freezing_Simulations/Melting/mW_fancy/mW.sw mW
Reading sw potential file /data/emrosky-sim/Freezing_Simulations/Melting/mW_fancy/mW.sw with DATE: 2019-02-27

# Run minimization
#
minimize            1.0e-8 1.0e-8 10000 1000
WARNING: Using 'neigh_modify every 1 delay 0 check yes' setting during minimization (../min.cpp:187)
Neighbor list info ...
  update every 1 steps, delay 0 steps, check yes
  max neighbors/atom: 2000, page size: 100000
  master list distance cutoff = 6.3065
  ghost atom cutoff = 6.3065
  binsize = 3.15325, bins = 17 16 16
  1 neighbor lists, perpetual/occasional/extra = 1 0 0
  (1) pair sw, perpetual
      attributes: full, newton on
      pair build: full/bin/atomonly
      stencil: full/bin/3d
      bin: standard
Per MPI rank memory allocation (min/avg/max) = 4.236 | 4.254 | 4.260 Mbytes
Step Temp E_pair E_mol TotEng Press 
       0            0    4766995.5            0    4766995.5      3398652 
     673            0   -52184.115            0   -52184.115    496.69271 
Loop time of 2.09942 on 6 procs for 673 steps with 4608 atoms

99.3% CPU use with 6 MPI tasks x no OpenMP threads

Minimization stats:
  Stopping criterion = max force evaluations
  Energy initial, next-to-last, final = 
      4766995.51113165  -52183.9070968092  -52184.1154937102
  Force two-norm initial, final = 1.0916720e+08 3.1769012
  Force max component initial, final = 57631688.0 0.47309339
  Final line search alpha, max atom move = 0.044197105 0.020909358
  Iterations, force evaluations = 673 1000

MPI task timing breakdown:
Section |  min time  |  avg time  |  max time  |%varavg| %total
---------------------------------------------------------------
Pair    | 1.8193     | 1.9091     | 1.9765     |   3.6 | 90.93
Neigh   | 0.043762   | 0.045005   | 0.046085   |   0.4 |  2.14
Comm    | 0.055817   | 0.12349    | 0.21347    |  14.3 |  5.88
Output  | 0          | 0          | 0          |   0.0 |  0.00
Modify  | 0          | 0          | 0          |   0.0 |  0.00
Other   |            | 0.02185    |            |       |  1.04

Nlocal:        768.000 ave         777 max         760 min
Histogram: 2 0 0 0 1 1 0 1 0 1
Nghost:        1705.00 ave        1712 max        1698 min
Histogram: 2 0 0 0 0 1 1 1 0 1
Neighs:        0.00000 ave           0 max           0 min
Histogram: 6 0 0 0 0 0 0 0 0 0
FullNghs:      25953.0 ave       26276 max       25652 min
Histogram: 1 2 0 0 0 0 0 1 1 1

Total # of neighbors = 155718
Ave neighs/atom = 33.792969
Neighbor list builds = 39
Dangerous builds = 0

# Add velocity/set timestep
#
velocity            all create ${TEMP} 120598 rot yes dist gaussian
velocity            all create 273 120598 rot yes dist gaussian
timestep            5.0

# Define output
#
compute	            1 all msd
thermo	            100
thermo_style        custom step temp press vol etotal ke pe c_1[4] density

# Neighbor lists
#
neigh_modify        delay 0 every 1 check yes

# Set fixes
#
fix                 1 all momentum 10 linear 1 1 1 rescale
fix                 2 all nve
fix                 3 all temp/csvr ${TEMP} ${TEMP} 500.0 928347
fix                 3 all temp/csvr 273 ${TEMP} 500.0 928347
fix                 3 all temp/csvr 273 273 500.0 928347
fix                 4 all press/berendsen iso ${PRES} ${PRES} 1000.0 modulus 20000
fix                 4 all press/berendsen iso -500 ${PRES} 1000.0 modulus 20000
fix                 4 all press/berendsen iso -500 -500 1000.0 modulus 20000

# Run 0.5 ns equilibration
#
dump                1 all custom 1000 eq.${NAME}.dump id type x y z vx vy vz
dump                1 all custom 1000 eq.liq_273K_-500atm_mW.dump id type x y z vx vy vz
run                 100000
Per MPI rank memory allocation (min/avg/max) = 3.504 | 3.507 | 3.510 Mbytes
Step Temp Press Volume TotEng KinEng PotEng c_1[4] Density 
     673          273    1775.3968    134022.57   -48435.118    3748.9976   -52184.115 6.0185311e-36    1.0285321 
     700    119.39168    710.78028    136022.18   -47994.202    1639.5572   -49633.759   0.17737782     1.013412 
     800    189.18573   -106.95996    137993.53   -46593.018    2598.0104   -49191.028   0.57303827   0.99893464 
     900    214.95813   -467.01416    138965.61   -45704.346    2951.9323   -48656.279    1.0217958   0.99194699 
    1000    233.95965    -486.0355    139010.97    -45068.16    3212.8725   -48281.032    1.5013745   0.99162333 
    1100    245.16868   -271.80805    139499.63   -44633.142    3366.8015   -47999.943    2.1948242   0.98814968 
    1200    252.19423   -415.35355    139733.39   -44283.481    3463.2804   -47746.762    2.8138784   0.98649665 
    1300    261.26324   -630.61976    139607.93   -43988.605    3587.8214   -47576.426    3.5980713   0.98738311 
    1400    260.95726   -593.37147     139642.7   -43862.314    3583.6196   -47445.934    4.5403593   0.98713729 
    1500    269.19987   -349.48739    139773.76    -43722.19     3696.812   -47419.002    5.6027828    0.9862117 
    1600    264.16909     -487.884    139624.19   -43662.475    3627.7263   -47290.201     6.475497   0.98726817 
    1700    264.00177   -587.23008    139690.74   -43635.421    3625.4286    -47260.85    7.4238382   0.98679779 
    1800     266.5328   -476.11197    139281.68   -43511.079    3660.1861   -47171.265    8.4498141   0.98969598 
    1900     268.6938   -326.16877    139341.26   -43416.917    3689.8623   -47106.779    9.5845141   0.98927276 
    2000    270.52988   -423.01606    139159.16   -43326.271    3715.0764   -47041.348    10.832336   0.99056733 
    2100    270.09971   -444.60543    139138.94   -43373.886    3709.1691   -47083.055     12.17757   0.99071126 
    2200    270.88233   -524.14537    138974.55   -43389.502    3719.9165   -47109.419    13.712616   0.99188319 
    2300     273.0133   -450.16636    139312.55   -43285.651    3749.1802   -47034.831     15.04529   0.98947669 
    2400    273.54986   -591.46372    139230.17   -43308.718    3756.5485   -47065.267    16.333507    0.9900621 
    2500    268.35884   -352.61413    139261.06   -43275.556    3685.2624   -46960.818    17.738938   0.98984248 
    2600    273.33133   -337.09431     139406.2   -43146.558    3753.5476   -46900.105    18.837595   0.98881198 
    2700    274.15382   -601.68207    139138.89     -43124.7    3764.8426   -46889.543    20.335062   0.99071162 
    2800    272.45444   -562.31451    139035.82   -43233.379    3741.5056   -46974.885     22.03328   0.99144609 
    2900    274.40796   -474.26295    138879.34   -43182.442    3768.3326   -46950.775    23.596721   0.99256313 
    3000    274.99518   -361.92903    139092.42   -43162.565    3776.3966   -46938.962    24.985899   0.99104265 
    3100    273.43209   -633.52548    139013.96   -43181.967    3754.9313   -46936.898    26.617246   0.99160196 
    3200    272.47038   -509.31298    138888.09   -43170.889    3741.7246   -46912.614    28.084475   0.99250062 
    3300    275.74766    -584.3663    138730.61   -43186.002    3786.7301   -46972.732     29.96142   0.99362727 
    3400    268.48276   -295.86985    138748.08   -43169.502    3686.9641   -46856.466    31.688455   0.99350215 
    3500    275.50964   -550.14179    138735.44    -43083.78    3783.4614   -46867.241     32.97746   0.99359266 
    3600    277.21302   -723.79937    138642.46   -43109.176    3806.8533   -46916.029    34.619288     0.994259 
    3700     276.4219    -298.0012    138831.12   -43090.365    3795.9892   -46886.354    35.961335   0.99290792 
    3800    275.72586   -507.24067    138865.18   -43116.784    3786.4307   -46903.215     37.31149   0.99266436 
    3900     271.8718   -427.46385    138914.35   -43246.353    3733.5045   -46979.858    38.835418     0.992313 
    4000    275.12837   -532.83033    138815.79   -43293.051    3778.2256   -47071.277    39.943175   0.99301757 
    4100    273.74762   -429.73926    139010.44   -43230.865    3759.2644   -46990.129    41.319753   0.99162711 
    4200    272.89724   -595.15983    139099.48   -43254.506    3747.5864   -47002.092    42.675591   0.99099231 
    4300    276.01632   -599.74088    139169.28   -43170.593    3790.4195   -46961.012    43.866512   0.99049526 
    4400    275.38935   -530.55204    138911.71   -43164.524    3781.8095   -46946.333     44.79161    0.9923319 
    4500    273.42818   -618.93704    139148.35   -43148.869    3754.8776   -46903.747    46.205989   0.99064429 
    4600     267.4855   -516.38951    139181.62   -43151.671    3673.2692    -46824.94    47.527196   0.99040744 
    4700    276.13629   -529.23649    139020.96    -43225.82     3792.067   -47017.887    49.071674   0.99155207 
    4800    271.50684   -428.73598     139160.3     -43209.1    3728.4926   -46937.593    50.647867   0.99055919 
    4900    271.81387   -631.23534    139212.61   -43147.728     3732.709   -46880.437    52.138012   0.99018702 
    5000    268.26455   -528.66987    139151.83   -43229.368    3683.9675   -46913.336    53.601199   0.99061953 
    5100    275.07271   -595.78113    138883.72   -43189.524    3777.4612   -46966.985    55.200809   0.99253186 
    5200    271.31695   -384.92375    139139.63   -43230.804     3725.885   -46956.689    56.714241   0.99070636 
    5300     270.5013   -464.82376    139328.03   -43229.797    3714.6839   -46944.481     58.27034   0.98936676 
    5400    274.61916   -517.41962    139287.76     -43162.7    3771.2329   -46933.933    59.794133   0.98965276 
    5500    271.93871   -485.41959    139056.66   -43149.168    3734.4233   -46883.591    61.228999   0.99129747 
    5600    278.28931   -531.64382    139035.58   -43108.026    3821.6335   -46929.659    62.239807   0.99144776 
    5700     274.8945   -448.20955    139135.54   -43175.179    3775.0139   -46950.193    63.640528   0.99073547 
    5800    276.08277   -640.62572    139165.52    -43144.25     3791.332   -46935.582    65.079325   0.99052209 
    5900    274.67444   -368.93939    139356.77   -43325.127     3771.992   -47097.119    66.364961   0.98916269 
    6000    267.96484    -584.3601    139290.01   -43357.215    3679.8518   -47037.066    67.534181   0.98963675 
    6100    271.51061    -617.3464    139132.18   -43309.187    3728.5444   -47037.732    68.640129   0.99075942 
    6200    268.80317   -585.56331    139114.88   -43323.665    3691.3642   -47015.029    69.797726    0.9908826 
    6300    274.71355   -591.09507    138780.93   -43289.231    3772.5291    -47061.76    71.189222   0.99326698 
    6400    275.66166   -768.18876    138780.65   -43291.253    3785.5491   -47076.802    72.633156   0.99326899 
    6500    272.65963   -435.50282    138844.09   -43266.834    3744.3234   -47011.157    74.362278   0.99281518 
    6600    272.89701   -430.52644    139056.99   -43334.035    3747.5833   -47081.618    75.748532   0.99129515 
    6700    267.92478   -710.76781    139042.61   -43340.961    3679.3016   -47020.263    76.552295   0.99139765 
    6800    263.84744   -503.53228    138616.73   -43418.031    3623.3092    -47041.34    77.300165   0.99444356 
    6900    271.15594   -446.80702    138918.98   -43320.205    3723.6739   -47043.879    78.837291    0.9922799 
    7000      276.441   -352.71056    139078.34   -43205.225    3796.2514   -47001.477    80.014116   0.99114297 
    7100     266.2109    -455.9045    139212.44   -43309.154    3655.7657   -46964.919    81.305589    0.9901882 
    7200    269.97019   -460.04677    139015.66    -43344.07    3707.3904   -47051.461    83.077786   0.99158984 
    7300    270.53388   -414.57035    139018.51   -43327.767    3715.1314   -47042.899    84.645268   0.99156955 
    7400    263.32282   -692.88348    139065.76   -43377.945    3616.1048   -46994.049    86.356378   0.99123261 
    7500    270.32493   -771.92792    138709.38   -43276.003    3712.2619   -46988.265    87.639827   0.99377936 
    7600    272.27473   -578.13615    138694.71   -43236.736    3739.0378   -46975.773    88.779785   0.99388444 
    7700     269.0702    -469.0553    138803.75    -43209.14    3695.0313   -46904.171    90.278335   0.99310367 
    7800     274.6835   -435.00282    139078.46   -43225.721    3772.1165   -46997.837    92.038882   0.99114212 
    7900    268.22198   -528.65278    139052.28   -43388.858    3683.3829   -47072.241    93.210493   0.99132869 
    8000    270.12712   -538.00759    139246.54   -43353.491    3709.5455   -47063.037    95.043293    0.9899457 
    8100    275.16953   -493.72054    138984.91   -43233.459    3778.7909    -47012.25    96.431879   0.99180921 
    8200     270.3169   -537.58078    138987.69   -43267.397    3712.1516   -46979.548    97.769261   0.99178936 
    8300    273.28106   -525.65624    138947.63   -43239.463    3752.8572    -46992.32    99.335292   0.99207531 
    8400    276.81153   -649.51622    138799.47   -43298.022    3801.3398   -47099.362    100.77978   0.99313431 
    8500    272.64677    -285.9322    138914.49   -43337.123    3744.1468    -47081.27    102.57726   0.99231199 
    8600    272.66803   -393.32562    138768.09   -43285.945    3744.4388   -47030.384    104.43749   0.99335888 
    8700    274.64167   -540.61852    139226.85   -43241.017     3771.542   -47012.559    106.06065   0.99008573 
    8800    277.47628   -455.45005    139329.99   -43226.797    3810.4685   -47037.265    107.69332   0.98935282 
    8900    274.95672   -493.10283    139500.41   -43245.056    3775.8684   -47020.924    109.50289    0.9881442 
    9000    273.31322     -500.699    139314.54   -43149.582    3753.2989   -46902.881     110.6638   0.98946252 
    9100    273.01229   -475.89784    139290.24   -43218.134    3749.1664   -46967.301    112.39463   0.98963513 
    9200    272.35056   -551.94897    139116.58     -43251.4    3740.0791   -46991.479    113.63355   0.99087054 
    9300    272.86918   -686.62914    138970.82   -43220.183    3747.2011   -46967.384    114.65811   0.99190981 
    9400    274.29921   -526.78791    139190.31   -43221.483    3766.8391   -46988.322    115.91644   0.99034562 
    9500    268.24202   -471.24808    138926.53   -43319.165    3683.6582   -47002.823    116.93892   0.99222601 
    9600    270.65592   -643.67006     138780.2   -43303.727    3716.8073   -47020.535    118.04706   0.99327221 
    9700    278.32162   -520.78517    138950.31   -43247.708    3822.0772   -47069.785     119.6994   0.99205619 
    9800    273.28895   -569.58791     138894.8   -43265.866    3752.9656   -47018.831    121.01138   0.99245272 
    9900    277.05807   -645.94285    139174.04   -43170.018    3804.7254   -46974.743    122.48868    0.9904614 
   10000    272.77858   -416.45436    138955.93   -43338.383     3745.957    -47084.34    124.11628   0.99201609 
   10100    271.73465   -660.78699    138946.96   -43262.121    3731.6211   -46993.742    125.62402    0.9920801 
   10200    269.63873   -736.81588    138839.33   -43345.481    3702.8387    -47048.32    126.49419   0.99284917 
   10300    277.35796   -611.64495    138555.31   -43247.336    3808.8437    -47056.18    127.51635   0.99488439 
   10400    276.38088   -564.56982    138752.58   -43180.802    3795.4258   -46976.227    129.44704   0.99346992 
   10500    273.55265   -525.72397    138893.64   -43184.607    3756.5868   -46941.194    130.42392   0.99246093 
   10600    276.06552   -451.34703    139259.73   -43152.807    3791.0951   -46943.903    131.79743   0.98985195 
   10700     275.4652   -752.25316    139479.96   -43184.888    3782.8512   -46967.739    132.60081   0.98828903 
   10800     275.5868   -505.86542    139616.77   -43167.641    3784.5211   -46952.162    133.38452    0.9873206 
   10900    276.52901   -396.87417    139429.49   -43046.619      3797.46   -46844.079    134.29789   0.98864679 
   11000    276.03372   -679.68305     139536.5   -43097.046    3790.6584   -46887.705    135.57943   0.98788859 
   11100    275.24329   -524.63258    139454.99   -43163.952    3779.8038   -46943.756    136.25499   0.98846598 
   11200    277.67524   -555.02721    139287.55   -43171.268    3813.2008   -46984.469    137.33684   0.98965422 
   11300     275.3857   -695.86682    139310.84   -43248.132    3781.7594   -47029.892    138.98926    0.9894888 
   11400    271.79189   -547.78365     138946.6    -43255.61     3732.407   -46988.017    139.59672   0.99208267 
   11500    266.01142   -600.73721    139007.08   -43377.535    3653.0262   -47030.561    140.44931   0.99165108 
   11600    264.85203   -669.05454    138870.84   -43396.438    3637.1048   -47033.543    141.67044   0.99262388 
   11700    274.24626   -471.17054     139022.7   -43282.018     3766.112    -47048.13    143.50755    0.9915396 
   11800    272.59048   -423.44481    139012.44   -43263.863    3743.3738   -47007.237    145.12816   0.99161279 
   11900     271.3838   -449.66765    139001.14   -43342.606    3726.8029   -47069.409    146.29875   0.99169341 
   12000    272.38292    -545.2908    139115.93   -43323.575    3740.5235   -47064.098    147.55155   0.99087513 
   12100    269.79641   -368.94896    138902.42    -43306.04     3705.004   -47011.044    148.75372   0.99239823 
   12200    281.35221   -392.13596    139006.94   -43180.944    3863.6951   -47044.639    150.43694   0.99165204 
   12300    276.15353   -605.09976    139107.84   -43119.832    3792.3038   -46912.135    151.49582   0.99093278 
   12400    280.74107   -570.33687    139038.26   -43103.423    3855.3026   -46958.725     152.8518   0.99142864 
   12500    276.53972   -366.14001    139156.61   -43123.021    3797.6071   -46920.628    154.83154   0.99058551 
   12600    274.44502   -349.68378    139463.82   -43181.845    3768.8414   -46950.686    156.06878   0.98840344 
   12700    274.02909   -522.06782    139284.67   -43158.693    3763.1297   -46921.823    157.33657   0.98967471 
   12800    271.97357   -597.64311    139112.04    -43232.51    3734.9021   -46967.412    158.28202   0.99090285 
   12900    276.97333   -457.21524    139132.47   -43208.158    3803.5617    -47011.72     159.5981   0.99075731 
   13000    272.20132   -596.74289    138978.95   -43260.769    3738.0296   -46998.799    160.92867   0.99185177 
   13100    271.98738   -474.56867    139034.97   -43232.532    3735.0916   -46967.623    162.81492   0.99145209 
   13200    274.98976    -400.6765    138751.71   -43214.202    3776.3222   -46990.524    164.11571   0.99347617 
   13300    269.60363      -469.48    138829.82   -43191.948    3702.3567   -46894.305    165.68652    0.9929172 
   13400    270.64167   -623.72085     138924.4   -43241.085    3716.6116   -46957.696    167.44733    0.9922412 
   13500    272.81449   -496.83318    139111.28   -43233.944    3746.4501   -46980.394    169.28273   0.99090823 
   13600    277.50773   -569.71881    139091.26   -43244.915    3810.9005   -47055.816    171.11285   0.99105088 
   13700    272.76926   -408.70159    138934.56    -43282.51    3745.8289   -47028.339    172.50066   0.99216869 
   13800     269.4223   -494.01982    138951.92   -43323.242    3699.8665   -47023.109    173.96972   0.99204468 
   13900     271.8181   -544.37169    138878.31    -43321.53     3732.767   -47054.297    175.15679   0.99257051 
   14000    269.99895   -605.38987    138721.58   -43410.296    3707.7854   -47118.082    176.11107   0.99369192 
   14100    271.83818   -522.04424    138717.92    -43358.01    3733.0428   -47091.052    177.25237   0.99371815 
   14200    269.92716   -554.13912    138827.16   -43314.663    3706.7996   -47021.463    178.80916   0.99293621 
   14300    266.92894   -679.76941    138966.66   -43304.066    3665.6262   -46969.692    180.13103   0.99193946 
   14400    270.62342    -443.9941    138983.65   -43279.163     3716.361   -46995.524     181.5191   0.99181819 
   14500    275.66777   -429.89077    139046.36   -43294.299     3785.633   -47079.932    182.98431   0.99137094 
   14600    270.60431   -580.31941    139092.12    -43236.32    3716.0986   -46952.418    184.28317   0.99104479 
   14700    277.33861   -585.32511    139004.21     -43207.6    3808.5779   -47016.178    185.53722   0.99167156 
   14800    270.95417   -553.84791    138926.67   -43262.626     3720.903   -46983.529    187.11011   0.99222499 
   14900      270.196   -393.31049    138819.07   -43250.233    3710.4914   -46960.725    187.93507   0.99299406 
   15000    274.27104   -549.46318    138887.14    -43302.11    3766.4523   -47068.563    189.74364    0.9925074 
   15100    272.02909    -565.4355    139111.21    -43305.39    3735.6645   -47041.055    191.57175   0.99090875 
   15200     272.0428   -385.66522    139160.59   -43373.929    3735.8528   -47109.782    193.00537   0.99055711 
   15300    275.81863   -470.84045     139217.6   -43314.391    3787.7046   -47102.096    194.35697    0.9901515 
   15400    276.54792   -493.22858    139434.99   -43209.369    3797.7197   -47007.089    196.29236   0.98860777 
   15500      275.778   -586.46471    139388.44   -43230.855    3787.1468   -47018.002    196.95971   0.98893793 
   15600    272.74683   -453.44154    139461.61   -43261.641    3745.5209   -47007.162    198.60849   0.98841906 
   15700    273.83851   -510.19628    139041.23   -43303.528    3760.5125   -47064.041    199.05379   0.99140747 
   15800    266.49162   -515.47052    138848.39   -43307.006    3659.6207   -46966.626    199.74209   0.99278439 
   15900    270.90657   -467.83597    138764.59    -43262.12    3720.2494    -46982.37    200.25478   0.99338395 
   16000    272.01646   -533.07072    138851.59   -43307.384     3735.491   -47042.875    201.57596   0.99276151 
   16100    270.92415   -318.81092    138787.72   -43295.848    3720.4908   -47016.338    203.40864   0.99321841 
   16200    279.36621   -422.83396    138894.34   -43155.918    3836.4221    -46992.34     204.4611   0.99245597 
   16300    269.23261   -370.57185    139173.29   -43173.868    3697.2616    -46871.13    205.90606   0.99046675 
   16400    275.98118   -600.36642    139161.61    -43111.87    3789.9369   -46901.807    207.21343   0.99054991 
   16500    278.78693   -484.53671    138753.03   -43118.519    3828.4671   -46946.986    208.75573   0.99346672 
   16600    271.82595   -445.23364    139088.15   -43146.654    3732.8748   -46879.529    210.17791   0.99107303 
   16700    276.75333   -368.29527    139005.82   -43211.541    3800.5405   -47012.081    211.42862   0.99166007 
   16800    272.75595   -193.34117    139202.73   -43196.847    3745.6462   -46942.493    213.26209   0.99025731 
   16900    275.80181   -350.94385    139150.14   -43190.441    3787.4737   -46977.915    213.86338   0.99063153 
   17000    272.92004   -511.97351    139280.33   -43217.818    3747.8996   -46965.718    215.67115   0.98970557 
   17100    273.55114   -698.59978    139192.19   -43224.509    3756.5662   -46981.076    215.98943   0.99033229 
   17200    274.72036   -503.15689    139037.24   -43168.487    3772.6226   -46941.109     216.9658   0.99143595 
   17300    279.01795   -524.12289    139070.25    -43133.39    3831.6396   -46965.029    218.45826    0.9912006 
   17400    269.75743   -604.48455    139071.64    -43201.57    3704.4687   -46906.039    219.71442   0.99119072 
   17500    274.27623   -521.14236    139045.14   -43182.703    3766.5236   -46949.227    220.51337    0.9913796 
   17600    271.86882   -418.53814    139061.36   -43263.984    3733.4635   -46997.448    221.74077   0.99126394 
   17700    272.49594   -285.69366    139450.34   -43285.105    3742.0755   -47027.181    223.03522   0.98849895 
   17800    273.97411   -633.34142    139575.59   -43258.526    3762.3747   -47020.901    224.85027    0.9876119 
   17900    272.58386   -372.58826    139391.06   -43299.061     3743.283   -47042.344    225.67291   0.98891932 
   18000    273.08563   -580.91612    139010.17   -43392.958    3750.1735   -47143.132    226.37076     0.991629 
   18100    267.90352   -583.43185    139098.51   -43381.474    3679.0096   -47060.484    228.11191   0.99099925 
   18200    274.51002     -211.922    139198.34   -43279.758    3769.7341   -47049.492    229.57373    0.9902885 
   18300    269.28426   -482.27747    139405.19   -43327.506    3697.9708   -47025.476    231.43972   0.98881915 
   18400    264.42561   -446.41864       139188   -43384.656     3631.249   -47015.905     232.5787   0.99036206 
   18500    271.05229   -528.94657    138977.55   -43266.152    3722.2505   -46988.403    234.03877   0.99186173 
   18600    270.10232   -367.66582    139481.33   -43271.019    3709.2049   -46980.224    235.95363   0.98827936 
   18700    275.47793   -445.63568    139412.31   -43186.414     3783.026    -46969.44    237.73371   0.98876863 
   18800    276.92244    -582.2613    139541.98   -43230.839    3802.8629   -47033.702    239.03527   0.98784979 
   18900    273.01354   -610.16801    139318.26   -43256.556    3749.1836    -47005.74    240.56302   0.98943608 
   19000     271.0762   -704.97889    139072.34   -43271.658    3722.5788   -46994.237    241.14244   0.99118569 
   19100    268.67321   -476.04095    139068.35   -43343.721    3689.5796   -47033.301    242.16343   0.99121414 
   19200    270.87476   -397.80827     139045.5   -43291.736    3719.8125   -47011.548    243.07543   0.99137706 
   19300    274.11145   -542.32276    139115.16    -43274.12    3764.2607   -47038.381    244.69094   0.99088063 
   19400    271.62838   -394.89645    139293.33   -43275.373    3730.1617   -47005.534    246.12988   0.98961322 
   19500    273.12135   -484.29897    139417.62   -43224.916    3750.6641    -46975.58    247.20051   0.98873099 
   19600     273.2832   -618.94862    139528.46   -43241.893    3752.8866    -46994.78    248.44167   0.98794555 
   19700    274.16533   -728.10385    139374.12    -43233.85    3765.0006   -46998.851    250.07497   0.98903957 
   19800    274.02266   -466.11025    139406.88    -43203.77    3763.0414   -46966.811    251.42875   0.98880712 
   19900    277.20669   -464.90149    139383.84   -43184.182    3806.7663   -46990.948    252.37481    0.9889706 
   20000    275.57911   -447.70477    139447.86   -43137.478    3784.4155   -46921.893    254.26135   0.98851654 
   20100    272.35927   -560.21255    139365.37   -43161.392    3740.1987   -46901.591    255.89306   0.98910162 
   20200    273.91449    -410.2798     139619.6   -43118.889     3761.556   -46880.445    257.48094   0.98730061 
   20300    280.61517   -566.85447    139386.95    -43053.94    3853.5736   -46907.514    257.91281   0.98894851 
   20400    280.16988   -555.91067    139137.87    -43121.39    3847.4586   -46968.848    259.32906   0.99071889 
   20500    271.61631   -383.21046     138950.8   -43076.279     3729.996   -46806.275    260.75764   0.99205269 
   20600    271.56716   -425.46424    139225.26   -43153.442    3729.3209   -46882.763    262.37023   0.99009705 
   20700    274.47525   -483.59623    139024.76   -43214.298    3769.2566   -46983.554    263.82507   0.99152491 
   20800    273.69968   -394.74537    138942.53   -43266.465    3758.6059   -47025.071    265.42704   0.99211174 
   20900    274.55504   -313.41889    138953.94   -43315.713    3770.3524   -47086.065    266.48666   0.99203026 
   21000    270.27709   -366.90971    139014.06   -43239.975     3711.605    -46951.58    268.11045   0.99160122 
   21100    268.79454   -492.79387    139032.95   -43267.115    3691.2457   -46958.361    269.11485   0.99146656 
   21200    268.95226   -538.53853    138971.72   -43348.502    3693.4116   -47041.913    270.76307   0.99190337 
   21300    272.62691   -600.52147    138881.42   -43363.323     3743.874   -47107.197    271.69799    0.9925483 
   21400     271.5076   -566.87769    138750.39   -43259.531     3728.503   -46988.035    273.12556   0.99348563 
   21500    279.00782   -551.54688    139028.26   -43130.714    3831.5005   -46962.215    274.78525   0.99149996 
   21600    276.95364   -603.82325    139239.87   -43186.271    3803.2914   -46989.563     277.4124   0.98999314 
   21700    273.95717   -506.68827    139193.46   -43179.767     3762.142   -46941.909    278.51472   0.99032323 
   21800    274.75948   -536.33386    139182.26   -43169.402    3773.1599   -46942.562    279.87013   0.99040292 
   21900    270.67909   -350.00261    139244.98   -43179.797    3717.1255   -46896.922    280.81664   0.98995679 
   22000    270.44321   -552.30603    139208.68   -43167.205    3713.8862   -46881.091    282.00939   0.99021497 
   22100    277.86171   -682.12196     139078.7   -43131.758    3815.7615    -46947.52     283.4259   0.99114041 
   22200    273.17529   -487.16336    138837.89   -43097.871    3751.4048   -46849.276    284.65316   0.99285949 
   22300     277.4676   -525.25903    139274.56   -43146.869    3810.3494   -46957.218    286.83979   0.98974656 
   22400    273.78892   -454.49165    139229.41   -43237.086    3759.8315   -46996.918    288.56686   0.99006755 
   22500    271.43461   -578.57043    139194.94   -43259.471    3727.5007   -46986.972      289.632   0.99031271 
   22600    275.51257   -630.25815    138971.77   -43234.237    3783.5017   -47017.739    290.79984     0.991903 
   22700     272.6658   -468.64379    139119.85   -43270.956    3744.4081   -47015.364    292.14521    0.9908472 
   22800     270.6869   -452.71702    139066.16   -43335.842    3717.2327   -47053.075    293.37785   0.99122973 
   22900    274.31877   -465.98476    139084.54   -43366.343    3767.1077   -47133.451     293.8935   0.99109879 
   23000    272.69935   -492.88006    138989.44   -43271.612    3744.8689   -47016.481    294.80631    0.9917769 
   23100    271.26356   -323.54265     138948.7   -43244.876    3725.1517   -46970.028    295.74195   0.99206771 
   23200    270.32578   -451.04491    139018.72    -43287.68    3712.2736   -46999.954    297.76529   0.99156799 
   23300     268.0391   -450.90844    139252.72   -43299.777    3680.8716   -46980.649     299.0343   0.98990182 
   23400    273.62742   -520.74873    138946.22   -43277.327    3757.6137   -47034.941    299.75304   0.99208543 
   23500    275.59243   -545.49927     139170.9   -43242.997    3784.5983   -47027.595    301.90036   0.99048377 
   23600    267.79838   -649.24598    139042.38   -43312.983    3677.5659   -46990.549    303.63491    0.9913993 
   23700    276.94703   -690.94789    139092.46   -43337.669    3803.2005   -47140.869    305.67909   0.99104231 
   23800    267.62684   -596.17458    139135.68   -43356.937    3675.2102   -47032.148    307.14966   0.99073448 
   23900    273.35109   -485.93592    139278.24   -43232.709     3753.819   -46986.528    309.11214   0.98972043 
   24000    277.38341   -390.72558    139216.92   -43189.676    3809.1932    -46998.87    311.02151   0.99015631 
   24100    271.23304   -584.96712    139212.36   -43218.662    3724.7326   -46943.395    312.78696   0.99018878 
   24200    275.74823   -446.01801    139349.68   -43119.283    3786.7379   -46906.021    313.77768   0.98921304 
   24300    272.25655   -494.10613    139224.79   -43171.273    3738.7881   -46910.061    315.31138    0.9901004 
   24400    276.86096   -605.20517    139345.59   -43125.897    3802.0186   -46927.915     317.3141   0.98924207 
   24500    270.84436    -615.0447    139065.65   -43194.008    3719.3951   -46913.403    318.46974   0.99123342 
   24600     275.5753   -452.36161     139178.8   -43190.307    3784.3632   -46974.671     320.1086   0.99042755 
   24700    277.55434   -578.02778    139281.03   -43138.511    3811.5405   -46950.051    322.02326   0.98970056 
   24800    272.47347   -776.52325     138961.3   -43142.067     3741.767   -46883.834    323.45467   0.99197773 
   24900    274.10998   -671.58653    138799.81   -43259.217    3764.2405   -47023.458    325.23139    0.9931319 
   25000     266.8753   -456.96188    138820.46     -43260.8    3664.8896    -46925.69    326.76196   0.99298419 
   25100    270.39511   -304.05868    138913.52   -43217.519    3713.2257   -46930.744    327.61526   0.99231891 
   25200     270.6975   -369.25569    139078.13    -43231.97    3717.3783   -46949.348    329.23005   0.99114448 
   25300    267.61587   -405.31789    139214.06   -43279.855    3675.0595   -46954.914    329.57455   0.99017667 
   25400    274.29737   -585.58995    138908.96   -43241.218    3766.8138   -47008.032    330.07881   0.99235148 
   25500    274.85398   -668.20626    138805.01   -43224.181    3774.4576   -46998.639    331.66806   0.99309471 
   25600    273.46767   -483.21438    138846.43   -43282.218    3755.4199   -47037.638    333.41755   0.99279841 
   25700    270.90669   -452.89342    138821.72   -43309.439    3720.2511    -47029.69    334.35623   0.99297517 
   25800    266.80567   -661.79765    138809.22   -43332.252    3663.9334   -46996.185    335.92344   0.99306455 
   25900    268.78249   -554.11145    138490.57   -43418.643    3691.0802   -47109.723     337.1781   0.99534944 
   26000    269.29452   -507.77513     138603.4   -43287.339    3698.1117    -46985.45    338.15619   0.99453922 
   26100    272.92067   -554.30131    138568.54   -43286.402    3747.9082   -47034.311    339.31203   0.99478943 
   26200     271.1372   -278.83564    138528.58   -43202.543    3723.4165    -46925.96    340.45931   0.99507638 
   26300    271.80059   -618.50784    138773.69    -43147.88    3732.5266   -46880.407    342.25492   0.99331882 
   26400    273.24443   -432.43409    138662.76   -43216.303    3752.3542   -46968.657      343.153   0.99411345 
   26500    275.35428   -273.42707    138825.69   -43105.709    3781.3279   -46887.037    344.40444   0.99294673 
   26600    275.96713   -545.51421    138980.83   -43180.312     3789.744   -46970.056    346.20065   0.99183833 
   26700    278.81783   -566.34299    139060.69   -43188.049    3828.8915   -47016.941    347.94484   0.99126874 
   26800     277.4864   -507.85223    138959.65   -43159.864    3810.6074   -46970.472    348.73287   0.99198952 
   26900    276.01018   -528.07496     138902.7   -43245.547    3790.3352   -47035.882    349.95765   0.99239624 
   27000    271.88037   -435.05982    139167.43   -43280.524    3733.6222   -47014.146    350.74615   0.99050848 
   27100    272.50206   -486.53303    139156.23    -43223.02    3742.1595   -46965.179    352.40367   0.99058822 
   27200    274.61186    -464.1522    139215.25   -43183.724    3771.1326   -46954.857    353.82477   0.99016825 
   27300    273.93985   -593.80983    139115.84   -43189.304    3761.9042   -46951.208    354.88476   0.99087576 
   27400     275.8798   -350.74615    139386.26   -43160.195    3788.5447    -46948.74    356.89786   0.98895343 
   27500    276.63541   -536.55024    139314.83   -43229.919    3798.9212    -47028.84    357.80484    0.9894605 
   27600    281.34952   -510.11383    139262.13   -43195.444    3863.6581   -47059.102    359.36006   0.98983489 
   27700    274.70771   -684.55033    139159.35   -43205.458    3772.4488   -46977.907    360.74208     0.990566 
   27800    270.81687   -626.18126    138992.52   -43185.394    3719.0175   -46904.412     361.5751    0.9917549 
   27900    276.31646   -539.31034     138915.1   -43166.516    3794.5411   -46961.057    363.03833   0.99230769 
   28000    278.22346   -455.09607    139055.43   -43082.989    3820.7293   -46903.718      365.053   0.99130627 
   28100    272.89584   -413.87845    139419.04   -43111.611    3747.5672   -46859.178    367.63212   0.98872086 
   28200     272.9606   -648.66294    139269.74   -43264.487    3748.4565   -47012.943    368.61421   0.98978083 
   28300    271.33436    -502.5639    138982.83   -43301.373    3726.1241   -47027.497    369.29923   0.99182407 
   28400     279.4779   -618.14035     138995.7   -43176.069     3837.956   -47014.025    370.84526   0.99173221 
   28500    273.76786   -633.99519    138982.07   -43198.949    3759.5423   -46958.491    372.50854   0.99182947 
   28600    271.59079   -602.87326    138854.57    -43267.92    3729.6455   -46997.566    374.20328   0.99274021 
   28700    267.96456   -403.32161    138803.37   -43334.729    3679.8479   -47014.577    375.43193   0.99310643 
   28800    269.09409   -559.18618    138571.81   -43259.875    3695.3594   -46955.234    376.72521   0.99476597 
   28900    273.74083   -515.85917    138650.12   -43222.058    3759.1712   -46981.229    378.30799   0.99420406 
   29000    275.31718   -503.19197     138441.8   -43194.647    3780.8184   -46975.465    378.46892   0.99570011 
   29100    274.43878   -342.10803    138510.53   -43196.481    3768.7558   -46965.237    380.56819   0.99520607 
   29200    270.53495   -701.53181     138532.8   -43257.305     3715.146   -46972.451    381.41442   0.99504608 
   29300    272.03938   -428.64132    138677.57   -43270.473    3735.8058   -47006.279    382.34871   0.99400732 
   29400     271.6852   -368.41502    139217.36   -43267.007    3730.9419   -46997.949    384.78447   0.99015325 
   29500    267.92147   -373.56141    139364.53   -43260.574    3679.2562   -46939.831    386.75506   0.98910764 
   29600    269.11212   -415.22074    139261.92   -43197.313     3695.607    -46892.92    388.04109   0.98983639 
   29700    271.28745   -311.99524     139163.4   -43166.958    3725.4799   -46892.438    388.58255   0.99053716 
   29800    276.43949   -624.28317    138809.56   -43125.408    3796.2307   -46921.639    389.84219   0.99306209 
   29900     274.3608   -410.03562    138938.05   -43079.146    3767.6849   -46846.831    391.70993   0.99214378 
   30000    271.43165   -587.76641    138787.06   -43102.577    3727.4601   -46830.037    393.01304   0.99322312 
   30100    278.10374   -429.34276    138675.71   -43084.387    3819.0852   -46903.472    394.86948    0.9940206 
   30200    270.79527   -558.43863     138914.9   -43154.553    3718.7209   -46873.274    397.61178   0.99230911 
   30300    271.69672   -482.69067    139035.31   -43095.311    3731.1002   -46826.411     400.2283   0.99144967 
   30400    271.59243   -572.51823    139249.21   -43208.343     3729.668   -46938.011    402.57876   0.98992671 
   30500    274.33475   -438.39296    138968.33    -43246.82    3767.3271   -47014.147    403.35635   0.99192757 
   30600    270.93309   -486.39861    139197.79   -43290.775    3720.6135   -47011.388    404.81843   0.99029244 
   30700    272.81087   -501.21195    139379.03   -43285.102    3746.4004   -47031.503    406.84206   0.98900471 
   30800    272.14557   -607.88733    138980.37    -43260.37    3737.2641   -46997.634    407.46177   0.99184165 
   30900     273.1047    -488.1609    139125.31     -43262.4    3750.4354   -47012.836    408.45187   0.99080835 
   31000    273.06806   -513.85721    138952.16    -43200.23    3749.9322   -46950.162    408.21233   0.99204299 
   31100    269.48081   -457.49036     139090.1   -43347.284      3700.67   -47047.954    409.48501   0.99105918 
   31200    272.34955   -357.74449     139046.1   -43357.982    3740.0652   -47098.047    410.15386   0.99137275 
   31300    271.53734   -444.39035    139398.28   -43286.833    3728.9114   -47015.745    412.15959   0.98886816 
   31400    272.92003   -441.09254    139332.69   -43334.558    3747.8993   -47082.457      413.374    0.9893336 
   31500    278.18176     -355.885    139387.29   -43232.749    3820.1566   -47052.906    415.68149    0.9889461 
   31600    274.30953   -509.18621     139541.4   -43272.064    3766.9809   -47039.045    417.29752   0.98785392 
   31700    272.95399   -491.61784    139506.42   -43283.442    3748.3657   -47031.807    418.83373   0.98810162 
   31800    267.78517   -398.81891    139088.76   -43254.898    3677.3845   -46932.282    419.01671   0.99106872 
   31900    276.93439   -397.31883    139178.03   -43236.384    3803.0269   -47039.411    420.73973   0.99043301 
   32000    276.75316    -491.3154    139448.33   -43181.429    3800.5382   -46981.967    421.50205   0.98851318 
   32100    271.45759   -590.31554     139470.3   -43224.089    3727.8163   -46951.905    423.24702   0.98835749 
   32200    274.66785   -413.23579     139314.2    -43233.35    3771.9014   -47005.252    424.67053   0.98946491 
   32300    269.60963   -481.68703    139174.52   -43266.394    3702.4391   -46968.833    426.13698   0.99045798 
   32400    272.08744   -379.19862    139318.21   -43147.977    3736.4658   -46884.443    427.31256   0.98943649 
   32500    270.51161   -629.39152     139147.6   -43246.405    3714.8256    -46961.23    428.40465   0.99064965 
   32600    274.11619   -391.76226    139193.76   -43236.683    3764.3258   -47001.009    429.49801   0.99032108 
   32700    276.07595   -376.01647    139357.63   -43194.674    3791.2383   -46985.912    431.53487    0.9891566 
   32800    274.97722   -478.23704    139261.75   -43289.371      3776.15   -47065.521    432.90598    0.9898376 
   32900    267.31457   -651.77108    139429.84   -43399.599    3670.9219   -47070.521    434.50338    0.9886443 
   33000    267.75846   -328.50336    139196.11    -43392.29    3677.0177   -47069.307    435.56982    0.9903044 
   33100    268.75308   -560.92578    139243.63   -43387.039    3690.6764   -47077.715    436.05912   0.98996639 
   33200    271.19584   -580.20555    139170.17   -43330.074    3724.2218   -47054.296    437.68289   0.99048898 
   33300    272.66325   -281.71388    138988.68   -43290.018    3744.3731   -47034.391    438.57458    0.9917823 
   33400    273.53204   -491.09722    139040.66   -43334.396    3756.3039     -47090.7    440.78279   0.99141152 
   33500    272.19598   -425.86105    139057.41   -43223.068    3737.9564   -46961.025    441.99702   0.99129216 
   33600    274.57293   -592.94008    139204.55   -43232.012    3770.5979    -47002.61     444.0034    0.9902443 
   33700    273.35244   -647.32149    139155.74   -43268.982    3753.8375   -47022.819    445.47359   0.99059168 
   33800    272.76857   -540.17846    139005.66   -43261.722    3745.8194   -47007.541    447.18877    0.9916612 
   33900    269.34379   -533.62171     139311.7   -43274.287    3698.7883   -46973.076    449.43635   0.98948268 
   34000    275.65713   -406.22057    139221.83   -43259.748    3785.4868   -47045.235    450.63426   0.99012144 
   34100     271.0191   -535.61002    139359.87   -43306.292    3721.7947   -47028.087    452.43822   0.98914072 
   34200    269.87929   -487.99558    139280.64   -43298.247    3706.1422   -47004.389    453.51366   0.98970337 
   34300    272.78977   -500.37247    139340.97   -43246.479    3746.1106    -46992.59    454.70546   0.98927487 
   34400    276.50612    -473.4249     139211.3   -43142.214    3797.1457   -46939.359    455.33547   0.99019632 
   34500    273.18314   -582.99308    139031.34   -43102.273    3751.5126   -46853.785    456.07354   0.99147799 
   34600    274.23712   -498.38211    138941.69   -43115.897    3765.9864   -46881.883    457.51701   0.99211774 
   34700    277.64825   -490.64215    138659.64   -43213.964      3812.83   -47026.794    458.96323   0.99413582 
   34800    271.28965   -486.36406    138715.84   -43265.014    3725.5101   -46990.524    460.48951   0.99373309 
   34900    269.95396   -515.43452    138772.19   -43220.246    3707.1676   -46927.413    461.49839   0.99332953 
   35000    269.45052   -338.34891    138980.59   -43240.198    3700.2541   -46940.453    463.18254   0.99184009 
   35100    270.60973   -446.94853    138778.45    -43215.29    3716.1729   -46931.463    464.39764   0.99328475 
   35200    279.62565   -442.60128    138771.32   -43049.573     3839.985   -46889.558    465.20754   0.99333579 
   35300      274.361   -682.17088    138878.94   -43122.587    3767.6876   -46890.275    466.54914   0.99256598 
   35400    274.22148   -447.95215    138734.62   -43240.395    3765.7716   -47006.166    467.43219   0.99359855 
   35500      267.165   -539.37781     138593.8   -43255.086    3668.8679   -46923.954    468.75202   0.99460809 
   35600    271.32321   -476.02924    138954.64   -43264.299    3725.9709    -46990.27    470.61055   0.99202529 
   35700    276.11579   -659.15419    139242.92   -43223.705    3791.7855   -47015.491    473.80992   0.98997148 
   35800    269.97966   -661.03404    138891.58   -43268.977    3707.5205   -46976.497    474.37501   0.99247566 
   35900    275.28412   -409.63973    138767.06   -43242.468    3780.3645   -47022.832    474.93696   0.99336625 
   36000     269.3773   -319.89963    139107.11   -43273.588    3699.2485   -46972.836    476.82736   0.99093795 
   36100    272.94682   -777.36325    138970.54   -43284.961    3748.2673   -47033.228    477.11341   0.99191178 
   36200     275.0267   -508.25309    139047.41   -43197.311    3776.8294    -46974.14     479.8133   0.99136346 
   36300    271.78781   -332.34847     139087.7   -43202.655     3732.351   -46935.006     480.0028   0.99107625 
   36400    276.39966   -585.74542    139064.46   -43117.172    3795.6837   -46912.856    481.05006    0.9912419 
   36500    278.29516   -628.26019    139111.19     -43073.8    3821.7138   -46895.514    483.15599   0.99090887 
   36600    272.53758   -553.82709    139014.38   -43202.569    3742.6473   -46945.217    484.79427   0.99159896 
   36700    269.69538   -468.73308    138888.37   -43183.062    3703.6167   -46886.678    485.91395   0.99249862 
   36800    272.56348   -606.76222    138938.18   -43229.849    3743.0031   -46972.852    487.37172   0.99214281 
   36900    270.15089   -455.57872    139036.28   -43302.265    3709.8719   -47012.137    488.80348   0.99144282 
   37000    276.08723   -529.89441    139105.79   -43241.467    3791.3933   -47032.861    490.33136   0.99094736 
   37100    270.58607   -403.60786     139098.8    -43271.18    3715.8481   -46987.028    491.00732   0.99099718 
   37200    273.70813   -458.17516       139070   -43257.186     3758.722   -47015.908    492.24353   0.99120242 
   37300    270.84388   -518.76528    139140.23   -43279.338    3719.3885   -46998.727    494.00214   0.99070213 
   37400     266.6795   -648.96713    139011.25   -43335.676    3662.2008   -46997.877    495.42909   0.99162128 
   37500    266.99676   -571.50308    138847.43   -43326.588    3666.5575   -46993.146    496.33168   0.99279128 
   37600    270.85876    -355.4544    139011.22   -43290.463    3719.5928   -47010.056    498.25835   0.99162153 
   37700    270.46417   -625.29639    138971.78   -43317.254    3714.1741   -47031.428    498.88822   0.99190293 
   37800    276.20358    -228.4881    138963.72   -43348.154     3792.991   -47141.145    500.06771   0.99196044 
   37900    268.72886   -589.52221    138727.06   -43423.066    3690.3437    -47113.41    501.33914   0.99365266 
   38000    270.43819   -318.93008    138884.38   -43364.739    3713.8174   -47078.557    503.34192   0.99252712 
   38100    272.01186   -424.00933    139098.82   -43365.076    3735.4279   -47100.504    505.06311   0.99099702 
   38200    269.92736    -475.2321    139084.62   -43355.761    3706.8022   -47062.564    506.09603    0.9910982 
   38300     267.0914   -526.53566    139246.62   -43404.357    3667.8572   -47072.214    507.37128   0.98994512 
   38400    268.44177   -475.80665    139035.14   -43448.727    3686.4013   -47135.128    508.57376   0.99145093 
   38500    264.78196   -571.99941    139161.18   -43486.052    3636.1426   -47122.194    510.49429   0.99055294 
   38600    270.25279   -448.88574    139298.46   -43341.773    3711.2713   -47053.045    512.26951   0.98957677 
   38700    268.17386   -515.94204    139075.48   -43358.865    3682.7222   -47041.587    513.37981   0.99116337 
   38800    268.65602   -622.44767    139078.38   -43235.749    3689.3434   -46925.092    515.11728   0.99114268 
   38900    272.84667   -403.74055    139281.81   -43186.465     3746.892   -46933.357    516.92533   0.98969502 
   39000    274.56661   -481.74206    139342.45   -43230.389    3770.5113     -47000.9    518.41931    0.9892643 
   39100    271.97784   -546.32909    139191.89   -43234.481    3734.9607   -46969.441    519.22317    0.9903344 
   39200    272.06517    -364.3036    138946.42   -43216.404      3736.16   -46952.564    518.96266   0.99208395 
   39300    275.47816   -534.36972    139093.99   -43192.806    3783.0292   -46975.835    520.13391    0.9910314 
   39400    275.00171    -145.5935     139167.9   -43196.193    3776.4862    -46972.68    521.98879   0.99050514 
   39500    275.80748   -617.87819    139085.27   -43144.029    3787.5515   -46931.581    523.50821   0.99109358 
   39600    282.50207   -603.72274    139121.03   -43129.092    3879.4856   -47008.578    525.38898   0.99083881 
   39700    269.72595   -726.77045    139080.31   -43242.872    3704.0364   -46946.909    526.98072    0.9911289 
   39800    270.95573   -614.25561    138813.03    -43224.43    3720.9244   -46945.355    526.40298    0.9930373 
   39900    268.04441   -631.12725    138728.64   -43399.599    3680.9445   -47080.543    527.09653   0.99364139 
   40000    269.94209   -413.53816    138787.38    -43286.61    3707.0046   -46993.615    529.21718   0.99322086 
   40100    270.96782    -485.8094    138980.11   -43245.009    3721.0906   -46966.099    530.26094   0.99184352 
   40200    279.37431   -532.42181    139150.42   -43174.432    3836.5333   -47010.965    530.80756   0.99062954 
   40300    273.70444   -641.97178    139392.65   -43155.125    3758.6714   -46913.797    533.10627    0.9889081 
   40400    269.36212   -446.93696    139252.31   -43157.849    3699.0401   -46856.889    534.88164   0.98990473 
   40500    279.82285   -647.55216    139427.32   -43175.523     3842.693   -47018.216    536.94284   0.98866215 
   40600     272.7869   -611.26994    138939.18   -43186.487    3746.0712   -46932.558    537.47758   0.99213568 
   40700    272.16456   -498.70113    138922.73   -43229.179    3737.5248   -46966.704    538.32923   0.99225317 
   40800    273.06364   -389.60683    139036.11     -43217.3    3749.8715   -46967.171    539.38237   0.99144397 
   40900    272.53641    -483.2775    139056.19   -43259.507    3742.6313   -47002.138    541.70315   0.99130081 
   41000    274.20998   -743.29033    138924.58   -43258.536    3765.6137   -47024.149    543.12958   0.99223992 
   41100    270.39531   -589.72315    138647.86   -43284.747    3713.2284   -46997.976     543.5453   0.99422031 
   41200    278.35744   -374.18709    138818.83   -43155.642    3822.5691   -46978.211    545.38266   0.99299578 
   41300    272.27255   -552.25205     138741.2    -43280.03    3739.0078   -47019.037    546.40382   0.99355143 
   41400    269.89979   -282.95238    138842.75   -43266.181    3706.4237   -46972.604     548.0464   0.99282477 
   41500    267.53956   -401.84421    138974.69   -43269.153    3674.0116   -46943.165    550.14576   0.99188216 
   41600     273.7524   -724.79638    138736.97   -43188.686      3759.33   -46948.016    551.49556   0.99358174 
   41700    266.85667   -703.34486    138641.57   -43326.302    3664.6338   -46990.936    552.32904   0.99426539 
   41800    275.42236    -455.2903    138524.45   -43226.095    3782.2628   -47008.357    553.14841   0.99510605 
   41900     274.3783   -537.82722    138686.32   -43191.947    3767.9253   -46959.872     555.1583   0.99394456 
   42000    275.58768   -436.61414    138632.05   -43250.432    3784.5332   -47034.966    556.37279   0.99433368 
   42100     271.5215   -410.45891    138592.99   -43279.577    3728.6939   -47008.271     557.9492   0.99461393 
   42200    276.32544   -602.76995    138769.64   -43251.362    3794.6645   -47046.027    560.05451   0.99334783 
   42300    263.55277    -607.0648    138637.52   -43330.779    3619.2626   -46950.041    562.93014   0.99429445 
   42400    272.07008   -444.97597    138610.13   -43308.123    3736.2274   -47044.351    564.05563    0.9944909 
   42500    271.78966   -478.59379    138588.07   -43312.344    3732.3764    -47044.72    565.30443   0.99464922 
   42600    269.24168   -479.29306    138481.55   -43346.769    3697.3861   -47044.155    566.52449   0.99541434 
   42700    268.10028   -681.46177    138509.81   -43344.206    3681.7118   -47025.917    568.22901   0.99521124 
   42800    270.51334   -627.51349     138408.4   -43389.992    3714.8493   -47104.841    569.06328   0.99594039 
   42900    269.94382   -735.96609    138550.88   -43370.531    3707.0283    -47077.56    570.85883   0.99491623 
   43000    271.56508   -414.38775     138564.6   -43314.616    3729.2925   -47043.909    572.44826    0.9948177 
   43100    273.83824   -341.78657    138777.41   -43302.969    3760.5089   -47063.478    574.08841   0.99329219 
   43200    270.18848    -490.3335    139046.71   -43306.333    3710.3882   -47016.721    576.38213   0.99136842 
   43300    274.23974   -605.56408    139115.29   -43276.435    3766.0225   -47042.458    578.70683   0.99087967 
   43400    270.85276   -524.05571     138992.4   -43379.804    3719.5104   -47099.314    579.59943   0.99175579 
   43500    273.48302   -442.63535    138809.43   -43344.854    3755.6307   -47100.485    580.62229   0.99306304 
   43600    271.78761   -416.83559    139039.46   -43336.982    3732.3483    -47069.33    583.53506   0.99142014 
   43700    267.12186    -552.4317    139163.35   -43331.257    3668.2755   -46999.533    585.37178   0.99053749 
   43800    276.90574   -510.84485     139022.2   -43227.395    3802.6335   -47030.029    585.56587   0.99154323 
   43900    267.90136   -587.20157    138974.31   -43338.385      3678.98   -47017.365    587.04308   0.99188485 
   44000    269.61818   -466.04801    138677.66   -43284.042    3702.5564   -46986.598    586.51058   0.99400664 
   44100    276.90886   -338.87625    138824.45   -43205.629    3802.6764   -47008.305    589.10589   0.99295563 
   44200    273.59493   -505.89686    139156.09   -43260.351    3757.1675   -47017.519    591.29284   0.99058917 
   44300    269.71486   -529.13716    138906.58    -43340.02    3703.8842   -47043.904    592.06583   0.99236854 
   44400    273.69376   -471.13174    138756.97   -43338.359    3758.5247   -47096.884    593.19035   0.99343852 
   44500    271.71487    -517.6926    138633.69   -43386.349    3731.3494   -47117.699    593.46194   0.99432189 
   44600    269.44596   -586.44515    138644.58   -43380.642    3700.1914   -47080.833    594.83123   0.99424383 
   44700      268.774   -539.74817    138699.57   -43429.075    3690.9636   -47120.038    595.75632   0.99384966 
   44800    269.37033   -453.68643    138714.65   -43369.244    3699.1529   -47068.397    596.47847   0.99374155 
   44900    268.70842   -383.17352    138602.31    -43341.89    3690.0631   -47031.953    597.04049   0.99454706 
   45000    269.56939   -482.06212    138797.17   -43336.973    3701.8864    -47038.86    599.51907   0.99315075 
   45100    273.87331    -366.5349    138972.79   -43296.305    3760.9904   -47057.296    601.53991   0.99189575 
   45200    277.06512   -500.59024    139219.28   -43348.648    3804.8222   -47153.471    603.43337   0.99013958 
   45300    272.16824   -404.13327    138852.63   -43363.204    3737.5754   -47100.779    603.62219    0.9927541 
   45400    273.20698   -681.48489    138925.89   -43389.111      3751.84   -47140.951    604.90045   0.99223059 
   45500    269.16558     -284.992    139037.61   -43288.111    3696.3411   -46984.452    606.29696   0.99143332 
   45600    270.28114   -530.61629    139433.29    -43315.61    3711.6606   -47027.271    608.69904   0.98861985 
   45700    271.33594   -480.10829    138882.95    -43279.44    3726.1458   -47005.585    608.66364   0.99253737 
   45800    271.34582   -591.26674    138957.01   -43206.453    3726.2815   -46932.734    608.80514   0.99200835 
   45900    274.63459   -396.91408    138905.76   -43215.484    3771.4448   -46986.929     609.7141   0.99237441 
   46000    268.98923   -531.17975     138714.1   -43274.416    3693.9193   -46968.336    609.46924   0.99374553 
   46100    273.33875   -552.43873    138800.43   -43259.543    3753.6495   -47013.193    611.49986   0.99312747 
   46200    275.01359   -290.97553    138936.74   -43231.327    3776.6493   -47007.976    613.35372   0.99215306 
   46300    272.47278   -296.34697    139135.82   -43225.944    3741.7575   -46967.701    614.37104   0.99073352 
   46400    276.66978    -542.5151    138909.08   -43225.251    3799.3932   -47024.644    614.87304   0.99235066 
   46500    273.63297   -445.84481    139133.17   -43220.636    3757.6899   -46978.326    615.94783   0.99075234 
   46600    273.09075   -548.70491    139343.13   -43188.014    3750.2439   -46938.258    617.63558    0.9892595 
   46700    274.76912   -659.84633    139243.43    -43147.92    3773.2922   -46921.212    618.40708   0.98996786 
   46800    282.20698   -633.59869    139019.71   -43090.304    3875.4333   -46965.737    619.26685   0.99156096 
   46900    275.81097   -731.64839    138950.95    -43109.53    3787.5995   -46897.129    620.41624   0.99205162 
   47000    275.07809    -527.6044     138968.9   -43166.252    3777.5351   -46943.787    622.45851   0.99192351 
   47100    276.80603   -659.25458    138803.76   -43125.365    3801.2642   -46926.629    623.27353   0.99310364 
   47200    272.52523   -405.62764    138840.96   -43200.253    3742.4778    -46942.73    623.78532   0.99283751 
   47300     275.1285   -536.20101    138807.95   -43197.782    3778.2274   -46976.009    624.90526   0.99307365 
   47400    273.26326   -466.17485       138809   -43147.258    3752.6128    -46899.87    627.52062   0.99306615 
   47500    271.99274   -525.76544    138595.33   -43230.989    3735.1653   -46966.154    628.95775   0.99459716 
   47600    273.68708   -329.97757    138690.64   -43193.135    3758.4329   -46951.568    629.80091   0.99391363 
   47700    275.16233   -674.20217    138694.15   -43235.552     3778.692   -47014.244    631.95955   0.99388848 
   47800    273.66076   -369.55587    138616.32    -43256.97    3758.0716   -47015.041    632.61719   0.99444655 
   47900    274.21756   -542.18787    138832.16   -43246.228    3765.7178   -47011.945     634.4755   0.99290048 
   48000    273.25735   -298.60374    138729.44   -43322.001    3752.5316   -47074.532      635.574   0.99363566 
   48100    269.80556    -674.6273    139252.68   -43353.248    3705.1296   -47058.377    638.37928   0.98990206 
   48200    274.33383   -301.89213    139174.84   -43290.317    3767.3146   -47057.632    639.52207   0.99045569 
   48300    272.81923   -517.03198    139064.19   -43302.783    3746.5152   -47049.298    641.17066   0.99124377 
   48400    271.96225   -549.39421    139094.77   -43275.079    3734.7465   -47009.826    643.45971    0.9910259 
   48500    271.02861   -624.65971    139029.18   -43338.253    3721.9253   -47060.179    644.93211   0.99149339 
   48600     268.3222   -292.72994    139148.27   -43335.781    3684.7593   -47020.541    646.33597   0.99064484 
   48700    273.80993   -752.86306    139236.07   -43400.039      3760.12   -47160.159    647.63557   0.99002019 
   48800    267.90017   -647.53688    139022.94   -43344.961    3678.9638   -47023.925    647.56416    0.9915379 
   48900    268.95835   -415.96571    139134.35   -43286.325    3693.4953   -46979.821    649.03956   0.99074398 
   49000    269.04365   -320.15352    139214.87   -43264.872    3694.6667   -46959.539    651.43108   0.99017093 
   49100    272.44912   -653.19677    139177.18   -43282.585    3741.4326   -47024.018    652.37651   0.99043909 
   49200    269.60955   -556.74988    139120.37   -43370.985    3702.4379   -47073.423     653.7639   0.99084352 
   49300    272.35009   -612.05753    139105.62   -43369.318    3740.0726    -47109.39    655.36963   0.99094855 
   49400    268.21976   -554.96337    139017.06   -43340.525    3683.3526   -47023.877    655.91855   0.99157987 
   49500    270.91857   -497.20893     139035.2   -43294.548    3720.4141   -47014.963    657.71368   0.99145051 
   49600    273.67619   -494.87775    138958.51   -43313.978    3758.2834   -47072.262    657.69308   0.99199768 
   49700    273.81373   -290.00252    139007.96   -43259.107    3760.1722   -47019.279    658.87393   0.99164474 
   49800    276.56544   -440.53889    139019.16   -43209.309    3797.9603    -47007.27    659.55246    0.9915649 
   49900    273.30386   -441.22583    139038.26   -43311.067    3753.1704   -47064.237    659.86146   0.99142867 
   50000    272.65514   -518.16504     139229.5   -43344.045    3744.2617   -47088.307    661.64136    0.9900669 
   50100    269.28513   -474.20476    139287.11   -43370.879    3697.9828   -47068.862    662.70799   0.98965736 
   50200    275.68661   -614.09156    139433.95   -43342.411    3785.8917   -47128.302    665.07883   0.98861514 
   50300    274.92872   -715.98297    139252.97   -43306.837     3775.484   -47082.321    666.16473   0.98989998 
   50400     267.8945   -459.91767    139013.57   -43333.438    3678.8859   -47012.324    666.21186   0.99160473 
   50500    273.65323   -572.89852    139256.25   -43338.167    3757.9681   -47096.135    667.67321   0.98987672 
   50600    274.79234   -441.38968    139226.78   -43359.164     3773.611   -47132.775    668.97011    0.9900862 
   50700    271.44664   -507.26615    138927.27   -43273.944    3727.6659    -47001.61    669.57151   0.99222075 
   50800    271.57962   -576.85096    139033.04   -43224.112     3729.492   -46953.604    672.29421   0.99146586 
   50900    271.57952   -503.21676    139239.11   -43213.698    3729.4907   -46943.189    674.29922   0.98999852 
   51000    271.92579   -394.73518    139208.04   -43274.489    3734.2459   -47008.735     674.9427   0.99021952 
   51100    270.15889   -511.45004    139207.74   -43295.696    3709.9818   -47005.678    675.57772   0.99022162 
   51200    274.32587    -480.3792    139155.44   -43210.177    3767.2053   -46977.382    677.04197   0.99059381 
   51300    272.29181   -604.62809    139290.37   -43118.958    3739.2723    -46858.23    679.13763   0.98963419 
   51400    271.04862   -365.18109    139323.69   -43321.986    3722.2001   -47044.187    681.68609   0.98939756 
   51500    273.57014    -522.9083    139196.14   -43380.427    3756.8271   -47137.254    682.88101   0.99030416 
   51600    274.62278   -518.06656    139104.43   -43359.643    3771.2825   -47130.926    684.64289   0.99095702 
   51700    272.82805   -587.07046    139033.46   -43323.178    3746.6363   -47069.814    685.65527   0.99146288 
   51800    260.73618   -533.14087    139178.45   -43399.909    3580.5835   -46980.493    688.23789   0.99043001 
   51900    268.57309   -631.52369    139011.29   -43376.684    3688.2046   -47064.889    689.81098     0.991621 
   52000     271.0394   -367.33366    139062.76   -43335.836    3722.0735   -47057.909     691.1791   0.99125402 
   52100    266.35306    -747.0353    139077.97   -43351.654    3657.7178   -47009.372     692.4877   0.99114556 
   52200    264.53117   -645.53676    138883.35   -43344.065    3632.6986   -46976.763    693.22237   0.99253453 
   52300    272.06655   -695.08254    138834.31   -43262.901    3736.1789    -46999.08    693.69852   0.99288509 
   52400     276.4989   -436.06286     138874.8   -43154.143    3797.0466    -46951.19    695.31635   0.99259562 
   52500    278.86707   -653.03907    138726.48   -43184.744    3829.5677   -47014.312    696.31854   0.99365684 
   52600    272.00731   -509.23403    138405.77   -43323.061    3735.3654   -47058.426    696.42135    0.9959593 
   52700    266.25196   -435.04494     138615.9   -43339.208    3656.3296   -46995.537    698.73342   0.99444949 
   52800    268.28073   -534.53569    138634.74   -43378.492    3684.1897   -47062.682    701.02245   0.99431442 
   52900    265.24452   -485.57371    138618.23   -43404.138    3642.4948   -47046.632     702.4338   0.99443284 
   53000    269.54237   -680.48324    138435.14   -43488.022    3701.5153   -47189.537    703.64824   0.99574805 
   53100    272.57202   -288.18037    138472.95   -43456.321    3743.1203   -47199.442    705.60561   0.99547616 
   53200    272.80798   -520.35905    138749.64   -43309.514    3746.3607   -47055.874    707.59002   0.99349099 
   53300     274.5694   -430.09102    138786.56   -43304.982    3770.5496   -47075.532    708.87078    0.9932267 
   53400    277.55402   -561.08046    138823.35   -43198.319     3811.536   -47009.855      709.738    0.9929635 
   53500    273.45711    -484.7315    139129.82   -43182.586    3755.2748   -46937.861    711.58801   0.99077625 
   53600    277.57163    -400.5501    138968.28   -43181.564     3811.778   -46993.342    712.99981   0.99192794 
   53700    272.59938   -384.86917    139326.65   -43230.204     3743.496     -46973.7    715.36834   0.98937654 
   53800    272.57411   -486.56724    139217.76   -43323.281     3743.149    -47066.43    716.56453   0.99015039 
   53900    266.01575   -512.78041    139260.04   -43352.896    3653.0858   -47005.982    718.14126   0.98984974 
   54000    268.32762   -624.72383    139182.32   -43260.602    3684.8338   -46945.436    717.84292   0.99040247 
   54100    273.91929   -598.14174    139038.93   -43253.043    3761.6218   -47014.665    719.15438    0.9914239 
   54200    269.66638    -474.6107    138933.65   -43273.192    3703.2184   -46976.411    719.79013    0.9921752 
   54300    274.63751   -290.85731    139164.09   -43227.596    3771.4848   -46999.081    721.97439   0.99053223 
   54400    269.51054   -328.33924    139428.63   -43324.569    3701.0783   -47025.648     723.5163    0.9886529 
   54500    272.16131   -585.99885    139308.18   -43319.618    3737.4802   -47057.098    724.78216   0.98950767 
   54600    271.48979   -694.58744    139036.23    -43335.73    3728.2586   -47063.989    725.30859   0.99144313 
   54700     270.7862   -567.39806    138913.88   -43348.299    3718.5963   -47066.896    726.35471   0.99231634 
   54800    271.85858    -292.6322    138975.32   -43319.936    3733.3229   -47053.259    727.79723   0.99187764 
   54900    278.52245   -593.58202    139275.68   -43210.876    3824.8352   -47035.711    729.20107   0.98973859 
   55000    276.23452   -380.77707    139587.39   -43196.595     3793.416   -46990.011    731.83839    0.9875284 
   55100    272.71528   -531.75662    139524.43   -43180.333    3745.0877   -46925.421    733.09443   0.98797408 
   55200    274.51571   -640.55671    139324.89   -43228.519    3769.8122   -46998.331    733.19465   0.98938904 
   55300    269.14828   -536.41115    139387.34   -43203.852    3696.1036   -46899.956    735.67752   0.98894572 
   55400    276.46921   -822.28063    139158.59   -43151.838    3796.6389   -46948.477    736.05126   0.99057136 
   55500    272.32039   -491.17934       139014   -43146.182    3739.6648   -46885.847    736.07467   0.99160169 
   55600     278.1648   -513.91442    139030.47   -43097.426    3819.9237    -46917.35    737.48479   0.99148423 
   55700    274.61124   -538.16243    138822.62   -43123.355     3771.124   -46894.479    738.57396   0.99296868 
   55800    277.25382   -521.20093    138795.28   -43212.295    3807.4136   -47019.709    739.45146   0.99316428 
   55900    274.75486   -700.90985    138793.33   -43313.687    3773.0964   -47086.783    741.66094   0.99317824 
   56000     267.4593   -409.12645    138910.22   -43407.907    3672.9094   -47080.816    743.40101   0.99234254 
   56100    271.26006   -706.93364    139107.59   -43314.578    3725.1036   -47039.682    746.56281   0.99093456 
   56200    273.04455   -249.06477    139135.88   -43332.369    3749.6093   -47081.979    748.99622    0.9907331 
   56300    274.20692   -578.52438     139053.4    -43246.88    3765.5717   -47012.452    750.69827   0.99132074 
   56400    278.23145    -612.1841     138827.4   -43181.199     3820.839   -47002.038    751.89972   0.99293449 
   56500    268.00373   -268.61137    138808.96   -43200.633    3680.3858   -46881.019    753.16736    0.9930664 
   56600    274.66695   -341.12815    139156.26   -43138.534    3771.8892   -46910.423    755.67441   0.99058798 
   56700    272.65222   -508.98947     139194.4   -43157.109    3744.2217   -46901.331    757.52471   0.99031655 
   56800    274.73291   -325.17043    139039.04   -43120.938    3772.7949   -46893.733    758.30715    0.9914231 
   56900     271.8729   -427.05429    138873.71   -43226.481    3733.5196   -46960.001    758.70747   0.99260341 
   57000    269.03677   -652.60217    138867.93    -43284.58    3694.5721   -46979.152    759.32235   0.99264469 
   57100    271.39074   -403.22997    138903.83   -43327.052    3726.8983    -47053.95    760.26593   0.99238813 
   57200    266.85891   -534.28964    139095.67   -43411.984    3664.6645   -47076.648    762.39379   0.99101947 
   57300    272.96809   -623.06776    139038.84   -43369.993    3748.5594   -47118.553    764.89969   0.99142452 
   57400    267.29769   -565.65671    139350.28   -43377.375    3670.6901   -47048.065    769.63637   0.98920874 
   57500      271.742   -552.48918    138974.47    -43349.77     3731.722   -47081.492    768.55378   0.99188374 
   57600    270.57058   -415.82378    139127.59   -43358.413    3715.6354   -47074.048    770.82735    0.9907921 
   57700    268.20339   -526.88534     138982.9   -43360.676    3683.1277   -47043.804    772.00159   0.99182356 
   57800    274.34676   -659.96333    139276.47   -43223.053    3767.4922   -46990.545    774.73613   0.98973298 
   57900       269.98   -584.56939    139034.41   -43308.424    3707.5252   -47015.949    774.61272   0.99145615 
   58000    268.98726    -346.1186    138970.94   -43357.208    3693.8923   -47051.101    775.26746   0.99190896 
   58100    273.96743   -547.61583    139059.83    -43247.62    3762.2829   -47009.903    777.00515    0.9912749 
   58200    270.87013   -702.26247    138886.82   -43318.788    3719.7489   -47038.537    777.39837   0.99250971 
   58300    272.48361    -440.5278    138922.97   -43367.333    3741.9062   -47109.239    779.35979   0.99225142 
   58400    271.79232   -666.19143    138990.33   -43287.571     3732.413   -47019.984    781.76536   0.99177059 
   58500    272.63946   -459.51455    138893.44   -43235.933    3744.0465   -46979.979    782.20208   0.99246237 
   58600    270.43506   -521.46791    138730.94   -43322.063    3713.7744   -47035.838    784.60088   0.99362492 
   58700    269.99564   -428.78021    138879.82   -43299.715      3707.74   -47007.455    786.37659   0.99255971 
   58800    273.00036   -302.24003    139025.37   -43267.027    3749.0025    -47016.03    788.56653   0.99152057 
   58900    276.47123   -623.39811    139078.38   -43238.706    3796.6665   -47035.373    792.04863   0.99114265 
   59000    274.15428   -515.77158    138788.05   -43295.987    3764.8488   -47060.836    792.87211     0.993216 
   59100     274.5559   -393.64983     138903.4   -43271.602    3770.3642   -47041.966    794.79217   0.99239127 
   59200    268.92465   -565.74553    139085.74   -43283.679    3693.0324   -46976.712    797.09701   0.99109023 
   59300    272.51407   -346.35918    139158.13   -43302.718    3742.3245   -47045.043    799.00792   0.99057467 
   59400     273.9563   -547.34187     139195.3   -43245.614    3762.1301   -47007.745    800.27029   0.99031015 
   59500    276.29785   -585.11381    138942.83   -43224.332    3794.2856   -47018.617    800.65196    0.9921096 
   59600    274.26592   -577.28013    138945.05   -43142.908     3766.382    -46909.29    802.04469   0.99209373 
   59700    271.73837   -325.45684    139073.68   -43197.502    3731.6721   -46929.174    804.83731   0.99117616 
   59800    273.45936   -366.97467    139027.76   -43162.443    3755.3058   -46917.749    806.45898   0.99150354 
   59900    270.65721   -412.05283    138954.09   -43239.997     3716.825   -46956.822    806.69266   0.99202919 
   60000    277.77773   -500.34724    138815.27   -43214.106    3814.6082   -47028.714    807.52713   0.99302128 
   60100    272.38353   -548.25505    138921.26   -43219.881    3740.5319   -46960.412     809.6791   0.99226365 
   60200     271.7382   -515.06714    138677.51   -43344.599    3731.6699   -47076.269    810.32438   0.99400776 
   60300     268.3384   -432.52624    138975.87    -43307.54    3684.9817   -46992.522     811.9193   0.99187376 
   60400    273.58782   -563.59424    139072.02   -43297.641    3757.0699   -47054.711    813.62725   0.99118801 
   60500    274.65572   -394.57732     139145.7   -43342.665    3771.7349     -47114.4    815.14692   0.99066316 
   60600     269.6953   -543.63917    139028.82   -43299.063    3703.6154   -47002.679     816.0043   0.99149596 
   60700    269.42531    -517.4685    139023.67    -43309.44    3699.9078   -47009.347    817.30636   0.99153271 
   60800    270.76315   -316.12214    139107.47   -43276.122    3718.2798   -46994.401    818.08236   0.99093538 
   60900    270.14128   -495.13725    138876.09   -43250.664    3709.7399   -46960.404    818.98284    0.9925864 
   61000     279.9112   -301.16884    138913.15   -43193.988    3843.9062   -47037.894    820.43516   0.99232158 
   61100    276.36902   -522.44694    139098.12   -43165.354     3795.263   -46960.617    821.58426   0.99100198 
   61200    270.67191   -598.56941    138865.95   -43223.874    3717.0269   -46940.901    823.00655    0.9926589 
   61300    279.64228   -367.70326    138940.56   -43161.869    3840.2133   -47002.082    824.82996   0.99212582 
   61400    275.52259    -441.7258     139070.2   -43067.976    3783.6393   -46851.616    826.62204   0.99120097 
   61500    273.49449   -406.93126    139004.06    -43089.77    3755.7882   -46845.558     827.8887   0.99167261 
   61600    269.53435   -539.19451    138633.76   -43152.604    3701.4052    -46854.01    827.21096   0.99432142 
   61700    274.43372   -501.81785    138751.16   -43179.753    3768.6863   -46948.439    828.84254   0.99348009 
   61800    275.32422   -532.06008    138750.12    -43215.97    3780.9151   -46996.885    830.21845   0.99348754 
   61900    278.39636   -672.25902    138888.05   -43142.811    3823.1036   -46965.915    831.22647    0.9925009 
   62000    273.20796   -465.22518    139018.51   -43207.963    3751.8534   -46959.816    832.93773   0.99156952 
   62100    271.91054    -804.5144    139053.89   -43234.176    3734.0364   -46968.212    834.48246   0.99131721 
   62200    273.88931   -551.07094    138881.33   -43263.588    3761.2101   -47024.798    834.98858   0.99254891 
   62300    269.20265   -317.94203    138892.71    -43277.87    3696.8502    -46974.72    836.31059   0.99246764 
   62400    272.93386   -321.27523    138933.46   -43348.591    3748.0894   -47096.681    837.97914   0.99217649 
   62500    274.47673   -399.53306    138877.52   -43314.101    3769.2769   -47083.378    839.68236   0.99257618 
   62600    270.56992   -449.45899    139074.75   -43286.473    3715.6262   -47002.099    840.90961   0.99116851 
   62700    272.06582   -352.39568    139288.13   -43272.382    3736.1689   -47008.551    843.86854   0.98965011 
   62800    269.63157   -544.36565    139287.57   -43288.454    3702.7403   -46991.194    845.23105   0.98965412 
   62900    273.19707   -625.61178     139038.7   -43237.721    3751.7038   -46989.425    845.82095   0.99142556 
   63000    269.06174   -297.30844    139335.23   -43247.681     3694.915   -46942.596    846.98309    0.9893156 
   63100    276.99778   -415.46585    139407.14    -43262.67    3803.8974   -47066.567    849.46601    0.9888053 
   63200    279.20834   -604.98468    139596.26   -43251.624    3834.2542   -47085.878    850.71243   0.98746572 
   63300    273.77858   -565.58395    139370.44   -43356.137    3759.6895   -47115.826    851.37316   0.98906569 
   63400    262.78055   -602.83975    139176.02   -43385.164     3608.658   -46993.822    851.06682   0.99044735 
   63500    278.85986   -568.42267    138947.35   -43244.459    3829.4687   -47073.928    850.96368   0.99207733 
   63600    273.72269    -477.1826    138898.41   -43254.961     3758.922   -47013.883     851.4869   0.99242687 
   63700     267.8973   -501.99795    138805.45   -43296.209    3678.9242   -46975.134    851.45844   0.99309156 
   63800    272.84297   -508.54724    139119.49   -43280.759    3746.8412     -47027.6    854.28889   0.99084975 
   63900    266.14068    -661.1564    139060.31   -43220.439    3654.8013    -46875.24    855.57509   0.99127149 
   64000    272.70858   -694.40104     138924.4   -43291.492    3744.9957   -47036.487     855.6525   0.99224119 
   64100    269.77893    -472.8097    138886.82   -43315.327     3704.764   -47020.091    856.96667   0.99250974 
   64200    268.46308    -451.2683    139045.92   -43296.393    3686.6939   -46983.087     859.0902   0.99137402 
   64300    268.27893   -419.18104    139236.57   -43346.171     3684.165   -47030.336    861.34466   0.99001664 
   64400    269.93072   -635.52701    139429.31   -43333.841    3706.8484   -47040.689    863.59843   0.98864809 
   64500    271.41478   -613.29283    139219.26   -43387.096    3727.2284   -47114.324    864.63245   0.99013968 
   64600    272.43306   -467.20179    139317.63   -43313.887    3741.2121   -47055.099    867.78067    0.9894406 
   64700    277.78624   -487.64919    139209.37   -43210.928    3814.7251   -47025.653    868.72664   0.99021005 
   64800    274.42371   -704.68554    139191.75   -43166.175    3768.5488   -46934.724    869.71034   0.99033538 
   64900    271.62399   -502.00033    138906.27   -43177.741    3730.1014   -46907.842     869.3045   0.99237072 
   65000    269.22863   -381.84824    138776.53   -43190.832    3697.2069   -46888.039    869.61313   0.99329845 
   65100    268.06151    -567.5536    138957.02   -43268.276    3681.1794   -46949.456    872.69934   0.99200827 
   65200    272.07198   -562.89811    139091.08   -43251.863    3736.2535   -46988.117    874.79832    0.9910522 
   65300    272.87431   -421.96919    139010.12   -43300.084    3747.2716   -47047.356    876.25838   0.99162936 
   65400    267.56739   -417.45592    139143.86   -43354.778    3674.3938   -47029.171    877.42786   0.99067624 
   65500    271.44871    -483.2622    139194.07   -43292.612    3727.6944   -47020.306    877.74191   0.99031891 
   65600    270.98086   -602.36721     138909.4   -43214.981    3721.2695    -46936.25    877.68585   0.99234839 
   65700    274.10382   -465.71044    139055.81    -43203.94    3764.1559   -46968.096    879.77024   0.99130353 
   65800    270.07594   -416.15735    139007.77   -43268.945    3708.8427   -46977.787    881.05193   0.99164615 
   65900    272.21059    -641.3984    139297.66   -43236.863     3738.157    -46975.02    882.99376   0.98958243 
   66000    270.69058   -539.93823    139395.44   -43240.886    3717.2832   -46958.169    886.41217   0.98888827 
   66100    276.09629   -467.79155    139178.23   -43263.092    3791.5176   -47054.609    887.57858   0.99043162 
   66200      279.169   -565.04434    139032.31   -43204.579    3833.7139   -47038.293    888.26176   0.99147111 
   66300    277.76951   -380.06374    139062.02   -43178.097    3814.4953   -46992.592    890.16033   0.99125929 
[...]
   84600     268.1082   -601.59466     139210.3   -43325.428    3681.8205   -47007.249    1139.4525    0.9902034 
   84700    274.55858   -566.38845     139264.3   -43362.865     3770.401   -47133.266    1142.7032   0.98981947 
   84800    267.55129   -402.59689    139072.09    -43317.63    3674.1726   -46991.802    1141.7475   0.99118752 
   84900     268.6357    -382.2054    139197.36   -43263.182    3689.0644   -46952.247    1142.9327   0.99029552 
   85000    273.52339   -424.79768    139330.87   -43267.601     3756.185   -47023.786    1145.0716   0.98934654 
   85100      271.239   -497.15642    139685.08    -43238.26    3724.8144   -46963.075    1149.1846   0.98683782 
   85200     274.6661   -612.47812     139536.3   -43241.314    3771.8775   -47013.192      1149.14      0.98789 
   85300    269.79796   -731.35248     139481.2   -43241.969    3705.0253   -46946.994    1150.1638   0.98828024 
   85400    273.22307   -800.17679     138983.6   -43223.732    3752.0609   -46975.793    1149.6656   0.99181859 
   85500    270.52023   -530.31224    138994.74   -43268.588    3714.9439   -46983.532    1150.3421   0.99173912 
   85600    271.91624   -500.34153    138771.45   -43244.527    3734.1147   -46978.642    1150.9226   0.99333486 
   85700    274.03012   -488.40873    138781.77   -43283.928    3763.1439   -47047.072    1151.6542   0.99326097 
   85800    272.17605   -585.33116    138731.93   -43294.401    3737.6827   -47032.084    1153.5732   0.99361783 
   85900    271.21245   -456.36061    138991.45   -43333.326    3724.4499   -47057.776    1156.8654   0.99176257 
   86000     272.7934   -583.59604    138793.68   -43297.979    3746.1604   -47044.139     1157.148   0.99317574 
   86100    270.60018   -407.11516    138601.68    -43313.12    3716.0419   -47029.162    1157.8312   0.99455157 
   86200    275.23252   -413.73874    138896.72   -43277.793    3779.6559   -47057.449    1161.2257   0.99243894 
   86300    273.52911   -636.82398    139006.12   -43270.695    3756.2637   -47026.959    1161.6413   0.99165787 
   86400    272.29161   -501.93173    138921.99   -43280.057    3739.2695   -47019.326    1162.3013   0.99225843 
   86500    273.22935   -309.58737    139132.81   -43282.015    3752.1471   -47034.162    1165.0678   0.99075489 
   86600    272.96804   -543.27229    139125.55   -43266.398    3748.5587   -47014.957    1167.2544    0.9908066 
   86700    267.88913   -459.48556    138963.69   -43251.724    3678.8121   -46930.536    1166.2847   0.99196069 
   86800    270.70211   -469.72307    138654.28   -43201.563    3717.4416   -46919.005     1167.052   0.99417428 
   86900    274.58367   -460.82431    138636.34   -43186.659    3770.7455   -46957.404    1168.0041   0.99430294 
   87000    271.78999   -287.94207    138873.32   -43271.995     3732.381   -47004.377    1170.7875   0.99260622 
   87100    273.54095   -502.71792    138821.14   -43304.928    3756.4263   -47061.355    1170.7523    0.9929793 
   87200    269.44529   -522.25026    138641.14   -43312.825    3700.1822   -47013.008    1170.4832   0.99426852 
   87300    274.87538    -550.2332    138763.63   -43178.437    3774.7515   -46953.188     1172.525   0.99339083 
   87400    275.47942   -524.01571    138515.34   -43218.885    3783.0465   -47001.932    1173.6175   0.99517146 
   87500     272.0599   -441.55447    138557.77   -43290.218    3736.0875   -47026.305    1175.8812   0.99486677 
   87600    274.27258   -465.05962    138980.06   -43288.971    3766.4735   -47055.444    1180.9324   0.99184384 
   87700    270.99762   -322.20896    139139.49   -43293.969    3721.4997   -47015.469    1181.7642   0.99070738 
   87800    277.71803    -532.7649    139343.22    -43166.41    3813.7884   -46980.198    1183.6925    0.9892589 
   87900    274.84268   -563.17709    139659.79   -43190.104    3774.3024   -46964.406    1186.3673   0.98701649 
   88000    271.19136   -536.36553     139334.8   -43174.288    3724.1603   -46898.448    1185.9693   0.98931863 
   88100    278.07177   -691.55893     139057.4   -43221.765    3818.6461   -47040.411    1185.7102   0.99129219 
   88200    275.31321   -490.48467     138906.1   -43171.801     3780.764   -46952.565    1185.2856   0.99237193 
   88300    278.20619   -567.28534    138794.63   -43203.775    3820.4921   -47024.267    1185.4926   0.99316894 
   88400    273.70593   -461.95793    138963.11    -43268.21    3758.6919   -47026.902    1187.6942   0.99196483 
   88500    277.22588   -605.12822    138986.27   -43319.758    3807.0299   -47126.788    1188.0506   0.99179953 
   88600    270.77924   -406.84084    138791.08   -43307.273    3718.5008   -47025.773    1187.7452   0.99319437 
   88700    273.29836   -530.92804    138804.38    -43320.57    3753.0949   -47073.665    1188.9908   0.99309922 
   88800    277.52792    -451.5016    138671.83   -43311.663    3811.1777   -47122.841    1189.5551   0.99404843 
   88900    274.81239   -584.93214    138492.34   -43351.342    3773.8864   -47125.229     1190.161   0.99533679 
   89000    273.47273   -325.45793    138952.43   -43294.668    3755.4894   -47050.157    1194.1533   0.99204107 
   89100    273.78156   -441.26819    139093.24   -43264.575    3759.7305   -47024.306    1196.6856   0.99103678 
   89200    271.20356    -629.7939    139065.27   -43360.206    3724.3278   -47084.533    1197.5232   0.99123609 
   89300    272.28579   -471.30336    139058.77   -43329.337    3739.1897   -47068.527    1198.7364   0.99128247 
   89400    275.00227   -434.23873    139227.61   -43264.884     3776.494   -47041.378    1201.8967   0.99008033 
   89500    271.75884   -599.27228    139232.12   -43355.893    3731.9532   -47087.847    1202.9997   0.99004823 
   89600    275.37879    -538.6576    139237.85   -43321.501    3781.6646   -47103.166    1203.9421   0.99000749 
   89700    270.25266    -384.8763    139184.69   -43282.317    3711.2695   -46993.586    1204.8555   0.99038564 
   89800    272.65751   -417.22366    139276.35   -43338.193    3744.2943   -47082.488    1205.1401   0.98973387 
   89900    276.51064   -625.47294    139386.98   -43337.316    3797.2077   -47134.524    1207.1976   0.98894827 
   90000      274.884   -691.16991    139201.96   -43335.522    3774.8698   -47110.391    1207.3648   0.99026278 
   90100    276.03971   -614.64476    139041.16   -43299.941    3790.7407   -47090.681    1205.9386   0.99140801 
   90200    264.75053   -333.31501     139110.9   -43427.026     3635.711   -47062.737    1208.6723   0.99091095 
   90300    267.69137   -348.52777    139139.29   -43445.731    3676.0964   -47121.828    1210.2799   0.99070879 
   90400    269.25489   -526.91527    139239.72    -43355.52    3697.5675   -47053.087    1210.9162   0.98999421 
   90500    274.41314   -559.02789       139069   -43281.117    3768.4037    -47049.52    1211.1345   0.99120953 
   90600    276.07499   -659.74471    139015.54   -43304.892    3791.2252   -47096.118    1212.3779   0.99159071 
   90700    273.06364   -535.91127    138920.57   -43319.218    3749.8715    -47069.09    1213.1798   0.99226861 
   90800    272.83673   -510.33472    138987.87   -43268.475    3746.7555   -47015.231    1216.2218   0.99178814 
   90900    268.35395   -775.89587    138846.64    -43352.47    3685.1952   -47037.665    1215.2392    0.9927969 
   91000    271.28787   -476.39197    138910.87   -43304.046    3725.4855   -47029.532    1218.1161   0.99233785 
   91100    269.46919   -283.37576    138984.37   -43234.566    3700.5104   -46935.077    1221.0455   0.99181309 
   91200    272.68758   -385.19325    139183.44   -43280.439    3744.7072   -47025.146    1223.5691   0.99039454 
   91300     270.7554   -609.53376    139098.73   -43310.919    3718.1734   -47029.092    1223.1767    0.9909977 
   91400    273.86614   -382.27835    139167.82   -43354.708     3760.892     -47115.6    1224.8821   0.99050569 
   91500    271.19933    -438.3645    139585.65   -43376.149    3724.2697   -47100.419    1228.0552   0.98754077 
   91600    271.10149   -483.91329    139618.19   -43354.553    3722.9262   -47077.479    1229.2272   0.98731057 
   91700    268.58579   -633.38758    139547.36   -43398.841    3688.3791    -47087.22    1230.1997    0.9878117 
   91800    263.72991   -349.48145    139515.65    -43463.69    3621.6953   -47085.386    1230.6706   0.98803622 
   91900    269.72634   -364.32463     139403.9   -43373.585    3704.0417   -47077.627    1231.2899   0.98882829 
   92000    275.47565   -459.25692    139375.17   -43314.832    3782.9947   -47097.827    1232.2055   0.98903212 
   92100    273.84685   -583.83131    139471.37   -43279.825     3760.627   -47040.452    1235.0218    0.9883499 
   92200     279.2432   -493.63561    139262.51   -43210.853    3834.7329   -47045.586    1234.8364    0.9898322 
   92300    274.93729   -769.40192    139172.74   -43227.966    3775.6016   -47003.568    1235.1673   0.99047066 
   92400    270.15322   -568.17932    139014.33   -43281.597    3709.9039     -46991.5      1235.27    0.9915993 
   92500    272.09439   -351.83059    139019.71   -43211.129    3736.5612    -46947.69    1236.9544   0.99156096 
   92600    273.34276   -622.59618    139113.69   -43227.843    3753.7045   -46981.548    1238.4632    0.9908911 
   92700    276.34809   -394.07795    139194.26   -43247.115    3794.9755    -47042.09    1239.1021   0.99031757 
   92800    271.40283   -673.04246    139205.65   -43270.132    3727.0643   -46997.197    1241.9132    0.9902365 
   92900    272.08626   -492.34047     138924.5   -43258.908    3736.4496   -46995.357     1242.229   0.99224052 
   93000    276.11436   -473.23652    138954.77   -43234.592    3791.7658   -47026.358    1242.7633   0.99202439 
   93100    274.81628   -537.51864    139101.23   -43237.788    3773.9398   -47011.728    1245.4257   0.99097983 
   93200    273.08327   -532.89965    139094.59   -43186.495    3750.1411   -46936.636    1247.1981   0.99102713 
   93300    274.81101   -683.86792    139064.17   -43075.172    3773.8675   -46849.039    1249.3809   0.99124393 
   93400    274.56487   -515.18803    139107.52   -43190.608    3770.4873   -46961.095    1250.1538   0.99093508 
   93500    271.15291   -569.38625    138983.64   -43236.313    3723.6322   -46959.945    1251.4603   0.99181826 
   93600    270.34465   -581.26437    139028.24   -43251.825    3712.5327   -46964.358    1253.5075   0.99150013 
   93700    270.06199   -305.31868    139110.75   -43238.182     3708.651   -46946.833    1254.3266   0.99091206 
   93800    276.15312   -478.34425    139059.53    -43175.98    3792.2981   -46968.278    1255.3469   0.99127705 
   93900    270.58847   -523.87587    139064.16   -43292.238    3715.8811    -47008.12    1256.4891   0.99124401 
   94000      272.219    -464.0439    139099.23   -43312.278    3738.2725   -47050.551    1258.4595   0.99099409 
   94100     269.0138   -516.04101    139134.17   -43348.469    3694.2567   -47042.726    1259.6036   0.99074526 
   94200    269.09101   -613.99298    138846.24   -43345.284     3695.317   -47040.601    1258.5777   0.99279977 
   94300     269.2513   -339.10522    138925.87   -43316.403    3697.5183   -47013.921    1260.5895   0.99223071 
   94400    270.48592    -416.9073    139228.48   -43284.044    3714.4727   -46998.517    1262.9292   0.99007413 
   94500    269.77241   -622.95097    139042.98   -43276.498    3704.6745   -46981.172     1263.182   0.99139499 
   94600      268.225    -296.1676    139301.25   -43335.048    3683.4244   -47018.472    1265.7939   0.98955695 
   94700    271.74607   -537.89827    139259.87   -43250.545    3731.7779   -46982.323    1266.5333   0.98985099 
   94800    274.44712    -415.4463    139163.47    -43227.85    3768.8702    -46996.72    1268.5402   0.99053665 
   94900     272.8423   -484.40745    139323.19   -43208.598     3746.832    -46955.43    1271.1819   0.98940108 
   95000    268.91907   -588.35958    139248.46   -43239.153    3692.9558   -46932.109    1272.4028   0.98993207 
   95100    274.04613   -361.89556     139395.4   -43205.427    3763.3636    -46968.79    1275.2111   0.98888858 
   95200    274.19103   -902.17868    139315.64    -43205.41    3765.3535   -46970.764    1275.6776   0.98945472 
   95300    271.38367    -355.5352    139089.19    -43249.11    3726.8012   -46975.911    1275.8709   0.99106565 
   95400    272.39302   -434.33573    138900.98   -43274.642    3740.6622   -47015.304    1274.5577   0.99240851 
   95500    272.72672   -591.95006    138759.01   -43250.316    3745.2447   -46995.561    1275.5228   0.99342387 
   95600    271.18428   -519.82124    138917.47   -43338.686    3724.0631   -47062.749    1278.2552   0.99229072 
   95700    272.48913   -473.91638    139200.73   -43273.744     3741.982   -47015.726    1280.9879   0.99027149 
   95800    277.48696   -489.40118    139216.52   -43249.512    3810.6151   -47060.127    1281.4138   0.99015917 
   95900    274.89675   -474.95387    139265.34   -43272.544    3775.0449   -47047.589     1284.506   0.98981211 
   96000    268.39184   -745.27898    139245.88   -43239.064    3685.7157   -46924.779    1285.1654    0.9899504 
   96100    273.53393   -549.35926     139029.6    -43218.17    3756.3298     -46974.5     1284.845   0.99149043 
   96200    272.91086   -586.56203    138990.94   -43233.657    3747.7734    -46981.43    1285.1944   0.99176617 
   96300    275.22823   -575.38421     138914.3   -43173.657     3779.597   -46953.254    1286.3655   0.99231337 
   96400    271.42856   -583.79536     138853.9   -43247.953    3727.4177   -46975.371     1286.855   0.99274501 
   96500     274.1941   -328.39747    139018.57   -43215.784    3765.3956    -46981.18    1290.2853    0.9915691 
   96600    272.58277    -396.4587    139222.82   -43141.874     3743.268   -46885.142    1293.5239   0.99011438 
   96700     272.9178   -593.48523    139175.55   -43102.551    3747.8688   -46850.419    1294.9709   0.99045065 
   96800    277.51457   -274.37883    139432.97   -43104.339    3810.9943   -46915.333    1297.4057   0.98862209 
   96900    272.34215   -529.23461    139291.93   -43165.486    3739.9636    -46905.45    1297.2038   0.98962313 
   97000    276.67819    -353.3413    139043.47   -43187.366    3799.5087   -46986.875     1297.217    0.9913915 
   97100     272.9304   -594.39357    139286.81   -43241.291    3748.0418   -46989.333    1300.0524   0.98965952 
   97200    268.74182    -529.2412    139099.86   -43229.808    3690.5218    -46920.33    1300.0445   0.99098959 
   97300    274.83627   -450.25887    139079.37   -43231.059    3774.2143   -47005.274     1301.346    0.9911356 
   97400    271.04471   -308.38843    139106.42   -43217.607    3722.1464   -46939.753     1302.086   0.99094288 
   97500    272.49688   -522.64317    138951.35    -43236.88    3742.0885   -46978.968    1302.6377   0.99204877 
   97600    272.69846   -577.62097    138862.33   -43231.056    3744.8567   -46975.913    1303.9238   0.99268475 
   97700    269.43243    -423.6457    138915.63   -43265.576    3700.0057   -46965.582     1305.569   0.99230386 
   97800    271.70853   -458.29985    138873.99   -43203.871    3731.2624   -46935.133    1308.1523   0.99260143 
   97900    275.34451   -280.51303    139013.67   -43152.847    3781.1938   -46934.041    1310.7474   0.99160402 
   98000    276.67034    -714.6461    139179.24   -43090.616    3799.4009   -46890.017    1311.7884   0.99042444 
   98100    273.89533   -425.90739    138943.87   -43194.437    3761.2928   -46955.729    1311.4128    0.9921022 
   98200    273.63531   -304.69042    139006.31   -43125.763     3757.722   -46883.485     1314.614   0.99165652 
   98300     278.6411   -458.15502    139369.43   -43086.379    3826.4645   -46912.844    1319.2509    0.9890728 
   98400    278.96832   -668.32565    139103.56   -43130.964    3830.9581   -46961.922    1319.7377   0.99096323 
   98500    272.72532   -350.03931    139458.74   -43181.745    3745.2256    -46926.97    1323.6225   0.98843945 
   98600    276.84238   -659.29212    139633.45   -43182.315    3801.7634   -46984.078    1325.2603   0.98720271 
   98700    271.30263   -504.63195    139466.47   -43258.459    3725.6883   -46984.147    1325.2929   0.98838463 
   98800    271.96805   -539.44507    139363.46   -43248.195    3734.8263   -46983.021    1327.8193    0.9891152 
   98900    272.63799   -531.85917    139202.56   -43289.256    3744.0263   -47033.282    1328.6747   0.99025852 
   99000    279.42748   -497.48486    139530.84   -43177.529    3837.2635   -47014.792    1332.7463    0.9879287 
   99100    273.67264   -424.19385    139234.86   -43259.167    3758.2347   -47017.402    1333.3057   0.99002874 
   99200     273.1062   -570.94627    139052.62   -43250.761    3750.4559   -47001.217    1334.1136   0.99132629 
   99300    271.96544   -330.46329    139125.57   -43272.893    3734.7904   -47007.684    1337.4271   0.99080649 
   99400    275.39467   -423.38855    139299.69    -43189.06    3781.8827   -46970.943    1339.4138   0.98956802 
   99500    272.70044   -507.65251    139367.53   -43232.042    3744.8838   -46976.926    1342.1485   0.98908633 
   99600    268.40986   -659.21723    139147.55    -43251.14    3685.9631   -46937.103    1342.5236   0.99064997 
   99700     270.2703   -574.71588    139141.01   -43172.684    3711.5118   -46884.196    1343.8741   0.99069655 
   99800    275.63669   -423.59878    138862.02   -43188.126    3785.2062   -46973.332    1344.1757   0.99268694 
   99900    275.85674   -318.79014    138964.05   -43166.014     3788.228   -46954.242    1346.3679   0.99195813 
  100000     274.6962   -586.44264    139262.15   -43190.118    3772.2909   -46962.409     1350.991   0.98983478 
  100100    271.95767   -500.41423     139432.8   -43211.748    3734.6837   -46946.432    1352.8936   0.98862332 
  100200    272.91601    -579.4013     139336.3   -43205.624    3747.8442   -46953.468    1354.3037   0.98930799 
  100300    274.01797   -790.63496    138950.34   -43189.596     3762.977   -46952.573     1353.576   0.99205599 
  100400    271.57156   -538.64291     138693.7   -43206.691    3729.3815   -46936.072    1352.2545   0.99389172 
  100500    274.52252   -396.81906     138744.8   -43221.996    3769.9057   -46991.901    1354.7977   0.99352567 
  100600    266.51308   -402.92392    139064.02    -43268.19    3659.9154   -46928.105    1357.6506   0.99124502 
  100673     273.6972   -470.30789    139081.53   -43217.137     3758.572   -46975.709    1359.1317    0.9911202 
Loop time of 181.636 on 6 procs for 100000 steps with 4608 atoms

Performance: 237.838 ns/day, 0.101 hours/ns, 550.550 timesteps/s
99.3% CPU use with 6 MPI tasks x no OpenMP threads

MPI task timing breakdown:
Section |  min time  |  avg time  |  max time  |%varavg| %total
---------------------------------------------------------------
Pair    | 160.5      | 161.66     | 164.94     |  11.8 | 89.00
Neigh   | 7.4705     | 7.5405     | 7.7026     |   2.9 |  4.15
Comm    | 6.4763     | 9.7022     | 10.828     |  47.3 |  5.34
Output  | 0.17336    | 0.17411    | 0.17739    |   0.4 |  0.10
Modify  | 1.8417     | 1.9224     | 2.0121     |   3.9 |  1.06
Other   |            | 0.6332     |            |       |  0.35

Nlocal:        768.000 ave         778 max         757 min
Histogram: 1 1 0 0 0 1 1 1 0 1
Nghost:        1670.33 ave        1678 max        1660 min
Histogram: 1 0 0 0 0 2 1 1 0 1
Neighs:        0.00000 ave           0 max           0 min
Histogram: 6 0 0 0 0 0 0 0 0 0
FullNghs:      25524.0 ave       26049 max       25084 min
Histogram: 1 1 0 0 1 1 1 0 0 1

Total # of neighbors = 153144
Ave neighs/atom = 33.234375
Neighbor list builds = 7056
Dangerous builds = 0

undump              1
unfix               2
unfix               3
unfix               4


################################################
#######         Run Simulation         #########
################################################

reset_timestep      0
log                 log.run_${NAME}
log                 log.run_liq_273K_-500atm_mW
