
# Define the lattice
#
variable	    lattice_constant equal 6.36339
lattice		    diamond ${lattice_constant}
lattice		    diamond 6.36339
Lattice spacing in x,y,z = 6.3633900 6.3633900 6.3633900

# Define region
# multiples of lattice spacing
#
region 		    simbox block 0 9 0 8 0 8

# Create Atoms
#
create_box          1 simbox
Created orthogonal box = (0.0000000 0.0000000 0.0000000) to (57.270510 50.907120 50.907120)
  3 by 1 by 2 MPI processor grid
create_atoms        1 box
Created 4608 atoms
  create_atoms CPU = 0.001 seconds
mass                1 18.015

# Define potential
#
pair_style          sw
pair_coeff          * * /data/emrosky-sim/Freezing_Simulations/Melting/mW_fancy/mW.sw mW
Reading sw potential file /data/emrosky-sim/Freezing_Simulations/Melting/mW_fancy/mW.sw with DATE: 2019-02-27

# Add velocity/set timestep
#
velocity            all create ${TEMP} 120598 rot yes dist gaussian
velocity            all create 273 120598 rot yes dist gaussian
timestep            5.0

# Define output
#
compute	            1 all msd
thermo              100
thermo_style        custom step temp press vol etotal ke pe c_1[4]

# Neighbor lists
#
neigh_modify        delay 0 every 1 check yes

# Set fixes
#
fix                 1 all momentum 10 linear 1 1 1 rescale
fix                 2 all nve
fix                 3 all temp/csvr ${TEMP} ${TEMP} 500.0 928347
fix                 3 all temp/csvr 273 ${TEMP} 500.0 928347
fix                 3 all temp/csvr 273 273 500.0 928347
fix                 4 all press/berendsen iso ${PRES} ${PRES} 1000.0 modulus 20000
fix                 4 all press/berendsen iso -500 ${PRES} 1000.0 modulus 20000
fix                 4 all press/berendsen iso -500 -500 1000.0 modulus 20000

# Run 0.5 ns equilibration
#
dump		    1 all custom 1000 eq.${NAME}.dump id type x y z vx vy vz
dump		    1 all custom 1000 eq.ice_273K_-500atm_mW.dump id type x y z vx vy vz
run                 100000
Neighbor list info ...
  update every 1 steps, delay 0 steps, check yes
  max neighbors/atom: 2000, page size: 100000
  master list distance cutoff = 6.3065
  ghost atom cutoff = 6.3065
  binsize = 3.15325, bins = 19 17 17
  1 neighbor lists, perpetual/occasional/extra = 1 0 0
  (1) pair sw, perpetual
      attributes: full, newton on
      pair build: full/bin/atomonly
      stencil: full/bin/3d
      bin: standard
Per MPI rank memory allocation (min/avg/max) = 4.778 | 4.778 | 4.778 Mbytes
Step Temp Press Volume TotEng KinEng PotEng c_1[4] 
       0          273   -4578.9852    148418.52   -52804.524    3748.9976   -56553.522            0 
     100    217.20369   -1089.5463    141732.64   -51639.682    2982.7696   -54622.452   0.24623478 
     200    215.73271   -527.82448    141143.44   -50759.601    2962.5693    -53722.17   0.32329579 
     300    224.90333   -471.40815    141294.41   -50191.682    3088.5056   -53280.187   0.33651951 
     400    244.16782   -501.10288    141485.48   -49805.755     3353.057   -53158.812   0.30579353 
     500     261.6199   -519.89906    141624.95   -49533.045    3592.7193   -53125.764   0.31796289 
     600    260.50233   -449.66176     141746.2   -49270.107    3577.3722    -52847.48    0.3416558 
     700    268.36064   -447.78285    141777.02   -49200.843    3685.2871    -52886.13   0.28923902 
     800    270.29904   -518.63489    141813.12   -49117.623    3711.9064   -52829.529   0.32256412 
     900    266.69364   -501.50177    141884.04   -49102.972    3662.3949   -52765.367   0.31863171 
    1000    275.66156   -457.47615    141839.05   -49148.695    3785.5478   -52934.243   0.30251419 
    1100    273.77035   -488.73165    141865.82   -49088.199    3759.5764   -52847.775   0.29780237 
    1200    279.18708   -470.33545    141859.69   -49091.198    3833.9622    -52925.16    0.3100872 
    1300    272.40521   -504.12518    141860.15   -49000.537    3740.8296   -52741.366   0.33306726 
    1400    273.78931   -505.86053    141865.37   -49092.984    3759.8369   -52852.821   0.29280779 
    1500    269.31918   -535.26411    141843.18   -49129.308    3698.4504   -52827.759   0.31817315 
    1600    278.58186   -498.41024    141851.67   -49071.072     3825.651   -52896.723   0.32794069 
    1700    272.24114   -513.52531    141869.57   -49093.191    3738.5764   -52831.767   0.29697904 
    1800    272.04702   -494.79793    141876.16   -49086.664    3735.9107   -52822.574   0.29962309 
    1900    271.96413   -481.50508    141892.62   -48992.061    3734.7724   -52726.834    0.3211898 
    2000    278.61243    -489.4791    141908.27   -48946.884    3826.0708   -52772.955    0.3211856 
    2100    270.77006   -504.87432    141872.28   -49106.906    3718.3747    -52825.28    0.2932205 
    2200    273.70727   -551.31677    141869.05   -49050.682    3758.7103   -52809.393   0.31675731 
    2300    279.75003   -482.14447    141845.04   -48980.466    3841.6929   -52822.159   0.32849014 
    2400    274.84242   -482.15269    141856.65   -48999.152    3774.2988   -52773.451   0.29630239 
    2500    273.68629   -534.98468    141848.88   -49039.186    3758.4221   -52797.608   0.30854317 
    2600    272.54634   -490.18493    141852.32   -49073.569    3742.7677   -52816.337   0.32626082 
    2700    274.76929   -498.42435    141846.44   -49054.742    3773.2945   -52828.036   0.31414745 
    2800    276.61807      -470.53    141835.03   -48961.289     3798.683   -52759.972    0.3026687 
    2900    278.84363   -499.48142    141874.42   -48979.115    3829.2457   -52808.361   0.32655805 
    3000    278.07747   -475.84969    141867.86   -49038.454    3818.7244   -52857.178   0.32113928 
    3100    275.67256   -482.53137    141852.29   -49006.692    3785.6987   -52792.391   0.29772572 
    3200    276.68583   -510.27853    141844.62   -49116.636    3799.6136   -52916.249   0.31650339 
    3300    271.99201    -499.7601    141786.44   -49171.182    3735.1552   -52906.337   0.32938972 
    3400     274.7057   -518.95288    141789.36   -49108.042    3772.4213   -52880.463   0.29944572 
    3500    271.12297    -530.2486    141804.18   -49072.869    3723.2211    -52796.09   0.31952665 
    3600    273.00247    -489.0301     141813.9   -49079.544    3749.0316   -52828.575   0.33564951 
    3700    269.80728   -477.64928    141819.05   -49043.905    3705.1532   -52749.058   0.31139716 
    3800     275.3482   -522.83814    141831.46   -49032.646    3781.2445    -52813.89   0.30274611 
    3900    269.91371    -461.8964    141848.36   -49036.927    3706.6148   -52743.542   0.33803396 
    4000     273.1353   -506.86505     141828.3   -49082.154    3750.8555    -52833.01   0.31841614 
    4100    270.06631   -520.56345    141820.99   -49101.714    3708.7104   -52810.424   0.30159616 
    4200    277.41091   -516.37512    141810.84   -49053.124    3809.5708   -52862.695   0.32359617 
    4300    269.94006   -504.17419     141811.8   -49185.779    3706.9766   -52892.755   0.32097671 
    4400    268.44633   -502.61294    141822.09   -49077.996    3686.4639    -52764.46   0.30876758 
    4500    270.23843   -521.74698    141817.51   -49131.232    3711.0741   -52842.306   0.31407425 
    4600    269.95776   -489.58947    141807.44   -49165.712    3707.2198   -52872.932   0.32945903 
    4700    273.84678   -483.97029    141808.85   -49072.293     3760.626   -52832.919   0.30869987 
    4800     275.4707   -524.22401    141849.49   -48977.266    3782.9267   -52760.193   0.31827529 
    4900    278.12275   -505.67656    141866.21   -48947.715    3819.3462   -52767.061   0.32880931 
    5000    275.52028   -485.17645    141872.94   -49072.011    3783.6076   -52855.618   0.32011292 
    5100    272.52652   -494.85296    141840.85   -48996.186    3742.4955   -52738.681   0.30681435 
    5200    270.36723   -526.97368    141848.84   -49069.738    3712.8429   -52782.581    0.3206761 
    5300    268.16308   -516.06582    141782.69   -49167.883    3682.5742   -52850.458   0.33786107 
    5400    273.36754    -469.5393    141782.17   -49137.421    3754.0448   -52891.466   0.29588819 
    5500    271.99945   -511.07704    141766.78   -49101.311    3735.2575   -52836.569   0.31717868 
    5600    272.17976   -474.20345    141743.62   -49133.947    3737.7335    -52871.68   0.33272682 
    5700    273.81473   -479.74126    141742.06   -49120.494     3760.186    -52880.68   0.32089703 
    5800    273.55849   -486.61046    141780.68   -49061.543    3756.6671    -52818.21   0.30855368 
    5900    271.46176   -513.38638    141795.47   -49139.949    3727.8736   -52867.822   0.33136527 
    6000    268.32103   -491.20337    141758.11   -49110.194    3684.7432   -52794.937    0.3367639 
    6100    268.62108    -513.3385    141752.16   -49191.166    3688.8637   -52880.029   0.29965619 
    6200    267.94842   -538.17206    141741.04   -49171.513    3679.6263   -52851.139   0.33024678 
    6300    275.90881   -518.47375    141770.74   -49058.311    3788.9431   -52847.254   0.33762766 
    6400    272.05128    -509.6187    141794.61   -49105.251    3735.9692    -52841.22   0.30019055 
    6500    275.48844   -538.88413    141768.23   -49122.689    3783.1703   -52905.859   0.31819056 
    6600    273.29612   -471.33276    141749.42   -49127.021     3753.064   -52880.085   0.32789808 
    6700     269.1018   -497.50238    141762.67   -49177.287    3695.4652   -52872.752   0.32092802 
    6800     269.8746   -493.50309    141730.22   -49132.739    3706.0777   -52838.817   0.30427633 
    6900    270.80766   -491.69588    141768.54   -49059.098     3718.891   -52777.989   0.34092023 
    7000    276.23526   -475.44458    141789.76   -49063.653    3793.4261   -52857.079   0.32658936 
    7100    275.18727   -513.10793    141796.87   -49073.249    3779.0344   -52852.284    0.2976159 
    7200    270.99141     -490.593    141754.14   -49178.115    3721.4144   -52899.529   0.33010634 
    7300    270.47494   -538.64773    141727.79   -49224.487    3714.3219   -52938.809   0.32947482 
    7400     271.9803   -504.03728     141750.4   -49116.466    3734.9944   -52851.461   0.31180278 
    7500    274.62103   -460.02585    141803.15   -49061.366    3771.2585   -52832.625   0.30683168 
    7600    270.86735   -477.16811    141793.03   -49033.105    3719.7108   -52752.816   0.33770189 
    7700    268.62636   -491.70428    141787.69   -49118.113    3688.9361   -52807.049   0.31903119 
    7800    272.01822   -492.27823    141803.39   -49179.285    3735.5152   -52914.801   0.29183509 
    7900    271.94794   -491.64652    141774.02   -49128.342    3734.5501   -52862.892    0.3374196 
    8000    273.55782   -523.38125     141832.7   -49034.828    3756.6579   -52791.486    0.3170047 
    8100    275.53043    -487.8102    141877.23   -49003.989     3783.747   -52787.736   0.29795373 
    8200    275.73983   -522.36431    141861.81   -49020.581    3786.6226   -52807.203   0.31813148 
    8300    278.24797   -469.67613    141877.11    -48977.88    3821.0658   -52798.946   0.32710449 
    8400     273.4882    -506.0326    141917.95   -48965.296    3755.7019   -52720.998   0.31302467 
    8500      275.513   -497.81115    141869.01   -49041.696    3783.5076   -52825.204   0.29975495 
    8600    274.02912   -514.08592     141868.9   -49058.639    3763.1301   -52821.769   0.33566357 
    8700     277.8101   -445.92442    141885.13   -49030.403    3815.0527   -52845.456   0.30527647 
    8800    278.90648   -521.60802    141872.97   -49069.187    3830.1089   -52899.296   0.29434157 
    8900    266.62279   -551.95345    141858.78   -49130.878    3661.4219     -52792.3    0.3235232 
    9000    271.16919   -482.14004    141861.15   -49061.638    3723.8558   -52785.494   0.32039488 
    9100    274.21628    -484.0175    141874.28   -49113.543    3765.7003   -52879.243   0.29997861 
    9200    277.14505   -474.38428    141891.62   -49014.711    3805.9198   -52820.631   0.30203741 
    9300    270.77705   -545.48365    141871.62    -49156.43    3718.4708   -52874.901   0.32958073 
    9400    270.72113   -484.88056    141837.58   -49123.066    3717.7028   -52840.769   0.29748838 
    9500    274.70739   -496.81325    141842.99   -49161.096    3772.4445    -52933.54   0.29417057 
    9600    267.62371   -511.66286    141818.49   -49157.312    3675.1672   -52832.479   0.33064297 
    9700    277.21565   -452.27861    141842.59   -49037.006    3806.8893   -52843.895   0.31088444 
    9800    274.84557   -434.69821    141861.33   -48984.815    3774.3421   -52759.157   0.29981207 
    9900    273.13791   -477.74192    141855.25   -49015.123    3750.8915   -52766.015    0.3232256 
   10000    269.58197   -518.23049    141863.06   -49071.977    3702.0592   -52774.036   0.33385941 
   10100    276.45548   -508.74352    141860.45   -49026.829    3796.4502   -52823.279   0.29199921 
   10200    277.94361   -526.34307    141907.81   -49005.667    3816.8862   -52822.553   0.31688071 
   10300    281.35082   -520.83334    141900.33   -48998.798     3863.676   -52862.474   0.32990972 
   10400    279.64884   -530.39849    141876.89   -49001.897    3840.3034     -52842.2   0.30140137 
   10500    273.90148   -516.54914    141821.57   -49042.507    3761.3773   -52803.884   0.30856748 
   10600    274.20751   -497.45391    141806.28   -49069.648    3765.5799   -52835.228   0.33393877 
   10700    272.63761   -491.98447    141776.03   -49074.779     3744.021     -52818.8    0.3281245 
   10800    268.67808   -564.36878    141760.56   -49207.224    3689.6464    -52896.87   0.30344592 
   10900     267.6701   -523.08821    141757.08   -49198.042    3675.8043   -52873.847   0.33366326 
   11000    267.98309   -474.64033    141734.06   -49200.618    3680.1024    -52880.72   0.33125456 
   11100    270.45269   -497.64504    141765.34   -49119.555    3714.0164   -52833.571   0.30323117 
   11200    271.32629   -484.52083    141786.84   -49221.288    3726.0133   -52947.301   0.31669297 
   11300     268.5092   -483.95234    141765.16   -49132.503    3687.3273    -52819.83   0.33813179 
   11400    270.17351   -510.96162    141780.87   -49113.307    3710.1825   -52823.489   0.31575739 
   11500    277.09594    -481.5641     141817.3   -49018.188    3805.2454   -52823.433   0.31103443 
   11600    272.70241   -537.99013    141840.04   -49014.414     3744.911   -52759.325   0.33001289 
   11700    277.76161   -469.34489    141897.52    -48891.84    3814.3869   -52706.227   0.32154931 
   11800    276.08389   -507.52571    141881.06   -48962.427    3791.3473   -52753.774   0.29938299 
   11900    275.56604   -491.61452    141856.07   -49011.522     3784.236   -52795.758   0.32392521 
   12000     277.1171   -489.04721    141875.11   -48973.252     3805.536   -52778.788   0.32330236 
   12100    277.88213   -509.00872    141841.64   -49033.268    3816.0419    -52849.31   0.31000438 
   12200    272.65086   -515.22189    141829.28   -49033.188     3744.203   -52777.391   0.31271753 
   12300    270.56658   -479.10532    141790.92   -49084.874    3715.5805   -52800.455    0.3263259 
   12400    273.06973   -498.35434    141791.33   -49077.117    3749.9551   -52827.072   0.32107821 
   12500     279.3649   -499.65576    141802.02   -49006.307    3836.4041   -52842.711   0.30143604 
   12600    278.80912   -480.39039     141829.3   -48976.347    3828.7718   -52805.119   0.33069548 
   12700    279.05559   -517.69592    141803.92   -49047.796    3832.1565   -52879.952   0.32964256 
   12800    274.22072   -526.51504    141794.64   -49029.802    3765.7613   -52795.563   0.30024672 
   12900    271.40996   -496.18968    141785.16   -49089.934    3727.1623   -52817.096   0.32564879 
   13000    269.93452   -518.77454    141763.05    -49062.86    3706.9007   -52769.761   0.33856189 
   13100    266.53186   -554.51164    141758.96   -49135.371    3660.1733   -52795.544   0.31554691 
   13200    267.84576   -490.92576    141758.06   -49160.825    3678.2165   -52839.042   0.31084789 
   13300    268.98009   -511.16744    141748.25   -49243.169    3693.7938   -52936.963   0.33464421 
   13400    267.03285   -525.01348    141718.35   -49229.349    3667.0532   -52896.402   0.31438827 
   13500    277.74324   -472.77541    141751.03   -49140.856    3814.1345   -52954.991   0.30069643 
   13600    268.65537   -483.82069    141749.91   -49093.269    3689.3345   -52782.603   0.33964333 
   13700    271.52251    -460.5877    141759.61   -49124.151    3728.7079   -52852.859     0.317352 
   13800     273.9722   -507.04019    141760.56   -49071.755    3762.3484   -52834.104   0.31236556 
   13900    269.55109   -503.50633    141775.68   -49063.663    3701.6352   -52765.299   0.32834235 
   14000    274.33506   -489.26636    141834.34   -48961.529    3767.3315    -52728.86   0.34112332 
   14100    280.03782   -460.48938    141828.92   -49046.132    3845.6451   -52891.777   0.29851511 
   14200    275.24787   -484.67197    141816.66   -49052.119    3779.8667   -52831.986   0.31677486 
   14300     272.3614   -487.26157    141811.77   -49085.329    3740.2279   -52825.557   0.33450583 
   14400    272.49689   -529.45576    141776.64   -49141.846    3742.0885   -52883.935   0.30784296 
   14500     269.7564   -493.88339    141768.91   -49153.335    3704.4546    -52857.79   0.31272419 
   14600    270.89666   -481.51608    141780.26   -49106.615    3720.1132   -52826.729   0.31918135 
   14700    277.02041   -457.02603    141784.66   -49065.379    3804.2083   -52869.587   0.32249998 
   14800    274.50223   -514.37653    141795.74   -49042.841    3769.6271   -52812.468   0.30898345 
   14900    273.78651   -496.91207    141789.75   -49055.436    3759.7984   -52815.235   0.31682988 
   15000    269.71863   -505.80504    141766.26   -49115.559    3703.9358   -52819.495   0.33722631 
   15100    270.88534   -518.74817    141758.86   -49123.714    3719.9578   -52843.672   0.30882127 
   15200    271.68241   -528.44848    141761.11   -49057.155    3730.9037   -52788.058   0.32118422 
   15300    268.60387   -495.39187    141748.07   -49141.626    3688.6273   -52830.253   0.33207099 
   15400    269.04061   -475.92589    141770.09   -49137.617    3694.6248   -52832.242   0.31749744 
   15500     269.7031   -539.91504    141778.99   -49074.116    3703.7227   -52777.839   0.30997517 
   15600    276.67161    -492.7622    141821.25   -48955.574    3799.4183   -52754.992   0.32817827 
   15700    272.53643   -503.15011     141812.9    -48962.01    3742.6316   -52704.641   0.33822954 
   15800    277.95723   -506.11536    141855.62   -48972.269    3817.0732   -52789.342   0.29659545 
   15900    277.54824   -522.38863    141838.32   -48993.685    3811.4567   -52805.142   0.32161128 
   16000    271.33704   -496.75225    141817.18   -49034.366    3726.1608   -52760.527    0.3446997 
   16100    274.58272   -487.57594    141790.48   -49069.259    3770.7324   -52839.991   0.30118607 
   16200    272.72869   -501.79557     141804.9   -49081.653    3745.2717   -52826.925   0.31083208 
   16300    274.88418   -546.44822    141768.59   -49087.473    3774.8723   -52862.345   0.34383124 
   16400    275.42491   -495.03813    141779.01     -49106.1    3782.2979   -52888.398   0.31156919 
   16500    275.43935   -478.82965    141818.04   -49027.758    3782.4962   -52810.254   0.30148253 
   16600    274.79716   -483.54769    141849.89   -48956.395    3773.6772   -52730.073   0.33928806 
   16700    271.76807   -527.55532    141822.33   -48997.419    3732.0801   -52729.499   0.33666689 
   16800    272.13522   -523.82982     141823.1   -49047.595    3737.1219   -52784.716   0.29695646 
   16900    271.00486   -537.92232    141798.44    -49076.87    3721.5991   -52798.469   0.33059607 
   17000    269.30763   -484.03181    141759.76   -49117.211    3698.2917   -52815.503   0.34034854 
   17100    269.96065   -515.94152    141797.12   -49070.717    3707.2594   -52777.976   0.30143158 
   17200    269.32939   -505.64423    141797.17   -49130.395    3698.5905   -52828.986   0.31587621 
   17300    268.14245   -519.72539    141776.67   -49218.678    3682.2909   -52900.969   0.33791088 
   17400    266.85283    -500.6048    141754.17   -49213.092     3664.581   -52877.673   0.31438692 
   17500    271.66235   -503.73979    141756.42   -49108.307    3730.6282   -52838.935    0.3117562 
   17600    274.65883   -477.44392    141738.39   -49113.254    3771.7776   -52885.031   0.33580394 
   17700    272.25312   -521.16397    141740.24   -49169.842     3738.741   -52908.583   0.33063713 
   17800    274.49343   -492.47227    141779.52   -49133.893    3769.5062   -52903.399   0.30687449 
   17900     276.2536   -482.32916     141786.9   -49077.972    3793.6779    -52871.65   0.31470511 
   18000    272.35295   -485.55209    141815.17   -48990.645    3740.1119   -52730.757   0.33620816 
   18100    273.54115   -494.10478    141847.34   -49001.137    3756.4289   -52757.566   0.31566516 
   18200    273.51141    -494.6606     141835.5   -49046.676    3756.0206   -52802.697   0.30344741 
   18300    273.15441   -519.91635    141813.08   -49052.982    3751.1181     -52804.1   0.33733567 
   18400    270.36707   -498.66011    141796.05   -49145.143    3712.8406   -52857.984   0.31807062 
   18500    269.31956   -472.26213    141804.41   -49088.619    3698.4556   -52787.075   0.30920893 
   18600    274.20425   -509.41411    141809.48   -49042.569    3765.5351   -52808.104   0.32889522 
   18700    278.21312   -521.17596    141812.39   -49063.109    3820.5872   -52883.696   0.33529168 
   18800    276.60083   -501.83983    141819.81    -49075.04    3798.4463   -52873.486   0.29994303 
   18900    269.62502   -519.03344    141841.23   -49036.042    3702.6504   -52738.693   0.31500859 
   19000    274.47323   -480.52998    141855.55   -49068.631    3769.2288    -52837.86   0.34478452 
   19100    274.50953   -475.75835    141874.73   -48986.245    3769.7274   -52755.972    0.3085336 
   19200    276.29393   -485.02317    141848.88   -49012.278    3794.2318    -52806.51   0.30551287 
   19300    276.78841   -489.71066    141869.27   -48906.805    3801.0222   -52707.827   0.34966062 
   19400    277.50866   -478.08135     141891.3   -48968.469    3810.9131   -52779.382   0.32025417 
   19500    277.20229   -505.76608    141901.98   -48964.507    3806.7059   -52771.213   0.29662936 
   19600      279.281   -498.58687    141908.97   -48961.946     3835.252   -52797.198   0.32997906 
   19700    276.11447   -530.59405    141883.78   -49012.131    3791.7674   -52803.898   0.32905072 
   19800    271.60885   -495.76839    141851.11   -48960.834    3729.8935   -52690.728   0.30633146 
   19900    274.44306   -464.06819    141844.22   -49043.684    3768.8145   -52812.499    0.3216111 
   20000    274.47967    -506.2296    141834.74   -49068.344    3769.3172   -52837.661   0.33677651 
   20100    271.49843   -512.79279    141785.72   -49106.671    3728.3771   -52835.048   0.30571328 
   20200    269.75098   -491.56162    141764.11   -49082.895    3704.3801   -52787.275    0.3211812 
   20300    273.99641   -500.29643    141814.74   -49056.796    3762.6808   -52819.477   0.33771235 
   20400    275.14621   -496.95283    141822.63   -49110.374    3778.4706   -52888.845   0.31221718 
   20500    273.28206   -532.80141    141818.43   -49151.669     3752.871    -52904.54   0.30924959 
   20600    276.72408   -507.20752     141764.2   -49163.944    3800.1388   -52964.083    0.3294204 
   20700    271.31268   -500.50974    141798.44   -49115.665    3725.8263   -52841.492   0.32826762 
   20800    274.63629   -481.57832    141815.28   -48977.519    3771.4681   -52748.987   0.31718804 
   20900    270.32959   -499.28166    141854.25   -49087.129    3712.3259   -52799.455   0.32083952 
   21000     272.2842   -520.47546    141800.11   -49091.172    3739.1678   -52830.339   0.33608176 
   21100    273.04018   -502.82286    141822.13   -48979.207    3749.5493   -52728.756   0.31995327 
   21200    275.62821   -483.95397    141840.08   -48995.594    3785.0898   -52780.684   0.31260802 
   21300    275.89112   -470.76629    141862.49    -48986.34    3788.7001    -52775.04   0.32889535 
   21400    277.34693   -481.96177    141848.57   -49027.785    3808.6922   -52836.477   0.32705365 
   21500    279.12181   -493.28868    141862.13    -48933.08    3833.0658   -52766.146   0.30275726 
   21600    280.68334   -484.78853    141894.82   -48944.346    3854.5098   -52798.856   0.32135714 
   21700    272.06459    -495.3761    141859.68    -49066.89    3736.1519   -52803.042   0.33350865 
   21800    272.95595   -552.01151    141828.63   -49101.568    3748.3927   -52849.961   0.30731384 
   21900    271.67093   -494.45015    141806.29    -49074.06    3730.7461   -52804.806   0.32732167 
   22000    270.20618    -537.7517     141807.8   -49107.426    3710.6312   -52818.057   0.33328412 
   22100    274.20454   -509.46456    141817.18   -49153.319     3765.539   -52918.858   0.30768073 
   22200    269.90849   -476.23229    141786.87   -49229.691    3706.5432   -52936.234   0.30025601 
   22300    269.14215   -533.81342     141809.4   -49127.267    3696.0193   -52823.286   0.34000211 
   22400    271.32374   -497.57675    141855.15   -49071.998    3725.9782   -52797.977    0.3192746 
   22500    276.14619   -466.92065    141867.58   -49027.682     3792.203   -52819.885   0.29609752 
   22600    270.18686   -491.36744    141839.63     -49062.8    3710.3659   -52773.166    0.3394385 
   22700    268.39017   -496.19099    141801.96   -49114.931    3685.6927   -52800.623   0.32380918 
   22800    272.37001   -485.89854    141829.87   -49050.526    3740.3462   -52790.872   0.31219807 
   22900    274.62408   -471.93487    141814.93   -49083.005    3771.3004   -52854.305    0.3252614 
   23000    270.14469   -523.43324    141782.43   -49150.144    3709.7868   -52859.931    0.3331436 
   23100    269.66329   -530.34838    141757.67   -49091.558    3703.1759   -52794.734   0.32397135 
   23200    269.07221   -489.89442    141789.93   -49039.951    3695.0588    -52735.01   0.32418564 
   23300    274.50102   -495.86006    141816.47   -49041.862    3769.6105   -52811.472   0.33332535 
   23400    271.52536   -496.41614    141811.54   -49085.425     3728.747   -52814.172   0.31664358 
   23500    272.98815   -471.32693    141806.54   -48973.633    3748.8348   -52722.468   0.32036718 
   23600    275.82171   -513.65107    141846.54   -48998.774     3787.747   -52786.521   0.33415302 
   23700    275.43571   -504.11715    141835.63   -48986.421    3782.4462   -52768.868   0.33090933 
   23800    275.75971   -469.37253    141813.05   -48987.532    3786.8956   -52774.428   0.31856543 
   23900    272.03889     -522.973    141803.91   -49073.218    3735.7991   -52809.018   0.31692654 
   24000    277.93288   -464.59297    141808.47   -49025.779    3816.7389   -52842.518   0.33505306 
   24100    275.60055   -479.68659     141816.2   -48961.503    3784.7098   -52746.213   0.33316449 
   24200     271.7659   -517.55995    141807.42   -49083.649    3732.0502   -52815.699   0.31257713 
   24300    271.18305    -505.1489    141776.08    -49119.72    3724.0462   -52843.766   0.33708192 
   24400    270.99555   -505.79575     141745.6   -49142.842    3721.4713   -52864.313   0.33337207 
   24500    276.48522   -502.71332    141780.25    -49107.92    3796.8588   -52904.779   0.30015739 
   24600     271.0982   -504.38533    141779.83   -49145.337     3722.881   -52868.218   0.32555708 
   24700    271.09572   -489.69721    141787.03   -49148.863    3722.8469    -52871.71   0.33191532 
   24800     273.3058   -489.24639    141808.02   -49091.637     3753.197   -52844.834    0.3049801 
   24900    271.38956   -517.14696    141806.68   -49152.153    3726.8821   -52879.035   0.31973755 
   25000    273.63974   -476.27576    141810.73   -49138.899    3757.7828   -52896.681   0.33340364 
   25100    267.90466   -511.77989    141778.47   -49188.366    3679.0253   -52867.391   0.31293297 
   25200    269.89843   -513.76786    141734.38   -49316.187     3706.405   -53022.592   0.30882958 
   25300    270.05829   -494.29902    141743.12   -49153.564    3708.6002   -52862.165   0.34096008 
   25400    266.46928   -518.84774    141768.02   -49197.392    3659.3139   -52856.706   0.32087578 
   25500     271.0788     -478.997    141765.65   -49085.022    3722.6145   -52807.637   0.31310434 
   25600    278.61097   -500.71756    141803.65   -49011.843    3826.0507   -52837.893   0.33012608 
   25700    278.59181   -528.23274    141797.81    -49093.81    3825.7877   -52919.597   0.32487457 
   25800     277.5285   -520.76361    141824.31   -48960.066    3811.1856   -52771.251   0.31834805 
   25900     280.1327   -508.02525    141832.36   -48985.563    3846.9481   -52832.511   0.32290434 
   26000     276.3949   -509.82375    141809.04   -49028.098    3795.6184   -52823.716    0.3271724 
   26100    278.17151   -499.92568    141815.78   -49016.455    3820.0158   -52836.471    0.3215024 
   26200    267.85247   -489.69369    141792.18   -49105.743    3678.3087   -52784.051   0.32155007 
   26300    274.07337   -530.09003    141796.64   -49076.824    3763.7377   -52840.562   0.32465288 
   26400    270.07934   -518.45744    141776.07   -49131.059    3708.8893   -52839.948   0.34096877 
   26500    275.44845   -492.01138    141790.17   -49046.394    3782.6212   -52829.016   0.31269643 
   26600    279.18948   -492.20386    141798.59   -48996.747    3833.9951   -52830.742   0.32155407 
   26700    274.28148   -489.75374    141809.11   -48998.409    3766.5956   -52765.005   0.34538993 
   26800    275.33912   -501.00561    141792.87    -49045.09    3781.1197    -52826.21   0.31550484 
   26900    275.38419   -492.60959    141781.54   -48986.086    3781.7387   -52767.825   0.32460942 
   27000    272.99692   -509.14197    141822.97   -49016.456    3748.9552   -52765.412    0.3413548 
   27100     277.6696   -487.83075    141837.46   -48961.891    3813.1233   -52775.014   0.32247204 
   27200    277.63101     -520.957    141848.59   -49033.619    3812.5933   -52846.212   0.29690752 
   27300    281.30899   -496.38311    141856.67   -48875.818    3863.1016   -52738.919   0.33766718 
   27400    275.35514   -518.64454    141853.31   -48988.875    3781.3398   -52770.215    0.3296802 
   27500    267.05339   -520.72389    141825.09   -49093.894    3667.3352   -52761.229   0.29821366 
   27600    267.89029   -486.12676    141784.44   -49140.727     3678.828   -52819.554   0.32861614 
   27700    278.00561   -471.83174    141804.99   -49049.884    3817.7375   -52867.621   0.32983325 
   27800    275.06129    -538.4451    141806.49   -49026.014    3777.3045   -52803.319   0.30817577 
   27900    274.82336   -488.40193    141804.31   -49079.387    3774.0371   -52853.424   0.32326123 
   28000    271.83946   -523.71638    141788.41   -49154.279    3733.0604   -52887.339   0.33806689 
   28100     272.2203   -517.96685    141770.06   -49127.139    3738.2903   -52865.429   0.32170667 
   28200    271.30326   -495.35466    141819.37   -49097.032    3725.6969   -52822.728   0.31462397 
   28300    270.90463   -510.96189    141811.39   -49116.888    3720.2227    -52837.11   0.33106635 
   28400    271.40833   -481.18534    141822.36    -49050.66    3727.1398     -52777.8    0.3204433 
   28500    274.59186   -486.91667     141816.9   -49082.296     3770.858   -52853.154   0.31497941 
   28600    276.43618   -486.24462    141847.97   -49087.899    3796.1852   -52884.084   0.31608899 
   28700    270.35986   -461.67311    141826.82   -49090.458    3712.7417   -52803.199   0.32543276 
   28800    270.42312   -433.25392     141811.3   -49128.605    3713.6104   -52842.216   0.31739259 
   28900    274.58653   -516.59745    141836.59    -49106.93    3770.7847   -52877.715   0.30611692 
   29000     269.0044   -517.50565    141860.91   -49054.801    3694.1277   -52748.929   0.32945985 
   29100    274.38134   -503.06998    141859.55   -49045.321    3767.9669   -52813.288   0.32219517 
   29200    276.75648   -496.80692    141894.51   -48987.137    3800.5838   -52787.721   0.30076675 
   29300    275.14433   -479.15435     141891.4   -48991.915    3778.4448    -52770.36     0.323755 
   29400    276.38389   -493.63913    141884.44   -49006.847    3795.4671   -52802.314   0.33056448 
   29500    268.90489   -528.44431    141871.07   -49040.512    3692.7611   -52733.274   0.31431368 
   29600     274.3631   -538.23903    141864.65    -49009.34    3767.7165   -52777.057   0.32074504 
   29700    276.22697   -541.37482    141815.58   -49080.078    3793.3123    -52873.39   0.34290142 
   29800    273.37819   -484.65659    141754.11   -49161.586    3754.1912   -52915.777   0.30540974 
   29900    273.34096     -501.556    141778.16   -49149.047    3753.6799   -52902.727   0.30785192 
   30000    270.39446   -520.27162    141751.77   -49112.643    3713.2168    -52825.86   0.35012721 
   30100    273.46664   -539.46792    141781.53   -49087.037    3755.4058   -52842.443   0.31339779 
   30200    277.64765   -454.11887    141799.69   -49094.006    3812.8218   -52906.828   0.30338048 
   30300    276.97463   -480.82977    141803.24     -49081.4    3803.5796   -52884.979   0.33754102 
   30400    275.24677   -481.03645    141810.92   -49117.786    3779.8516   -52897.638    0.3211265 
   30500    267.66405    -526.5448    141775.37   -49215.684    3675.7212   -52891.405   0.30746815 
   30600    275.82238   -485.47566       141802    -49105.26    3787.7562   -52893.016    0.3247847 
   30700    274.31318   -499.33671    141774.57   -49124.477     3767.031   -52891.508   0.33133345 
   30800    277.72177   -455.35764    141777.07   -49062.273    3813.8397   -52876.112   0.30402786 
   30900    276.40852   -500.23817    141793.28   -49037.729    3795.8053   -52833.535   0.32458658 
   31000      269.734    -571.3641    141798.49   -49074.017     3704.147   -52778.163   0.33720111 
   31100    268.87823   -492.35977    141773.36   -49075.167     3692.395   -52767.562   0.32308681 
   31200    276.37289   -455.81928    141782.25   -49026.783    3795.3161   -52822.099   0.31968068 
   31300    279.86174    -484.1504    141808.74   -48965.277     3843.227   -52808.504    0.3326256 
   31400    273.54977   -542.34322    141798.26   -49077.428    3756.5473   -52833.976   0.33561099 
   31500    274.44559   -509.75908    141791.51    -49032.96    3768.8493   -52801.809   0.31629934 
   31600     271.8937    -514.7905    141771.77   -49049.473    3733.8052   -52783.278   0.32646384 
   31700    273.43278   -511.67625    141789.63   -49020.287    3754.9407   -52775.228   0.34025632 
   31800    273.40743   -549.18862    141772.44   -49082.941    3754.5926   -52837.533   0.32515147 
   31900    274.25592   -497.37196    141768.15   -49072.599    3766.2446   -52838.844   0.30887504 
   32000    273.45705   -449.71624    141780.71   -49025.477     3755.274   -52780.751   0.33783121 
   32100    275.69012   -487.91071    141807.94   -49061.157    3785.9399   -52847.096   0.33334133 
   32200     272.9229   -497.87077    141779.73   -49183.652    3747.9388   -52931.591   0.30310154 
   32300    272.31817   -489.18266    141794.78   -49126.995    3739.6343   -52866.629   0.32284994 
   32400    272.94991   -524.33721    141782.44   -49215.445    3748.3097   -52963.754   0.33146947 
   32500    274.39513   -491.05845    141800.34   -49083.699    3768.1564   -52851.855   0.30331322 
   32600    276.69133   -449.74076    141839.24   -49030.615    3799.6891   -52830.304   0.31475553 
   32700    269.38317   -521.94415    141789.49   -49122.226    3699.3291   -52821.555   0.34613379 
   32800    272.51257   -491.57502    141833.93   -48993.311     3742.304   -52735.615   0.31871815 
   32900    272.44209    -484.5722    141835.92   -49062.524    3741.3361    -52803.86    0.3079842 
   33000    274.11754   -481.28138    141843.83   -49053.768    3764.3442   -52818.112   0.34222575 
   33100    273.72475   -506.57655    141820.21   -49085.912    3758.9503   -52844.863   0.31993198 
   33200    275.64995   -526.58165    141833.31   -49068.177    3785.3883   -52853.565   0.30035619 
   33300    274.37431   -495.12014    141810.63   -49067.952    3767.8705   -52835.823    0.3391174 
   33400    275.44717   -514.56402    141776.37   -49087.006    3782.6035    -52869.61   0.32544607 
   33500    268.75276   -535.11941    141773.31   -49110.768    3690.6719    -52801.44   0.31723946 
   33600     269.2672    -499.8129    141739.99   -49118.781    3697.7365   -52816.518    0.3293687 
   33700    275.58085    -524.1948    141770.86   -49023.803    3784.4393   -52808.243   0.32944623 
   33800    277.99347   -479.21512    141830.01   -48923.888    3817.5709   -52741.459   0.32278556 
   33900    274.29837   -526.94073    141835.58   -48945.497    3766.8275   -52712.324   0.32145822 
   34000    269.23186   -519.44138    141787.05   -49079.267    3697.2513   -52776.518   0.33248563 
   34100    269.59052   -512.91981    141774.71   -49097.359    3702.1766   -52799.536   0.32427828 
   34200    272.55436   -489.67377    141782.17    -49100.45    3742.8778   -52843.327   0.32221866 
   34300    273.53733   -495.75523    141759.83   -49129.951    3756.3765   -52886.328   0.31363377 
   34400    277.66567   -495.04392    141780.32   -49063.708    3813.0693   -52876.777   0.33339518 
   34500     277.8905   -480.85938    141805.34   -48988.949    3816.1568   -52805.106   0.32976883 
   34600    276.55593   -532.47103    141862.42     -48991.3    3797.8297   -52789.129   0.30457627 
   34700    274.97547    -528.7333    141810.68   -49099.581    3776.1259   -52875.707   0.34140486 
   34800    274.17198   -513.25004     141800.7   -49095.671    3765.0919   -52860.763   0.32739895 
   34900    275.14119    -490.0137    141817.42   -49081.692    3778.4017   -52860.093   0.30052754 
   35000    276.10041   -508.20049    141803.42   -49053.553    3791.5742   -52845.127   0.33266129 
   35100    270.52128   -491.90864    141838.32   -49073.116    3714.9584   -52788.075   0.34076999 
   35200    273.19464   -505.44076    141836.92   -49013.817    3751.6705   -52765.488   0.31296025 
   35300    277.75876   -472.13174    141850.93   -49092.726    3814.3477   -52907.073    0.3109153 
   35400    273.01313   -516.72014    141815.37   -49089.984    3749.1778   -52839.162   0.35304923 
   35500    275.24816   -465.58073    141809.14   -49078.983    3779.8707   -52858.854   0.30530582 
   35600    272.68248   -465.85784     141837.6   -49055.318    3744.6372   -52799.955   0.31853548 
   35700    277.92819   -503.86938    141802.08    -49060.13    3816.6744   -52876.805   0.34305166 
   35800    280.44987   -477.72686    141869.07   -48907.419    3851.3036   -52758.723   0.31078226 
   35900    275.02608   -502.49527    141783.05   -49013.493     3776.821   -52790.314   0.33158864 
   36000    274.19258   -511.22446     141778.9   -49065.031    3765.3748   -52830.406   0.33492618 
   36100    273.98706   -509.57795     141760.1   -49107.973    3762.5525   -52870.525   0.32911073 
   36200    269.09653   -516.29273    141750.35   -49143.743    3695.3929   -52839.136   0.31738249 
   36300    274.13202   -504.40455    141720.12   -49072.276    3764.5432   -52836.819   0.32881809 
   36400    271.14629   -517.90191    141759.49   -49126.891    3723.5414   -52850.432   0.33683552 
   36500       273.88   -485.11109    141728.45   -49101.644    3761.0822   -52862.726   0.31803573 
   36600     267.4326   -508.85884    141725.64   -49095.078    3672.5428    -52767.62   0.32623452 
   36700    271.95293   -510.04746    141746.19   -49140.153    3734.6186   -52874.771   0.32392032 
   36800    262.47656   -519.12437    141715.14   -49204.997    3604.4835    -52809.48   0.33823239 
   36900    270.14988   -485.47036    141737.31   -49128.748    3709.8581   -52838.606   0.32132372 
   37000    275.17934   -492.96076    141766.81   -49114.903    3778.9256   -52893.829   0.31785964 
   37100    267.79718    -508.5626    141724.09    -49151.59    3677.5494   -52829.139   0.35225618 
   37200    272.82012   -479.31645    141758.71    -49160.85    3746.5274   -52907.377   0.31291928 
   37300    269.71702   -507.47986     141777.9   -49162.607    3703.9137   -52866.521   0.31252511 
   37400    272.84726   -510.43591     141777.2   -49169.898    3746.9001   -52916.798   0.33992352 
   37500    270.75053   -522.61398    141775.99   -49146.826    3718.1066   -52864.932   0.31597253 
   37600    268.71679   -481.13146    141761.78   -49193.795     3690.178   -52883.973   0.30963438 
   37700    265.99744   -504.81423    141725.74   -49268.361    3652.8342   -52921.195   0.33744208 
   37800    265.38729   -476.16604    141692.93   -49285.202    3644.4554   -52929.657   0.33253699 
   37900    268.92993   -513.31854    141734.89   -49194.838     3693.105   -52887.943   0.30142988 
   38000     276.5367   -484.61606    141764.81    -49132.36    3797.5657   -52929.925   0.32760489 
   38100    273.17431   -507.75799    141786.38   -49071.798    3751.3914   -52823.189   0.33353252 
   38200    274.23372   -524.94716    141791.21   -49041.763    3765.9398   -52807.703   0.30890377 
   38300     271.9355   -483.77839    141788.66    -49090.09    3734.3792   -52824.469   0.32451579 
   38400      272.633   -508.07333    141815.12   -49027.832    3743.9577    -52771.79   0.33855843 
   38500    270.25072    -529.2737    141795.21   -49081.883    3711.2429   -52793.126   0.31920031 
   38600    272.86385   -504.41857    141774.04   -49039.748    3747.1279   -52786.875   0.32013704 
   38700    274.07571   -510.18424    141788.16   -49012.819    3763.7699   -52776.589   0.33689732 
   38800    275.22414   -474.06685    141788.86   -49047.549    3779.5407    -52827.09   0.31893013 
   38900    274.41216    -481.8057    141828.04   -48991.967    3768.3901   -52760.357   0.33007125 
   39000    273.63934   -513.14809    141838.23   -49041.812    3757.7774    -52799.59   0.31754166 
   39100    273.61327   -492.87437    141805.12   -49060.951    3757.4193   -52818.371   0.32888121 
   39200    268.63463   -538.64271    141799.54   -49184.155    3689.0498   -52873.204    0.3262134 
   39300    265.11581   -498.00197    141772.51   -49202.246    3640.7272   -52842.973   0.30481899 
   39400    272.16887   -510.46714    141801.28   -49079.455    3737.5841   -52817.039    0.3363508 
   39500    271.89137   -526.06932    141804.57   -49056.633    3733.7732   -52790.406   0.32683354 
   39600    271.44245   -502.65176    141846.22   -49065.071    3727.6084    -52792.68   0.31237957 
   39700     274.0633   -472.04602    141839.79   -49039.137    3763.5994   -52802.736   0.31981827 
   39800      274.383   -522.63507    141839.86    -49067.29    3767.9898    -52835.28   0.32526808 
   39900    275.65237   -475.93829    141833.68    -49034.71    3785.4215   -52820.131   0.32192794 
   40000    271.99947   -529.08264    141848.07   -49108.947    3735.2577   -52844.205   0.29860553 
   40100    269.99134   -519.76195    141808.86   -49115.784     3707.681   -52823.465   0.34637377 
   40200    271.91474   -549.92304     141836.8    -49093.13    3734.0941   -52827.224   0.31586691 
   40300    275.08719   -486.64875    141825.65   -49101.664    3777.6601   -52879.324   0.30106022 
   40400    268.25795   -564.59555     141810.9   -49185.204    3683.8769   -52869.081   0.34641192 
   40500    276.60282    -478.1172    141820.45   -49051.818    3798.4736   -52850.292    0.3184335 
   40600    275.03831   -528.72177    141780.74   -49117.846    3776.9888   -52894.835    0.3170831 
   40700     270.5183   -509.80589    141770.99    -49114.42    3714.9174   -52829.337   0.32503689 
   40800    270.95758   -482.37933    141774.43   -49090.691    3720.9499   -52811.641   0.34659348 
   40900    275.49327   -479.75852    141770.77   -49081.905    3783.2366   -52865.141    0.3208419 
   41000    271.21413   -493.26082    141778.42   -49141.806     3724.473   -52866.279   0.31578084 
   41100     271.2567   -491.09419    141778.82   -49118.052    3725.0575    -52843.11   0.34839264 
   41200    279.57224   -450.02835    141813.71   -49008.004    3839.2515   -52847.256   0.31348937 
   41300    276.79273   -513.47898    141814.17   -49085.708    3801.0816    -52886.79   0.30768992 
   41400    278.01569   -506.93792    141799.36   -49036.278     3817.876   -52854.154   0.33467765 
   41500    276.75791   -491.94905    141799.77    -49049.91    3800.6034   -52850.514   0.32658969 
   41600    273.34246   -465.98628    141815.41   -49060.951    3753.7005   -52814.651   0.31258917 
   41700    266.30659   -531.40794       141765   -49160.788    3657.0797   -52817.868   0.32405617 
   41800     274.6017   -520.23408    141798.01   -49077.764    3770.9931   -52848.757   0.33468201 
   41900    276.23327   -473.43121    141769.79   -49152.719    3793.3988   -52946.118   0.31259116 
   42000    269.60683   -469.31678    141764.94   -49126.002    3702.4006   -52828.403   0.32003686 
   42100    268.11659   -525.39295    141751.12   -49191.506    3681.9357   -52873.442   0.34332701 
   42200    273.78428   -473.66809    141771.37    -49155.91    3759.7677   -52915.677   0.31562997 
   42300    271.08327   -489.62076    141783.03   -49116.544    3722.6759    -52839.22   0.32525865 
   42400    268.04246   -483.43476    141798.92   -49139.569    3680.9177   -52820.487   0.32155789 
   42500    269.96326   -487.11764    141806.94   -49109.137    3707.2953   -52816.432   0.33150364 
   42600    272.12317   -515.52073    141789.68   -49147.658    3736.9565   -52884.615   0.31434714 
   42700    272.39653   -522.00322    141775.27   -49210.433    3740.7104   -52951.144   0.31036732 
   42800    268.88663   -530.78243    141756.49   -49129.245    3692.5104   -52821.755   0.34673299 
   42900    269.88697   -528.44743    141775.55    -49147.51    3706.2476   -52853.758   0.31510506 
   43000    270.00862   -513.12431    141747.64   -49166.285    3707.9181   -52874.203   0.32053641 
   43100    270.62846   -509.66767    141751.24   -49087.593    3716.4302   -52804.023   0.33275526 
   43200     269.0275   -517.63044    141770.24   -49102.231    3694.4449   -52796.676   0.33220065 
   43300    268.72795   -524.51743    141730.32   -49092.974    3690.3312   -52783.306    0.3236459 
   43400    274.15077   -469.05095    141788.55   -49033.677    3764.8006   -52798.477   0.32311795 
   43500    274.70298   -471.04151    141809.87    -49080.82    3772.3839   -52853.204   0.33767297 
   43600     270.2731   -497.28167    141770.44   -49122.358    3711.5501   -52833.908   0.31485221 
   43700    272.29283   -491.57441    141724.82   -49163.052    3739.2864   -52902.338   0.32310052 
   43800    271.09833     -494.694    141726.09   -49194.163    3722.8827   -52917.046   0.33570351 
   43900    272.67868   -529.01527    141752.01   -49118.434     3744.585   -52863.019   0.32443446 
   44000    267.45147   -477.34255    141731.12   -49195.751    3672.8019   -52868.553   0.32033939 
   44100    267.99886   -492.02031    141736.12   -49157.064     3680.319   -52837.383   0.33992203 
   44200    266.59075   -488.25859    141745.28   -49119.317    3660.9819   -52780.298   0.32589491 
   44300    275.60447    -471.3467    141764.06   -49127.587    3784.7638   -52912.351   0.32212291 
   44400    270.11252   -494.73188    141747.68   -49134.393     3709.345   -52843.738   0.33296198 
   44500    268.41818   -478.08766    141775.97   -49140.572    3686.0774   -52826.649   0.32991196 
   44600    271.01519   -483.81206    141782.65   -49149.506     3721.741   -52871.247   0.32470928 
   44700    271.82073   -486.51235    141803.43   -49137.544    3732.8032   -52870.347   0.31192068 
   44800     269.3368   -476.45113    141784.14   -49092.458    3698.6923    -52791.15   0.33591279 
   44900    275.02644   -521.74682    141808.38   -49085.871    3776.8259   -52862.696   0.32039379 
   45000    277.94943   -494.86973    141789.88   -49127.039    3816.9661   -52944.005   0.31649462 
   45100    276.12855   -491.44433    141798.08    -49014.22    3791.9607    -52806.18   0.33063629 
   45200    271.72902   -491.95709    141831.11   -49049.375    3731.5438   -52780.919   0.33129249 
   45300    275.47298    -463.9164    141808.73   -49066.892     3782.958    -52849.85   0.32003818 
   45400    270.54533   -521.43424    141799.85   -49130.423    3715.2886   -52845.712   0.30881125 
   45500    272.28653   -490.02077     141837.2   -49076.737    3739.1999   -52815.937   0.33763628 
   45600    274.36077    -510.6217    141821.37   -49067.166    3767.6845    -52834.85   0.31711238 
   45700    279.75932    -490.8776    141820.18    -49024.75    3841.8206    -52866.57   0.30330919 
   45800    270.44589   -505.74308    141797.56   -49093.403     3713.923   -52807.327   0.34458697 
   45900    279.42468   -483.04511    141824.73   -48964.054    3837.2251   -52801.279   0.31999805 
   46000    272.00831    -482.7904    141812.26   -49018.341    3735.3791    -52753.72   0.31338575 
   46100    273.62354   -501.82388    141835.64   -48936.249    3757.5604   -52693.809   0.33786905 
   46200    280.54643   -514.90535    141845.88   -48982.818    3852.6296   -52835.447   0.32735175 
   46300     274.3506   -523.20334     141826.7   -48975.601    3767.5448   -52743.146   0.31563994 
   46400    273.20985   -514.77008    141822.67   -49016.903    3751.8794   -52768.782   0.32036764 
   46500    274.94854   -509.28572    141836.87   -48985.832    3775.7561   -52761.588   0.34445214 
   46600    277.12387   -440.77496    141834.03   -49045.034     3805.629   -52850.663   0.30488038 
   46700    278.25095   -492.60729    141844.64    -48985.13    3821.1067   -52806.236   0.31717551 
   46800    268.22163   -515.80575    141849.52   -48996.402    3683.3782   -52679.781   0.34310352 
   46900    272.69027   -516.43873    141837.23   -49047.684    3744.7441   -52792.428   0.31004166 
   47000    273.64302   -506.31136     141819.4   -49083.267     3757.828   -52841.095   0.32872557 
   47100    271.44376   -498.87313    141780.56   -49086.515    3727.6264   -52814.141   0.32070078 
   47200    273.81166   -522.64043    141791.26   -49062.582    3760.1437   -52822.726   0.32960081 
   47300    270.23896   -498.94136    141794.48   -49173.892    3711.0814   -52884.973   0.32446795 
   47400    272.20008   -506.04829     141794.4   -49114.066    3738.0126   -52852.079    0.3082982 
   47500    273.58199   -471.45392    141794.13   -49120.913    3756.9899   -52877.902   0.33138721 
   47600    270.68328   -478.87609    141809.24   -49113.169     3717.183   -52830.352   0.31489299 
   47700    273.92335   -492.43397    141830.68   -49041.908    3761.6776   -52803.586   0.31832383 
   47800      272.436   -505.67086    141860.03   -49098.837    3741.2524   -52840.089   0.31557172 
   47900    268.59898   -478.99742    141816.49   -49148.881    3688.5602   -52837.441     0.322433 
   48000      270.302   -492.47435    141830.85   -49105.641    3711.9471   -52817.588   0.31956904 
   48100    274.07076     -515.513    141824.77    -49155.59    3763.7019   -52919.292   0.30226337 
   48200    271.97419    -499.4078    141833.87   -49141.502    3734.9105   -52876.412   0.33587893 
   48300    272.07055   -477.71101    141831.96   -49094.821    3736.2339   -52831.055   0.30764102 
   48400    273.16095   -501.56947     141858.7   -49134.462    3751.2078    -52885.67   0.30383743 
   48500    272.76208   -496.17803    141826.26   -49213.452    3745.7303   -52959.182   0.33045766 
   48600    266.75125   -482.35438    141802.54   -49205.341    3663.1861   -52868.528   0.31478478 
   48700    274.27366   -517.86936    141815.24   -49109.035    3766.4883   -52875.523   0.31150169 
   48800    275.40048    -488.3138    141812.85   -49090.239    3781.9623   -52872.201   0.32816122 
   48900    270.49846   -520.23048    141824.82   -49120.672    3714.6449   -52835.317   0.32258086 
   49000    272.12205   -510.51559    141813.22   -49149.325    3736.9411   -52886.266   0.30641864 
   49100    274.11695   -515.40991    141845.03   -49069.797    3764.3362   -52834.133   0.32193031 
   49200    275.04897   -532.57522    141857.67    -49102.74    3777.1352   -52879.876    0.3259838 
   49300    269.61531   -545.77663    141849.42   -49163.303     3702.517    -52865.82   0.30221247 
   49400    269.37985   -518.25811    141832.51   -49180.665    3699.2835   -52879.949   0.31408767 
   49500    268.87202   -511.80862    141841.32    -49122.78    3692.3097    -52815.09   0.33138247 
   49600    271.36545   -479.71334    141861.56   -49121.144    3726.5509   -52847.695   0.30256059 
   49700    278.17785   -504.46541    141834.83   -49126.331    3820.1029   -52946.434   0.31550136 
   49800    272.96937   -503.30368     141818.3   -49133.483    3748.5769    -52882.06   0.32318382 
   49900    271.34608   -493.28586    141815.74   -49116.061     3726.285   -52842.346   0.31948837 
   50000    270.71367   -476.39969    141785.28   -49117.453    3717.6004   -52835.053   0.31769888 
   50100    273.07089   -472.91747    141820.16   -48987.046    3749.9711   -52737.017   0.31923263 
   50200    269.99017   -504.68964    141813.09   -49058.907    3707.6649   -52766.572   0.33181764 
   50300    278.91815   -499.22511    141808.25   -49067.187    3830.2691   -52897.456   0.32199089 
   50400    273.59942    -525.0342    141788.24   -49081.869    3757.2291   -52839.098   0.32325942 
   50500    277.21542   -502.41008    141813.68   -49001.544    3806.8862    -52808.43   0.32795227 
   50600    274.35971   -494.22213    141826.61   -48926.899      3767.67   -52694.569   0.33125997 
   50700    271.62987   -515.33799    141779.12   -49153.423    3730.1822   -52883.605   0.31463586 
   50800     269.2386   -498.99948    141754.75   -49135.377    3697.3438    -52832.72   0.32498956 
   50900    271.02843   -479.89387    141767.79   -49159.591    3721.9228   -52881.514   0.33901127 
   51000    271.30291   -494.11549    141776.93   -49117.894    3725.6922   -52843.586   0.31322517 
   51100    273.04951   -472.63822    141778.52   -49131.396    3749.6775   -52881.074   0.31350653 
   51200    269.94307     -555.218    141753.81   -49193.569     3707.018   -52900.587   0.34284973 
   51300    268.30389   -460.61969    141740.67   -49200.775    3684.5079   -52885.283   0.31653938 
   51400    269.65275   -485.03779    141737.39   -49138.361    3703.0312   -52841.392   0.31262716 
   51500    268.16225   -513.16481     141745.2   -49190.109    3682.5628   -52872.671    0.3433486 
   51600    269.76452   -502.08534    141769.32   -49112.678    3704.5661   -52817.244   0.32348344 
   51700    273.55443   -528.03474    141790.35   -49013.986    3756.6114   -52770.597   0.31605302 
   51800    275.85393   -526.27178    141817.08   -49059.758    3788.1895   -52847.948   0.33373113 
   51900    270.37181   -514.29785    141796.65    -49124.37    3712.9057   -52837.276   0.32599328 
   52000    272.75584   -508.15904    141800.82   -49108.167    3745.6446   -52853.812   0.30957039 
   52100    268.85533   -511.66766    141779.78   -49179.673    3692.0805   -52871.753   0.31897136 
   52200    263.65418   -491.97354    141758.56   -49233.337    3620.6552   -52853.992    0.3351611 
   52300    270.52426    -501.7345    141759.17   -49211.789    3714.9993   -52926.788   0.31119722 
   52400     263.6957   -480.05791    141729.41   -49292.151    3621.2255   -52913.377   0.32571387 
   52500     267.8522   -473.04524    141755.58   -49152.795     3678.305     -52831.1   0.33201201 
   52600    272.43956   -482.08921    141819.84   -49128.357    3741.3014   -52869.659   0.31283306 
   52700    270.40249   -525.31061    141809.77   -49061.362     3713.327   -52774.689   0.32461156 
   52800     270.7453   -511.92997    141846.21   -49031.897    3718.0347   -52749.932   0.31762803 
   52900    277.78783    -519.7121    141835.16   -49055.476     3814.747   -52870.223   0.32893155 
   53000    278.23628   -497.85853    141841.18   -49005.445    3820.9053   -52826.351   0.31347854 
   53100    274.66467   -476.56763    141813.57   -49137.995    3771.8579   -52909.853   0.31225555 
   53200    269.66078   -487.21264    141762.83   -49177.408    3703.1414   -52880.549   0.32884028 
   53300    265.51105   -499.45921    141756.83   -49140.291    3646.1549   -52786.446    0.3234184 
   53400    272.41382   -478.05848    141781.19   -49082.806    3740.9479   -52823.753   0.31286999 
   53500    270.73002   -498.39986    141795.42   -49069.908    3717.8249   -52787.733   0.32460733 
   53600    267.23564   -540.54346    141783.37   -49139.703    3669.8379   -52809.541   0.33168746 
   53700    275.23739    -515.7675    141800.57   -49116.225    3779.7227   -52895.947    0.3077417 
   53800    271.81947   -521.81101    141765.54   -49135.856    3732.7859   -52868.642   0.31913185 
   53900    273.52807   -497.52816    141779.95   -49144.971    3756.2493    -52901.22   0.32830713 
   54000    274.03743   -504.93229    141757.37   -49156.589    3763.2442   -52919.834   0.31188161 
   54100    271.58835   -490.78353    141769.63   -49132.585     3729.612   -52862.197   0.31636997 
   54200    271.86639   -500.90871    141778.44   -49080.777    3733.4303   -52814.208   0.33767464 
   54300    275.07755   -470.72728    141814.25   -49012.033    3777.5277    -52789.56   0.31479415 
   54400    277.36339   -494.21439    141863.44   -48933.793    3808.9182   -52742.711   0.30909385 
   54500    269.35764   -494.08317    141861.54   -49002.237    3698.9785   -52701.215   0.32189764 
   54600    270.07408   -499.13768    141867.46   -49022.896    3708.8172   -52731.713   0.32540417 
   54700    270.78912   -531.00415    141834.79   -49078.156    3718.6365   -52796.792   0.30797982 
   54800    270.56488   -517.86854    141869.92   -49008.388    3715.5571   -52723.945   0.31575042 
   54900    269.71915   -488.02738    141884.88   -49023.548    3703.9429   -52727.491   0.32211053 
   55000    273.08303   -510.70755    141882.85   -49056.082    3750.1379    -52806.22   0.30682106 
   55100    273.18292   -498.33297    141878.51   -49074.439    3751.5096   -52825.948   0.31051481 
   55200    271.76456   -512.44745    141851.47   -49187.223    3732.0318   -52919.255   0.31686233 
   55300    267.29055   -515.52175    141827.88   -49230.661     3670.592   -52901.253   0.31007329 
   55400    269.72952   -453.50295    141822.13   -49190.723    3704.0854   -52894.808   0.30253501 
   55500    271.71419   -485.83519    141831.56   -49157.283      3731.34   -52888.623   0.30914947 
   55600    274.92594   -480.03138    141855.48   -49054.521    3775.4457   -52829.967   0.31897377 
   55700    269.93319   -560.16275    141855.07   -49016.832    3706.8824   -52723.714   0.32298866 
   55800    273.92373   -518.24151    141880.68   -49006.799    3761.6828   -52768.482   0.31385331 
   55900    278.29373   -467.90659    141868.29   -49017.837    3821.6943   -52839.531   0.32830504 
   56000    272.52423   -516.37862    141883.87   -49027.325    3742.4641   -52769.789   0.31335599 
   56100     272.0787   -478.51103     141878.1   -49012.706    3736.3458   -52749.052   0.30682067 
   56200    273.24162   -456.95046     141888.5   -49049.464    3752.3156    -52801.78   0.31570165 
   56300    268.95012   -519.82544    141855.05   -49113.995    3693.3823   -52807.377   0.32252958 
   56400    270.30514   -515.04564    141862.76    -49165.19    3711.9901    -52877.18   0.30147398 
   56500    265.79443   -493.61963     141800.3   -49211.509    3650.0465   -52861.556   0.31628182 
   56600    269.01721    -498.6741    141808.79   -49270.596    3694.3035   -52964.899   0.32545489 
   56700    271.77105   -500.29977    141801.79   -49248.197     3732.121   -52980.318   0.30798945 
   56800     270.9321   -516.44717    141789.91   -49132.743       3720.6   -52853.343   0.30594687 
   56900    270.39607   -521.00159    141797.76   -49229.915    3713.2389   -52943.154   0.32875984 
   57000    268.10241   -480.64317    141790.85   -49216.127     3681.741   -52897.868   0.31144237 
   57100    274.86925   -482.77729    141814.18   -49139.058    3774.6673   -52913.725    0.3067591 
   57200     275.9817   -481.45555    141846.48   -49085.059     3789.944   -52875.003   0.32144935 
   57300    273.49156   -522.07496    141825.25   -49214.919    3755.7479   -52970.667   0.30865252 
   57400    273.64816   -503.46534    141819.87    -49103.03    3757.8985   -52860.929   0.31124799 
   57500    274.39855    -492.8154    141835.82   -49073.295    3768.2032   -52841.498   0.31893965 
   57600    271.99018   -483.43407    141801.76   -49174.642    3735.1302   -52909.772   0.32212129 
   57700    268.25375   -470.40904    141824.09   -49090.242    3683.8192   -52774.061    0.3039533 
   57800    275.69598   -450.79048    141859.78   -49047.786    3786.0203   -52833.806   0.31472535 
   57900      273.677   -503.30888    141874.99    -49083.98    3758.2946   -52842.275   0.31975409 
   58000    272.73572   -503.22745    141870.45   -49046.754    3745.3684   -52792.123    0.3114868 
   58100    270.76846   -504.37294    141874.01   -49093.728    3718.3528   -52812.081   0.31582724 
   58200    277.48967   -513.45815    141905.23   -48998.049    3810.6524   -52808.701   0.31527085 
   58300      277.677   -478.94716    141891.51   -49059.512    3813.2249   -52872.737   0.31505406 
   58400    271.72633   -547.63724    141862.21   -49099.343    3731.5068    -52830.85   0.30993428 
   58500    272.91686    -516.9678    141838.37   -49102.563    3747.8558   -52850.419    0.3065481 
   58600    274.42428   -466.04091    141797.68   -49127.279    3768.5566   -52895.836   0.32788585 
   58700    271.75362   -507.76838    141822.18   -49087.025    3731.8815   -52818.906   0.31040747 
   58800    274.56298   -465.72074     141786.2   -49121.905    3770.4614   -52892.367   0.30422762 
   58900    275.16361   -499.42872    141822.46   -49051.664    3778.7095   -52830.373   0.32746869 
   59000      272.528   -519.98105    141837.33   -49022.118    3742.5159   -52764.634   0.31800105 
   59100    276.86407   -494.06121    141829.46   -48979.943    3802.0613   -52782.005   0.31071557 
   59200    269.42392   -516.53993    141802.93   -49092.607    3699.8888   -52792.496   0.32654644 
   59300    273.75213   -524.94997    141786.09   -49076.521    3759.3263   -52835.847   0.33398107 
   59400    275.24349   -510.18093    141800.35   -49059.787    3779.8065   -52839.593   0.30479559 
   59500    268.70196    -489.7081    141745.17   -49158.618    3689.9743   -52848.593   0.32026822 
   59600    269.71796   -490.05119    141752.55   -49132.717    3703.9266   -52836.643   0.33645927 
   59700    274.83793   -517.78587    141783.59   -49069.309    3774.2371   -52843.546   0.30884351 
   59800    273.58637   -506.99629    141761.77   -49178.881      3757.05   -52935.931    0.3139741 
   59900    270.16322   -478.18594    141746.19   -49169.336    3710.0412   -52879.377   0.33490445 
   60000     269.4011   -503.82926    141760.08   -49136.815    3699.5753    -52836.39    0.3134591 
   60100     274.5599   -508.27034    141767.98   -49103.059     3770.419   -52873.478   0.31763536 
   60200    273.92755   -475.35763    141769.53   -49074.237    3761.7353   -52835.972     0.327221 
   60300    275.05981   -501.81613     141817.1   -49041.044    3777.2841   -52818.328   0.31758112 
   60400    276.81282   -491.57903    141820.64   -48992.058    3801.3575   -52793.415   0.31282912 
   60500    276.15879   -541.98787    141835.48   -49015.301    3792.3759   -52807.677   0.32076457 
   60600    275.58871   -538.03162    141804.79   -49076.272    3784.5473   -52860.819   0.32543214 
   60700    275.92924   -471.23077    141832.21   -48908.183    3789.2236   -52697.407   0.32204083 
   60800    280.40312   -484.33668    141846.03   -48929.687    3850.6616   -52780.348   0.31550985 
   60900    272.26134   -491.84735    141857.74   -49018.858    3738.8539   -52757.712   0.32008724 
   61000    270.36414   -483.76083     141821.8   -49059.459    3712.8004    -52772.26   0.33042245 
   61100    273.14767   -499.10024     141820.9    -49044.46    3751.0255   -52795.486   0.31793443 
   61200    273.65033   -487.32961    141810.22   -48987.555    3757.9283   -52745.483   0.32057795 
   61300    270.65245   -521.81436    141819.87   -49078.732    3716.7597   -52795.492   0.32427128 
   61400    268.13254   -530.16168    141822.57   -49128.334    3682.1548   -52810.489   0.31857434 
   61500    271.15829   -489.95601    141810.26   -49070.899    3723.7061   -52794.605   0.30962689 
   61600    275.60214   -490.33402    141805.88    -49111.51    3784.7318   -52896.242   0.33320087 
   61700    271.61904   -507.53714    141798.54   -49174.127    3730.0334    -52904.16   0.31225713 
   61800    272.50456    -502.5139    141786.54   -49163.361     3742.194   -52905.555   0.30728491 
   61900    266.22398   -494.26343    141810.89    -49059.29    3655.9452   -52715.235    0.3424055 
   62000    269.53133   -534.20796    141806.93   -49072.117    3701.3637   -52773.481   0.32253498 
   62100    277.72054   -504.49276    141790.79   -49137.818    3813.8228   -52951.641   0.30739119 
   62200    274.88298   -486.18996    141784.59   -49030.675    3774.8558    -52805.53   0.32471409 
   62300    274.48265   -485.86768    141765.83   -49076.395    3769.3583   -52845.754   0.33291938 
   62400     272.2291    -495.7401    141758.25   -49119.915    3738.4111   -52858.326   0.31118026 
   62500    274.28523   -493.62801    141763.81   -49110.836    3766.6472   -52877.483   0.32600942 
   62600    269.89622   -533.59097    141739.69   -49139.516    3706.3747   -52845.891   0.33199253 
   62700    267.40922   -512.36486     141742.4   -49175.001    3672.2217   -52847.222   0.31998631 
   62800    267.78185   -506.81749    141730.14   -49146.842    3677.3389   -52824.181   0.32846314 
   62900    273.97974   -493.20926    141767.75   -49060.729     3762.452   -52823.181   0.32192302 
   63000     274.3707   -510.05893    141790.25   -49091.902    3767.8208   -52859.723   0.31710095 
   63100    268.00154   -514.60024     141765.6    -49158.73    3680.3558   -52839.086   0.31960452 
   63200    275.33157    -464.7825    141786.52   -49044.955    3781.0161   -52825.971   0.31958819 
   63300    269.74475   -519.24739    141760.18   -49138.935    3704.2946    -52843.23   0.31834616 
   63400    267.55611   -501.88708    141765.27   -49225.169    3674.2389   -52899.408   0.32386469 
   63500    268.30425   -508.15191    141751.27   -49197.305    3684.5127   -52881.818   0.31566713 
   63600    264.76942   -510.86237    141744.76   -49241.096    3635.9704   -52877.067   0.31669721 
   63700    268.29309   -478.83533    141731.49   -49211.607    3684.3595   -52895.967   0.33005605 
   63800    266.33366   -491.40816    141734.21   -49277.597    3657.4515   -52935.049   0.31004053 
   63900    271.76108   -492.51069    141772.77   -49176.939     3731.984   -52908.923   0.31548993 
   64000    269.89575   -491.68271    141769.94   -49093.359    3706.3682   -52799.727   0.33399904 
   64100     273.0823   -476.15418    141798.03   -49046.593    3750.1278    -52796.72   0.31000794 
   64200     275.7771   -510.00768    141807.22   -49038.484    3787.1344   -52825.618   0.31367823 
   64300    267.73016   -487.73904    141796.46   -49072.753    3676.6291   -52749.382   0.33801605 
   64400    269.37872   -526.50644    141805.87   -49133.761    3699.2681   -52833.029   0.32096982 
   64500    270.93491    -475.3392       141795    -49121.89    3720.6385   -52842.528   0.30239163 
   64600    267.26026   -508.51985    141792.34    -49155.29    3670.1761   -52825.466   0.32713108 
   64700    268.96796   -499.46865    141766.74   -49161.116    3693.6272   -52854.743   0.32231304 
   64800    274.73068   -487.75292    141767.29   -49106.333    3772.7643   -52879.097   0.30700267 
   64900    276.60207   -461.38122    141803.27   -49026.763    3798.4634   -52825.226   0.32887392 
   65000    272.29038   -491.44349    141812.06   -49016.157    3739.2526    -52755.41   0.32840946 
   65100      274.427   -487.09417    141792.07    -49078.64     3768.594   -52847.234   0.30618276 
   65200    276.90567   -493.67348    141792.42   -49098.607    3802.6325   -52901.239   0.32299212 
   65300    271.05488   -515.33983    141826.03   -49039.002    3722.2861   -52761.288   0.32967477 
   65400    270.55462   -505.16233    141800.76   -49077.402    3715.4162   -52792.818   0.31285461 
   65500    275.01199   -503.02459    141791.02   -49011.201    3776.6274   -52787.828   0.32247389 
   65600    273.90511    -562.7651    141802.71   -49028.021    3761.4271   -52789.448   0.32647548 
   65700    273.58274   -528.89925    141830.37   -48989.841    3757.0001   -52746.841   0.31991562 
   65800    275.09305   -501.17654    141802.35    -49050.49    3777.7406    -52828.23   0.31509508 
   65900    272.57197   -513.43317    141786.85   -49057.665    3743.1197   -52800.784   0.32797707 
   66000    271.65221   -487.29083     141784.6    -49065.43     3730.489   -52795.919   0.31672046 
   66100    279.38805   -491.03789    141808.37   -49039.872     3836.722   -52876.594   0.32452167 
   66200    267.37134   -519.31548    141797.44   -49164.409    3671.7015    -52836.11   0.31478708 
   66300    272.33244    -470.0272    141805.69   -49101.911    3739.8302   -52841.741   0.31243476 
   66400    274.55174   -470.60979    141788.53   -49104.157    3770.3069   -52874.464   0.32850683 
   66500    270.87751   -514.72951    141818.44   -49143.894    3719.8503   -52863.744    0.3100265 
   66600    268.86138   -482.65611    141813.27   -49145.764    3692.1636   -52837.928   0.31704683 
   66700    271.40616   -512.87173    141813.14   -49136.936    3727.1101   -52864.046   0.32022947 
   66800     268.8224   -484.79014    141806.35   -49156.972    3691.6284     -52848.6   0.31368845 
   66900    265.64282   -501.86209    141808.35   -49164.466    3647.9644    -52812.43   0.30983511 
   67000    266.78874   -517.14474    141803.66   -49266.471    3663.7009   -52930.172   0.32407927 
   67100    276.26626   -488.18905    141822.69   -49109.863    3793.8518   -52903.714   0.31986355 
   67200    269.11275    -501.6696       141816   -49208.923    3695.6156   -52904.539   0.30584799 
   67300    268.89659   -502.05861    141818.14   -49133.695    3692.6471   -52826.343    0.3214505 
   67400    268.68605   -508.10797    141815.31    -49115.39    3689.7558   -52805.146   0.32170095 
   67500    267.38665   -509.42954    141826.59   -49101.944    3671.9118   -52773.855   0.30462583 
   67600    281.05985   -494.78724    141867.19   -48964.864    3859.6803   -52824.544   0.32129407 
   67700    275.99682    -502.7046    141864.96   -49031.583    3790.1517   -52821.735   0.32060071 
   67800    270.19316   -496.67786    141886.52   -49074.079    3710.4525   -52784.531    0.3097502 
   67900    270.19255   -521.08235    141881.13   -49105.691     3710.444   -52816.135   0.31893856 
   68000    269.40751   -510.23491    141817.96   -49136.891    3699.6634   -52836.554   0.31899043 
   68100    269.89219   -533.59567    141804.79   -49143.866    3706.3192   -52850.185   0.31371449 
   68200    273.16207   -468.44012    141822.58   -49111.148    3751.2233   -52862.372   0.31141635 
   68300    271.19839   -458.28507    141863.44   -49061.948    3724.2568   -52786.205   0.30813179 
   68400    276.90285   -520.83084    141861.15   -49030.197    3802.5938   -52832.791   0.31499792 
   68500    275.83995   -504.22924    141869.14   -49030.756    3787.9974   -52818.753   0.31194948 
   68600    273.50556   -513.56033    141847.18   -49116.015    3755.9402   -52871.956   0.30990476 
   68700    272.31277   -483.62605    141822.42   -49090.787    3739.5601   -52830.347   0.31488743 
   68800    269.54251   -502.38029    141809.59    -49084.72    3701.5173   -52786.237   0.32727672 
   68900    274.43686   -458.11065    141789.41   -49085.065    3768.7294   -52853.795   0.31853534 
   69000    276.17021   -503.70407    141817.96   -49083.869    3792.5328   -52876.402   0.30902948 
   69100    271.55833    -481.2627    141782.24   -49142.022    3729.1997   -52871.221   0.33135896 
   69200    269.05647   -496.62206    141786.49   -49156.222    3694.8428   -52851.064   0.30633172 
   69300    266.91602   -522.11101    141782.12   -49186.736    3665.4487   -52852.184   0.31241665 
   69400    267.19444   -501.65026    141749.62   -49230.118    3669.2722    -52899.39   0.33009213 
   69500    272.75923    -489.5908       141760   -49100.838    3745.6912    -52846.53    0.3109236 
   69600    278.21056    -494.6889    141856.01   -49005.787    3820.5521   -52826.339   0.31663949 
   69700    270.96222   -509.36582    141853.78   -49091.785    3721.0135   -52812.798   0.33065621 
   69800    275.58536   -507.15307    141853.16     -49094.7    3784.5013   -52879.201   0.30728431 
   69900    272.18304   -543.72419    141812.33   -49185.007    3737.7787   -52922.786   0.30988311 
   70000    271.78426   -482.27373    141810.52   -49115.955    3732.3023   -52848.257   0.32611081 
   70100    268.69976    -535.1478    141776.57   -49229.251    3689.9441   -52919.195    0.3122974 
   70200    270.80326   -528.02244    141800.16   -49076.352    3718.8307   -52795.182    0.3191123 
   70300     274.9768   -512.67943    141837.68   -49086.431    3776.1442   -52862.575   0.32261928 
   70400    274.15768   -479.66062    141885.08    -48981.18    3764.8956   -52746.076   0.31582324 
   70500    278.42654   -476.73578    141892.86   -49054.892     3823.518    -52878.41     0.302408 
   70600     275.8044   -478.42333    141856.07   -49108.513    3787.5093   -52896.023    0.3167047 
   70700    270.00268   -498.72171    141864.49   -49081.022    3707.8366   -52788.859   0.30684423 
   70800    273.04618   -512.63738    141858.65   -49116.557    3749.6318   -52866.189   0.31139031 
   70900    272.52116   -515.81008    141819.46   -49107.933    3742.4219   -52850.355   0.31813839 
   71000    272.81011   -501.49104    141830.83    -49128.46    3746.3899   -52874.849   0.30581737 
   71100    273.40123   -492.81877    141780.36   -49109.321    3754.5075   -52863.828   0.32364021 
   71200    271.03232   -511.70958    141796.04   -49150.453    3721.9763   -52872.429   0.31379945 
   71300    269.21437   -477.34073    141780.45   -49196.889     3697.011     -52893.9   0.31141561 
   71400    273.36076   -469.01048     141788.3   -49136.716    3753.9517   -52890.668   0.31791547 
   71500    272.98718   -515.50858    141799.59   -49092.347    3748.8216   -52841.168   0.31868534 
   71600     274.9123   -492.10193    141803.73   -49107.428    3775.2584   -52882.686    0.3017416 
   71700    271.93727   -481.92288    141808.51   -49098.816    3734.4036    -52833.22   0.31714287 
   71800    264.67252   -515.87063    141767.18   -49264.171    3634.6397   -52898.811   0.32117954 
   71900    267.58993   -519.99636    141734.56   -49207.494    3674.7033   -52882.197   0.30585767 
   72000    268.98355   -505.08582    141761.11   -49178.603    3693.8414   -52872.444   0.33019196 
   72100     278.2261    -500.1794    141823.67   -49054.461    3820.7655   -52875.226   0.31999771 
   72200    277.82789   -465.64025    141849.02   -48948.868     3815.297   -52764.165   0.30603267 
   72300    279.85284   -543.09845    141885.85   -48924.256    3843.1048    -52767.36   0.31937843 
   72400    273.56431   -527.59433    141838.85   -49041.199    3756.7471   -52797.946   0.31697889 
   72500    276.83151   -478.25775    141797.68   -49031.105    3801.6142   -52832.719   0.31337728 
   72600    274.58379   -491.65522    141831.95    -48977.88    3770.7471   -52748.627   0.31284358 
   72700    269.85868   -522.67288    141795.31   -49124.544    3705.8592   -52830.403   0.32750133 
   72800    268.91587   -523.73528    141795.53   -49058.499    3692.9118   -52751.411   0.31913116 
   72900    275.80732   -495.33391     141821.4   -49066.832    3787.5494   -52854.381   0.31221791 
   73000     275.7296   -485.99187     141768.7   -49078.133    3786.4821   -52864.615   0.32651492 
   73100    276.98831   -505.99488    141757.08    -49032.85    3803.7674   -52836.617   0.31950699 
   73200    275.34127   -533.72101     141774.7    -49014.38    3781.1493   -52795.529   0.33076937 
   73300    274.42636   -506.68237    141830.56   -48998.824    3768.5852   -52767.409   0.31673783 
   73400    277.14739   -486.49286    141819.53   -48974.988     3805.952    -52780.94   0.31270638 
   73500     275.3022    -480.5075     141845.7   -48989.662    3780.6128   -52770.274   0.32681882 
   73600     278.2097   -484.86832    141826.29   -49027.251    3820.5402   -52847.791   0.31089259 
   73700     273.5955   -483.56014    141825.39   -49086.529    3757.1754   -52843.704   0.31887247 
   73800    271.46511   -512.21838    141803.71   -49170.464    3727.9196   -52898.384   0.32600645 
   73900    268.07947   -505.70935    141838.67    -49158.93     3681.426   -52840.356   0.31074303 
   74000    272.22315   -484.61211    141811.54   -49082.318    3738.3295   -52820.647   0.31539108 
   74100    275.32132   -488.93125    141859.32   -48928.788    3780.8753   -52709.663   0.32699741 
   74200    275.37749   -544.02107    141837.42   -49086.734    3781.6467   -52868.381   0.31436163 
   74300    277.07901   -477.48236    141797.79   -49086.603    3805.0129   -52891.616   0.30699502 
   74400    269.39178   -558.48292    141802.29   -49115.237    3699.4474   -52814.685   0.33704872 
   74500    271.49589   -474.84574     141803.4   -49133.551    3728.3423   -52861.893   0.31940577 
   74600    269.84612   -496.64391    141807.48   -49137.588    3705.6866   -52843.275   0.30484752 
   74700    274.14757   -499.91739    141846.24   -49058.185    3764.7567   -52822.942   0.32154795 
   74800    268.53651    -493.6854    141840.96   -49105.431    3687.7023   -52793.133   0.32114227 
   74900    270.29368   -501.49524    141846.14   -49114.273    3711.8329   -52826.105   0.30269277 
   75000    271.88547   -481.03346    141828.68   -49095.175    3733.6923   -52828.867   0.31649295 
   75100    269.74807   -486.41639    141832.71   -49028.271    3704.3401   -52732.611   0.32477124 
   75200    274.72161   -523.99002    141842.74   -49071.384    3772.6397   -52844.023   0.30489767 
   75300     272.7367   -527.40844    141804.61   -49118.559    3745.3818   -52863.941   0.32561417 
   75400    270.87016   -481.27107    141796.27   -49125.477    3719.7493   -52845.226   0.31680633 
   75500    271.79145   -502.04495    141811.38   -49124.584     3732.401   -52856.985   0.31220899 
   75600    274.99152   -507.22654    141822.15     -49058.4    3776.3463   -52834.746   0.31623824 
   75700    273.10318   -507.66669    141861.98   -49023.136    3750.4145   -52773.551   0.31635457 
   75800     274.4298   -525.53871    141871.04   -49041.964    3768.6324   -52810.597   0.31408513 
   75900    275.50271   -485.14134     141840.7    -49055.94    3783.3662   -52839.306   0.30988003 
   76000    272.43746    -501.4187    141830.13   -49062.376    3741.2725   -52803.648   0.31962482 
   76100    273.64956   -534.11483    141805.53   -49142.288    3757.9177   -52900.205   0.32126198 
   76200     267.9936   -521.16708       141787   -49186.846    3680.2467   -52867.093   0.32885422 
   76300    271.27413   -475.73683    141808.82    -49128.72     3725.297   -52854.017   0.30850983 
   76400    269.25659   -488.21601    141789.17   -49122.553    3697.5909   -52820.144   0.31682216 
   76500     272.4749   -491.31885    141821.61   -49114.254    3741.7867    -52856.04   0.32608328 
   76600    270.21183   -494.76599    141820.93   -49150.257    3710.7088   -52860.966   0.30221776 
[...]
   81900    272.87984   -487.58699    141796.11    -49149.57    3747.3475   -52896.917   0.30741165 
   82000    275.63068    -468.9208    141814.08   -49061.959    3785.1236   -52847.083   0.30557982 
   82100    273.97904   -478.11771    141830.96   -49011.834    3762.4424   -52774.277   0.32782601 
   82200    270.38753   -505.27072    141858.85    -49023.88    3713.1216   -52737.001   0.31858013 
   82300    270.96017   -527.16098    141837.18   -49101.185    3720.9854    -52822.17   0.30202462 
   82400     277.0743   -490.83239    141873.17   -48988.141    3804.9483   -52793.089   0.31932186 
   82500    277.10564    -536.4848     141908.2   -48892.065    3805.3786   -52697.444   0.32743913 
   82600    279.41082   -514.91486    141925.54   -48994.948    3837.0348   -52831.983   0.29893961 
   82700    278.36087    -524.4641    141866.72   -49074.318    3822.6163   -52896.934   0.30996638 
   82800    274.92525   -516.10192    141846.78   -49079.288    3775.4363   -52854.725   0.32700481 
   82900    275.70129   -492.07057     141845.2   -49035.863    3786.0932   -52821.956   0.30528624 
   83000    276.90352     -488.019    141875.34    -48971.94     3802.603   -52774.543   0.30816554 
   83100    273.45814   -507.10797    141876.98   -49011.467     3755.289   -52766.756   0.32737974 
   83200    273.71447   -508.03963    141857.21   -49044.298    3758.8091   -52803.107   0.31762854 
   83300    273.12456   -470.35903    141841.41   -49034.222    3750.7081    -52784.93   0.30285754 
   83400     267.6088   -540.56119    141811.85   -49105.568    3674.9624    -52780.53   0.32680391 
   83500    271.64393   -515.73793     141769.3   -49207.511    3730.3752   -52937.886   0.32458933 
   83600    267.24007   -507.71255    141779.72   -49154.544    3669.8988   -52824.443   0.30696862 
   83700    270.18779   -536.76252     141786.1   -49180.678    3710.3786   -52891.057   0.31293451 
   83800    274.94747   -473.39756    141792.94   -49148.997    3775.7414   -52924.739   0.32525816 
   83900     270.7206   -493.51386     141817.7    -49146.62    3717.6955   -52864.315   0.31139286 
   84000    270.49943   -534.68439    141800.21   -49172.352    3714.6583    -52887.01   0.30195021 
   84100    275.86438   -494.12307    141825.34   -49101.869     3788.333   -52890.202   0.32494118 
   84200    275.04857    -478.8053     141842.5   -49054.189    3777.1297   -52831.319   0.31758036 
   84300    269.53096   -507.79166    141822.81   -49107.892    3701.3587    -52809.25   0.30139113 
   84400    271.87016   -522.61844    141823.33   -49103.653     3733.482   -52837.135   0.31856945 
   84500    269.11969   -487.09302    141799.12   -49150.961    3695.7108   -52846.672   0.33475443 
   84600    276.28099   -508.04753    141828.14    -49072.83    3794.0541   -52866.884   0.30377591 
   84700     273.2597   -501.66534    141845.08    -49079.96    3752.5639   -52832.523   0.31233686 
   84800    276.46976   -515.36635    141840.52   -49077.725    3796.6464   -52874.372   0.33648253 
   84900    278.45561    -511.5874    141853.97   -49001.279    3823.9172   -52825.196    0.3019444 
   85000     268.5812   -476.93121    141802.63   -49057.954     3688.316    -52746.27   0.31429757 
   85100    274.52141   -453.87068    141833.02   -49089.504    3769.8905   -52859.395   0.32483148 
   85200    267.74066   -525.83916    141838.63   -49125.509    3676.7733   -52802.283   0.31840597 
   85300    273.41202   -527.23169    141828.95   -49138.123    3754.6557   -52892.779   0.30328142 
   85400    267.40417   -487.11217    141813.02   -49162.645    3672.1524   -52834.797   0.32302317 
   85500    274.79599   -502.10514    141849.85   -49116.173    3773.6611   -52889.834   0.32391729 
   85600    270.98002   -489.67177    141820.32   -49142.157     3721.258   -52863.415   0.30335894 
   85700    272.46768   -493.57964    141812.86   -49085.994    3741.6874   -52827.682   0.32127587 
   85800     274.4149   -503.99985    141834.69   -49080.642    3768.4279    -52849.07    0.3168941 
   85900    271.95405   -496.52163    141829.01   -49050.506    3734.6339    -52785.14   0.30766186 
   86000    272.23109   -493.77769    141842.19   -49101.873    3738.4385   -52840.312   0.31880458 
   86100    272.58113   -477.85573    141832.48   -49071.686    3743.2454   -52814.932   0.31207494 
   86200    277.28825   -499.39218    141854.56   -49042.513    3807.8864   -52850.399   0.31422899 
   86300    273.99373    -514.1152    141837.56   -49086.433    3762.6441   -52849.077   0.31902594 
   86400    272.34296   -505.37216    141792.31   -49143.522    3739.9747   -52883.497   0.31348104 
   86500    272.97824   -483.43673    141805.39   -49174.216    3748.6988   -52922.915   0.32402612 
   86600    278.09042   -469.38268    141815.16   -49014.311    3818.9023   -52833.214   0.30581469 
   86700     275.6072   -527.74159     141850.3   -49020.159    3784.8013    -52804.96   0.31208141 
   86800    273.82446   -518.61614    141815.82   -49127.374    3760.3196   -52887.694   0.31691331 
   86900    270.35458   -511.54688    141799.99   -49120.055    3712.6692   -52832.724   0.32077147 
   87000    274.15824   -503.39232    141777.51   -49091.275    3764.9033   -52856.178   0.31831475 
   87100     275.3295   -485.50089    141771.59   -49063.175    3780.9877   -52844.163   0.31576974 
   87200    275.94112   -496.26158    141812.68   -49008.266    3789.3868   -52797.652   0.33374942 
   87300    273.67016   -524.91818     141813.9   -49015.714    3758.2006   -52773.915   0.30920258 
   87400    273.03766   -532.51739    141797.33   -49069.623    3749.5147   -52819.137   0.31725248 
   87500    272.49892   -478.92508    141791.31   -49036.634    3742.1165   -52778.751   0.33415216 
   87600    272.07024   -500.97995    141842.33    -49066.83    3736.2296    -52803.06   0.30515224 
   87700    274.62198   -513.97622    141824.73    -49037.79    3771.2716   -52809.062   0.31532588 
   87800    272.95701   -520.04507       141818   -49120.297    3748.4072   -52868.705   0.32614607 
   87900    269.28108   -481.40205     141791.7   -49137.692    3697.9271   -52835.619   0.30818889 
   88000     267.0138   -527.09822    141772.09   -49111.695    3666.7915   -52778.487   0.31402627 
   88100    271.10693   -493.99768    141795.01   -49084.871    3723.0008   -52807.872   0.33099818 
   88200    268.45189   -504.13147    141774.67   -49175.018    3686.5403   -52861.559   0.31945769 
   88300     269.2696   -488.16508    141765.93   -49123.766    3697.7695   -52821.535   0.30383355 
   88400    276.38979   -468.44391    141774.86   -49052.033    3795.5482   -52847.582   0.32511633 
   88500    270.51927   -509.18291    141788.85   -49124.477    3714.9307   -52839.407    0.3177954 
   88600    272.82491   -497.11263    141762.41   -49109.221    3746.5931   -52855.815    0.3122574 
   88700    271.33605   -488.73103    141767.96   -49078.486    3726.1473   -52804.633    0.3308759 
   88800    267.45922   -536.47384    141797.28   -49144.059    3672.9083   -52816.967   0.32126736 
   88900    277.16355   -503.37621    141763.18   -49085.011    3806.1739   -52891.185   0.31908054 
   89000    272.99108   -494.16555    141804.28   -49058.531    3748.8751   -52807.406   0.32370729 
   89100    270.19389   -492.13222    141792.33   -49104.578    3710.4624    -52815.04   0.31341283 
   89200    272.59403   -487.32018    141805.47   -49057.275    3743.4225   -52800.697    0.3101882 
   89300    267.58348   -526.01731    141768.31   -49169.121    3674.6147   -52843.736   0.32685316 
   89400    273.43253   -521.91605    141782.38   -49076.296    3754.9374   -52831.233   0.32295665 
   89500    269.34678    -549.6868     141781.1   -49171.698    3698.8294   -52870.527   0.31690874 
   89600    270.81781   -480.18831    141736.85    -49190.64    3719.0305    -52909.67   0.32641418 
   89700    271.95546   -467.64853    141735.98    -49111.53    3734.6534   -52846.183    0.3198822 
   89800    275.41136   -509.71321    141789.44   -49053.371    3782.1118   -52835.483   0.31663582 
   89900    275.97128   -502.21958    141805.49   -49039.567    3789.8009   -52829.368   0.33830196 
   90000    276.63805   -474.74473    141804.67   -49054.531    3798.9574   -52853.489   0.30866022 
   90100    271.93551   -506.15231    141802.15   -49039.503    3734.3793   -52773.883   0.31736165 
   90200    273.66997   -535.56995    141779.66   -49111.637     3758.198   -52869.835   0.33570963 
   90300    274.13444   -485.65943    141767.55   -49085.812    3764.5764   -52850.389   0.31617476 
   90400    274.50794   -510.03039    141775.05   -49073.625    3769.7056    -52843.33   0.32034352 
   90500    274.99464   -506.27574    141771.87   -49080.111    3776.3892     -52856.5   0.33880265 
   90600    270.26881    -476.3738    141755.07   -49102.795    3711.4913   -52814.287    0.3228658 
   90700    272.39046   -500.50141    141743.55   -49132.366     3740.627   -52872.993   0.31607827 
   90800     267.6618   -494.48205    141744.98   -49150.975    3675.6903   -52826.666    0.3402551 
   90900    266.93373   -574.20983    141723.86   -49121.321     3665.692   -52787.013   0.32639479 
   91000    269.89444   -495.77174    141722.05   -49142.999    3706.3501   -52849.349   0.31990563 
   91100    265.24042   -535.12979    141708.56    -49245.76    3642.4384   -52888.199   0.33681261 
   91200     273.8548    -466.8583    141694.61   -49190.479    3760.7361   -52951.216   0.32299014 
   91300    273.69937   -445.03581    141745.68   -49128.105    3758.6017   -52886.706   0.30784602 
   91400    274.13363   -507.83239    141745.73   -49105.827    3764.5653   -52870.393   0.32857709 
   91500    281.82893   -513.73999    141790.99    -48952.54    3870.2416   -52822.782   0.32079929 
   91600    274.40813   -480.35643    141808.62   -49015.972    3768.3349   -52784.307    0.3154549 
   91700    271.76131   -479.98982    141797.86   -49082.021    3731.9872   -52814.008   0.33342478 
   91800    272.37892    -536.1741    141795.73   -49057.128    3740.4685   -52797.597   0.31132344 
   91900    274.07839   -482.55446    141793.61   -49047.481    3763.8066   -52811.288   0.32146444 
   92000    273.06121   -524.69416    141781.88   -49091.201    3749.8381    -52841.04   0.33154237 
   92100    274.12648   -522.87799     141784.5   -49079.789    3764.4671   -52844.256   0.30459285 
   92200    276.09971   -444.21879    141779.26   -49111.312    3791.5646   -52902.877   0.31515294 
   92300    271.25827   -499.14392    141806.36   -48992.119    3725.0791   -52717.198   0.32989328 
   92400    275.40583    -483.3032    141803.81   -49035.342    3782.0359   -52817.378   0.31005434 
   92500     274.2748   -508.91486    141807.95    -49029.27    3766.5039   -52795.774     0.312704 
   92600    276.79787   -478.48844    141830.43   -48948.178    3801.1521    -52749.33   0.33400253 
   92700    272.12493   -532.31711    141807.77    -49062.44    3736.9806    -52799.42   0.31532038 
   92800    270.25082   -542.40668    141804.77   -49075.922    3711.2442   -52787.167   0.31004971 
   92900    270.57534   -518.97999    141788.57   -49111.546    3715.7007   -52827.246   0.34129285 
   93000    271.57112   -509.04384    141802.41   -49121.067    3729.3754   -52850.442   0.30592191 
   93100    272.14811   -472.69291    141801.28   -49037.066    3737.2989   -52774.364    0.3094375 
   93200    270.64705   -528.40677    141817.68   -49096.449    3716.6855   -52813.135   0.33720925 
   93300    274.03559    -482.8851    141804.33   -49145.246    3763.2189   -52908.465   0.30626539 
   93400    268.86867   -516.18024    141779.16   -49197.324    3692.2638   -52889.588   0.31281922 
   93500    268.51861   -535.91415    141783.23   -49200.014    3687.4565    -52887.47   0.32445026 
   93600    271.73696   -496.61224    141786.73   -49150.616    3731.6527   -52882.269   0.31491124 
   93700    270.87755   -479.84261    141788.03   -49132.258    3719.8509   -52852.109   0.31175688 
   93800    271.49161   -476.69825    141783.03   -49128.971    3728.2835   -52857.254   0.32152464 
   93900    270.37454   -517.19227    141773.12   -49203.093    3712.9433   -52916.036   0.32015843 
   94000    274.16685     -475.178    141781.07   -49173.234    3765.0214   -52938.255   0.31445613 
   94100    271.90529   -494.88011    141812.49   -49061.484    3733.9643   -52795.448   0.32341973 
   94200    274.97046   -453.07701    141826.66   -49053.683    3776.0571    -52829.74   0.31211021 
   94300    275.86299   -469.66918     141835.1   -49065.914    3788.3138   -52854.228   0.32024527 
   94400    274.65461   -485.91305    141830.78   -49059.941    3771.7197    -52831.66   0.32181064 
   94500    270.34714   -497.99525    141834.37   -49060.785    3712.5669   -52773.352   0.31093352 
   94600    273.99637   -486.62953     141804.3     -49069.6    3762.6803    -52832.28   0.32214405 
   94700    274.63116   -494.44951    141815.28   -49109.242    3771.3976    -52880.64   0.32440649 
   94800    266.13414   -482.17993    141782.51   -49142.096    3654.7115   -52796.808   0.30938407 
   94900    268.55405   -493.83076    141805.21   -49168.295    3687.9432   -52856.238   0.32420534 
   95000    270.46775    -497.0549    141800.76   -49132.965    3714.2232   -52847.189   0.32793672 
   95100    271.86718   -503.18205    141789.18   -49097.054     3733.441   -52830.495   0.30120737 
   95200    270.69232   -483.13159    141787.15   -49118.733    3717.3072   -52836.041   0.32156016 
   95300    268.37875   -509.79806    141785.74   -49078.711    3685.5358   -52764.246   0.33771922 
   95400      272.298   -478.50056    141793.49   -49045.163    3739.3573    -52784.52   0.30096485 
   95500    267.86565   -529.94083    141807.22   -49065.185    3678.4897   -52743.675   0.32823703 
   95600    274.13137   -482.96751     141786.1   -49047.336    3764.5342    -52811.87   0.33490325 
   95700    273.02193   -527.30627    141773.38   -49085.016    3749.2988   -52834.315   0.31082216 
   95800    276.19657   -480.97462    141779.13   -49032.209    3792.8948   -52825.104    0.3235407 
   95900    274.60129   -474.00009    141796.27   -49051.614    3770.9875   -52822.601   0.33911027 
   96000    273.04894   -475.67713    141808.71   -49019.881    3749.6696   -52769.551   0.31442724 
   96100    277.68575   -504.72777    141852.72   -48966.844     3813.345   -52780.189   0.31961418 
   96200    275.81176   -501.98136     141851.7   -48996.333    3787.6103   -52783.943   0.33338256 
   96300     275.1707   -499.98784    141823.51   -49006.979    3778.8069   -52785.786   0.30963447 
   96400      275.726    -489.5391    141807.13   -49060.786    3786.4326   -52847.219   0.32767751 
   96500    272.49204    -505.4775    141772.44   -49053.865     3742.022   -52795.887   0.33368041 
   96600    272.64572   -487.82714    141759.93   -49104.616    3744.1325   -52848.749   0.31473137 
   96700    278.94449   -509.58898    141759.67   -49074.913    3830.6308   -52905.544   0.32913831 
   96800    273.21403    -481.4116    141768.57   -49090.682    3751.9367   -52842.619   0.31811682 
   96900    274.39603   -472.28902     141767.2    -49099.86    3768.1687   -52868.029   0.31292226 
   97000    266.81472   -539.34785    141757.01   -49167.742    3664.0577     -52831.8   0.32844331 
   97100    271.96459   -490.77387     141772.9   -49140.464    3734.7787   -52875.243   0.32105664 
   97200    275.12383   -501.39838    141776.86   -49083.591    3778.1633   -52861.755   0.30754575 
   97300     276.0445   -482.11812    141823.76   -48979.001    3790.8065   -52769.808   0.34139941 
   97400    270.93178   -512.36867    141784.31   -49065.526    3720.5956   -52786.121     0.328839 
   97500    275.90861   -505.20733    141810.63   -49044.436    3788.9403   -52833.376   0.29525557 
   97600    274.09681   -465.09112    141805.25   -48983.836    3764.0596   -52747.896   0.34806125 
   97700    275.70846   -514.52895    141823.79   -48946.902    3786.1918   -52733.094   0.32239674 
   97800    277.85462   -528.35899    141808.52    -49052.83    3815.6641   -52868.494   0.29948972 
   97900    279.02753   -507.39679    141799.26    -49011.96    3831.7712   -52843.731   0.34587841 
   98000    273.32251   -501.20278    141788.17   -49095.865    3753.4265   -52849.292   0.32600899 
   98100    273.20018   -498.57493    141805.26   -49080.535    3751.7466   -52832.281   0.30272873 
   98200    273.53756   -502.28538    141784.84   -49073.012    3756.3797   -52829.392   0.33257911 
   98300    276.37783   -468.03732    141809.89   -49017.043    3795.3839   -52812.427   0.33614718 
   98400    270.11283   -521.56897    141818.06   -49059.402    3709.3492   -52768.752   0.30649748 
   98500    273.58205   -485.84438     141802.8   -49038.637    3756.9907   -52795.628    0.3316402 
   98600    274.22146    -491.1789    141812.88   -49049.844    3765.7714   -52815.615     0.328911 
   98700    272.61059   -477.96932    141803.62   -49013.885    3743.6499   -52757.535   0.30441667 
   98800    274.40932   -491.94162    141823.91   -49022.381    3768.3512   -52790.732   0.32770398 
   98900    272.78419    -528.0006    141834.41    -49089.66     3746.034   -52835.694   0.32359101 
   99000    268.55513   -521.09705    141804.56   -49077.661    3687.9579   -52765.619   0.31413883 
   99100    272.30844    -494.1934    141806.85   -49137.603    3739.5007   -52877.104    0.3234359 
   99200    269.14805   -533.73797    141803.57   -49142.311    3696.1004   -52838.412   0.31551174 
   99300    271.47682   -503.98571    141825.75   -49065.795    3728.0803   -52793.875   0.31299928 
   99400    275.62013   -507.42856    141821.07   -49110.013    3784.9788   -52894.992   0.32026158 
   99500    281.03412   -501.69953    141844.95   -49065.262    3859.3269   -52924.589   0.30313491 
   99600     274.1765   -467.79093     141848.7   -49060.559     3765.154   -52825.713    0.3132415 
   99700    271.41127    -483.1503    141833.17   -49108.268    3727.1802   -52835.448   0.32293682 
   99800    270.48454   -496.53872    141817.87   -49117.894    3714.4538   -52832.348   0.30493001 
   99900    267.31424   -516.60545    141809.32   -49167.135    3670.9173   -52838.052   0.30826205 
  100000    276.45274   -456.71049    141827.16   -49087.342    3796.4126   -52883.754   0.33404229 
Loop time of 235.351 on 6 procs for 100000 steps with 4608 atoms

Performance: 183.556 ns/day, 0.131 hours/ns, 424.897 timesteps/s
91.0% CPU use with 6 MPI tasks x no OpenMP threads

MPI task timing breakdown:
Section |  min time  |  avg time  |  max time  |%varavg| %total
---------------------------------------------------------------
Pair    | 97.115     | 97.974     | 99.058     |   8.0 | 41.63
Neigh   | 6.3304     | 6.4949     | 6.7354     |   6.5 |  2.76
Comm    | 127.29     | 128.17     | 129.02     |   6.0 | 54.46
Output  | 0.16926    | 0.17005    | 0.17324    |   0.3 |  0.07
Modify  | 1.8415     | 1.9055     | 1.9612     |   2.8 |  0.81
Other   |            | 0.6387     |            |       |  0.27

Nlocal:        768.000 ave         774 max         759 min
Histogram: 1 0 0 0 1 1 1 0 0 2
Nghost:        1655.50 ave        1665 max        1638 min
Histogram: 1 0 0 0 1 0 0 2 0 2
Neighs:        0.00000 ave           0 max           0 min
Histogram: 6 0 0 0 0 0 0 0 0 0
FullNghs:      24201.7 ave       24435 max       23853 min
Histogram: 1 0 0 0 0 1 2 0 1 1

Total # of neighbors = 145210
Ave neighs/atom = 31.512587
Neighbor list builds = 6566
Dangerous builds = 0

undump              1
unfix               2
unfix               3
unfix               4




################################################
#######         Run Simulation         #########
################################################

reset_timestep      0
log                 log.run_${NAME}
log                 log.run_ice_273K_-500atm_mW
