LAMMPS data file via write_data, version 29 Oct 2020, timestep = 200000

4608 atoms
1 atom types

-0.07033425428469187 57.340844254286324 xlo xhi
-0.06251933714355218 50.969639337143946 ylo yhi
-0.06251933714355218 50.969639337143946 zlo zhi

Masses

1 18.015

Atoms # atomic

5 1 1.7719714863283915 1.7016804171885158 1.661080528940638 0 0 0
386 1 -0.04340537422149282 3.244075868910253 16.10360526067493 0 0 0
57 1 6.296715519263817 12.6336753267524 0.259522458681594 0 0 0
10 1 6.539911557639025 2.900994535292076 3.2781368647153375 0 0 0
13 1 7.9250491693765115 1.6970212061646408 1.423522404067626 0 0 0
18 1 12.955143830193322 3.415455279085475 2.9177905045069994 0 0 0
21 1 14.27624816257465 1.4201660240096186 1.7091091778251624 0 0 0
27 1 3.2087270257093414 5.997589263130065 2.9477313988482567 0 0 0
8 1 5.188026551840532 4.601568519401241 1.6625713343521917 0 0 0
2329 1 18.810727139014755 6.368056904176607 25.32211945411924 0 0 0
16 1 11.322307875474886 4.794902977677301 1.3608176887063868 0 0 0
20 1 15.979263870232945 3.3388844497104055 0.3281331464755179 0 0 0
24 1 17.48150904656192 5.016307235279392 1.590832421955423 0 0 0
766 1 14.261773621690871 49.390653057541186 23.832688652566624 0 0 0
29 1 1.538944361547057 7.460288530166242 1.281068188943098 0 0 0
37 1 8.406315795753208 8.154599522911653 1.4575446066660405 0 0 0
35 1 9.586494385815751 6.186799615549606 2.875181253595652 0 0 0
42 1 12.63668343005597 10.043495241730861 3.4694688103397655 0 0 0
45 1 14.285691866615197 8.150727599724656 1.5809611380805473 0 0 0
649 1 0.16276848455621915 18.88183590062009 18.893870469816456 0 0 0
32 1 4.8284038467629555 10.957218185963212 1.6864131973920247 0 0 0
746 1 0.024217387421616735 47.827086481378856 22.363250001708764 0 0 0
812 1 15.633285075819611 9.72306578559892 25.314275184260467 0 0 0
40 1 11.127270310828704 11.476869017410417 1.9352038121594006 0 0 0
48 1 17.44961828808757 11.487032033838977 1.8561414306089254 0 0 0
53 1 1.3999648461246053 14.148494603629011 1.147170897189138 0 0 0
51 1 2.944782164863494 12.562403936027716 2.9250631770994753 0 0 0
58 1 6.101562159935973 16.059159721100695 3.2026287861017595 0 0 0
61 1 7.820583546713807 14.2569671715192 1.802056067597169 0 0 0
28 1 3.251901347456404 9.297489163102183 0.061001134776081004 0 0 0
69 1 14.517054490927045 14.439336296906601 2.0772427470213324 0 0 0
56 1 4.547865892709509 17.3774523245002 1.4239004973296283 0 0 0
745 1 -0.008201922224229156 44.48205057827796 19.225638113456533 0 0 0
64 1 11.213350030614576 17.35146664818776 1.716830769844554 0 0 0
820 1 3.038251225513483 15.726769408483417 25.285471719243823 0 0 0
72 1 17.390644080688528 17.519111764886848 2.031742781049607 0 0 0
77 1 1.4696192948302054 20.616949089911742 1.4670825342662897 0 0 0
75 1 3.149594632618029 19.326772095808206 3.0258660519584004 0 0 0
85 1 7.950140103696672 20.825661049146767 1.4873581321737779 0 0 0
2 1 0.08840569557719882 3.1294245740831457 3.34722041136992 0 0 0
93 1 14.28100447836869 20.789582033298668 1.718601567899954 0 0 0
758 1 8.222861781689582 49.53141549586094 23.71788376521249 0 0 0
80 1 4.7063996368559575 23.886067321312783 1.357317999770808 0 0 0
41 1 12.691355248663976 6.598496549707539 0.003683260954282855 0 0 0
82 1 6.331654447203222 22.33609662993669 3.1264128029225593 0 0 0
88 1 11.218562366227873 24.13193728972089 1.7492843384415036 0 0 0
96 1 17.499955258378034 23.820909756689094 1.163820229206547 0 0 0
750 1 1.5495836911821956 49.48009077272465 24.06664827898053 0 0 0
101 1 1.8668132063764986 26.947312914506636 1.5634160811064417 0 0 0
99 1 2.937633976806408 25.198510135984804 3.29616399776986 0 0 0
109 1 7.899155227551911 27.312505465067737 1.6516898560482152 0 0 0
50 1 -0.03486382771443175 16.04620068804159 2.817612834072822 0 0 0
117 1 14.822254765009918 27.063733125119843 1.8429628447101591 0 0 0
170 1 0.2404209293485674 47.487500711521875 3.4116307436267728 0 0 0
89 1 12.717191219350461 19.245722903373593 0.18112872364172544 0 0 0
123 1 2.8890913343854168 31.48574668013811 3.2073417102085497 0 0 0
104 1 4.77686401712982 30.113479346928667 1.6255309523117087 0 0 0
290 1 -0.013355823703776082 29.074327106949713 9.329863563543903 0 0 0
112 1 11.633033924487316 30.003285464475862 1.3981451524318904 0 0 0
120 1 17.63244067276377 30.51214093321542 1.3769037185988247 0 0 0
828 1 9.726508509481196 15.452515940714349 25.438323606582735 0 0 0
125 1 1.26110295424139 33.4284170245197 1.441126396577277 0 0 0
133 1 8.052225939735568 33.260622559392814 1.5628165895639288 0 0 0
131 1 9.894311942695067 31.56918317071442 2.884760873278307 0 0 0
141 1 14.060967928098535 33.55700398403654 1.5249654662919545 0 0 0
98 1 0.0988408763939628 28.48820042477795 3.2848157104742293 0 0 0
147 1 3.3467400492161246 38.147232583429 3.4017364876534137 0 0 0
128 1 4.582149548946343 36.33665433423003 1.5830399085357092 0 0 0
130 1 6.245665382658222 34.88888790590052 3.1259497624949595 0 0 0
136 1 11.12816538084883 36.618150261597094 1.4947726653051565 0 0 0
155 1 9.614848212246951 38.510052123373356 3.0017851361605765 0 0 0
361 1 0.1000543058000068 44.98731000841735 6.094752755211619 0 0 0
144 1 17.25381827183054 36.907882595412644 1.2827386055630157 0 0 0
2282 1 18.92604228738839 47.73524581661593 22.295778191844907 0 0 0
149 1 1.581071240120705 39.93262720000379 1.676518243567145 0 0 0
157 1 7.880292913747694 39.63817251935225 1.3168770062224504 0 0 0
154 1 6.716477758094513 41.58233683564386 3.277211674200465 0 0 0
165 1 14.307621353301046 39.80640798835947 1.359626642878122 0 0 0
337 1 -0.05622391472286381 38.16513100025102 6.354994908191329 0 0 0
505 1 0.04816502607522605 31.689664011479955 12.674050062860067 0 0 0
152 1 4.8098834623084805 42.9840185860363 1.5697882466706414 0 0 0
160 1 11.203561199001964 43.21525771100332 1.6319238440818253 0 0 0
162 1 13.168442269286471 41.76280769277831 2.78338773636634 0 0 0
314 1 0.11705206819353198 35.06366122587846 9.543849221507523 0 0 0
168 1 17.48848694675888 42.69739339655101 1.1785113587101466 0 0 0
173 1 1.768065119025903 46.00531571694627 1.8352106843410712 0 0 0
892 1 3.1359668314929388 34.91032444308448 25.266220007823115 0 0 0
171 1 3.3121955120942976 44.58690977243205 3.3809963375339303 0 0 0
181 1 7.766027738534038 46.12217637541703 1.4848840550180418 0 0 0
84 1 9.357189850358518 22.579269352629442 0.23603248983241099 0 0 0
189 1 13.961040495311323 46.29647741212672 1.7266262921767555 0 0 0
187 1 16.27117956560172 44.68075400345633 2.88394369514139 0 0 0
836 1 16.01305889604666 15.772683107463651 25.319046913348 0 0 0
176 1 4.740426876750022 49.20180073988803 1.352412590650957 0 0 0
60 1 9.266082863746284 15.979208236061062 0.11178089105874955 0 0 0
184 1 10.887849186082283 49.386689058944 1.6529315970231155 0 0 0
19 1 15.54152663965479 50.95580596121767 3.523288636392811 0 -1 0
192 1 17.355151416995643 49.45272317764962 1.936566621746806 0 0 0
7 1 5.125469676951085 1.1715947940854365 4.9325859647441614 0 0 0
15 1 11.102529037858016 1.7709541968542672 4.740596509880468 0 0 0
212 1 15.90183265987622 3.18699924733014 6.095240950743892 0 0 0
23 1 17.504389400225424 1.6527311830295068 4.792953603024401 0 0 0
6 1 1.8128597771596207 4.505350944664546 4.785857433605855 0 0 0
767 1 17.561682884617486 46.15946059767472 24.015826417647553 0 0 0
225 1 6.303340573676456 6.247590272220497 6.470694462621412 0 0 0
14 1 7.8479348991360816 4.986779107007767 4.857131587616165 0 0 0
22 1 14.384276132635812 4.9373973035773036 4.429560413687663 0 0 0
31 1 4.712052515995769 7.624025008987293 4.603421864934034 0 0 0
39 1 11.193567362353916 7.801740550102864 4.402005193347542 0 0 0
43 1 15.910763491334038 6.589897878648395 3.1825646820903724 0 0 0
233 1 12.639819244211163 6.078317364914291 6.334073837083453 0 0 0
47 1 17.455280476869838 8.433252603746427 4.8821600524463795 0 0 0
2137 1 19.03812498453023 6.419182786537737 18.810392467417625 0 0 0
30 1 1.8414941533544167 10.730310024479863 4.509291353994219 0 0 0
34 1 6.685103641593662 9.331492743867027 3.3706163573248746 0 0 0
38 1 7.6819827117192165 11.517042986409178 4.683004945769749 0 0 0
67 1 16.009154687195323 13.002666966876903 3.6705786381888723 0 0 0
46 1 14.558235932570618 11.168310858933845 5.16382529608472 0 0 0
763 1 15.872556964544836 44.479275433325896 22.23366326485429 0 0 0
55 1 4.318091617321997 14.497519900454813 4.680040826606151 0 0 0
59 1 9.572937183325243 12.919825657334973 3.627978669880899 0 0 0
63 1 11.25070174683727 14.465968074751304 5.021766292316233 0 0 0
71 1 17.69013868353391 14.587634203703761 5.218740438235744 0 0 0
1 1 0.030419030962765367 50.89023783382099 0.38082052510206355 0 -1 0
54 1 1.2498713774413392 17.85046401603937 4.2966600361387375 0 0 0
62 1 7.869249197866533 17.74076667484058 4.652200858620143 0 0 0
83 1 9.62302117463243 19.031234257893853 3.111433051709757 0 0 0
66 1 12.692851675900943 15.994849549868462 3.3794978514118825 0 0 0
70 1 14.06219582213174 17.83548948698743 5.201817144687652 0 0 0
844 1 3.0552935296044876 22.086133046862173 25.21023822080562 0 0 0
1657 1 18.902217778921838 32.58689961866871 0.057134485713399796 0 0 0
79 1 4.527668677814221 20.93444885451379 4.615139355174219 0 0 0
273 1 6.311036417904946 19.399500094941466 6.256998455601378 0 0 0
87 1 11.2120009321117 20.897445487230243 4.804187677887845 0 0 0
90 1 12.682007093327522 22.591084031668238 3.2048830754671287 0 0 0
91 1 15.80757982556444 19.332128720599385 3.6114402724799723 0 0 0
95 1 17.78515255408311 21.083716185147072 4.758636755703414 0 0 0
78 1 0.8318947386953154 23.968788688785175 4.87449116869551 0 0 0
86 1 7.905199547567156 24.078493761286172 4.524238123877169 0 0 0
107 1 9.59938783676179 25.615902299139112 3.2409720294916053 0 0 0
94 1 14.478020413308993 23.899448802632737 4.8286426193526335 0 0 0
103 1 4.545214461817026 27.29571489033239 4.93973681466794 0 0 0
111 1 11.203760106675338 27.36736226562259 4.965092146738671 0 0 0
115 1 16.31362153279064 25.234912479707013 3.096545616082236 0 0 0
119 1 17.671182475647104 27.103243910495415 4.485203961515157 0 0 0
601 1 0.11010770132696551 6.012554614435518 19.255783637691252 0 0 0
102 1 1.8262400498660487 29.999735211238267 5.255441790056316 0 0 0
292 1 3.306362723632346 28.49538464383039 7.017389963649347 0 0 0
106 1 6.119646056099187 28.89351364534147 3.610938058146031 0 0 0
300 1 9.453194714578675 28.74902987245566 6.665661482105092 0 0 0
110 1 8.20023342013279 30.278701398014928 4.797376883260707 0 0 0
329 1 12.672126394200827 31.885764434534774 6.076259844160795 0 0 0
114 1 13.07210430739625 28.615060585208635 3.218901929048237 0 0 0
118 1 14.449738103605211 30.339999261915963 4.623025856748818 0 0 0
759 1 11.028003296294012 46.35083170132684 23.804519302953796 0 0 0
321 1 6.217490677565361 31.5553235908428 6.224901507062739 0 0 0
127 1 4.673240190181619 32.98981576136151 4.5889418778970565 0 0 0
138 1 12.61135842673178 35.367559881056465 3.1355630672024466 0 0 0
135 1 11.136642792885002 33.35193737586731 4.491437245404769 0 0 0
139 1 15.98113441641809 31.738330553173235 3.0619042356911215 0 0 0
143 1 17.372169078375954 33.455773137193916 4.75200177592327 0 0 0
113 1 12.9566211480689 25.763689418791557 0.3003472738900863 0 0 0
126 1 1.6527291109098197 36.570038455316805 4.4653779468557495 0 0 0
316 1 3.2508255961950745 34.95252685211585 6.007890600164862 0 0 0
134 1 8.103131320894212 36.6874483557162 4.634355983879908 0 0 0
324 1 9.439047539829165 34.64341935070536 6.047269729215732 0 0 0
345 1 6.284668932856652 38.00547957432056 6.303252575695956 0 0 0
353 1 12.301780512284214 38.23221493818785 6.41611368349913 0 0 0
142 1 14.093989848750223 37.07407908367789 4.61607896934529 0 0 0
1778 1 18.842002252690286 15.964589667743898 9.462016814095225 0 0 0
151 1 4.895845506375523 39.99379764786791 4.794940453066813 0 0 0
340 1 2.9668563806584953 41.67090252234874 6.339489511296571 0 0 0
159 1 11.460231339358868 40.140483131835694 4.263243437920709 0 0 0
163 1 16.008120824207953 38.49878905742402 3.1065766461246476 0 0 0
167 1 17.485142878570365 39.90953855667537 4.807493083326662 0 0 0
385 1 0.03603182398846842 -0.035264144784903806 12.673672845719926 0 0 0
150 1 1.2916686277204712 43.3704738560738 4.751582490300701 0 0 0
897 1 6.104881454923206 31.98684551360611 25.20562890111981 0 0 0
158 1 8.351628696760462 43.180798489108994 4.847462242274213 0 0 0
179 1 9.574697652461284 44.7222899538592 3.0232357050047742 0 0 0
166 1 14.864174905690879 43.15601406512755 4.665507542812385 0 0 0
175 1 5.010655005832078 46.13794593892278 4.816595761380422 0 0 0
178 1 6.301587409778592 47.9315528210299 3.0784283286572554 0 0 0
183 1 11.286623200252105 46.11692414734654 4.676654390514384 0 0 0
377 1 12.71335837028287 44.66159326284897 6.352215458130479 0 0 0
191 1 17.57455849961458 46.02103097912088 4.658169429623783 0 0 0
174 1 1.8906881349349791 49.23596371316282 4.765229049240792 0 0 0
3 1 3.579721094140946 50.76277369844247 3.2202186909130885 0 -1 0
182 1 8.118011568702837 49.27714562823691 4.660107273222453 0 0 0
372 1 9.460003444317238 47.51491024971946 6.246334642192834 0 0 0
186 1 12.555816021749084 47.99793519565864 3.1582441335528175 0 0 0
11 1 9.392762920552679 0.18255185762590806 3.028329012375032 0 0 0
209 1 12.231931221628942 0.12880137007776782 6.39365038663624 0 0 0
190 1 13.999262326956032 49.411422450646 5.01369415709734 0 0 0
197 1 1.6185303829780475 1.8152153074172948 7.750479424061942 0 0 0
196 1 3.5647232882791196 2.8865828410621575 6.332263570795203 0 0 0
755 1 9.290645777559734 44.534342529264464 22.458988197880547 0 0 0
205 1 7.976346507397324 1.5706807742975215 8.027276708157952 0 0 0
201 1 6.613474065624079 50.536762865684395 6.540568122947278 0 -1 0
203 1 9.699720233650874 0.03600818230628536 9.458835090988421 0 0 0
213 1 14.49688900246659 1.4429875339282365 7.724944338711209 0 0 0
200 1 4.904657109198967 4.618787010516014 8.123086439695149 0 0 0
204 1 9.499677596069033 3.0837574601027242 6.405746818337714 0 0 0
208 1 10.728585186091586 4.693137135978601 7.7421612085020985 0 0 0
216 1 17.357013677801657 4.481815606261984 8.059483931968082 0 0 0
172 1 3.0946119338770064 47.4833025240446 0.05676371408669301 0 0 0
221 1 1.7385311240029504 8.048994818523656 7.924987158139761 0 0 0
219 1 3.194675655520539 6.0629919542153035 9.76510407197054 0 0 0
229 1 7.904469371087982 7.891492348756906 7.696410375720023 0 0 0
227 1 9.404433170119637 6.29789943491688 9.433352828108799 0 0 0
228 1 8.989519201363992 9.36648014204616 5.9280496176207 0 0 0
237 1 14.299665028514983 7.801408045582322 7.908119953534822 0 0 0
220 1 3.3219329171430014 9.378999417816534 6.19437105655653 0 0 0
249 1 5.791603949817012 12.856047358605107 6.112785945874239 0 0 0
224 1 4.643050350900281 11.111132008546342 7.660452333321016 0 0 0
226 1 6.039498050635029 9.424661855811536 9.499676309203782 0 0 0
232 1 10.400648296387864 11.074713950409974 7.537315503495704 0 0 0
234 1 12.587461188890284 9.758125056915555 9.117716734239021 0 0 0
236 1 15.868447216031987 9.759788555610589 6.856825873005163 0 0 0
240 1 17.61206292907845 11.298186172138536 8.148874092570773 0 0 0
245 1 1.1056327858068162 14.386314913150734 7.804616967248468 0 0 0
747 1 2.6454057096840167 44.47749957545949 22.729347297745928 0 0 0
253 1 7.423178809946237 14.306800467244853 7.713364604640491 0 0 0
251 1 9.131819506277479 12.723157388947328 9.408921020570721 0 0 0
257 1 12.881422663689884 12.723748713316095 6.5456654463108155 0 0 0
261 1 14.08227150961355 14.388485742552215 8.379093377570937 0 0 0
259 1 16.068637791951772 12.81746950110885 9.899991146711125 0 0 0
244 1 2.726796742054866 16.20731258269765 6.261089556272072 0 0 0
248 1 4.688870008553711 17.654162970271667 7.679405179713135 0 0 0
267 1 3.0833587204579707 19.069724572405338 9.495486154382192 0 0 0
250 1 6.002038335090424 15.920040178624655 9.295120802937621 0 0 0
252 1 9.1873764614489 15.985429063018021 6.4957960846334055 0 0 0
256 1 11.080519808605654 17.80320600695265 7.948067716382514 0 0 0
260 1 15.861106572948827 15.951306653166622 6.665949882341283 0 0 0
258 1 12.457581855943541 16.084350691964005 9.638839298183717 0 0 0
264 1 17.478635168854815 17.864579180744226 8.046721077598665 0 0 0
269 1 1.3849639288270796 20.732839986203746 7.672929789865816 0 0 0
266 1 0.049534590879350554 22.43510172939217 9.200902063478333 0 0 0
277 1 7.723963927346523 20.966472034568493 7.910857668572856 0 0 0
281 1 12.565487391075282 19.50777180089104 6.527960575507115 0 0 0
285 1 14.171444733388526 21.183558449772754 8.215408781597906 0 0 0
2138 1 19.005560788214538 9.526661001343589 21.96782669486454 0 0 0
268 1 2.6653695725043405 22.549402467246747 6.120359961545212 0 0 0
272 1 4.520362767765498 23.994921053383962 7.582860800235397 0 0 0
276 1 9.613941664960596 22.498214465512337 6.431511042847423 0 0 0
280 1 11.13847223563914 24.17678270523078 7.944357292470519 0 0 0
284 1 15.946665495113827 22.31690764060046 6.403839190557255 0 0 0
288 1 17.72453929217732 23.95595318712832 7.903203996965854 0 0 0
751 1 4.646204458264496 46.078122557835826 23.929232126341848 0 0 0
293 1 1.267516197744888 26.850319885478772 8.276927970554555 0 0 0
297 1 6.417973436227284 25.47228506399488 6.146585928335368 0 0 0
301 1 7.591332067395913 27.316289282261163 7.911365239010667 0 0 0
305 1 12.68452521945339 25.72903106432365 6.172518023834685 0 0 0
307 1 15.9748197982472 25.330760720287113 9.576804364711881 0 0 0
309 1 14.259400075546203 27.067144314668045 7.926804464153693 0 0 0
44 1 15.879040711945873 9.686033490624562 0.4815441672885652 0 0 0
553 1 5.419232680879682e-05 44.688271540822655 12.918649117402296 0 0 0
296 1 4.933100862964721 30.340256783893654 8.201983688719956 0 0 0
304 1 10.855829551473077 30.524309607216953 7.909054934582081 0 0 0
308 1 15.898760706886277 28.637401204865135 6.371974401130985 0 0 0
312 1 17.58755496836331 30.132410776417505 7.968710842520373 0 0 0
317 1 1.6635576572374084 33.618869951065065 7.952116045895957 0 0 0
193 1 0.4196092445293508 50.92358227255869 6.539992018071786 0 -1 0
325 1 7.771647173620946 33.63027562146728 7.728792870852066 0 0 0
330 1 12.68596160724862 35.04913643661189 9.49580495836131 0 0 0
333 1 14.025862621983359 33.25239567481783 7.933892547722897 0 0 0
332 1 15.434407261143727 35.15489061378757 6.047966005588544 0 0 0
322 1 6.163962306929232 35.133028392454605 9.362548074334974 0 0 0
320 1 4.480147357972818 36.570758536874465 7.693646552871661 0 0 0
328 1 11.009976232191365 36.25438608326107 7.920068077514347 0 0 0
336 1 17.34873658564362 36.388514915198655 7.673632810644739 0 0 0
341 1 1.5907799974838956 40.10381776427343 7.820677930843806 0 0 0
349 1 7.749533046605848 39.857844904978705 7.911582921738883 0 0 0
346 1 6.674335262931694 41.684857301031556 9.356408461805476 0 0 0
348 1 9.5080317518593 41.18395235639221 6.321810950252421 0 0 0
357 1 14.103462124554488 39.74825017939099 8.109359825399281 0 0 0
355 1 15.7525881546508 37.880230411028094 9.474560952624993 0 0 0
65 1 12.715616837905865 13.080781705262408 0.34986737525618433 0 0 0
554 1 -0.050475867293229726 47.475560688967775 15.909020721207076 0 0 0
344 1 4.896728721331722 43.13138272720545 7.951452415078402 0 0 0
363 1 3.2742348230471165 44.90630195021214 10.311302352643189 0 0 0
369 1 6.451789591560311 44.32373994464173 6.250510047172589 0 0 0
352 1 10.82073870398998 43.07695725285886 7.661699445969891 0 0 0
356 1 15.89562223939605 41.29971117345853 6.581134786414749 0 0 0
354 1 12.575876001838827 41.70087805194281 9.380919423398751 0 0 0
360 1 17.41620707655685 42.97158278819735 8.460403891330254 0 0 0
365 1 1.7758346933278895 45.945469454889846 8.221568839898648 0 0 0
364 1 3.4432864718301053 47.59545524120301 6.458325642403604 0 0 0
373 1 7.524775999486581 45.950368753477605 8.39917229502524 0 0 0
371 1 9.22890681374629 44.369825070711585 9.66312500927493 0 0 0
381 1 14.280525730663546 46.26112859021502 8.027643906353914 0 0 0
379 1 15.526604482588995 44.77440382595374 10.039973686054633 0 0 0
368 1 4.662994728576884 49.489972469982405 8.207547050696835 0 0 0
370 1 6.505293670492725 48.12302534392721 9.6733338689343 0 0 0
376 1 10.936262742303372 49.14841304681248 7.971709034617975 0 0 0
380 1 15.811179280405007 47.69433552706097 6.259780543292781 0 0 0
384 1 17.20943302046976 49.19008997557181 8.171356258015514 0 0 0
2090 1 19.004810989423543 47.680645937721835 16.16053212333902 0 0 0
388 1 3.0405208608217293 3.347358014963089 12.927897309066845 0 0 0
199 1 4.894832432204869 1.5563282464666974 11.68713828599827 0 0 0
202 1 6.3412296743025545 2.95727832564653 9.751084663249022 0 0 0
207 1 11.209726808459271 1.9013094190655138 10.9622496013559 0 0 0
215 1 17.02603471934846 1.7891746975825409 11.330983675292938 0 0 0
198 1 1.3777567633323873 4.474326331914313 11.067424942276434 0 0 0
796 1 2.8971055938659855 9.66838160572284 25.436202586239453 0 0 0
206 1 7.630178905227445 4.754274087378253 11.363818062271086 0 0 0
210 1 12.801942924882528 3.454717184946014 9.305283894669953 0 0 0
214 1 14.112290096489332 4.945325782603927 11.191614656381487 0 0 0
223 1 4.500882752747176 7.785697840359259 11.204500076398324 0 0 0
417 1 6.121482290728636 6.408214411209334 12.966605251453947 0 0 0
231 1 11.100617258598268 7.9498321071468325 10.777407592893717 0 0 0
235 1 15.985480376038609 6.424553905601702 9.5995218519234 0 0 0
239 1 17.525798744683556 7.962435370464306 11.314174704640893 0 0 0
243 1 2.8539970130222247 12.863353264350431 9.120260657547265 0 0 0
222 1 1.3611639139673122 11.054879324500181 11.04415860083903 0 0 0
218 1 0.16054368036439276 9.293911466846358 9.775337632411086 0 0 0
230 1 7.986664293410557 10.605112069129872 10.891502584895825 0 0 0
420 1 9.63580303736914 9.3359475597497 12.736476785458205 0 0 0
428 1 15.973946469943655 9.572083774153631 12.694255975111592 0 0 0
238 1 14.241103426537764 10.91644548928689 11.325752607437725 0 0 0
2233 1 19.02100820486306 32.12984234519499 18.92641371993264 0 0 0
247 1 4.490278020963127 14.438386659302628 10.783939055724689 0 0 0
441 1 6.672492803916017 12.733177432737977 12.179883763770885 0 0 0
255 1 10.980230078568457 14.331022830005642 10.81232240349128 0 0 0
449 1 12.628658819095797 12.792122792388582 12.426873872807265 0 0 0
263 1 17.703582661872503 14.261976545159369 11.503344081127299 0 0 0
246 1 1.6517517332234437 17.418975254222133 11.21243304517328 0 0 0
711 1 10.377674495306621 33.55076744708069 23.85862028977379 0 0 0
275 1 9.125143105570315 19.33228732647588 9.42309123337061 0 0 0
254 1 7.687594023640705 17.455268928604188 11.089530394141875 0 0 0
473 1 12.887666337028472 19.473964082008585 13.027173891422034 0 0 0
262 1 14.299359096007787 17.395033401846103 11.495016936870073 0 0 0
707 1 9.2038142385966 31.608056801966924 22.158663138362783 0 0 0
271 1 4.221831422779868 20.78878864097645 11.233644701960795 0 0 0
460 1 2.5565428387275833 22.557562435981882 12.760047774360208 0 0 0
282 1 12.275825441629244 22.439078181448796 9.861346251320024 0 0 0
279 1 10.951852300334105 20.35504534720972 11.155182860889214 0 0 0
283 1 15.69679098536165 19.225547603667852 9.68199888901481 0 0 0
287 1 17.29799612851265 21.0591015729019 11.301197050753668 0 0 0
270 1 1.2332686908320112 24.04987415002764 10.946426013436078 0 0 0
274 1 5.9535075306731855 22.357039305721425 9.47829590437548 0 0 0
278 1 7.991587761158495 23.714187270591903 11.03908350358026 0 0 0
489 1 6.536008217681332 25.322149425866773 12.797904452265456 0 0 0
497 1 12.469598149624622 25.697510993854905 13.04602255815718 0 0 0
286 1 13.907969315834327 24.154640611515298 11.306083331282213 0 0 0
291 1 3.2202763067420785 25.657918833007816 9.707998314461992 0 0 0
295 1 4.991959684250013 26.916322679138805 11.51365542427154 0 0 0
299 1 9.306448216569894 25.816631992258802 9.62376936866226 0 0 0
303 1 11.00789464343016 27.191906833668067 11.119225841177558 0 0 0
311 1 17.502945061608404 27.15106202936907 11.132428303900575 0 0 0
852 1 9.613882688783324 21.804271562006264 25.327146784875367 0 0 0
294 1 1.8073403613276484 30.43058930657432 11.007859588600294 0 0 0
298 1 6.496337156215593 28.678728357245692 9.881271599667398 0 0 0
302 1 7.859843753115355 30.32287881778469 11.249417819127256 0 0 0
306 1 12.550909218470112 28.81453978926334 9.273067141887788 0 0 0
310 1 14.260229865667357 30.14354234487538 11.126008219080887 0 0 0
2041 1 18.903507563756754 31.62453761337357 12.507152305514378 0 0 0
315 1 3.255086059757119 32.404128695306184 9.574088579722595 0 0 0
319 1 4.670375830507574 33.73013132227062 11.252890874035923 0 0 0
323 1 9.278763990220686 31.86876403269668 9.198052203875962 0 0 0
516 1 9.98893479626032 34.60293742998789 12.712424437513324 0 0 0
327 1 11.25133882578299 32.983390606851245 11.049521626352355 0 0 0
331 1 15.806624110612816 31.62236300445205 9.41894898700986 0 0 0
335 1 17.422867720526423 33.24313937161514 11.011472987849558 0 0 0
318 1 1.5797849946151936 36.73178565804979 11.159762794073263 0 0 0
326 1 8.138493640947633 36.480559835848055 11.113475872762363 0 0 0
347 1 9.351595147292835 38.07875746996113 9.496297964698298 0 0 0
334 1 13.943606293888601 36.73347310253786 11.276655040274855 0 0 0
703 1 4.66358829823441 33.521871751022815 23.57278123796278 0 0 0
339 1 3.1322581231173525 38.38905647241813 9.394726084685045 0 0 0
343 1 5.039664442302374 39.907211370685914 10.81919902071421 0 0 0
351 1 10.925727829945547 40.04120461809623 10.86852277171038 0 0 0
545 1 12.506935021365601 38.6203691850625 12.725506863772031 0 0 0
548 1 15.737397110592212 41.16584020891739 12.691683567675113 0 0 0
359 1 17.433471383176773 39.53822176981966 11.179156516411627 0 0 0
342 1 1.450880162896188 43.031904126162075 11.56995059388751 0 0 0
561 1 6.601346123291399 44.67574452403784 12.874845776888922 0 0 0
350 1 8.111172407888267 42.6992856375946 11.644003802655101 0 0 0
540 1 9.751541067605762 41.07938059306986 13.382354364136528 0 0 0
569 1 12.454937084837377 44.491226845634586 13.406270943616143 0 0 0
358 1 13.959176685337498 43.150363294283 11.421822971913045 0 0 0
367 1 5.2340520894512705 46.61869962313504 11.51380517325052 0 0 0
375 1 11.01823641605616 46.061081942437426 11.214008536410587 0 0 0
564 1 9.561310516617837 47.722954652064175 12.547484262410604 0 0 0
572 1 15.43018100853326 48.060378197686816 13.216612550264339 0 0 0
383 1 17.265125699424676 46.10425040631013 11.580481807179586 0 0 0
1850 1 18.971929820243453 34.809410203239196 9.091604888964168 0 0 0
195 1 3.308642997694365 0.49965903745363716 9.798800058080571 0 0 0
366 1 1.6106267139796193 49.72352739525593 10.71455350898818 0 0 0
393 1 6.5279671311449 -0.04042540581021317 12.871782761448893 0 0 0
374 1 8.094904421618317 49.52896699660967 11.170860413707205 0 0 0
378 1 12.69695401382995 47.770150072986226 9.596721705360995 0 0 0
211 1 15.771689282009776 -0.009444300065578969 9.380395007591597 0 0 0
382 1 14.229829533356389 49.6436654307242 11.03645924609102 0 0 0
389 1 1.6111860710236086 1.5279328836826056 14.481124176133243 0 0 0
394 1 6.124419688164829 2.98974131979206 15.866744215444035 0 0 0
397 1 8.040437955561579 1.780028809933807 14.407842361354582 0 0 0
401 1 12.63313351218537 0.08948148538920048 12.644614813294176 0 0 0
404 1 15.57628682701166 3.4562076188779844 13.101926561106152 0 0 0
405 1 14.054146087024971 1.4231478539475042 14.404316449391516 0 0 0
718 1 13.844098232043896 37.31932301659215 23.981484977007913 0 0 0
392 1 4.61753942869222 4.610936176874217 14.597976953927526 0 0 0
396 1 9.621390049785267 3.288154279977831 12.675867306392153 0 0 0
400 1 11.199387869834252 4.796772336525466 14.120028184127296 0 0 0
408 1 17.58171126476738 4.811850894958789 14.137430284986596 0 0 0
413 1 1.6716189514217996 7.968938996587422 14.455702204315722 0 0 0
421 1 7.92537363883419 8.018062371657562 14.318004778402686 0 0 0
419 1 9.28339020070269 6.209998141522041 15.822370195759751 0 0 0
425 1 12.640921363945298 6.800120585184171 12.810146419570637 0 0 0
429 1 14.488363941649823 8.035602074133383 14.340601542482451 0 0 0
427 1 16.04301011848577 6.406655897177262 15.72993639807072 0 0 0
694 1 14.095489475572691 30.34537994968596 24.02630759809615 0 0 0
777 1 6.445388284472893 0.015717266723102905 25.367167606489467 0 0 0
412 1 3.147505226725106 9.620925183561916 12.63021687693926 0 0 0
416 1 4.918211900518135 11.312781984853725 13.840552027330798 0 0 0
418 1 6.256897313026792 9.638298028050405 15.645585665166118 0 0 0
424 1 11.174269721161888 11.334790689099231 14.147841862158241 0 0 0
451 1 15.854397043894577 12.829441263916413 15.756512397831363 0 0 0
432 1 17.57616759578802 11.284561507472109 14.16005833315956 0 0 0
437 1 1.14006871801814 14.08086262300452 14.407463737405603 0 0 0
435 1 3.3983059952749275 12.869268488262717 15.73999446365212 0 0 0
445 1 8.17498785032685 14.218912839111121 13.989910906228477 0 0 0
444 1 9.62072701759879 16.24005162693608 12.287237131991965 0 0 0
453 1 14.07531649188216 14.50510551890822 14.302648077780736 0 0 0
452 1 15.988672047005636 15.860791685040311 13.020102462719663 0 0 0
686 1 7.884435478509224 30.24084616554893 24.122770865473196 0 0 0
682 1 6.294389195351475 28.598127057839328 22.92560329091002 0 0 0
436 1 2.814023011815624 15.682373774886521 12.789237879661808 0 0 0
440 1 4.902975035895932 17.115933381347105 14.284988785050201 0 0 0
442 1 6.569899163828418 15.710507002085508 15.702546298936715 0 0 0
448 1 11.085745378525171 17.752016718673318 14.485763013436523 0 0 0
475 1 15.941944017801454 19.21522834094049 16.248948423530525 0 0 0
456 1 17.722497546841886 17.6162780333952 14.466149959493857 0 0 0
772 1 3.178455808445891 3.245143526406316 25.221921335942753 0 0 0
461 1 1.3743183153116973 20.483963704610222 14.360732244556619 0 0 0
465 1 6.172629752985175 18.994963726930525 12.631104128064148 0 0 0
469 1 7.944530497453133 20.607217457595837 14.207274440393197 0 0 0
467 1 9.29087886628905 19.019844473613894 16.081490825577056 0 0 0
468 1 9.494225806729387 22.163181253853395 12.800826955578602 0 0 0
474 1 12.498289857774154 22.61906822732568 15.9537061463266 0 0 0
477 1 14.349647770171181 20.959460784525362 14.676898930388193 0 0 0
742 1 14.528062481810064 43.07149827429808 24.113396083823098 0 0 0