LAMMPS data file via write_data, version 29 Oct 2020, timestep = 200000

4608 atoms
1 atom types

-0.028662648649227407 53.428662648649876 xlo xhi
-0.14957113727965066 51.05669113727973 ylo yhi
-0.14957113727965066 51.05669113727973 zlo zhi

Masses

1 18.015

Atoms # atomic

4259 1 3.540897222245898 0.1675073488351838 0.34991082009691765 3 1 1
4344 1 9.290356530944544 0.43216120070350983 0.39400837941757283 0 1 0
228 1 11.562639053215475 2.551206715930481 1.5091305220441424 0 1 1
1932 1 11.145445370132107 7.598263683290066 2.867130239568669 0 0 0
4260 1 0.6268557835645093 28.82975230366335 8.079462635705795 0 0 0
3666 1 0.0018096825012331036 11.598473034809519 22.90738757199404 2 1 0
4578 1 1.821854941260837 29.578601412171697 20.02560719637518 1 0 0
3352 1 8.254879799725781 2.700569988332753 1.8988560484639265 0 0 1
3728 1 1.5177024985421637 37.80395543574882 24.90451025882013 1 0 0
3983 1 14.141662975980804 3.993689726510077 2.812419617722413 2 1 1
750 1 0.4007584922613722 26.17508787553413 1.5839736701459755 0 0 2
514 1 3.6019344761587777 7.432279871392502 1.7051577958534274 0 -1 0
489 1 14.95508981272602 12.927050775992937 25.19697986362543 0 1 0
850 1 6.4049956977616915 9.451182106115713 1.105257192681167 0 0 1
1066 1 15.125514517694626 46.95990721445531 0.22524157864334604 1 -1 0
1640 1 9.500896222068558 5.152556525581752 1.4818929045211011 0 0 1
121 1 1.6407613610720535 23.418472075600395 23.30841978191793 0 1 0
3788 1 16.323108277157644 6.723670514203344 6.043119120384919 0 1 0
2036 1 0.06965069852712702 32.85678490080639 6.233908463940773 0 1 0
3893 1 2.519678995755096 9.486553065900354 3.360925680116701 1 -1 1
40 1 1.273362571786418 12.008784225145245 20.226168812686968 -1 -1 1
2774 1 7.0571888743720255 12.508119081757428 2.9424648796348727 0 1 -1
1641 1 8.523309011117135 37.59107436399396 22.245217412659375 1 0 0
76 1 1.951512073456861 30.220309276273568 23.21871998505274 0 0 -1
4431 1 15.394731958950587 9.925963940386174 1.137813871667046 1 1 1
3779 1 6.052847344173021 43.39051534444697 2.0956158068830497 1 1 0
2536 1 17.11905608279169 16.79116234545219 23.992206895647648 0 0 0
3006 1 6.393822533477414 15.524715016248383 1.4073935930296453 1 0 1
393 1 4.194657187531983 11.283536351437048 1.9419442638672404 1 0 0
4383 1 12.80967229463554 9.827198048356303 4.310242455861498 0 0 1
1657 1 0.8997336944763697 40.9424861736837 17.492564794464244 2 0 0
2031 1 3.004323157044536 13.048577688577424 3.7024135501458586 1 1 0
2603 1 11.41926252815507 27.858717098672248 2.723901815353442 1 1 0
3955 1 7.686524196066969 17.518315665454317 3.9904002842046173 1 0 2
4146 1 10.983679221228352 17.885860562669563 3.3618672711158197 1 2 1
2339 1 1.411497011862133 35.326631240756704 7.87085215489828 0 -1 1
4368 1 0.24922335413642943 31.58901630349852 8.830797454594128 0 0 1
3121 1 2.9596178239832542 18.204829239026513 15.451421345362371 -1 0 -1
572 1 1.2962100068691886 49.962679704770665 15.518714521543462 0 0 -1
2597 1 2.7845971740635287 19.983320647955484 1.2641069797168893 1 0 1
1797 1 1.1448619502108954 41.48287661426964 2.1015783984275567 0 -1 0
3992 1 4.992264825911511 19.294962104760774 5.392773020456015 1 1 2
804 1 0.10121662193624412 10.899407385781434 6.7059350585744975 0 1 0
1273 1 9.250868905471584 6.973450896753941 25.281308877759216 0 0 0
3613 1 15.71268640505851 19.168223107568604 2.524759272602836 0 0 0
839 1 0.5614245489706984 44.88305287109444 4.426184320603412 0 0 1
4417 1 3.250196896131185 15.962304474114276 23.30654615506694 2 1 1
598 1 2.3081829221746357 20.443104638822987 4.266777509833065 0 0 -1
3216 1 0.5167681969268146 28.1572948430927 5.241713159453254 1 0 0
2534 1 1.261366991958834 17.657230634876406 5.431682472859883 0 0 1
3791 1 10.254329170470612 9.881641232013177 1.177786011259734 1 -1 -1
4387 1 13.253898573808312 20.473454113903188 3.4179462795392097 1 0 1
254 1 16.19949122441803 39.658889983437376 13.166492935870686 1 -1 0
1663 1 6.943115831917167 23.680480976486102 1.7997172949442246 1 -1 0
1806 1 4.667556881888255 1.6416775332979814 24.476060224231357 1 -1 0
4471 1 1.4249073395898635 47.84533654118259 19.698425233532497 0 0 -1
2787 1 8.85278244665042 28.3947263106617 2.3376914454001785 0 1 0
4553 1 9.486070492264549 22.58518129103488 1.1937544407075595 0 0 0
3210 1 15.6992356185562 26.817165835113407 5.881675633007521 1 0 1
1477 1 15.781010714139791 25.233027507365787 3.467014138508699 0 1 1
4005 1 4.484436718973649 30.257463368046686 4.925245290134175 1 -1 1
4347 1 -0.008109019805507316 18.64758995150584 18.076571235757577 1 0 0
646 1 2.7616260184628794 27.243244046380724 23.74532130959094 0 -1 0
1234 1 3.817415149040811 33.402661418036665 1.917922124892244 0 2 1
2581 1 2.027995974911408 26.221561088688087 3.6968291703119327 1 0 1
60 1 12.456068279475046 31.518335359208773 1.7691882660029823 0 -1 0
1593 1 14.622665438226399 31.74693596059087 3.8401813245413106 1 -1 0
3519 1 1.04283102464073 9.170342422337784 23.82087355488347 1 2 0
3487 1 10.69931207083766 25.23655117156539 1.22602351014452 0 1 0
1713 1 7.276900688582812 34.19249367440564 0.14574048142554474 0 0 1
3866 1 5.607560723514274 32.97618687544236 4.216536353629847 0 0 0
714 1 10.799784922714714 31.002908458192337 4.069528434307946 0 0 1
2391 1 9.167903552602125 19.98820823279149 2.636483871975156 0 -1 0
2467 1 2.054607160112516 1.0463469858672354 23.98933257283098 0 -1 1
1315 1 7.088920637721563 37.948677280792474 2.519374517749499 0 0 1
3891 1 9.040593508987449 33.71738187241583 2.363917150850163 1 0 1
3684 1 14.011090040518775 39.191555002079404 3.174095971484081 1 0 0
421 1 13.571098518497378 34.456836773788446 2.9686434275491456 0 0 1
4240 1 2.956984999812914 0.6452141866357495 21.164249614050863 1 0 1
4039 1 10.111852440930024 38.81456945358212 2.5504663944588892 0 0 0
622 1 9.009161562651773 39.69040110257787 5.7322861866733765 0 0 0
4159 1 12.066924989420867 41.14045764155662 2.6514798057952427 1 0 1
615 1 2.80681873782274 39.35736422718056 0.5500702584967953 1 0 1
1881 1 1.2987024481978404 13.94416522448782 24.149532330676905 1 1 1
2879 1 8.701129297732873 41.28016493388857 2.5110095106054886 1 0 -1
4047 1 9.13283086649044 45.77837427623043 2.7303039513527296 1 -1 0
2116 1 11.404738461152652 44.32047332089512 2.8585178655349686 0 0 -1
887 1 13.336696700502051 40.642631137140164 5.8572428896464475 -1 0 1
4392 1 5.068924596231866 30.49064375795022 2.1818284340739513 1 0 0
1123 1 16.47345278837539 42.235866944041426 0.5253527936788088 1 1 1
2445 1 0.22096051286556787 39.488656733129936 4.125857180733644 0 0 1
2143 1 4.5428827252516255 45.37346314064037 0.7751956795687052 1 0 1
1660 1 0.9775476123223446 16.442053823843015 7.919318453804827 1 1 0
2447 1 15.070731037837147 47.041869283063946 3.9281089692306193 0 1 0
3106 1 3.346730404965131 28.40681000257727 1.3876938694690368 0 0 1
1792 1 3.986751740915496 4.065172327419014 1.661662677774509 0 0 1
3275 1 1.1949017970486937 49.929981630918086 21.627761678585095 0 1 1
998 1 3.33507926410111 0.3325485706677519 3.311756119926046 0 1 2
965 1 17.64442828962806 47.46530772807163 7.162903817994222 0 -1 0
3806 1 8.88777691106027 48.565077251155664 3.1437170070571363 1 0 1
436 1 0.6794949122081313 44.180305030947785 9.928908280783412 0 -1 1
1281 1 15.009603176642598 48.40252847639033 6.82288359357626 0 0 1
1174 1 9.04408192937203 33.48473537808033 23.13500458744529 -1 -1 1
321 1 2.085436037388806 1.8243476803406604 5.033048232336538 1 0 0
2832 1 12.914801095626302 1.0946201209822781 3.6275427374231732 0 1 2
4016 1 10.880919319164 49.74433578094588 1.4644699055122328 0 0 0
4508 1 7.068216159853818 20.916008597436562 0.07632639705036509 0 0 0
765 1 16.332982217247242 50.93906690187546 5.359492819966498 -1 0 0
2193 1 1.6874166812791744 4.759926734769986 4.835371898570398 0 -1 0
1390 1 1.2938739515398452 40.95772602994498 5.7474890937284195 0 0 1
1245 1 6.601309310422962 50.83200223802633 1.9096675299165975 -1 0 0
4520 1 4.06012220837198 6.180983473088205 4.060322108348491 0 0 0
20 1 3.926966092542642 7.518494062782197 6.924407804616181 -1 1 0
1251 1 6.7076408668630965 4.6032578434909786 3.8595871186739323 0 0 0
2776 1 13.460447562917203 3.040733225980873 5.388508816736489 -1 0 1
1349 1 12.973036600318492 45.0082046166826 0.40701092908061764 0 -1 2
4493 1 9.99439814264119 1.7807834811245251 4.039070610314242 0 2 1
1538 1 15.46809247223485 7.259087644913094 8.625933175926157 1 -1 1
2255 1 4.348791419400204 9.746162802211993 5.162556865441349 0 1 0
2866 1 2.7504359253661126 10.836602399515883 7.413229793764461 0 0 1
129 1 7.09989417945678 12.335249877093798 5.971663687725542 1 1 -1
979 1 13.040829243180127 6.704687536169857 4.970504925938884 0 0 0
3089 1 11.122307772099035 4.528801346567948 5.501407678468567 0 0 0
4489 1 9.001944045714986 10.435212728146182 10.035624852736117 2 -1 1
2601 1 9.880226428461027 13.338078546228832 2.481376853723606 1 2 -1
1575 1 12.050410337138533 11.556955548732141 2.1960386138208983 1 -1 0
1240 1 15.451371907653256 9.481148507529678 4.207687631759373 -1 1 0
1463 1 14.574302114845619 12.918840911884702 0.8077144831921098 0 1 0
4385 1 15.620456728381573 16.58523466346542 2.4191719560372458 2 -1 2
2904 1 17.286399506849026 46.56263213543271 2.2461179675068945 0 0 1
4462 1 3.4685952455814193 34.134287393323156 9.826976206313251 0 0 1
1112 1 9.783970078203856 15.53581009436717 4.485069579173668 0 1 1
1213 1 9.073467766740151 14.189168152781154 6.996718105338684 0 1 1
3663 1 12.836138741111645 13.633153271271668 4.885985742430052 2 0 0
687 1 3.008587524225008 15.855603879645447 2.6683754801112167 0 0 1
990 1 6.507356231906401 18.572839364128782 7.604385821742635 0 1 1
3104 1 12.338693204296996 15.802040310351737 6.715178795206857 1 1 0
3528 1 1.2682549022400906 48.0574318537791 7.821658089735413 1 -1 0
1045 1 6.216776391922359 14.868057003518942 4.350556082394585 1 1 -1
809 1 4.5959250926106465 22.310305766287588 2.7657158155491004 0 0 1
4335 1 6.8812106695708115 21.609827611343285 4.275048571205982 1 0 0
2403 1 12.629443655217798 18.595306184006375 6.096100104707052 0 -1 0
557 1 0.3555697230228613 30.94938084231399 14.67388229328583 0 -2 1
764 1 1.7136774863877124 30.713881777094286 4.480484707057372 0 0 0
3840 1 2.543964438975212 23.543486931858634 4.217946710422435 1 -1 0
1544 1 3.0797764488332735 23.639087908428376 7.018713792048094 1 0 0
1303 1 7.39735693988111 26.139207064816855 3.2132074065682774 0 1 0
789 1 10.693812246032678 21.556147786266994 4.255848396887763 -1 0 0
638 1 14.310240228545352 32.75223933862628 10.992236646086988 0 -1 0
794 1 4.949786161252024 27.323755912070226 3.5617948185504336 -1 0 1
1135 1 7.166081611242875 30.181755790606854 6.140123833119381 1 1 1
1137 1 13.993834547477583 28.816537396840786 4.8436554040583095 0 0 1
1791 1 14.278512483905748 30.966641183064766 6.789661484770107 1 0 0
584 1 0.9082100329130156 25.451407500199693 19.21071468140066 0 0 -1
2127 1 4.286117662743421 17.517127319807212 0.5616935221205743 1 0 -1
2080 1 14.252600953276607 23.290394967829368 1.4647309454524584 0 0 1
959 1 3.8954879392588797 34.563588389399285 6.238020157377447 0 0 1
2495 1 9.787790091866022 28.39929431242812 5.691075704684975 1 0 1
3575 1 6.925076186182937 35.49346016418572 6.466015774998461 1 0 0
3813 1 13.32856395173104 30.481905662128266 9.452643809815445 1 -1 0
1496 1 3.6200583969645668 24.328603901274448 21.639767395180044 1 0 0
1678 1 4.2844787403069 37.40928827159803 5.358375735122824 0 -1 0
3497 1 7.46232088862022 35.4651932567275 3.614147569212964 0 0 -1
4263 1 11.180364751338834 35.02538121958135 1.488501357110959 0 1 1
3403 1 12.448545135966718 37.04338661232301 3.9386039278480016 0 0 1
2773 1 11.376932318172665 31.359138634200914 6.515388621130717 0 -1 1
1308 1 15.296639935154408 35.67993402131951 5.445002402549025 0 -1 1
2566 1 4.313864032874132 37.42729279375146 2.011236587841686 1 0 1
2130 1 16.433022559262096 37.306906809108106 3.5548029786103172 1 -1 -1
4118 1 4.440911131507403 37.782912204137084 8.059034504395896 0 0 1
2986 1 6.279145858437996 40.2147290649396 3.95473733547077 1 0 0
1147 1 9.729224727251054 36.83442446203128 4.8308129249807665 0 0 1
1520 1 3.4834166067767844 40.72921477777527 8.598444841069679 0 1 1
2874 1 10.38900501634238 36.88427128597581 7.599000669416648 0 -2 2
3433 1 15.91880006765633 39.3895972424986 6.368806875772057 0 0 -1
3942 1 10.58749559112484 42.153122540335396 5.3231360440161 -1 -1 0
2588 1 1.5497372529130442 26.415232559025384 15.15379195080149 1 -1 1
2547 1 16.98110139189411 17.785939672204744 9.998801930047213 0 1 0
870 1 2.99100542253106 43.03000449928194 4.558162150606654 0 -1 0
284 1 7.239678227318136 44.37074344018278 6.046932379168584 0 1 0
800 1 6.918561106142085 41.54202315615614 6.694122323312969 0 -1 0
458 1 15.032896319560395 42.55064504376889 5.077570159027463 -1 -1 1
3381 1 16.39619032082956 41.070795031301486 8.70461522212219 1 0 0
411 1 3.587971414677714 20.19776012690086 22.82460460203521 0 0 0
4425 1 5.984704859853544 48.06103888244437 1.2890005456694327 1 0 1
1032 1 9.99994640104144 44.95046038056554 5.5645675268552655 -1 0 1
431 1 13.416888140570025 45.05952959390275 4.784554264450491 -1 0 1
929 1 13.740692916379201 47.889474520160974 9.25745364429387 1 0 1
492 1 1.7815562740222244 46.453631568228566 2.3755129420730343 0 0 0
419 1 6.287748775860422 45.66233620759704 3.861297755170395 0 0 2
4296 1 9.378000944086903 48.84489544296373 5.765695119770435 2 0 1
3065 1 2.2160248028673264 49.94437582133151 6.408675772206897 2 -1 -1
1210 1 2.0214419605283553 0.4290349971605888 8.838766136347923 0 1 0
961 1 1.5008597055670958 3.0625851636020056 11.13502106546803 1 -1 1
782 1 11.733707851382835 51.048836546816034 7.516044318478639 0 0 -1
912 1 6.051020250676948 51.049190536238505 4.577797340018549 0 -1 1
3022 1 13.17526574785008 49.3940968496991 3.3437474355237837 1 -2 1
2464 1 8.535071105276408 0.17551578626897257 5.985556956568367 -1 1 1
384 1 6.763232139724651 39.058075173651346 24.15915685461464 0 0 1
2262 1 2.6183485067628087 4.95645395337036 7.584601873997669 1 1 1
2950 1 3.8650439596110826 2.1668733849355712 7.439311394703891 0 0 2
151 1 5.474533911774945 2.6192711694602107 5.320339726262753 0 0 -1
664 1 10.313590614356054 2.3091643628449563 7.502931981138192 -1 0 1
4293 1 9.44219211033399 0.885678611818189 10.1633951744611 1 1 1
4199 1 16.09124677151818 32.01792226765019 18.395124965272533 0 0 0
801 1 3.2551937647798206 7.9346378724263875 9.758243261087298 1 0 0
1138 1 8.655126450113467 7.741914411583804 4.069960431226579 0 0 2
878 1 10.258473539497107 5.384512634712604 8.46522669039693 1 0 1
1721 1 0.5321005996454155 11.73096115387246 3.9919930263645877 1 1 -1
3986 1 8.436328878709535 10.142490408444349 3.059728527533886 0 0 1
3625 1 10.887692597262369 7.62140386655923 7.072517772949447 1 1 1
2136 1 7.644824917382774 6.03641642091918 6.3448304783437806 1 0 -1
778 1 13.253994389979585 8.753539705795617 8.752854128850375 0 0 0
1094 1 4.029411637232865 12.79418000503414 6.297588222371309 0 1 0
1466 1 8.841468878339196 9.662335925375674 6.710158871067006 0 1 1
2092 1 10.295803488682676 11.603696465168364 5.106321456651257 0 0 1
38 1 15.739893269058872 12.193358407951056 5.237295114080339 0 0 0
1628 1 0.8941797048539489 14.614294260656107 18.956274089134148 2 1 0
2969 1 6.002819689059278 13.023946703966532 8.737102496367989 0 1 2
3100 1 7.86972021650156 14.974505462198769 9.652401076776398 2 0 0
4255 1 9.161419125061164 18.599893480079594 6.474584848782896 1 1 1
3629 1 11.374092017121429 13.180065200607663 7.772420090943149 0 0 1
1007 1 13.360509459795669 11.424717996283546 6.9384383166444135 -1 1 0
3441 1 15.481789224715769 14.985843157552145 4.975991459556259 1 0 0
2343 1 0.28080766965927406 48.53471012956887 3.505961594659335 1 0 -1
4397 1 5.316290292887333 16.642941392841607 9.586981716273726 2 1 2
2219 1 15.542550200037683 19.078644306214 5.464726322573226 1 0 0
1120 1 7.839573308923799 35.51967149026716 24.261773944601867 0 0 1
1969 1 0.21802603133011408 48.95668075902991 10.160070472080873 0 -2 0
4464 1 4.1647189477209245 16.800320227084327 5.108544870939221 1 1 1
4317 1 10.726196249983518 20.722947335862454 6.9867517820873655 0 -2 -1
2657 1 15.157354682783616 19.740574962039826 9.133002044367826 0 -1 0
3028 1 14.573155446469272 15.179276937888016 8.945024807803364 0 1 1
2575 1 13.854522274824848 20.59134156265596 0.09648682859272761 1 0 1
1399 1 17.504682422195255 26.883968123998986 1.9215247441532992 -1 -1 1
4545 1 2.491527070572032 20.57348073138051 7.360145404859515 1 -1 0
2466 1 8.46020150822563 25.57117194853038 5.335382572537731 0 0 1
23 1 4.982672187736405 25.547701302731127 7.7816803406080535 -1 0 0
554 1 13.776557345374961 23.28529849618589 4.686984896613113 0 0 0
3549 1 4.023245362305601 41.431385069721195 2.677238073172887 1 0 0
1355 1 3.0755590690958345 31.77140689388392 7.4437876295553655 1 0 0
75 1 5.4194037938132675 31.75056880312552 9.258357483154944 1 0 0
1479 1 3.6036006586657647 27.50578665950585 6.502391057026441 0 -1 1
698 1 6.259801352485586 28.581041141430283 8.589335702314754 0 0 0
2280 1 10.978100900687572 24.424304338345944 3.9603099611383623 1 -1 1
779 1 9.958628107706524 28.693445144324556 8.362865273927689 0 0 1
216 1 8.731625940560441 11.821419796875896 25.09777386950371 -1 0 1
1585 1 5.84011640847598 35.80650188591642 9.641386487127539 1 -1 0
3588 1 6.384033398386904 29.238231508650657 14.276561102392199 1 -1 -1
1288 1 7.122087207849403 33.019430292265696 7.663486747073673 0 0 2
250 1 8.542561423576554 28.516572372227337 23.561001821358687 0 0 1
617 1 13.786944525861436 27.811540838057724 10.58305952462332 0 0 0
534 1 13.871418422485705 50.67367514786652 16.90251182048704 1 0 0
301 1 1.6987299347137397 37.62502307910659 5.747195565507477 0 1 1
4393 1 11.721762600621947 34.1320211451785 11.011076622186273 1 0 0
644 1 15.297195656795479 39.500224430752425 20.258006402572725 0 -1 0
3450 1 1.6396444101279648 37.94215670020361 9.07698898916291 1 0 -1
1866 1 9.297387736084099 37.78676850728167 10.693191012251651 0 1 0
747 1 8.114966573499686 35.29377549877909 11.83618844279974 1 0 1
3326 1 9.457235678399215 31.563412807723992 8.046670554586628 1 0 1
2411 1 12.575118401327481 38.219237129263824 9.942612288533594 0 0 0
1521 1 13.39800062763272 37.49058186094631 6.913805029480604 -1 0 2
3621 1 9.233749116804296 34.76512527380534 8.79514413643348 1 0 0
4110 1 15.631974645166695 37.63058096363162 8.609212908198517 0 0 0
2820 1 1.0799033713824127 41.29031511362095 10.176598835816902 1 1 1
408 1 7.756724400236683 38.10525773176988 8.218319851724626 -1 0 0
3833 1 0.5971774155726629 36.63211884380646 11.415399765491435 1 0 1
1602 1 10.731357363153997 40.049109692172635 8.38089230023313 0 -1 1
3286 1 13.580357311111609 42.353858434558546 10.02355789175782 0 1 0
1886 1 14.865654017392645 39.54967140862824 10.597373476565322 -1 0 0
2037 1 4.273591874183069 42.99979401443702 7.160326156352741 1 -1 1
2532 1 8.04485016817496 41.09985945122755 9.179632321890796 0 -1 1
345 1 5.598048115785876 40.828486229726224 10.658313858982494 1 0 -1
1445 1 8.823886768286837 43.72772259157493 10.293846373347797 0 0 1
3154 1 11.617951567592497 42.92870256176902 7.785119381046709 0 -1 1
690 1 2.1052458140613455 16.702798218133832 18.279993512956587 1 0 0
192 1 8.30704062520647 46.850568458916015 7.70189602687875 0 0 1
2348 1 10.194582434088039 46.17656697783475 9.287428232264281 0 -1 1
1885 1 12.22504475639785 48.931142691110644 6.046828962126277 1 -1 0
2788 1 14.617353092613898 44.71657777265385 8.705260929875111 -1 0 1
1324 1 16.473633091796035 43.53844980128506 7.135878432518566 0 -2 1
2932 1 4.186831554857909 46.790648594308195 7.943917835331524 1 0 0
599 1 4.332978651915482 47.57188902345907 3.4988481895223194 0 -2 1
2722 1 12.352834359996493 45.87270599176756 7.2367290391517445 0 -1 1
1974 1 14.096194961506876 0.7055237669811457 7.024894594741424 0 0 1
2903 1 14.642723642472749 20.358740186760944 24.173977908011896 -1 -1 0
1871 1 4.481741000816514 49.14991263876205 5.644243867942158 1 1 0
899 1 4.0755441651908795 0.4084999084911951 10.67486121100119 1 1 0
3617 1 10.944863381536585 3.187969626364769 10.532786969163514 1 0 0
3567 1 8.128913476826803 2.931133287532073 11.756254132664337 0 1 1
1546 1 14.619397696467681 0.5453914933769697 10.126468238185028 1 1 -1
2076 1 0.9083950017573893 0.09309985018719188 12.909027819527097 0 -1 -1
1334 1 5.8466192814077385 2.968925696542076 9.94978307417544 0 0 -1
1748 1 6.463158406833514 49.273005652597455 7.6632016716124935 0 0 0
1875 1 12.00555114269274 5.394977360476451 12.813418022006749 0 0 -1
2470 1 3.614171547476725 5.034397586956907 10.443159173310146 0 0 0
2721 1 7.718588648728189 5.508629446420538 9.725106229547626 0 0 0
4478 1 7.056921658158018 0.5693078995872187 8.951375715225744 1 1 0
2063 1 7.466311831148817 3.486522851923988 7.28435465903647 0 0 -1
4565 1 11.757137600735204 9.614308427413489 12.759946747340528 0 0 0
767 1 2.339550255779548 6.500591438892067 12.6420478699542 -1 -1 0
2242 1 3.976532636287076 7.97392334839202 15.385457477717875 1 1 0
4268 1 6.6325589618584635 8.138983386394596 7.80165380991849 1 0 0
1100 1 5.815866459283058 8.785480429371777 10.42527871548884 1 1 1
3518 1 8.840150006286828 6.928691661531175 13.484981529730874 0 -1 -1
1418 1 13.671313892403798 10.75275954083702 10.593219074612461 1 0 1
1095 1 12.04599459070832 6.231611100487935 10.256326890743264 1 1 1
1963 1 13.816735624134193 4.619711994418925 8.472430214690224 0 -1 -1
3250 1 7.864892215781389 31.069022730717418 24.361515807106525 1 1 -1
2854 1 2.335696789242454 11.600166949020329 10.355040326184152 0 1 0
993 1 3.9277679347499155 13.83980663961693 10.739967663338579 1 1 0
2592 1 6.583579612868894 11.292190520676206 10.70567944931819 -1 0 -1
2061 1 16.07541532919103 11.060622248585243 11.871269798128814 0 -1 0
1769 1 12.94296272444723 15.579156039425106 2.4584048280982564 1 0 0
3440 1 8.18271625213904 50.4752085931013 20.9453831617615 1 0 -1
2962 1 3.5540831158997443 15.679003029358908 7.710069307585242 0 0 1
2056 1 6.260169770288659 12.646104417064159 13.220682851630134 2 0 1
701 1 4.229597116163795 19.204860921130166 13.125333475387334 0 -1 0
3744 1 10.988235656430781 12.294983169579025 10.84962657483619 1 0 0
2690 1 8.981814350706138 13.90000127515964 12.56434798825651 0 0 1
2669 1 11.17795568639863 14.846444450804553 10.156507766292334 0 0 1
381 1 15.913676833763619 14.271741090311867 13.678465995180119 0 1 1
4201 1 3.0782290066361186 17.941276859441977 11.04752331432135 1 1 0
3694 1 0.9445457223006399 19.438260040375734 9.643292096434317 1 2 0
1649 1 5.732337954420383 19.765441264462538 10.15998667266076 1 1 -1
3162 1 10.076231350937409 16.8583022116983 8.2270418724166 2 0 1
3654 1 12.504670976092337 18.817249381131823 8.922865131722133 0 0 0
815 1 3.6445717015823074 21.866540726693245 12.602533469046296 1 0 0
552 1 8.866855073233285 23.13232247397479 7.621713882504482 0 -1 0
2022 1 6.475210158591113 23.738629938950506 6.05674475814888 0 0 1
3546 1 8.094599481118172 26.339103982380326 8.0707138041729 0 0 1
1098 1 3.9073295013542007 21.721795088120274 9.493015069430838 0 0 0
1299 1 5.713426300138295 24.26964231750228 10.133990289446839 1 0 0
2131 1 14.55383009092329 24.265972087392058 7.165626309414747 0 0 0
189 1 14.244315249375498 23.084890444895233 10.019126089717252 0 0 0
2743 1 12.234277260342775 8.987838305740453 25.29762628279021 1 1 1
3815 1 3.4233878051827538 29.182420056619197 8.994136212823646 0 0 0
410 1 5.876285816783577 27.3498836848325 11.217009881790778 0 1 -1
2718 1 12.045802694758919 26.747237320542737 5.626430628672396 1 0 -1
838 1 12.790041953047155 26.32073342731448 8.513973951581297 1 0 1
4465 1 15.855357432314076 27.145588188101758 12.20493620886138 1 2 1
1488 1 3.0916990195224083 30.960017909512317 13.57316908306795 -1 -1 -1
2078 1 8.645062238657651 28.48046362567611 15.858581888816456 1 -1 1
2668 1 8.14908323947397 29.75584253282248 10.650311446738451 0 0 1
1831 1 17.439876387066306 36.04181247601636 14.333079960530604 0 0 0
274 1 10.673422481549862 31.560396935892314 10.491436248643408 -1 -1 -1
4156 1 2.859837682758562 35.11861938880361 12.321641234007311 2 0 0
1755 1 6.422911506310226 31.357546477295912 12.0381046945144 0 -2 -1
317 1 8.763566614980176 27.727922070625162 12.669126260927081 -1 -1 0
4509 1 12.824954575918252 30.492847154846896 15.063666800089107 0 -1 -1
3502 1 11.273912559126185 39.065004086241125 12.21957824077442 1 0 1
2757 1 15.686000382007032 21.32646348383841 7.012569549921007 0 0 1
2146 1 16.76194980476599 29.956140996067592 12.065470487238741 1 1 1
3420 1 5.913030123382895 37.738078021729336 14.175831304440068 1 -1 0
4448 1 6.365388028696561 38.310763634025875 11.403393314312808 1 0 1
3532 1 11.099832988289576 42.180390177080795 11.662794794467256 1 0 2
2695 1 8.498230759752506 40.45751240914049 12.737456974806939 0 -1 2
1233 1 0.15121755574055387 14.228078598242629 2.3017479928166478 -1 0 1
667 1 7.72875036981181 43.12203216324619 13.023441330279443 1 0 -1
1377 1 14.64067053862483 41.18303057309229 17.645755688847505 0 1 1
928 1 15.52166937056084 37.87815624687856 14.908273541022751 -1 -1 0
2794 1 2.019242948105171 40.294672327540056 12.92135820495527 0 0 0
1915 1 6.407235671649435 45.10987358128239 8.901665198790404 0 -1 0
1316 1 5.374644160775533 42.04685519026944 12.969607070590728 0 0 0
1545 1 11.763602966765546 44.23625562362491 13.5522638376596 0 0 1
2358 1 0.43044434673711296 45.278076561197615 13.766112984136113 0 -1 1
484 1 0.8327863256627642 37.939272761596285 13.906810501130614 0 0 0
312 1 8.677694316818684 31.194676040826348 0.6366019986366479 -1 -1 0
3145 1 2.054096245575543 44.85202183705736 7.9295998829554435 1 -1 0
1346 1 5.76140890710639 2.2134181435166647 0.5909958496453798 0 1 1
2770 1 1.442196784913378 44.101194387146506 0.7313043618047993 1 0 -2
3245 1 11.959448831588508 50.13710777889351 10.081687737030789 2 -2 1
4587 1 14.312777381268896 43.48193229786326 12.82072300748178 0 0 0
3814 1 15.718026966107164 45.3325816440262 11.019194676803242 1 0 0
309 1 16.124949461732932 1.6836709043459859 15.175150209850298 -2 1 1
2978 1 5.845261072989537 49.51777453746548 10.569069822851295 1 -1 0
3334 1 2.3135677199583746 49.312681737314776 11.947042291290302 0 0 0
3073 1 10.394960392451956 48.17341660030197 11.222878523975643 1 2 0
1547 1 8.283205638690859 49.866220302709266 11.856467341020664 1 -1 1
3925 1 13.325517968905316 2.1795895501008147 11.875978744068243 2 1 1
2993 1 15.492494775563689 48.023718429221205 11.40801857616887 1 -1 0
2624 1 1.20328286033802 16.501251780601308 14.40064567661847 1 0 -1
1180 1 0.11644127671270763 22.63445866962123 8.3357161139722 0 0 1
4396 1 8.285011452262399 2.4256726366861163 14.511598279042799 0 2 0
4402 1 13.227577663365015 1.2327939340371512 14.893484426801828 1 1 1
2541 1 9.227785636696078 50.258040013115235 24.338541680179144 0 0 0
548 1 1.1653036425020362 4.552298394109655 13.762879132357087 2 0 -1
1323 1 4.355463934480219 2.49957725177451 12.955870365177026 0 1 1
4453 1 4.780611005630975 4.881002674404485 14.15069054261591 1 0 2
2760 1 14.477507866462211 6.103116654327496 13.927738332774464 0 0 1
1749 1 10.978109344400233 2.4208397534865 16.408976256519306 1 -1 0
3099 1 15.812822229173964 3.7411163163211536 12.86633013587032 0 0 0
519 1 3.0361772139640215 6.2819881283754775 17.94980628835301 1 0 1
3681 1 6.191539587889884 7.479479444597134 12.749272929692438 0 -1 2
3550 1 10.012144941866449 4.821968169007271 14.851853531618088 0 1 1
3202 1 15.990448548216442 5.230780477686531 0.08938439650816071 1 0 2
3524 1 16.819419482950494 30.851078705920354 2.3636960429483858 -1 1 0
1090 1 5.6559127380016605 10.50860865850443 16.24257684924506 1 0 0
3148 1 2.0754801117585666 12.876227290600104 14.629010097755588 0 1 -1
2735 1 10.154655985342636 7.976614948168995 11.150300727111949 0 1 0
2475 1 10.57524719696173 9.004950203278627 16.358785417038774 0 0 1
406 1 12.757163163664481 12.166603489775683 18.601661586567786 -1 1 0
4376 1 4.697031862109723 35.58567944553956 -0.1467858368443303 1 -1 1
1191 1 4.222918242653637 14.403238332113984 13.23901283151094 0 0 0
1552 1 1.8516445639908643 10.190183692502014 14.4877389171218 0 -1 0
2804 1 10.053782412978551 11.252307788162547 14.253214781603106 0 -1 1
3969 1 11.738457840078352 12.734493600347092 15.911056051604085 1 1 0
13 1 15.21478062591615 12.378776329726286 8.893107066536903 -1 1 0
2077 1 8.915751677654274 14.739263332250308 0.2578270266086818 2 -1 1
420 1 13.058288233288922 17.537047928639574 16.07172817534614 0 0 1
3773 1 6.72938309034911 16.22426736770625 14.130119030264789 1 0 0
1097 1 9.653184230874851 16.051903451769572 14.049890116567006 0 0 0
3981 1 13.22590577433984 15.02213441836408 14.599421897228414 0 0 2
2309 1 15.799966586845628 18.143690502520478 15.212552713741767 0 0 1
2292 1 15.239756234300684 36.71381699171641 21.900865234880534 -1 0 1
2724 1 7.845682668126593 21.05102470973412 13.661198924180848 0 0 2
1153 1 8.735291580550035 17.131783416511798 11.14123157948034 0 0 1
939 1 7.122010059553525 18.601243714447698 12.699059085278922 0 0 0
4310 1 11.624662313177495 21.442658469601383 9.989364328743877 0 0 1
4149 1 16.730737086982188 15.115080669132594 11.122160068779891 0 0 1
3646 1 11.519415907007554 43.34777539397425 21.47994352986293 1 0 -1
2704 1 5.543974972914412 22.20094115462469 14.725223675025338 1 1 1
3895 1 0.8307487356817868 22.261481870838775 12.785539976688776 1 0 2
3721 1 7.602034478202862 22.25723421224887 9.760698900523435 1 -1 -1
3757 1 9.865724637819989 23.59729568628821 14.831846479025304 0 1 0
1750 1 10.338698302718743 25.105179390411397 9.442337012722708 0 -1 -1
84 1 14.939492355303466 20.87152929968538 12.076550671504874 -1 0 1
2372 1 16.436591276246403 47.827284401333095 17.941175035423356 0 0 1
1485 1 1.2120729031378943 25.42132827888127 8.55076365239212 0 0 0
933 1 4.168121039406631 27.300683616712384 14.257177896431571 -1 1 0
360 1 5.673602749917171 25.16066369101559 14.587058485050354 0 1 0
2939 1 9.467048960743133 22.155190648571285 11.615258934908189 0 1 1
2702 1 15.252089775861355 24.403257215089024 14.233605196721884 1 -1 0