LAMMPS data file via write_data, version 29 Oct 2020, timestep = 100000

8542 atoms
1 atom types

-0.2823573360246101 104.61032506753457 xlo xhi
-0.19097686245681444 51.2231355367436 ylo yhi
-0.19097686245681444 51.2231355367436 zlo zhi

Masses

1 18.015

Atoms # atomic

1990 1 1.6540599589386284 1.4943652931608358 1.2335790477787094 0 0 1
2077 1 3.2324081989342113 0.04133861505384567 2.914201944510618 0 0 1
1991 1 7.9615738355923185 1.6667187475942085 1.377270088701635 0 0 1
2079 1 9.664039245308963 -0.04920171516291483 2.3775065007068172 0 0 1
1993 1 14.06957919290162 1.9054304086712657 0.8119151959836146 0 0 1
1994 1 15.904135352331572 0.14470138719778897 2.74410681668526 0 0 1
2642 1 21.80125984397167 0.6804241141253538 2.5065850528347844 0 0 1
2647 1 20.359809127957252 2.2172654500106437 0.9187183091017659 0 0 1
2650 1 27.13285593192533 1.9733957248621201 1.0496511864087519 0 0 1
2651 1 28.552300110301477 0.09269220033775538 2.8822555949681243 0 0 1
2658 1 31.934456802579525 2.790583833186877 2.7659056681704937 0 0 1
2653 1 33.32137511065479 1.4203162956397886 0.7725178824812796 0 0 1
1405 1 -0.20615538209196854 2.99503105320142 2.5945545320237198 0 0 1
1996 1 4.447676435840439 4.48813767573988 1.3574599294878709 0 0 1
2085 1 6.467724398004644 3.149658986621051 2.806441439911728 0 0 1
1999 1 11.272454173351216 4.798246836229507 1.4526659688529193 0 0 1
2000 1 17.02352371380652 4.8177580059024745 1.3907129130261144 0 0 1
2319 1 18.92818111803064 3.4406592615322737 2.7454514717058247 0 0 1
2655 1 23.495705809630444 4.722127646380729 1.4353879348589402 0 0 1
2652 1 25.278892304943987 3.2414507012418974 2.6967642837569348 0 0 1
2656 1 30.50237164156787 4.287506308678285 1.2917437086583459 0 0 1
2001 1 1.3692614779955508 7.62287422870911 1.4534650378850256 0 0 1
2003 1 7.7480601076975155 7.799384570758079 1.1400746688716417 0 0 1
1998 1 9.534148402358433 6.383605013289531 2.710857726750839 0 0 1
2005 1 15.304053918053887 6.360405916496188 2.939221912772361 0 0 1
2007 1 13.772733383550547 8.12551637500575 1.2862984868518266 0 0 1
2660 1 20.078868217697618 8.082029230981913 1.01530700554465 0 0 1
2726 1 21.9290277857819 6.919044592268913 2.660980092607994 0 0 1
2661 1 27.324152888601052 7.64796522091274 1.1579323863489908 0 0 1
2657 1 28.779979679255977 6.114652071184928 3.000370412564332 0 0 1
2663 1 32.9944836331935 8.061456630816974 1.202711614537837 0 0 1
4254 1 0.06631398192791516 10.268823547890587 1.9736136427920745 2 3 2
2010 1 4.478188152949615 10.872397833277114 0.8799103213610395 0 0 1
2004 1 6.2491159792008215 9.777380181476698 2.7947431204196844 0 0 1
2011 1 10.627881901391358 10.999427253495591 1.1798178842564013 0 0 1
2012 1 17.425364841541484 11.080250993520648 1.0522488241780514 0 0 1
2331 1 19.04797038474214 9.487941485934755 2.956588473894553 0 0 1
2664 1 23.59596014597222 10.936299538681284 1.158176141687623 0 0 1
2665 1 25.49289014302782 9.282294334844586 2.2563565239188317 0 0 1
2668 1 30.084296253441526 11.220225655327797 1.1399206095970245 0 0 1
2662 1 31.514011767050853 9.606464863429954 2.7584980225621067 0 0 1
2014 1 1.5319369135814314 14.63339851348452 1.1280572024403013 0 0 1
2101 1 3.1459525445585954 12.685397700044563 2.5067387631105045 0 0 1
2016 1 7.6214809437558975 14.34828613878505 0.8925068668427434 0 0 1
2103 1 9.315947647131523 12.90581568958798 2.9150462009000844 0 0 1
2018 1 13.983888248673832 14.700733378165083 1.269252697519593 0 0 1
2017 1 12.435805677154189 12.729937002247471 0.015515638997989356 0 0 1
2109 1 15.7206890906435 12.871046973403775 2.774547946663284 0 0 1
2670 1 20.30873275713507 14.181122414701559 1.495207480452331 0 0 1
2671 1 22.169423945202958 12.529645850191109 2.900678802089274 0 0 1
2672 1 26.998123895460157 13.964986139417796 1.1200140876406708 0 0 1
2667 1 28.42574763575756 12.678893635078861 2.8805189352395626 0 0 1
2674 1 33.00908042521753 14.068495012955312 0.8859549366954811 0 0 1
1412 1 -0.250462063033958 16.29240106226462 2.425849469087452 0 0 1
2114 1 5.963243861914728 16.185125553651844 2.609373289338601 0 0 1
2021 1 4.206510787649892 17.467178641348124 0.995846859942753 0 0 1
2116 1 12.246209695453883 16.301746570853094 2.959354099076591 0 0 1
2023 1 10.511860280833112 17.541883613208 0.9559664526548772 0 0 1
2025 1 17.422519835635516 17.80903229348341 1.318994565845932 0 0 1
2137 1 18.752192465763137 15.940584945188142 2.851394816173239 0 0 1
2675 1 23.97326344767888 17.302812286344494 1.3155209114621869 0 0 1
2676 1 25.78019789042175 15.92680560760568 2.6482817229138913 0 0 1
2677 1 30.00924212278009 17.670625610365917 1.3363225116440227 0 0 1
2594 1 28.675597225938606 15.715703495794562 -0.06464933954920538 0 0 1
2739 1 31.70850563901817 15.915936712411611 2.845569156256275 0 0 1
8385 1 -0.21852656099438178 19.465039677826677 0.09278041799816905 1 -2 -1
2020 1 3.043197583786962 19.211669886202408 2.9225997665062557 0 0 1
2123 1 8.99971709517145 19.048222997402977 2.5354752337511286 0 0 1
2027 1 7.614187530693514 20.714956474353762 0.8775451234321867 0 0 1
2029 1 14.233140015417865 20.27052104723196 1.4105203489069404 0 0 1
2118 1 16.05023110129785 19.200824772763845 3.009448669870337 0 0 1
2741 1 22.39495257562222 19.29267864747651 2.82374886281198 0 0 1
2680 1 26.95895337807262 20.807040203334456 1.263598346178425 0 0 1
2592 1 25.378522291868062 19.091185742598956 -0.16239988876936906 0 0 1
2681 1 33.12069654863485 20.78586501009652 0.656334079920336 0 0 1
2026 1 1.5505599113700745 21.266607747554424 1.323792306249802 0 0 1
1456 1 -0.18450177828944658 22.650004004399307 2.9137330059749234 0 0 1
2121 1 6.181095966368172 22.42939298404945 2.4095063493583533 0 0 1
2033 1 11.093824956400773 23.970094362994782 1.080855248612807 0 0 1
2130 1 12.692056760559447 22.26208034438015 2.586808030350863 0 0 1
2678 1 20.690008042263514 21.017161553568325 1.4961051250115929 0 0 1
2750 1 19.035831148617763 22.799858787832637 2.8758796780984515 0 0 1
2679 1 25.725329288838985 22.638110910480936 2.703231656635456 0 0 1
2684 1 31.732463263885244 22.45064769909826 2.6497028231079063 0 0 1
2030 1 2.3702172565753 25.672744718663527 2.824184934534044 0 0 1
2031 1 4.667311583391611 24.414925886762436 1.279393612121997 0 0 1
2127 1 9.258864875882576 25.68608935786383 2.5184555576612295 0 0 1
2034 1 17.33087050510745 24.13874737010093 1.2719232465405357 0 0 1
2040 1 15.793322615842378 25.705492251038695 2.832866548402523 0 0 1
2736 1 21.811174387577807 25.36344856847813 2.834086590285672 0 0 1
2682 1 23.859624664601217 24.09536559744711 1.148328370328866 0 0 1
2683 1 28.164273445102747 25.83033702336137 2.7020614442864193 0 0 1
2685 1 30.025540536911137 24.653374078071813 0.8546583233284677 0 0 1
2743 1 34.574134106901546 25.269999462705073 2.5768333917626562 0 0 1
2035 1 0.8336263206218137 27.246752476728417 1.0152549996807316 0 0 1
1975 1 5.87605615139719 28.49819563382939 2.7125141431725206 0 0 1
2036 1 7.91056643253547 27.34280678818428 0.9377111017777189 0 0 1
2045 1 12.423841129391375 28.626796268669622 2.4562631815050295 0 0 1
2039 1 14.026104468014669 27.055355493320672 1.040138607655071 0 0 1
2686 1 20.566860538849344 27.065281170250753 1.1677907545347448 0 0 1
2232 1 19.089096901831336 28.737257095878448 2.668658131706157 0 0 1
2617 1 24.95746768142086 28.90819750372574 2.762797892309341 0 0 1
2687 1 26.6577164289191 27.379896752143395 1.1075016678054845 0 0 1
2689 1 33.32902495283844 27.188849182927683 0.9523675221801025 0 0 1
2541 1 31.515961450051247 28.687708343311822 2.419043089110045 0 0 1
2119 1 2.4818968614150636 31.631351567717044 2.6572114295295157 0 0 1
2043 1 4.51317764539476 30.382317624790495 1.2937717944272684 0 0 1
2050 1 8.912950096463327 32.045136603765926 2.6489525727675516 0 0 1
2044 1 10.894462696730404 30.40694925893954 1.0070246968380556 0 0 1
2052 1 15.539139918238517 31.535853680896135 2.1287609558522167 0 0 1
2047 1 17.591895198578335 30.139679292058265 0.8289860083226521 0 0 1
2691 1 23.73151027756899 30.325748096818952 0.8231935824724681 0 0 1
2690 1 22.164898493499564 32.272915018717924 2.334385544487178 0 0 1
2692 1 30.088480000883152 30.495046127890213 1.067074545762791 0 0 1
2604 1 28.336672127903867 32.08716391175556 2.7651300438814284 0 0 1
2702 1 34.544627922454744 31.68735346658901 2.5820358000701633 0 0 1
2048 1 1.1224654820831592 33.55536574735704 0.90971794182146 0 0 1
1490 1 -0.2727722240180014 35.18299016315838 2.860511357130982 0 0 1
2055 1 5.79871611189864 34.77392129084791 2.5012639013719307 0 0 1
2049 1 7.419998653412123 33.397242674909776 0.7661869965690694 0 0 1
2111 1 12.410342240647548 35.22306521454561 2.5919425932202826 0 0 1
2051 1 13.931991163436946 33.40063451141587 1.0520214428072074 0 0 1
1892 1 18.87904257541453 35.108264403433914 2.7327766051557374 0 0 1
2693 1 20.13917275907546 33.77068937352742 0.847356160522726 0 0 1
2646 1 24.981533966250424 35.04415231866748 2.8998605693527 0 0 1
2695 1 26.784552383437855 33.72323390294 1.4505415817489855 0 0 1
2697 1 33.03996448592053 33.51975330506011 1.0414068181998952 0 0 1
2563 1 31.617229516012618 35.09492183465554 2.6297111996564464 0 0 1
2060 1 2.807155980741734 38.215498153411836 2.8593160346387045 0 0 1
2054 1 4.231518340436286 36.42405725961383 1.0812542937877494 0 0 1
2063 1 9.184604798595723 38.10145320646899 2.730316148730819 0 0 1
2057 1 10.652131087347756 36.7923121908275 0.8419711844935689 0 0 1
1627 1 15.496644967246196 38.404296737258974 2.4543636985711847 0 0 1
2059 1 17.36722714645477 36.97936781229498 1.2019962727807076 0 0 1
2699 1 23.638323914068256 36.548963450123274 1.2011703610370688 0 0 1
2698 1 22.5579864593175 38.50479090298522 2.7067850392448283 0 0 1
2625 1 25.434370516106295 37.799530154634496 0.06591618197816318 0 0 1
2705 1 28.489494458394063 38.20380951712413 2.848767217650163 0 0 1
2701 1 30.030044473773543 36.93859390344245 0.856048761456188 0 0 1
2061 1 1.149689928030238 39.75519927464698 1.2566852776643784 0 0 1
1574 1 5.935413066416391 41.285818389105046 2.7584590527276704 0 0 1
2062 1 7.400058487735038 39.54393637183973 0.9498357097609536 0 0 1
2068 1 12.335336113501752 41.79173506346356 2.5686920761656067 0 0 1
2065 1 13.84608762343061 40.43746817417694 0.9559980231368701 0 0 1
2092 1 18.67620788043942 41.339330831777524 2.8367241991737537 0 0 1
2703 1 20.352120387078475 39.78994913619586 1.4509965877328568 0 0 1
2630 1 22.152863198340782 41.40839168461366 -0.06140428457909372 0 0 1
2704 1 26.81499761506257 39.96185540742069 1.4605285616616916 0 0 1
2157 1 31.272168257167177 41.31574477573576 2.696338308320856 0 0 1
2707 1 33.12679134441405 39.84301880315943 1.3453062027734248 0 0 1
1978 1 2.9766142552201917 45.02091466510345 2.740125775686621 0 -1 1
2066 1 4.342594409650739 43.08668751420805 1.1737398630085438 0 0 1
2072 1 9.35086486238905 45.059238546722185 2.4911874156612797 0 -1 1
2069 1 10.871916601654023 43.34423470635625 0.8284266362924282 0 0 1
1506 1 15.919269980012249 45.006088927434924 2.947798555919552 0 -1 1
2070 1 17.279174944757393 43.050460590879176 1.0931070277167434 0 0 1
2019 1 18.72343306309159 44.757769161485484 -0.16721170224905116 0 -1 1
2709 1 23.993912193456534 43.195752892553955 1.2468504573037342 0 0 1
2166 1 28.576010109174497 45.12699548643341 2.8501624629773965 0 -1 1
2712 1 30.00995054240957 43.202197910262655 1.1589232547629207 0 0 1
1976 1 1.4049103818224609 46.42555883964859 0.9676277721187985 0 -1 1
1437 1 -0.11640794356423484 47.987281656684466 2.5908776619794933 0 -1 1
1979 1 7.9389411913814545 46.53911599398489 0.8866988826587354 0 -1 1
1981 1 14.357480331264266 46.561536255865924 1.3462946104521272 0 -1 1
2638 1 20.701727011740598 46.494819215924124 1.729832356420913 0 -1 1
2554 1 22.274604858284892 48.077679984466855 -0.10484616744672902 0 -1 1
2710 1 25.43679272023579 45.28069944693387 -0.06032090335307469 0 -1 1
2640 1 27.209825560368632 46.95474059449107 1.1739359655407386 0 -1 1
2641 1 33.16024279553022 46.28938587973419 1.317600058535409 0 -1 1
1985 1 4.550954334095272 49.76808873441525 0.8450039571232528 0 -1 1
2078 1 6.342697761741171 48.28197223181786 2.48925530823025 0 -1 1
1987 1 11.24992238780706 49.79997216561096 0.723346179105532 0 -1 1
2081 1 12.69383291344317 48.43435065178466 2.7551147822518818 0 -1 1
1989 1 17.626308426342284 50.034351564938255 1.10745630740904 0 -1 1
2143 1 18.86097292773773 48.49953149067748 2.919795695183812 0 -1 1
2643 1 23.72361700012072 50.144402755165366 1.203910974777701 0 -1 1
2718 1 25.3048357817943 48.55914627185546 2.832031531410164 0 -1 1
2644 1 29.94564584865442 49.722627819883044 1.4233835761412366 0 -1 1
2645 1 32.016967178812585 48.43620438755149 2.9609186580633664 0 -1 1
2565 1 31.801571228439286 50.91263013180705 -0.11267785643619468 0 -1 1
2086 1 4.803390434092257 1.7129419832395578 4.433754778082272 0 0 1
1586 1 6.645457278431215 -0.05213135217256426 5.763275013819439 0 0 0
2087 1 11.09171020119536 1.5211583618246056 4.112789521308247 0 0 1
44 1 12.497529027089156 0.22015380828674908 6.143080130147277 0 0 0
2088 1 17.373166196946368 1.9103219565474112 4.4694013120885465 0 0 1
2721 1 23.833358510911523 1.6244286658153169 4.671944501388443 0 0 1
2722 1 30.278551332733848 1.6052739352687533 4.632543003682147 0 0 1
2089 1 1.329116333938287 4.560999847825284 4.352917866803264 0 0 1
30 1 3.019759662445131 2.9301018385815127 6.2006306615894164 0 0 0
2090 1 7.882957248650941 4.9623872183662945 4.589794000448314 0 0 1
775 1 9.894867964397312 3.405810572228413 6.116983427236445 0 0 0
2091 1 12.848230166719093 3.4537743242708303 3.224582154980511 0 0 1
2093 1 14.191517316678212 4.895692668425602 4.960233360373703 0 0 1
2725 1 20.571896115567068 4.773914474039782 4.218818698696628 0 0 1
2761 1 21.964540143271375 3.1570710374646445 5.883045850134997 0 0 0
2727 1 26.999996302533823 4.477774140464625 4.256843550944958 0 0 1
1037 1 28.478398704073605 2.924765667108927 6.222539309395154 0 0 0
2728 1 33.305715609697266 4.438544377663657 4.359055456235774 0 0 1
2094 1 3.0924475069765807 6.018882923018247 3.1661384034080657 0 0 1
2096 1 4.690051993659857 7.996465418231214 4.393110779232918 0 0 1
2097 1 10.898172703568722 7.846138309717153 4.460588098508849 0 0 1
2099 1 17.311097320087136 7.540607754815256 4.509660188051882 0 0 1
2749 1 24.977374746257237 6.172721152609528 5.664820190692322 0 0 0
2731 1 23.515971329471913 8.193058308255525 4.186615080252731 0 0 1
2732 1 30.22150695032304 7.830447075321567 4.413851125527857 0 0 1
2659 1 34.53627423651528 6.592907998409947 3.0494036225778705 0 0 1
1280 1 31.79887013017799 6.230074417471952 6.1159560447821795 0 0 0
2100 1 1.215555999067454 11.18467589576473 4.109371555574566 0 0 1
1936 1 2.8169761725333777 9.539623535646745 5.507625939881146 0 0 0
2102 1 7.545876574775821 11.499466507483476 4.5073481355149605 0 0 1
2104 1 12.512722145896769 9.755718560561363 3.0956048144529533 0 0 1
2105 1 14.426032427371293 11.387377167377657 4.589638706119097 0 0 1
2734 1 20.47095207858292 11.100726782316753 4.553779336518539 0 0 1
2735 1 26.731579331414714 10.749479933297168 4.24959038258191 0 0 1
1398 1 28.373890352460126 9.525013408465735 6.118250295724323 0 0 0
2737 1 33.04477876379303 11.485861949341754 3.98211521700153 0 0 1
6582 1 -0.19667097200647277 12.689300611878727 5.696410736932703 1 1 -1
2106 1 4.578230503532454 14.409693999823348 4.223495269357289 0 0 1
2108 1 10.760494813832345 14.663746151718092 4.4458115771847115 0 0 1
2112 1 17.451016807155096 14.362215157018236 4.674910138885006 0 0 1
2738 1 23.817605776837116 14.309220347031573 4.182432886541224 0 0 1
2760 1 25.588204770133732 12.757362557777482 5.745738853173412 0 0 0
2740 1 29.624024560405477 14.437878490454745 4.397540826369939 0 0 1
2113 1 1.286916986986653 17.644237273128528 4.175980083102345 0 0 1
1474 1 2.867499980901711 15.917259242390035 5.808765498872389 0 0 0
2115 1 7.405177922898692 17.74975072954184 4.4100565803911955 0 0 1
1493 1 15.301581141800346 16.090549200352815 5.717013204452779 0 0 0
2742 1 20.638905890081055 17.422336526855467 4.2887892734842135 0 0 1
2745 1 26.830769925413083 17.84425312754071 4.567815167762469 0 0 1
2759 1 28.718371067537188 16.317121138612443 5.824659780874822 0 0 0
2746 1 33.32902470040726 17.67767898213185 4.391504208863921 0 0 1
2120 1 5.028886346422566 20.54703711153411 4.184943996600592 0 0 1
2124 1 11.05263197751176 20.384127383010824 4.057624465404025 0 0 1
2117 1 14.038835854146248 17.986867211517257 4.33924940003398 0 0 1
2125 1 17.805317870864577 20.78309306257225 4.319521237311512 0 0 1
1382 1 19.312510278143296 18.95242732346009 6.204898735223014 0 0 0
2744 1 28.568903646020367 19.25170095866623 3.168224604530551 0 0 1
2669 1 32.048083434013265 19.69554191005677 5.68647107206361 0 0 0
2126 1 1.6839651073191158 23.68633576882587 4.369987443445273 0 0 1
1440 1 3.3602025900620105 22.08906926585063 5.81483494457708 0 0 0
1821 1 9.393500995926553 22.095789415442034 5.74156564913311 0 0 0
2129 1 14.147976623187153 23.837040254714157 4.073411279221642 0 0 1
1463 1 16.234954056882426 22.375640327566465 5.8492555504648 0 0 0
2747 1 23.949287416648147 21.18482228256259 4.4001154020963265 0 0 1
2762 1 22.219592799679035 22.844698518732013 5.786702135926879 0 0 0
2748 1 30.110078660787334 21.06836584035847 4.315996102718379 0 0 1
2723 1 33.24151497349627 23.81913824731104 4.523804966494935 0 0 1
2147 1 -0.19638692398403007 25.453940646236802 5.883205588005358 0 0 0
1949 1 4.493396166953488 26.870624006675474 4.226229268557286 0 0 1
2128 1 7.866410064072941 24.060356378204464 4.109641251969494 0 0 1
2095 1 10.998556197858582 26.89742114813626 4.277155119779351 0 0 1
761 1 12.813283687319451 25.42528915741767 6.087849346337144 0 0 0
131 1 18.73360192212993 26.314045787727917 6.196748317505279 0 0 0
2733 1 20.11740158172376 24.14269987619275 4.911561575921089 0 0 1
2716 1 23.57106075213889 26.976864471430993 4.245736973824483 0 0 1
2730 1 27.063541948832174 24.201662379297368 4.586340720177393 0 0 1
1396 1 25.364341867222596 25.942853490964744 6.186569440456706 0 0 0
2754 1 31.693990527147733 25.965237755730016 5.68115483986359 0 0 0
1461 1 2.8926339060183297 28.325918712246573 5.675816629100685 0 0 0
8340 1 -0.25892548876961996 27.577480314086326 3.60536884187634 1 -2 0
1552 1 9.268733150552164 28.619134972495107 5.736840701119229 0 0 0
1480 1 15.304652982685468 28.892346896216768 5.836876472923772 0 0 0
2082 1 17.15063629520211 27.49877643067201 4.345910594104343 0 0 1
2341 1 22.36359530399557 28.881919492387606 5.556481188774838 0 0 0
2558 1 29.87768519678162 27.57100016066649 4.200259250410051 0 0 1
1392 1 28.37159533899036 28.97560992882301 6.143211586885286 0 0 0
2307 1 34.594143791072035 28.397734139492073 5.835114257595986 0 0 0
2024 1 1.0224422092667151 30.149522069766004 4.306978884369726 0 0 1
1448 1 5.913585611867273 31.6535582338858 5.79645609826727 0 0 0
2122 1 7.665095987476177 30.32308733488934 4.145149341972304 0 0 1
2110 1 13.94064474938196 30.297996968000056 4.0054064928865065 0 0 1
1451 1 12.49352851393006 32.11925868678954 5.4131666956255415 0 0 0
2713 1 20.597458709039937 30.438465613614145 3.9326092841815203 0 0 1
2452 1 18.911325637326577 31.991154872391405 5.629806503730228 0 0 0
2590 1 26.81106140094138 30.328098212297704 4.299615315358919 0 0 1
1362 1 25.21740558753901 32.09868758728807 6.092034488205833 0 0 0
2575 1 32.83171956937999 30.07549164084778 4.180813633714653 0 0 1
1395 1 31.52052480002358 31.75816152381067 6.078651598410786 0 0 0
2107 1 4.23177308826138 33.29741251958339 4.157363543524327 0 0 1
2148 1 2.9241392689952965 34.957388387973324 5.849980142441616 0 0 0
2053 1 10.605053046718913 33.84609112143124 4.079758406281263 0 0 1
766 1 9.401805115436538 35.15392797494436 6.190955169119245 0 0 0
1698 1 15.425192411145744 34.75610377489915 5.4213790451300365 0 0 0
2098 1 16.88629673559621 33.482615335721746 3.704354198205071 0 0 1
2568 1 23.45709741046688 33.36430157268865 4.414988077224214 0 0 1
1386 1 22.175794932252348 35.43356081062586 6.093752360064199 0 0 0
2552 1 30.111741472133282 33.355086513606665 4.269496212433695 0 0 1
2228 1 28.49848268726992 35.036370080268306 5.864077179225806 0 0 0
2075 1 0.9827643805402857 36.65654024596414 4.367077361932747 0 0 1
2008 1 7.661033206787505 36.231481629101694 4.241215671351924 0 0 1
2149 1 6.284814614280659 38.14741994428999 5.768666084814817 0 0 0
1783 1 12.291650442283975 38.739474868394545 5.829990991071978 0 0 0
1955 1 13.784559679215505 36.814892883791366 4.354346524087274 0 0 1
1430 1 18.487578651410246 38.39425073119075 5.607466030209631 0 0 0
2654 1 20.571431217105992 37.07037833160194 4.120293983811808 0 0 1
2574 1 26.7218377034703 36.71869492993051 4.345709454921501 0 0 1
2540 1 33.24044599515489 36.54912282740424 4.10798679563553 0 0 1
854 1 31.96592222244309 38.404939955340275 6.181945288160949 0 0 0
206 1 2.8618317991377227 41.270914328809944 6.196376040889226 0 0 0
1795 1 4.559291614594374 39.76258971279968 4.378515892695401 0 0 1
1403 1 9.13133443824558 41.57471763182584 5.895871403541891 0 0 0
1628 1 10.537614820194701 40.040075782168735 4.136541514819454 0 0 1
1595 1 16.71677830007986 39.88182187204225 4.494043951217495 0 0 1
2437 1 23.657115094224125 40.0792979754287 4.843491258466501 0 0 1
1342 1 22.444194281989645 41.93924385500731 6.101715025522029 0 0 0
2708 1 25.297237072657097 41.72090434138897 3.2404889124690137 0 0 1
2372 1 29.99535299037275 39.59780344645841 4.560999691376869 0 0 1
2724 1 28.50979902186801 41.651367524106035 5.892837918080368 0 0 0
1580 1 1.3978153433918 43.031026355294884 4.472975806745071 0 0 1
4891 1 -0.24889521035419077 44.567626523387894 3.3561842068822014 1 1 1
1537 1 7.462074563453115 43.00826573278423 4.246969606942148 0 0 1
2084 1 6.1610960241699555 44.62263531473321 5.7323037041024385 0 -1 0
1518 1 14.10186000824277 43.32431938675161 4.205329956335009 0 0 1
2306 1 20.337645650123875 43.28016766527534 4.145371747461552 0 0 1
1371 1 19.076051106048993 45.0589661351775 6.1877949059383885 0 -1 0
2637 1 22.495938303028332 45.04573364153213 3.105252253834398 0 -1 1
2205 1 26.895613870605587 43.61202912921642 4.487905447226143 0 0 1
2156 1 32.94776753976399 42.82884920277168 4.2429999227381385 0 0 1
503 1 2.8535723168280303 48.06203207156015 6.148336883526012 0 -1 0
2071 1 4.59421889266745 46.59022129996489 4.172780187372128 0 -1 1
2073 1 11.019601266116508 46.30348727089462 4.04021717020776 0 -1 1
1492 1 9.570535427789041 48.13497236791262 5.561188047449874 0 -1 0
2074 1 17.498454365986156 46.552101007055796 4.504646781460942 0 -1 1
2714 1 23.958916359879446 46.99808929677342 4.650373302117031 0 -1 1
2715 1 30.346526536849943 46.703669762282665 4.690596517842423 0 -1 1
2076 1 1.4715212810853002 49.82140615958511 4.200175158962887 0 -1 1
7774 1 -0.018575660377950276 50.65913496021354 5.840587964239653 1 -2 -2
2080 1 8.06874713290573 49.733489383552886 3.8503447838206615 0 -1 1
2083 1 14.313940740685938 50.23678703788009 4.331144423093076 0 -1 1
2717 1 20.419172137825598 50.40659318573461 4.3648524949600285 0 -1 1
2719 1 26.706361674768925 49.99673747148953 4.777225975709279 0 -1 1
1388 1 28.478270511985016 48.45769646143542 6.229247631797931 0 -1 0
2720 1 33.294199209009086 50.09625573539695 4.38594316686218 0 -1 1
15 1 1.2998496534638055 1.0854438681328478 7.425650060999186 0 0 0
16 1 8.195096272172151 1.7825731221608465 7.602842809962633 0 0 0
19 1 14.098337178990827 1.7786854825413916 7.7267602984929 0 0 0
110 1 15.730005093396464 0.21152023456625735 9.334864873458889 0 0 0
820 1 19.123763127774822 0.42158301193780356 6.514144805571393 0 0 0
792 1 20.560821933901774 2.033176904225317 7.984623188131982 0 0 0
856 1 25.452170291348633 0.20212127453004336 6.300928388294055 0 0 0
795 1 27.070365120771726 1.5649723059355454 8.018352798938185 0 0 0
796 1 33.301174142071815 1.7375321806710764 8.090341772410286 0 0 0
839 1 31.86517816696952 0.10891193337029187 6.487341554596623 0 0 0
7351 1 0.01987752178209662 4.0342027791849535 8.24965501264585 0 1 2
21 1 4.602661305653832 4.596567828151888 7.832640395755815 0 0 0
24 1 10.927095349181489 5.1183279619632716 8.082440870607229 0 0 0
256 1 15.698153548826586 3.3202232971674843 6.622880710353062 0 0 0
25 1 17.27510621915534 5.128532230851053 8.00305756881905 0 0 0
798 1 23.452949610644595 4.829566342497321 7.756281175870721 0 0 0
799 1 25.16919766587046 3.2440209482723015 9.180385469618635 0 0 0
800 1 29.924262931622135 4.781061986436588 7.627601691010766 0 0 0
27 1 2.711393859662588 6.208269149621526 9.076318150216816 0 0 0
26 1 1.1603060095868036 7.8007978802308875 7.291209269923706 0 0 0
3 1 6.076932967237664 6.279829836357297 6.39995779869329 0 0 0
29 1 7.606986491253072 7.909710746548555 7.948752669192768 0 0 0
278 1 12.521889095972773 6.728751053764467 6.49066943217736 0 0 0
31 1 14.330638921843494 8.092820122127144 8.225056352340594 0 0 0
1378 1 19.041468358549874 6.066851662665617 6.270360507184196 0 0 0
802 1 21.846717736201118 6.379819876107319 9.206884443341394 0 0 0
801 1 20.66245770523783 8.09447770987554 7.653611311188141 0 0 0
804 1 26.718362673558634 7.808303850746363 7.4435263938122205 0 0 0
805 1 28.44971720150458 6.209263554947426 9.174183149261982 0 0 0
806 1 33.43851232963369 8.09459778173346 7.464208439640132 0 0 0
52 1 -0.2803467432877346 9.70620689839907 8.96843165805134 0 0 0
32 1 4.3209846266449725 11.042862186800184 7.5690621366199515 0 0 0
28 1 5.880987465537638 9.71921853316225 9.355010419198894 0 0 0
95 1 9.05835320027845 9.638942518946214 6.251616536777718 0 0 0
34 1 11.013524473116545 11.016771032644861 7.863181435455795 0 0 0
489 1 15.93467556685157 9.484676702301728 6.436518916720784 0 0 0
36 1 17.21589263095025 11.18509663366031 8.179371698535743 0 0 0
832 1 19.03455617252715 9.704687085322352 9.264878227764646 0 0 0
1170 1 22.451064668905197 9.695744919034444 6.239412331981893 0 0 0
808 1 24.259727919468375 11.243061436223053 8.06157244817695 0 0 0
803 1 25.673463586852982 9.434807947512885 9.383847068575005 0 0 0
810 1 30.053491112316706 11.16678795323766 7.980994994973676 0 0 0
811 1 31.60603539496816 9.31197313569186 9.286630518917157 0 0 0
37 1 1.2302431910129794 14.295508316695324 7.612419452738399 0 0 0
548 1 6.0038564698477135 12.616327941455404 6.300462182878458 0 0 0
38 1 2.9170376768471495 13.000094395755669 9.177530191634283 0 0 0
39 1 7.737068928183641 14.505067453694362 7.632777350844212 0 0 0
127 1 9.416740350995815 12.703356947212983 9.263444514364748 0 0 0
55 1 12.52346986795204 12.91871621846696 6.321245857503653 0 0 0
41 1 14.093630764277796 14.46884199036679 7.864959421315499 0 0 0
1198 1 19.00400329854645 12.94295459983549 6.33987307594224 0 0 0
812 1 20.708670265634357 14.371754105902331 7.80799606002241 0 0 0
807 1 22.59860406559439 13.152065014573383 9.234265596695233 0 0 0
814 1 27.338146647166198 14.354178255158665 7.576788057506102 0 0 0
823 1 31.306847491408924 12.877946513339959 6.494637732912831 0 0 0
815 1 33.48147764447269 14.55855208082637 7.470142892554671 0 0 0
43 1 4.480161871352091 17.577896148367852 7.502209375625045 0 0 0
90 1 9.149829997098283 16.265793787046345 6.376372482268713 0 0 0
45 1 6.112013714950705 16.021634007722202 9.278485069530065 0 0 0
46 1 11.018757965997127 17.824764121733594 7.8957667355634165 0 0 0
135 1 12.488142926877364 16.277656422767823 9.357273858896928 0 0 0
47 1 17.32564751104899 17.512474104219436 7.307926182849237 0 0 0
768 1 18.855541376982792 16.386155041955597 9.065693290535336 0 0 0
1393 1 22.218483158869077 15.830477007661447 6.244393967812307 0 0 0
816 1 23.880008365044585 17.567201253712998 8.07338067020986 0 0 0
813 1 25.45518513457737 15.718311105451226 9.194587255230742 0 0 0
817 1 30.441120370174886 17.85929720852424 7.589234684651701 0 0 0
818 1 31.95229433717168 15.87472523839907 9.356996263862007 0 0 0
49 1 1.6290493429446846 20.65156757093954 7.7091440247928755 0 0 0
50 1 2.704216656565054 18.895666268539156 9.448925297426106 0 0 0
714 1 6.192308801816412 19.28670276661127 6.362183612958509 0 0 0
140 1 9.393011083603929 19.314752658323393 9.393509300738486 0 0 0
162 1 12.763871661014687 19.463139657168476 6.440948324942054 0 0 0
53 1 14.637078027120188 20.768460340067392 7.989825490035598 0 0 0
144 1 16.134498366373638 18.932216372151593 9.248496649500115 0 0 0
1331 1 24.917260674096674 19.303747390256056 6.354731981528008 0 0 0
821 1 26.829586979490024 20.9364562049213 7.7489339582938035 0 0 0
822 1 28.524058098848194 19.11097229036322 9.1819311704306 0 0 0
66 1 -0.1460993215881087 22.1987096611548 9.437530946566788 0 0 0
57 1 4.550912271920678 23.830585714428942 7.771511024999286 0 0 0
51 1 7.685877100537795 21.018242465920068 7.797776109721414 0 0 0
59 1 11.434911895928245 23.719944546602292 7.543202248813319 0 0 0
153 1 12.879823575295271 22.326084756654154 9.37134961607405 0 0 0
819 1 20.742324927504683 21.073690450358725 7.465612732330314 0 0 0
1100 1 19.075332482471904 22.621752136090517 9.024895524729724 0 0 0
1241 1 28.617464026815263 22.500718151099612 6.32800433745612 0 0 0
824 1 33.551717496528035 21.023930744512523 7.828369494782885 0 0 0
830 1 31.652916110902424 22.47206658962302 9.153784722969501 0 0 0
56 1 2.6554769758556835 25.20842318542177 9.35974247342431 0 0 0
762 1 6.2422674104337075 25.371198456839437 6.299743032425855 0 0 0
63 1 7.839569138418172 26.99050342126003 7.708542099869529 0 0 0
64 1 9.689132308980225 25.29219835107914 9.035852256269996 0 0 0
60 1 17.458670693836453 24.230865498506404 7.521874594379654 0 0 0
160 1 15.800661659432148 25.46203231566812 9.21371465710361 0 0 0
825 1 23.73228707637079 24.160623895506973 7.535084882979862 0 0 0
904 1 22.216204379755187 25.50102084212783 9.28182510934395 0 0 0
829 1 30.36065968310846 24.319306642311727 7.597166006372906 0 0 0
828 1 29.018770238172387 25.91756317299237 9.323689600219886 0 0 0
62 1 1.0208804666919444 27.158978976922892 7.586357957107471 0 0 0
69 1 6.0256756142333785 28.625378021015255 9.27802014958595 0 0 0
158 1 12.417207491954622 29.105992962230317 9.287672475430492 0 0 0
65 1 13.872701068865368 27.28808788071618 7.670537335999972 0 0 0
733 1 18.71345321051687 29.08133918091117 9.14065190469509 0 0 0