
# Define the lattice
#
variable	    lattice_constant equal 6.36339
lattice		    diamond ${lattice_constant}
lattice		    diamond 6.36339
Lattice spacing in x,y,z = 6.3633900 6.3633900 6.3633900

# Define region
# multiples of lattice spacing
#
region 		    simbox block 0 9 0 8 0 8

# Create Atoms
#
create_box          1 simbox
Created orthogonal box = (0.0000000 0.0000000 0.0000000) to (57.270510 50.907120 50.907120)
  3 by 1 by 2 MPI processor grid
create_atoms        1 box
Created 4608 atoms
  create_atoms CPU = 0.000 seconds
mass                1 18.015

# Define potential
#
pair_style          sw
pair_coeff          * * /data/emrosky-sim/Freezing_Simulations/Melting/MLmW_fancy/ML_mW.sw mW
Reading sw potential file /data/emrosky-sim/Freezing_Simulations/Melting/MLmW_fancy/ML_mW.sw with DATE: 2019-02-27

# Add velocity/set timestep
#
velocity            all create ${TEMP} 120598 rot yes dist gaussian
velocity            all create 295 120598 rot yes dist gaussian
timestep            5.0

# Define output
#
compute	            1 all msd
thermo              100
thermo_style        custom step temp press vol etotal ke pe c_1[4]

# Neighbor lists
#
neigh_modify        delay 0 every 1 check yes

# Set fixes
#
fix                 1 all momentum 10 linear 1 1 1 rescale
fix                 2 all nve
fix                 3 all temp/csvr ${TEMP} ${TEMP} 500.0 928347
fix                 3 all temp/csvr 295 ${TEMP} 500.0 928347
fix                 3 all temp/csvr 295 295 500.0 928347
fix                 4 all press/berendsen iso ${PRES} ${PRES} 1000.0 modulus 20000
fix                 4 all press/berendsen iso -500 ${PRES} 1000.0 modulus 20000
fix                 4 all press/berendsen iso -500 -500 1000.0 modulus 20000

# Run 0.5 ns equilibration
#
dump		    1 all custom 1000 eq.${NAME}.dump id type x y z vx vy vz
dump		    1 all custom 1000 eq.ice_295K_-500atm_ML.dump id type x y z vx vy vz
run                 100000
Neighbor list info ...
  update every 1 steps, delay 0 steps, check yes
  max neighbors/atom: 2000, page size: 100000
  master list distance cutoff = 6.0032907
  ghost atom cutoff = 6.0032907
  binsize = 3.0016454, bins = 20 17 17
  1 neighbor lists, perpetual/occasional/extra = 1 0 0
  (1) pair sw, perpetual
      attributes: full, newton on
      pair build: full/bin/atomonly
      stencil: full/bin/3d
      bin: standard
Per MPI rank memory allocation (min/avg/max) = 4.779 | 4.779 | 4.779 Mbytes
Step Temp Press Volume TotEng KinEng PotEng c_1[4] 
       0          295   -614.56618    148418.52    -51846.07    4051.1146   -55897.184            0 
     100    195.65848   -358.92392    148371.77   -50195.178    2686.8981   -52882.076  0.096841264 
     200    226.20874   -400.47153    148697.71   -49214.517    3106.4324   -52320.949   0.10861242 
     300     249.2849   -451.64294    148906.44    -48592.39    3423.3278   -52015.717   0.13240447 
     400    264.72538   -471.62858    149048.47   -48179.806    3635.3656   -51815.171   0.13639485 
     500    280.31305   -448.75535    149150.25   -47890.186    3849.4248   -51739.611   0.13445046 
     600    288.50698   -451.37449    149232.46   -47611.962    3961.9486   -51573.911   0.14914172 
     700    292.16775   -506.19043    149293.03   -47564.623    4012.2205   -51576.844   0.13692977 
     800    291.21778   -523.66804    149313.41   -47468.217     3999.175   -51467.392   0.15198989 
     900    297.47621   -525.34073    149313.67   -47446.563    4085.1194   -51531.682   0.15187815 
    1000    293.16454   -515.16422     149289.8   -47494.653    4025.9091   -51520.562    0.1450006 
    1100    294.80321   -522.30906     149320.8   -47436.136    4048.4122   -51484.548   0.14187754 
    1200    291.32849   -489.80621    149323.12   -47425.636    4000.6952   -51426.331   0.15070729 
    1300     294.1088   -543.75861    149321.68   -47349.009    4038.8761   -51387.886    0.1511056 
    1400    293.73701   -507.05664    149341.87   -47450.673    4033.7705   -51484.443   0.14786364 
    1500    292.08969   -526.89473    149287.51   -47477.048    4011.1485   -51488.197    0.1437023 
    1600    296.20796   -466.27887    149287.18   -47410.315    4067.7031   -51478.019   0.15005067 
    1700    295.19702   -465.53943    149285.05   -47434.533    4053.8201   -51488.353   0.14457632 
    1800    295.72105   -507.14718     149258.6   -47429.183    4061.0165   -51490.199   0.15116458 
    1900    293.65891   -510.97692    149318.58   -47336.499     4032.698   -51369.197   0.15232612 
    2000     298.7017   -526.12757    149352.01   -47283.648    4101.9486   -51385.597   0.14159167 
    2100    296.46186   -519.63416    149328.79   -47458.345    4071.1897   -51529.535   0.14923744 
    2200    293.58792   -505.65835    149308.96   -47382.573    4031.7231   -51414.296   0.13711302 
    2300    294.27813   -541.04133    149320.66   -47320.571    4041.2015   -51361.772   0.15910937 
    2400    298.67721   -484.18227    149307.33   -47342.691    4101.6122   -51444.304   0.14818425 
    2500    300.58232   -480.81548    149324.07   -47395.569    4127.7744   -51523.343   0.13679272 
    2600    293.15753   -513.82812    149320.09   -47425.721    4025.8127   -51451.534   0.15373444 
    2700    296.84103   -442.02094    149316.47   -47395.232    4076.3967   -51471.629   0.13427904 
    2800     299.6781   -487.36648    149321.25   -47296.067    4115.3571   -51411.424   0.15341505 
    2900    301.93141    -491.3374    149330.51   -47319.388    4146.3008   -51465.689    0.1495358 
    3000    299.08215   -492.97834    149289.01   -47380.149    4107.1731   -51487.322   0.15064646 
    3100    293.47811   -502.54871    149302.52   -47350.366    4030.2152   -51380.581   0.15164152 
    3200    295.67822   -487.19774    149299.93   -47465.309    4060.4284   -51525.737   0.14379718 
    3300    296.01581   -477.50864    149228.23   -47522.005    4065.0643    -51587.07   0.13714602 
    3400    292.27979   -520.20733    149240.78   -47458.672    4013.7591   -51472.432   0.15117628 
    3500    295.20411   -512.16776    149254.21   -47424.023    4053.9176   -51477.941   0.14851099 
    3600    288.61285    -530.2882    149242.58   -47424.446    3963.4024   -51387.848   0.15397969 
    3700    295.88981   -441.22211    149252.68   -47383.896     4063.334   -51447.229   0.14742367 
    3800    295.34698   -525.72617    149262.23   -47375.098    4055.8795   -51430.977   0.15586376 
    3900    296.97963   -474.40928    149256.19   -47381.599       4078.3   -51459.899   0.15497405 
    4000    290.40811   -512.21568    149272.12   -47435.324     3988.056    -51423.38   0.14670373 
    4100    291.52308    -529.5623    149233.69   -47444.869    4003.3675   -51448.236   0.15966175 
    4200     295.3792   -519.01099    149257.44   -47403.965    4056.3221   -51460.287   0.14396311 
    4300    291.35938   -525.23256    149211.39   -47534.376    4001.1195   -51535.496   0.15922387 
    4400    297.19051   -503.06421    149236.85   -47422.464    4081.1959    -51503.66   0.14398597 
    4500    290.20442   -536.77317     149222.3   -47482.501    3985.2588    -51467.76   0.15841511 
    4600    292.90891   -531.25608    149207.33   -47513.588    4022.3985   -51535.987   0.14738994 
    4700    296.83691    -498.1592    149248.54   -47412.346    4076.3401   -51488.686   0.14189137 
    4800    297.93816   -456.13858    149235.78   -47299.981    4091.4631   -51391.444   0.15423388 
    4900    296.41729    -511.8202    149251.14   -47272.071    4070.5776   -51342.649   0.15239428 
    5000    294.14442   -528.20716    149281.29   -47409.166    4039.3652   -51448.532    0.1562468 
    5100    301.65468    -474.9359    149261.83   -47335.281    4142.5006   -51477.782   0.15026359 
    5200    297.95222   -512.38104    149247.65   -47412.626    4091.6562   -51504.282   0.15416773 
    5300     289.7174   -477.33602    149226.27    -47510.89    3978.5708   -51489.461    0.1436177 
    5400    297.90002   -499.48352    149223.01   -47481.649    4090.9393   -51572.588   0.14567619 
    5500    294.03285   -475.94373    149214.68   -47444.391    4037.8332   -51482.224   0.15103595 
    5600    290.78529   -517.21567    149206.43   -47486.013    3993.2357   -51479.248   0.15077546 
    5700    292.12064   -481.19703    149239.66   -47473.563    4011.5735   -51485.137   0.14744819 
    5800    300.86055   -456.93375    149240.55   -47418.018    4131.5951   -51549.613    0.1461042 
    5900    292.80943    -489.5208    149232.16   -47495.777    4021.0325    -51516.81   0.14756769 
    6000    294.16822   -494.53658    149212.52   -47470.084    4039.6921   -51509.776   0.15163288 
    6100     285.8504   -520.30947    149216.56   -47550.501    3925.4668   -51475.968   0.14999384 
    6200    290.47481   -517.20634    149193.17   -47526.177    3988.9721   -51515.149   0.15496562 
    6300    292.34118   -527.76832    149209.56   -47405.562    4014.6022   -51420.164   0.15639182 
    6400    296.15301   -489.60528     149235.3   -47462.638    4066.9485   -51529.586   0.14692424 
    6500    295.85782   -487.53178    149190.42   -47470.853    4062.8946   -51533.748   0.14973047 
    6600    296.49595   -496.65955    149205.11   -47480.502    4071.6579    -51552.16   0.14725908 
    6700    289.74549   -500.52822    149196.87    -47537.99    3978.9565   -51516.946   0.14794547 
    6800     295.2109   -488.07394    149208.31   -47485.805    4054.0109   -51539.816   0.14496219 
    6900    297.79477   -488.69349    149231.06   -47410.524     4089.494   -51500.018   0.14311436 
    7000    294.13907   -463.21559    149222.78   -47407.008    4039.2918     -51446.3   0.15618452 
    7100    297.10766   -488.28191    149249.23   -47418.468    4080.0583   -51498.526   0.14135502 
    7200    291.88722   -499.25171    149209.53   -47531.323    4008.3681   -51539.691   0.15554115 
    7300    285.55519   -469.77244    149180.12   -47579.053    3921.4128   -51500.466   0.14481424 
    7400    296.69458   -518.84971    149207.26   -47469.574    4074.3856   -51543.959   0.14686705 
    7500    298.34873    -507.2673    149234.76   -47400.718    4097.1013   -51497.819   0.15614408 
    7600    297.78934   -485.58868    149255.18   -47380.913    4089.4195   -51470.333   0.14604944 
    7700    291.92474   -497.41044    149250.65   -47475.768    4008.8834   -51484.651   0.15943306 
    7800    293.94014    -495.2049    149245.62   -47537.432      4036.56   -51573.992   0.14456281 
    7900    295.91685   -483.35752    149249.06   -47470.011    4063.7054   -51533.716   0.14819476 
    8000    294.30224   -484.11461    149265.17   -47368.677    4041.5326    -51410.21   0.14891472 
    8100    295.45884   -507.12946    149271.97   -47329.954    4057.4156    -51387.37   0.15745307 
    8200    300.05334   -477.74727    149299.43   -47351.603    4120.5101   -51472.113   0.15452792 
    8300    296.07866   -488.58409    149284.05    -47312.27    4065.9274   -51378.197   0.15755895 
    8400    296.50038   -523.34308    149304.96   -47284.768    4071.7187   -51356.487   0.15697561 
    8500    298.82846   -542.21175    149293.84   -47377.737    4103.6893   -51481.427   0.15282607 
    8600       296.17   -481.36742    149248.13   -47390.537    4067.1818   -51457.719   0.14670636 
    8700    295.01346   -508.34742    149238.15    -47365.75    4051.2994    -51417.05   0.16212865 
    8800    293.78876   -449.29623     149240.2   -47403.077    4034.4811   -51437.558   0.14580976 
    8900    298.70107     -521.157     149235.1   -47476.768    4101.9399   -51578.708   0.15073103 
    9000    296.87867   -478.38169    149248.08   -47397.649    4076.9136   -51474.563   0.14860767 
    9100    297.32108    -514.3449    149262.89   -47453.045     4082.989   -51536.034   0.14218885 
    9200    300.25365   -497.52202    149278.51   -47345.836    4123.2609   -51469.097   0.16284013 
    9300    294.68133   -494.39219    149262.06   -47501.334    4046.7385   -51548.073   0.13627311 
    9400    289.52965   -523.61553    149239.99   -47455.975    3975.9925   -51431.968   0.15659385 
    9500    295.55306   -492.93852    149230.16   -47500.213    4058.7095   -51558.923    0.1499942 
    9600    291.50363   -486.86752    149237.63   -47497.087    4003.1003   -51500.187   0.14503405 
    9700    295.21256   -530.53281    149254.69   -47367.108    4054.0336   -51421.141   0.15819473 
    9800    304.14207   -497.53715    149286.04   -47324.275    4176.6589   -51500.934   0.15162095 
    9900    299.27892   -517.91005    149288.52   -47356.899    4109.8753   -51466.774   0.15521207 
   10000    297.74341   -485.50726     149274.4   -47413.536    4088.7887   -51502.325   0.14886062 
   10100    301.16124   -461.07207     149289.3   -47361.939    4135.7244   -51497.664   0.14884708 
   10200    300.79651   -506.63887    149322.93   -47336.563    4130.7158   -51467.279   0.15537328 
   10300    297.16291   -502.44012    149338.55   -47335.498     4080.817   -51416.315   0.15263367 
   10400    297.40569   -529.59067    149328.14   -47337.769    4084.1509    -51421.92   0.15400851 
   10500    296.47958   -521.27704    149302.72   -47392.011    4071.4331   -51463.444   0.15153803 
   10600    295.85502   -460.26393    149304.27   -47414.382    4062.8562   -51477.239   0.15120274 
   10700    293.45611   -519.07445    149307.91   -47436.898     4029.913   -51466.811   0.15207329 
   10800    286.78645   -525.91971    149300.33   -47565.646    3938.3213   -51503.967   0.14874343 
   10900    287.65291   -527.51542    149269.54   -47554.067      3950.22   -51504.287   0.15460218 
   11000    292.59842   -479.78824    149256.24   -47568.355    4018.1347   -51586.489   0.14373698 
   11100    294.21563   -493.80935    149268.19    -47471.21    4040.3432   -51511.554   0.14408236 
   11200    290.18097   -487.64448    149245.39   -47580.479    3984.9369   -51565.416   0.15229034 
   11300    293.88909   -485.28162     149261.5   -47498.648    4035.8589   -51534.507   0.14019503 
   11400    290.94836   -491.18291    149265.83   -47470.956    3995.4751   -51466.431   0.15626729 
   11500    302.71169    -515.6338    149291.68   -47367.912    4157.0161   -51524.928   0.14817858 
   11600    298.15855   -501.61237    149324.66   -47370.994    4094.4896   -51465.484   0.15209204 
   11700    304.54574   -513.03451     149297.8   -47222.063    4182.2024   -51404.265   0.15685765 
   11800    303.52284   -485.17134    149316.74   -47312.684    4168.1553   -51480.839   0.14671678 
   11900    288.03589   -529.58693    149292.62   -47360.169    3955.4794   -51315.648   0.16302195 
   12000     297.5335   -458.98996    149316.49   -47318.321    4085.9062   -51404.227   0.14980694 
   12100    293.54991   -519.40705    149276.39   -47380.068    4031.2011   -51411.269   0.15615578 
   12200    303.36058   -498.93072    149288.65   -47379.011    4165.9271   -51544.938   0.14692064 
   12300    297.05278   -473.44936    149250.87   -47436.273    4079.3045   -51515.577   0.15430782 
   12400    295.77932   -486.55776    149266.38   -47430.737    4061.8167   -51492.554   0.14744345 
   12500    298.95533   -519.21228     149282.2   -47358.209    4105.4315    -51463.64   0.15463715 
   12600    294.31732   -517.27146    149262.12   -47319.114    4041.7396   -51360.854   0.15710432 
   12700    295.71386   -508.61229    149264.03   -47401.485    4060.9178   -51462.403   0.15340535 
   12800    299.71752   -488.72338    149277.42   -47384.386    4115.8984   -51500.285   0.14994487 
   12900    292.24793   -481.25519    149251.67   -47446.841    4013.3216   -51460.163   0.15204272 
   13000    295.05863   -504.45144    149250.94   -47421.252    4051.9197   -51473.172   0.15223218 
   13100    294.07965   -474.21158    149251.11   -47498.462    4038.4759   -51536.938   0.14630578 
   13200    291.45039   -505.40556    149250.77   -47527.495    4002.3692   -51529.864   0.15004343 
   13300    288.71612      -525.28    149228.07   -47605.629    3964.8207    -51570.45   0.15028035 
   13400    292.16288   -529.31498    149201.72   -47596.025    4012.1536   -51608.178   0.15132711 
   13500    294.15924   -451.56375    149228.02   -47499.871    4039.5687   -51539.439    0.1450549 
   13600    293.80407   -485.10306    149260.29   -47449.182    4034.6914   -51483.874   0.15000357 
   13700    293.41839   -497.41203    149235.24   -47478.113     4029.395   -51507.508   0.14089068 
   13800    296.28588   -484.87323    149236.08   -47427.556    4068.7731    -51496.33   0.15607149 
   13900    299.70757   -502.19888    149229.12   -47419.858    4115.7617    -51535.62   0.15035823 
   14000     300.1159   -508.86069    149273.73   -47306.668    4121.3692   -51428.037   0.15659802 
   14100     291.8417   -523.35016    149279.99   -47397.308     4007.743   -51405.051   0.15662599 
   14200     298.9728   -502.22818       149260   -47405.932    4105.6715   -51511.603   0.14400996 
   14300    295.85388   -501.97524    149262.68   -47442.424    4062.8406   -51505.264   0.15694937 
   14400    294.05174   -483.41573    149241.08   -47494.497    4038.0925    -51532.59   0.14464111 
   14500    287.74212   -532.63556    149236.96   -47521.181    3951.4451   -51472.626   0.15406834 
   14600    294.78629   -505.71608    149233.54   -47464.044    4048.1798   -51512.223   0.15263562 
   14700    292.89094   -525.90269     149263.2   -47417.817    4022.1517   -51439.968   0.14773409 
   14800    291.71545   -502.41027    149284.35   -47391.757    4006.0092   -51397.766   0.15711606 
   14900    294.00372   -471.97092     149280.2   -47404.389    4037.4332   -51441.822    0.1481391 
   15000    290.14656    -521.7901    149272.16   -47471.693    3984.4643   -51456.157   0.15570916 
   15100    289.25447   -482.56978    149255.12   -47483.846    3972.2136    -51456.06   0.14692752 
   15200    295.99885   -509.37172    149272.05   -47409.138    4064.8314   -51473.969   0.15290136 
   15300    286.05828   -531.94199    149250.66   -47491.828    3928.3216   -51420.149   0.15444046 
   15400    295.40024   -483.79318    149285.61   -47496.126     4056.611   -51552.737   0.14425547 
   15500    292.92509   -449.76304    149273.96   -47423.805    4022.6208   -51446.426   0.15020036 
   15600     299.9394   -471.61466     149313.3   -47304.495    4118.9454    -51423.44   0.15383054 
   15700    296.87103   -490.15391    149317.41    -47318.16    4076.8087   -51394.968    0.1457857 
   15800    293.64056   -502.48931    149300.55   -47320.037     4032.446   -51352.483   0.16015273 
   15900    292.56312   -521.09685    149281.82    -47342.36      4017.65    -51360.01   0.15049163 
   16000    291.64305   -518.15125    149266.71   -47384.572     4005.015   -51389.587    0.1550656 
   16100     295.4825   -512.53164    149248.89   -47421.035    4057.7405   -51478.776   0.15324741 
   16200    292.91541   -490.41253    149264.89   -47433.253    4022.4877   -51455.741   0.14470789 
   16300    293.09909   -504.74985    149248.21   -47451.235    4025.0101   -51476.246   0.16495503 
   16400    296.57697   -502.56636    149251.27   -47464.415    4072.7705   -51537.185   0.14267633 
   16500    294.93386   -503.34747    149238.81   -47371.919    4050.2064   -51422.125   0.15963068 
   16600    298.96346   -494.14135    149271.55   -47302.379    4105.5432   -51407.923   0.15446219 
   16700    298.88364    -509.3764    149255.03    -47342.48     4104.447   -51446.927   0.15303612 
   16800    291.72516   -506.76728    149237.47   -47395.234    4006.1426   -51401.377     0.153354 
   16900    293.84714   -495.55891     149236.4    -47419.89    4035.2828   -51455.172   0.15104761 
   17000    294.79639   -501.00345    149222.03   -47470.308    4048.3185   -51518.626   0.15264224 
   17100    295.95497    -481.9785     149252.3   -47420.067    4064.2288   -51484.295    0.1473158 
   17200    290.86396   -500.19512    149211.55   -47478.758     3994.316   -51473.074   0.15530915 
   17300    290.84884   -507.39076     149218.2   -47583.731    3994.1084   -51577.839   0.14541249 
   17400    291.59535   -479.20297    149201.42   -47571.314      4004.36   -51575.674   0.14784697 
   17500    290.54249   -487.79743    149213.99   -47462.348    3989.9014    -51452.25   0.15156001 
   17600    292.92705   -530.34222    149230.93   -47477.785    4022.6477   -51500.433   0.15030549 
   17700    293.20453   -504.94847    149226.82   -47536.141    4026.4582   -51562.599   0.14795504 
   17800    295.26566   -452.99603    149228.02   -47483.639    4054.7628   -51538.401   0.14921208 
   17900    296.55719   -477.74939    149256.57   -47426.578    4072.4988   -51499.077   0.14513831 
   18000    298.07294   -463.86886    149261.75   -47333.342    4093.3141   -51426.656   0.15509926 
   18100    299.03928   -507.36437    149293.21   -47346.344    4106.5843   -51452.928   0.15062362 
   18200    296.01078   -500.27887    149257.83   -47392.351    4064.9952   -51457.346   0.15045659 
   18300     292.7643   -534.55633    149260.26   -47400.033    4020.4126   -51420.445    0.1591256 
   18400    289.92477   -490.87216    149243.46   -47500.221    3981.4185   -51481.639   0.14282917 
   18500    290.56989   -524.25333    149212.08   -47429.769    3990.2778   -51420.046   0.15975756 
   18600    299.09261   -519.54892    149267.46   -47384.869    4107.3168   -51492.186   0.14926478 
   18700    295.37599   -490.23936    149236.91   -47399.776    4056.2779   -51456.054   0.15213487 
   18800    296.26055   -505.13155    149235.27   -47415.881    4068.4252   -51484.306   0.15058948 
   18900    298.21848   -504.12924    149262.43   -47375.641    4095.3127   -51470.954   0.14943864 
   19000    294.92656   -525.92113    149279.48   -47408.648    4050.1061   -51458.754   0.15207437 
   19100    297.24473   -492.93862    149285.34   -47315.813    4081.9406   -51397.754   0.15062262 
   19200    298.36652   -465.98512    149289.54   -47354.441    4097.3457   -51451.787   0.15283167 
   19300    303.92369   -467.18807    149317.53   -47241.688      4173.66   -51415.348   0.14419884 
   19400    300.34748   -478.04775     149295.2   -47305.427    4124.5493   -51429.977   0.15352504 
   19500     304.8679   -489.33828    149316.71   -47301.778    4186.6264   -51488.405   0.14874443 
   19600    298.71341   -484.41138    149325.73   -47289.255    4102.1093   -51391.364    0.1527996 
   19700    294.80493   -508.36603    149328.19   -47344.325    4048.4358   -51392.761   0.15395432 
   19800    297.26392   -482.86796    149329.84   -47299.159    4082.2041   -51381.363   0.15013206 
   19900     296.8431   -494.66484    149306.09   -47383.573    4076.4252   -51459.998   0.15155307 
   20000    296.14805   -488.85928    149304.18   -47416.285    4066.8803   -51483.166   0.14411932 
   20100    292.13343   -505.07947    149276.25   -47456.659    4011.7491   -51468.409   0.15001289 
   20200    292.32629   -528.22979    149252.89   -47436.553    4014.3976   -51450.951   0.14904086 
   20300    292.68899   -553.13071    149259.14   -47392.745    4019.3785   -51412.124   0.15493254 
   20400    300.20029   -515.24072    149263.65   -47457.831    4122.5281   -51580.359   0.14748471 
   20500    289.44393   -502.72853    149215.84   -47496.221    3974.8153   -51471.036   0.15065403 
   20600    295.46512   -497.71681    149221.29   -47513.115    4057.5019   -51570.617   0.14717809 
   20700    295.69585   -455.97497     149218.3   -47453.668    4060.6705   -51514.339   0.14899601 
   20800    298.28792   -537.83036    149274.83   -47319.846    4096.2662   -51416.112   0.14866237 
   20900    291.06551   -523.87977    149260.86   -47428.895    3997.0839   -51425.979   0.15647722 
   21000    295.37472   -522.55993    149261.17   -47439.033    4056.2605   -51495.294   0.14976096 
   21100    296.83018   -476.73037    149276.59    -47316.92    4076.2477   -51393.167   0.15116657 
   21200    298.07925   -522.80808    149295.39   -47334.627    4093.4006   -51428.027   0.15452187 
   21300    298.27725   -479.01643    149297.15   -47329.636    4096.1197   -51425.756   0.14250656 
   21400    298.71092   -498.16357    149286.18   -47371.423    4102.0751   -51473.498   0.15234221 
   21500    294.60198   -512.70552    149292.62   -47272.823    4045.6488   -51318.472   0.14715652 
   21600     299.2032   -534.03007    149269.76   -47281.098    4108.8355   -51389.933   0.16025737 
   21700    291.36458   -533.47867    149242.82    -47416.16    4001.1909   -51417.351   0.15089967 
   21800    296.25853   -562.06838    149223.65   -47448.166    4068.3975   -51516.564   0.15256553 
   21900    295.31071   -501.07597    149211.47   -47414.013    4055.3814   -51469.394   0.15320521 
   22000    291.24168   -483.55792    149220.21   -47451.349    3999.5031   -51450.852   0.14547099 
   22100    296.64471   -492.63038    149212.74   -47494.318    4073.7007   -51568.019   0.15121227 
   22200    289.14756   -508.78125    149184.64   -47580.376    3970.7455   -51551.122   0.14207683 
   22300    297.50652   -500.90776    149200.33   -47465.787    4085.5356   -51551.322   0.14980769 
   22400    299.55038   -477.80849    149247.84   -47415.654    4113.6032   -51529.257    0.1494476 
   22500    303.38306   -476.60781     149251.8   -47365.638    4166.2357   -51531.874    0.1440648 
   22600    296.80447   -487.79773    149228.08   -47397.709    4075.8946   -51473.604   0.15253988 
   22700    299.56593   -501.51799    149237.34   -47464.894    4113.8166    -51578.71   0.14418746 
   22800    297.23594   -494.87875    149262.54   -47382.566    4081.8199   -51464.386   0.14661657 
   22900    293.95066   -514.52681    149244.95   -47423.651    4036.7044   -51460.355   0.15683575 
   23000    294.07054   -503.98055    149231.84   -47497.447    4038.3507   -51535.798    0.1425252 
   23100    293.53521   -491.58984    149245.32   -47435.711    4030.9992    -51466.71   0.15344219 
   23200    292.46236    -492.6325    149256.21   -47380.049    4016.2663   -51396.316    0.1530039 
   23300    297.87738   -500.37835     149281.3   -47379.533    4090.6284   -51470.161   0.14591145 
   23400    297.78765   -502.81584    149294.43   -47434.729    4089.3963   -51524.125    0.1512822 
   23500    298.51342   -470.28107    149306.28   -47324.029    4099.3629   -51423.392   0.14569604 
   23600    300.10419   -530.84133    149287.61   -47342.023    4121.2083   -51463.231   0.15180698 
   23700    296.89599   -450.97884    149288.48    -47330.31    4077.1515   -51407.461   0.14823922 
   23800    297.84452   -502.15697    149276.34   -47340.066    4090.1773   -51430.244   0.15014511 
   23900    290.94988   -530.09753    149254.45   -47430.414     3995.496    -51425.91    0.1519509 
   24000    295.55678   -501.44306     149274.1   -47374.726    4058.7607   -51433.487   0.15278932 
   24100    297.85554   -482.53595    149274.83   -47299.985    4090.3286   -51390.313   0.15464893 
   24200    296.53803   -493.55854    149282.14   -47435.099    4072.2358   -51507.335   0.14408241 
   24300    297.21281   -462.76828    149273.08   -47476.615    4081.5023   -51558.118   0.14867073 
   24400    290.88015   -469.22125    149251.95   -47497.949    3994.5384   -51492.487   0.14351863 
   24500    291.29405   -511.08473    149274.44   -47452.504    4000.2223   -51452.727   0.14791884 
   24600    295.14167   -499.38879    149226.74   -47496.011    4053.0601   -51549.071   0.14715936 
   24700    293.30059   -489.05633    149229.83   -47503.966    4027.7773   -51531.743   0.14433204 
   24800    295.52668   -478.87436    149256.44   -47442.784    4058.3473   -51501.131   0.14684515 
   24900    296.02312   -478.19715    149223.76   -47502.161    4065.1648   -51567.325   0.14601272 
   25000    296.62878   -476.78289    149226.97   -47485.133     4073.482   -51558.615   0.14104692 
   25100    293.95469   -499.45258     149246.7   -47543.486    4036.7598   -51580.246   0.14559371 
   25200    284.76254   -493.99924    149215.84    -47676.07    3910.5278   -51586.597   0.14283421 
   25300    291.09735   -549.53111    149214.57    -47508.34    3997.5211   -51505.862   0.14843433 
   25400    292.11278   -508.97355    149225.79   -47546.831    4011.4656   -51558.297     0.149036 
   25500    292.89257   -515.34986    149261.29   -47430.498    4022.1741   -51452.672   0.14703715 
   25600    294.26847   -536.10928    149303.51   -47351.074    4041.0688   -51392.143   0.15449298 
   25700    292.11901   -508.73058    149286.79   -47442.703    4011.5512   -51454.254   0.14953033 
   25800    295.86882   -510.53233    149326.09   -47304.396    4063.0457   -51367.442   0.15482467 
   25900    297.16439   -452.27658    149326.44   -47329.522    4080.8373   -51410.359   0.14166122 
   26000    297.01433   -517.93483     149321.3   -47378.776    4078.7766   -51457.553   0.15024606 
   26100    295.97934   -566.12917    149329.17    -47364.63    4064.5635   -51429.194   0.14778868 
   26200    297.81867   -509.03698    149301.14   -47473.344    4089.8223   -51563.167   0.14230055 
   26300    290.51581   -512.11269    149278.42   -47423.955    3989.5351    -51413.49   0.15237983 
   26400    292.91906   -516.46712    149273.11   -47485.929    4022.5379   -51508.467     0.141954 
   26500       295.94   -512.20463    149285.51   -47397.742    4064.0233   -51461.766   0.15266595 
   26600    297.32606   -453.98811    149310.57   -47340.958    4083.0575   -51424.015    0.1437085 
   26700    300.68913    -504.0334    149335.55   -47346.706    4129.2411   -51475.947   0.14966941 
   26800     295.2988   -532.70515    149317.55   -47401.071    4055.2179   -51456.289   0.14660853 
   26900    299.98775    -499.1872    149312.91   -47336.944    4119.6094   -51456.553   0.14475963 
   27000    294.56768   -472.30975     149334.6   -47369.418    4045.1778   -51414.596   0.14676862 
   27100    296.02921   -506.08582    149319.83   -47308.246    4065.2483   -51373.494   0.14654464 
   27200    296.60672   -502.27604    149306.41   -47380.043     4073.179   -51453.222   0.14950406 
   27300    301.40485   -441.53694     149329.2   -47209.735    4139.0697   -51348.805   0.14653159 
   27400    295.10185   -540.63739    149316.29   -47334.232    4052.5133   -51386.745   0.15210664 
   27500    291.46566   -512.22823    149289.46   -47445.941     4002.579    -51448.52   0.15014858 
   27600    292.57733   -484.01113    149273.22   -47498.082    4017.8451   -51515.927   0.14566535 
   27700    295.72555    -472.1628    149295.51   -47391.777    4061.0783   -51452.856   0.14904816 
   27800    297.34418   -491.05273    149289.55    -47366.81    4083.3062   -51450.116   0.15115174 
   27900    290.91171   -468.35481    149282.08   -47424.445    3994.9717   -51419.417   0.14619666 
   28000    293.98562   -474.37652    149250.69   -47500.823    4037.1845   -51538.008   0.14865467 
   28100    292.02214   -516.42573    149270.21    -47479.15    4010.2209   -51489.371   0.14578061 
   28200    290.42476   -530.17184    149282.28   -47445.799    3988.2847   -51434.084   0.15089026 
   28300    294.83287   -534.44286    149300.58   -47473.283    4048.8195   -51522.102    0.1530312 
   28400    292.03744   -484.52791    149309.03   -47399.268     4010.431   -51409.699   0.14270323 
   28500    293.19978   -502.67826    149298.17   -47432.573    4026.3929   -51458.966   0.15170734 
   28600    297.42938   -453.00541     149304.6   -47437.981    4084.4763   -51522.457   0.14165377 
   28700    296.08842   -453.68897    149310.01   -47437.151    4066.0614   -51503.212   0.15177327 
   28800    291.42452   -507.75472    149289.89   -47482.156     4002.014    -51484.17   0.14591084 
   28900    295.26235   -509.23207    149311.13   -47456.479    4054.7173   -51511.196   0.14506688 
   29000    294.51163    -482.3488    149295.02   -47396.843     4044.408   -51441.251   0.15269399 
   29100    295.56937   -501.80803    149309.38   -47396.986    4058.9335    -51455.92   0.14373172 
   29200     298.9156   -486.68654    149344.88   -47328.704    4104.8859    -51433.59   0.15190551 
   29300    301.01611   -479.35291    149344.88    -47334.65    4133.7314   -51468.381   0.14243579 
   29400    302.80471   -506.51833    149338.67    -47347.08    4158.2936   -51505.373   0.14637374 
   29500    296.91511   -489.02744    149309.84   -47391.716     4077.414    -51469.13   0.14982148 
   29600    299.96704    -467.5433    149329.06   -47362.444    4119.3249   -51481.769   0.14394975 
   29700    296.13798   -468.69684    149296.59   -47435.675    4066.7421   -51502.417   0.15062788 
   29800    290.18576   -529.18622    149279.95   -47532.548    3985.0026    -51517.55   0.15159937 
   29900    291.60381   -521.11739    149267.98   -47504.674    4004.4762   -51509.151   0.14437929 
   30000    287.62681   -504.39039     149254.1   -47465.243    3949.8616   -51415.105   0.16031057 
   30100     291.6989   -481.11264     149259.8   -47434.993    4005.7819   -51440.775    0.1466574 
   30200    289.84313   -453.70743    149252.88   -47442.081    3980.2974   -51422.378   0.14812816 
   30300    291.88754   -514.63526    149254.38   -47431.213    4008.3725   -51439.585   0.15332436 
   30400    294.91343   -514.80667    149242.31   -47470.447    4049.9258   -51520.373   0.14611509 
   30500    290.88051   -539.75133    149239.25   -47576.171    3994.5434   -51570.715   0.15369306 
   30600    292.91239   -494.28506    149255.82   -47445.439    4022.4464   -51467.886   0.14500622 
   30700    296.50378   -489.83087    149256.07   -47477.582    4071.7654   -51549.347   0.14793815 
   30800    296.04581   -514.88519     149284.1   -47413.183    4065.4763    -51478.66   0.14814765 
   30900     296.2171   -529.50316    149289.59   -47385.088    4067.8285   -51452.917   0.15172645 
   31000    297.32102   -493.46022    149252.48   -47416.616    4082.9883   -51499.605   0.15037814 
   31100    293.91338    -496.9063    149264.98   -47427.145    4036.1926   -51463.338   0.14816295 
   31200     294.6676   -497.98198     149272.4    -47370.21    4046.5499    -51416.76     0.156273 
   31300    303.81165    -475.9556    149272.97   -47306.264    4172.1214   -51478.386   0.14809908 
   31400      294.187   -505.40115    149271.69    -47426.61      4039.95    -51466.56   0.14958442 
   31500    299.52646   -521.60306    149286.15   -47374.664    4113.2747   -51487.939   0.15211004 
   31600    294.89127   -495.21691    149268.81   -47398.223    4049.6215   -51447.844   0.14605767 
   31700    297.40157   -494.79054    149266.33   -47364.082    4084.0944   -51448.176   0.14756332 
   31800    294.29256   -536.75667    149258.13    -47430.62    4041.3997   -51472.019   0.14879893 
   31900    290.70562   -503.47143    149263.49   -47424.723    3992.1417   -51416.864   0.14929727 
   32000    295.94431   -521.14412     149282.8   -47379.201    4064.0824   -51443.283   0.15951976 
   32100    297.93032   -488.53324    149290.42   -47418.655    4091.3555   -51510.011   0.14303563 
   32200    289.28898   -500.62723    149249.56    -47539.23    3972.6875   -51511.918    0.1484475 
   32300    294.18422   -500.54001    149231.84   -47481.312    4039.9119   -51521.224   0.14927534 
   32400    288.23382    -497.8501    149224.61   -47576.774    3958.1974   -51534.971   0.14317976 
   32500    296.19713     -507.062    149244.56   -47432.617    4067.5544   -51500.172   0.15403097 
   32600    296.22615    -480.9926    149269.12   -47385.527    4067.9528   -51453.479   0.14762998 
   32700    291.05333   -524.79655     149282.4   -47483.105    3996.9167   -51480.022    0.1503148 
   32800    296.58764   -465.19151     149300.2   -47343.009     4072.917   -51415.926   0.14787396 
   32900    296.06985   -506.17948    149272.56    -47417.13    4065.8065   -51482.936   0.15104458 
   33000    293.36874   -515.45928    149255.13   -47403.852    4028.7132   -51432.566   0.15104153 
   33100    292.90268   -521.06932    149263.34   -47439.861     4022.313   -51462.174   0.15297161 
   33200    294.37501   -525.78653    149273.74   -47412.663    4042.5318   -51455.195   0.15203167 
   33300    299.16731   -487.75781    149281.26   -47414.245    4108.3426   -51522.587    0.1482824 
   33400    293.89516   -492.37774    149267.04   -47439.174    4035.9424   -51475.116   0.15463518 
   33500    292.16204   -538.28385    149244.85   -47461.963    4012.1421   -51474.105   0.14726857 
   33600    294.79822   -475.98817    149264.22   -47474.656    4048.3437       -51523   0.15076485 
   33700    295.48453    -499.6304    149288.11   -47371.286    4057.7685   -51429.055   0.15255036 
   33800    297.89128   -550.68993     149307.8   -47264.173    4090.8193   -51354.992   0.16004783 
   33900    298.30264   -485.87988    149288.69   -47284.916    4096.4684   -51381.385    0.1529661 
   34000     294.8631   -508.76809    149257.21   -47435.572    4049.2346   -51484.807   0.15290144 
   34100    292.44191   -504.54221    149261.39   -47452.668    4015.9854   -51468.653   0.15332649 
   34200    294.96998   -476.80351    149251.91   -47444.796    4050.7024   -51495.499   0.14941707 
   34300    293.08306   -473.60045    149229.85   -47480.167      4024.79   -51504.957    0.1505858 
   34400    295.48357   -487.01064    149233.14    -47408.53    4057.7553   -51466.286   0.15460191 
   34500    292.17875   -520.06318    149269.89   -47334.178    4012.3716   -51346.549   0.15829583 
   34600    298.32442   -499.33202    149290.73    -47335.13    4096.7675   -51431.898   0.15346985 
   34700    291.64904   -497.47131    149235.76   -47452.311    4005.0973   -51457.408   0.15291919 
   34800    291.49921   -509.19946     149230.7   -47446.951    4003.0398   -51449.991   0.15076434 
   34900    294.24708   -477.54069    149235.07   -47424.423     4040.775   -51465.198   0.15594985 
   35000    293.23722   -495.50498    149237.88   -47393.503    4026.9071    -51420.41   0.14674979 
   35100    294.90737   -518.16701    149262.34   -47416.022    4049.8425   -51465.865   0.16016513 
   35200    300.29086   -496.81889    149264.96   -47351.243    4123.7718   -51475.015   0.15193925 
   35300    292.68369   -522.26479    149263.29   -47437.195    4019.3057     -51456.5   0.15464851 
   35400    293.49984   -512.62931    149260.51   -47442.481    4030.5135   -51472.995   0.15607819 
   35500    291.94313   -479.00432     149273.9   -47424.721    4009.1359   -51433.857   0.14461748 
   35600    292.92916   -512.69963     149243.7   -47394.804    4022.6766    -51417.48   0.16009963 
   35700    291.91194   -487.66941    149242.68   -47410.026    4008.7076   -51418.733   0.14742565 
   35800    301.24926   -495.39801    149286.32   -47243.254    4136.9332   -51380.187   0.16046162 
   35900    296.17965   -486.22713    149289.34   -47363.041    4067.3142   -51430.356   0.15028438 
   36000    299.25261   -502.88451    149262.42   -47418.521     4109.514   -51528.035    0.1488263 
   36100    289.98737   -501.82027    149243.09   -47463.055    3982.2782   -51445.333   0.15699682 
   36200    290.80148   -518.34185    149225.05   -47489.789     3993.458   -51483.247   0.14663798 
   36300    295.49712     -503.271    149238.65   -47424.906    4057.9414   -51482.848   0.15793263 
   36400    292.91159   -499.17918    149252.48   -47486.018    4022.4353   -51508.453   0.15211963 
   36500    292.39387   -486.89824    149265.48   -47455.842    4015.3257   -51471.168   0.14990463 
   36600    291.89984   -532.72912    149267.56   -47461.304    4008.5413   -51469.845   0.15888608 
   36700    290.62623   -487.59993    149247.62   -47497.733    3991.0514   -51488.784     0.146695 
   36800     289.8686   -511.74594    149242.71   -47572.995    3980.6472   -51553.642   0.14947231 
   36900    290.55182   -514.97796    149248.72   -47490.789    3990.0296   -51480.818   0.15412732 
   37000    293.16564     -504.062    149243.54   -47471.109    4025.9241   -51497.033   0.14382723 
   37100    289.42183    -512.3386     149227.1   -47517.562    3974.5119   -51492.073   0.15741632 
   37200    294.08691   -521.92429    149247.25   -47518.935    4038.5755    -51557.51   0.14487059 
   37300    292.85294   -481.70706    149246.65   -47519.496      4021.63   -51541.126   0.15123647 
   37400    289.56688   -472.09702    149221.64   -47527.307    3976.5038   -51503.811   0.14961591 
   37500    296.32065   -486.95115    149227.06   -47501.011    4069.2505   -51570.261   0.14087831 
   37600    292.29844    -516.9068    149199.47   -47550.206    4014.0152   -51564.221   0.15739702 
   37700    288.74108   -522.36512    149184.09   -47628.319    3965.1634   -51593.483   0.14248353 
   37800    285.18613   -514.45357    149163.71   -47648.683    3916.3447   -51565.028   0.15638702 
   37900    293.73669   -474.27841    149209.45    -47550.13     4033.766   -51583.896   0.14205669 
   38000    295.28248   -503.38707    149234.73   -47486.643    4054.9937   -51541.637   0.15151968 
   38100    291.01787    -494.9712    149235.69   -47420.254    3996.4297   -51416.684    0.1534025 
   38200    295.49156   -516.18133    149250.07   -47390.564     4057.865   -51448.429    0.1499433 
   38300    291.92495    -479.2752    149250.27   -47436.531    4008.8863   -51445.418   0.15538595 
   38400    298.16768   -510.16611    149266.24   -47375.428    4094.6151   -51470.043   0.15103742 
   38500    296.91581   -504.98002    149233.79   -47433.498    4077.4237   -51510.922   0.15211878 
   38600    296.75311   -483.27877     149256.2   -47391.878    4075.1894   -51467.067   0.15486696 
   38700    295.25423   -487.16165    149265.41   -47359.245    4054.6059   -51413.851   0.15323819 
   38800    296.22769   -492.29866    149271.69   -47398.431    4067.9739   -51466.405   0.15279612 
   38900    295.17238   -505.22119    149270.52    -47335.67    4053.4818   -51389.152   0.15788701 
   39000    297.04183   -499.50459    149276.64   -47398.951    4079.1542   -51478.106    0.1449873 
   39100    295.38326   -524.01881     149269.8   -47423.287    4056.3778   -51479.665    0.1603065 
   39200    291.44033   -521.94237    149256.67    -47553.18    4002.2311   -51555.411   0.14106152 
   39300    291.02066   -516.93408    149236.17   -47564.353     3996.468   -51560.821   0.14980405 
   39400    295.08084   -477.60989    149263.59   -47431.581    4052.2247   -51483.805   0.15019967 
   39500    295.85681    -482.5703    149284.07   -47416.642    4062.8809   -51479.523   0.14792723 
   39600    293.87313   -489.56155    149282.17   -47414.264    4035.6398   -51449.904   0.15611462 
   39700    300.26862   -486.74904    149264.94   -47396.015    4123.4665   -51519.482   0.14690068 
   39800    293.73104   -486.09353    149236.99    -47417.07    4033.6886   -51450.758    0.1597116 
   39900    297.40116   -491.94308    149242.22   -47380.287    4084.0887   -51464.375   0.15002664 
   40000     294.1711   -529.51637    149218.79   -47449.663    4039.7317   -51489.394   0.15697924 
   40100    299.65418   -504.58319    149223.21   -47462.342    4115.0285    -51577.37   0.14793002 
   40200    296.09056   -474.85019    149244.46   -47437.115    4066.0908   -51503.205   0.15146554 
   40300    296.49254   -465.99232    149224.74   -47444.942     4071.611   -51516.553   0.14814086 
   40400    297.99713   -504.49327       149218   -47538.114     4092.273   -51630.387   0.14906731 
   40500    295.21206   -491.75649    149249.01   -47390.594    4054.0268   -51444.621   0.15810769 
   40600    295.77375   -502.59087    149259.59   -47470.828    4061.7402   -51532.568   0.15255848 
   40700    294.86834    -473.6684    149240.36   -47473.485    4049.3066   -51522.791   0.15296866 
   40800    294.04502   -517.47563    149250.54   -47443.111    4038.0003   -51481.111   0.15137341 
   40900    293.81237    -499.3417    149243.62    -47428.14    4034.8054   -51462.946   0.15681933 
   41000    287.62529   -533.52615    149253.67    -47501.57    3949.8407   -51451.411   0.15154586 
   41100    290.60076   -477.44348    149239.62   -47468.159    3990.7016    -51458.86   0.15346365 
   41200    296.01863   -485.63641    149268.44   -47352.303    4065.1031   -51417.407   0.15226574 
   41300    288.77439   -489.69333    149260.05   -47442.836    3965.6209   -51408.457   0.15238558 
   41400    298.88944   -491.00502    149264.87   -47384.827    4104.5267   -51489.353    0.1540369 
   41500     290.7212   -524.60937    149261.56   -47400.519    3992.3556   -51392.874   0.15513315 
   41600    293.91374   -509.12838    149254.45   -47408.273    4036.1974    -51444.47   0.15601333 
   41700    293.10931   -539.40652    149244.46   -47523.158    4025.1505   -51548.308   0.15071294 
   41800    297.17297   -487.90768    149254.62   -47427.072    4080.9551   -51508.027   0.15324845 
   41900    293.38088   -536.43674    149234.16   -47508.851    4028.8799    -51537.73   0.14934996 
   42000    287.47395   -512.21451    149240.15   -47478.482    3947.7625   -51426.245   0.15872823 
   42100    290.96535   -480.85363    149204.81   -47541.257    3995.7084   -51536.965   0.14377308 
   42200     288.8612   -505.55512    149211.79   -47501.164    3966.8129   -51467.977   0.15802927 
   42300     296.0529   -502.16698     149228.9   -47466.126    4065.5737   -51531.699   0.14910007 
   42400    294.93593   -506.25959    149222.92   -47497.541    4050.2347   -51547.776   0.15283872 
   42500    295.68129   -500.20411     149240.7   -47457.542    4060.4705   -51518.012   0.15191529 
   42600    296.59323   -506.45094    149221.96   -47496.225    4072.9938   -51569.218   0.14680073 
   42700    284.05885   -508.27943    149186.87    -47564.37    3900.8643   -51465.234   0.15924451 
   42800    293.53912   -474.53002    149215.42   -47479.883     4031.053   -51510.936   0.14594238 
   42900    292.56533   -516.43274    149220.78   -47499.519    4017.6803     -51517.2   0.15649583 
   43000    289.89844   -505.96868    149223.03   -47519.319    3981.0569   -51500.376   0.14762735 
   43100    290.32627   -547.20445     149247.4   -47438.018    3986.9322   -51424.951   0.16046554 
   43200    291.98154   -538.56846    149257.47   -47452.374    4009.6633   -51462.037   0.15505393 
   43300    295.13946   -472.33763    149255.27   -47446.853    4053.0297   -51499.883    0.1509291 
   43400    299.61209   -503.14971    149282.32   -47378.332    4114.4505   -51492.783   0.15380957 
   43500    295.71611   -514.33512    149303.99    -47442.05    4060.9487   -51502.999   0.14930492 
   43600    296.33084   -499.70244    149275.44   -47479.575    4069.3905   -51548.966   0.14963613 
   43700    293.62757   -515.00759     149247.3   -47526.729    4032.2676   -51558.996   0.15245282 
   43800    293.15366   -472.96037    149235.47   -47561.712    4025.7596   -51587.472   0.14709302 
   43900    290.22151   -547.80504    149230.53   -47472.652    3985.4936   -51458.146   0.15747068 
   44000    290.14278   -491.13385    149231.08    -47563.07    3984.4124   -51547.482   0.15327341 
   44100     295.0339   -489.34833    149239.28   -47516.116    4051.5802   -51567.696   0.14598626 
   44200    296.00847   -496.69438    149259.33   -47479.914    4064.9635   -51544.878   0.15976909 
   44300    295.66279    -525.2624     149253.3   -47478.631    4060.2164   -51538.847   0.14653183 
   44400    298.90326   -481.57484     149253.8   -47491.534    4104.7165    -51596.25   0.15258849 
   44500    294.30925   -500.63231    149241.53     -47494.9    4041.6288   -51536.529   0.14993178 
   44600    296.17556   -490.93245     149254.8   -47499.629    4067.2582   -51566.887   0.14833422 
   44700    291.31675   -487.08006    149261.57   -47487.511     4000.534   -51488.045   0.15461902 
   44800    298.32324   -478.37024    149257.56   -47445.348    4096.7514   -51542.099   0.14445545 
   44900    294.50007   -483.85542    149272.55   -47427.803    4044.2493   -51472.052   0.15646599 
   45000    294.38235   -471.21289    149248.53   -47473.365    4042.6327   -51515.998   0.14831129 
   45100     296.7635   -490.15425    149249.53   -47354.434    4075.3321   -51429.766   0.15760907 
   45200    293.76937   -546.61025    149251.12   -47391.349    4034.2149   -51425.564   0.15949479 
   45300    298.85304   -514.90643    149257.93   -47418.542    4104.0268   -51522.569   0.15108428 
   45400    298.01757   -491.59165    149238.29   -47479.698    4092.5536   -51572.252   0.15045945 
   45500    292.20889   -492.54217       149264   -47418.001    4012.7854   -51430.787   0.15220108 
   45600    298.50194   -499.72993     149267.8   -47411.061    4099.2053   -51510.266   0.15654765 
   45700    297.48511   -493.85719    149263.77   -47365.643    4085.2416   -51450.884   0.15745136 
   45800    293.94942   -516.71095    149254.72   -47439.363    4036.6874    -51476.05   0.15171708 
   45900    299.71906   -486.99142    149286.52   -47304.741    4115.9195   -51420.661   0.15437503 
   46000    295.37956   -520.83493    149280.06   -47369.119    4056.3269   -51425.446   0.16102332 
   46100    295.34547   -522.47439    149299.29   -47271.223    4055.8589   -51327.082   0.15786631 
   46200    296.83978   -492.03569    149300.62   -47329.366    4076.3796   -51405.745    0.1613592 
   46300    295.94576   -485.90225    149307.93   -47323.761    4064.1023   -51387.863    0.1527284 
   46400    295.55724   -505.17007    149316.98   -47377.365     4058.767   -51436.132   0.15605806 
   46500     296.9804   -470.51734    149322.38   -47338.782    4078.3106   -51417.092   0.15277101 
   46600    300.21481   -478.65392    149295.86   -47399.957    4122.7275   -51522.685   0.14738229 
   46700    302.83413   -451.84094    149298.34   -47329.767    4158.6975   -51488.464   0.15335166 
   46800    299.60704   -515.94139     149305.5   -47343.079    4114.3812    -51457.46   0.15078685 
   46900    292.58224   -504.84205    149286.37   -47400.027    4017.9126    -51417.94    0.1564694 
   47000    294.24279   -512.88142    149289.08   -47432.795    4040.7162   -51473.512   0.15119917 
   47100    298.02717   -492.51456    149287.96   -47446.384    4092.6855    -51539.07   0.15318444 
   47200    293.30138   -509.22422    149265.95   -47407.938    4027.7881   -51435.726    0.1518638 
   47300    292.78106    -491.2003    149275.87   -47534.677    4020.6428    -51555.32   0.15332272 
   47400    292.30741   -533.60474    149243.23   -47464.432    4014.1384    -51478.57   0.15323878 
   47500    290.46143   -485.96506    149272.15   -47475.215    3988.7883   -51464.003    0.1524672 
   47600     296.0907   -516.45706    149267.66   -47468.461    4066.0928   -51534.554   0.14801211 
   47700    302.55313   -468.94507    149298.65   -47384.224    4154.8387   -51539.063   0.14981019 
   47800    298.42955   -478.54024    149298.14   -47452.074    4098.2112   -51550.285   0.15404111 
   47900    296.01472   -473.26345    149294.95   -47499.435    4065.0494   -51564.485    0.1413795 
   48000    295.44946   -499.41822    149286.62   -47459.463    4057.2869    -51516.75   0.15374318 
   48100    295.90529   -495.16241    149283.21   -47507.318    4063.5466   -51570.865   0.14561436 
   48200    294.88208   -466.09696    149261.98   -47489.807    4049.4953   -51539.303   0.15308719 
   48300    295.26562   -461.04539    149273.35   -47443.563    4054.7622   -51498.325   0.14981794 
   48400     293.6307   -526.57948     149268.1   -47485.328    4032.3105   -51517.639   0.15459534 
   48500    293.22784   -506.54285    149249.59   -47572.439    4026.7783   -51599.217   0.15164853 
   48600    288.05234   -515.21931    149238.37   -47563.691    3955.7053   -51519.397   0.15045493 
   48700    296.24797   -504.03356     149242.5   -47446.692    4068.2524   -51514.944   0.15080888 
   48800     296.8382   -454.05095     149240.7    -47438.38    4076.3578   -51514.737    0.1526296 
   48900    299.74918   -498.58917     149231.9   -47462.163    4116.3331   -51578.496   0.15007875 
   49000    300.12513   -494.63995    149218.83   -47495.466    4121.4959   -51616.962   0.14975135 
   49100     297.7351    -477.4499    149263.14   -47408.274    4088.6747   -51496.949    0.1522692 
   49200    293.62466   -458.50817    149254.04   -47441.246    4032.2276   -51473.473   0.15015522 
   49300    289.41183    -508.8051    149257.46    -47510.14    3974.3746   -51484.515   0.15743946 
   49400     288.6025   -488.90135    149247.04     -47532.1    3963.2604   -51495.361   0.14782655 
   49500    292.98059   -504.37858    149251.19   -47467.851    4023.3829   -51491.234    0.1603255 
   49600     297.6552   -474.82383    149250.26   -47468.629    4087.5774   -51556.206   0.14912452 
   49700    294.25052   -495.59228    149243.27   -47469.027    4040.8223   -51509.849   0.15003383 
   49800    293.05412   -494.42723    149227.89   -47478.712    4024.3927   -51503.104   0.15862121 
   49900    291.35363   -497.83944     149224.8   -47454.415    4001.0405   -51455.455   0.15133937 
   50000    288.66838   -505.12326    149230.34   -47467.424     3964.165   -51431.589   0.16081793 
   50100    299.27617   -480.62527    149259.26   -47319.473    4109.8375    -51429.31   0.15024712 
   50200    295.51434   -504.73439    149239.94   -47396.951    4058.1779   -51455.129   0.15657565 
   50300    289.60896   -492.60019    149230.05   -47415.193    3977.0816   -51392.275   0.16090171 
   50400    292.82008   -502.03397    149208.27   -47433.203    4021.1787   -51454.382    0.1548353 
   50500    299.43842   -474.82963    149230.65    -47344.83    4112.0657   -51456.896    0.1596764 
   50600    298.98341   -506.07447    149255.01   -47265.717    4105.8171   -51371.535   0.15985543 
   50700    291.33579   -529.59602    149233.11    -47514.42    4000.7955   -51515.216   0.15415645 
   50800    294.16736   -514.87124     149229.4   -47491.013    4039.6803   -51530.693   0.15546592 
   50900    292.70045   -510.83415    149201.35   -47514.886    4019.5359   -51534.422    0.1528731 
   51000    299.66496   -506.75539    149218.67   -47479.357    4115.1766   -51594.533   0.15366286 
   51100     297.1942   -522.17553    149225.84   -47486.955    4081.2466   -51568.201   0.15339032 
   51200    295.08491   -494.18223    149180.59   -47542.491    4052.2806   -51594.772     0.146725 
   51300    288.53487   -518.81918    149168.21   -47555.301    3962.3316   -51517.633   0.15903081 
   51400    298.20964   -473.90165     149189.5   -47490.458    4095.1912   -51585.649   0.14915196 
   51500    292.25135   -501.00347    149188.88   -47549.356    4013.3685   -51562.724   0.15737241 
   51600    291.26264   -499.89864    149206.79   -47464.053    3999.7909   -51463.844   0.15492725 
   51700    296.87411   -502.49243    149210.23   -47359.286     4076.851   -51436.137   0.16149205 
   51800    291.20771   -518.33038    149226.65   -47408.894    3999.0366   -51407.931   0.16092339 
   51900    291.36655    -483.9874    149252.09   -47477.555     4001.218   -51478.773    0.1489398 
   52000    290.24619   -500.62967    149217.38   -47453.522    3985.8325   -51439.354    0.1617929 
   52100    288.36603   -492.54706    149229.67   -47535.806     3960.013   -51495.819   0.14752886 
   52200    290.79734   -504.10723    149187.01   -47586.668    3993.4012   -51580.069   0.15195376 
   52300    287.67061   -471.79151    149183.73   -47563.015     3950.463   -51513.478   0.15453583 
   52400    286.96515    -505.5767    149175.71   -47654.319    3940.7753   -51595.094    0.1519973 
   52500    288.25593   -489.55755    149180.45   -47497.963    3958.5011   -51456.464   0.15969596 
   52600    296.83668   -505.47939    149219.66   -47468.775     4076.337   -51545.112   0.15650416 
   52700    294.38415   -469.35433    149236.92   -47397.612    4042.6574   -51440.269   0.15799594 
   52800    293.27004   -539.57702    149274.61   -47375.956    4027.3578   -51403.314   0.16416404 
   52900    296.82764   -509.61064    149278.97   -47400.428    4076.2129   -51476.641    0.1538278 
   53000    300.78298   -487.78865    149277.63   -47353.661    4130.5299   -51484.191    0.1555056 
   53100    298.16713   -495.46822    149248.91   -47488.632    4094.6075    -51583.24    0.1538328 
   53200    286.75067   -532.03679    149227.71    -47539.62    3937.8299    -51477.45   0.15230771 
   53300    293.51849    -475.4729    149234.21   -47499.129    4030.7697   -51529.898   0.15698051 
   53400    294.23471   -490.66071     149235.1    -47426.26    4040.6052   -51466.865   0.15414827 
   53500    295.88287   -513.83019    149249.38   -47420.892    4063.2388   -51484.131   0.15771202 
   53600     292.2981    -500.8817       149235   -47489.131    4014.0105   -51503.142   0.15176579 
   53700    292.41794   -488.90549    149231.43   -47465.064    4015.6562   -51480.721   0.15525141 
   53800    290.44214   -519.61642    149222.75   -47493.885    3988.5233   -51482.409   0.15404679 
   53900    292.97633   -499.36426    149236.65   -47498.267    4023.3244   -51521.591   0.15175191 
   54000    292.65688   -496.27833     149223.6   -47506.211    4018.9375   -51525.148   0.15564161 
   54100    293.88623   -495.08308    149228.96   -47476.942    4035.8197   -51512.761   0.15243373 
   54200    293.92918   -530.91567    149250.27   -47434.193    4036.4095   -51470.603   0.15910243 
   54300    296.88756   -525.71704    149244.86   -47354.274    4077.0357    -51431.31   0.15580076 
   54400    298.35487   -495.74842    149263.23   -47273.751    4097.1857   -51370.936   0.16115634 
   54500    297.15356   -500.66499    149262.93   -47343.004    4080.6886   -51423.692   0.15615738 
   54600    295.33372   -529.31798    149250.87   -47365.209    4055.6974   -51420.906   0.16159731 
   54700    298.09771   -469.41061    149250.16   -47425.561    4093.6542   -51519.216    0.1530442 
   54800    296.83664    -500.9619    149276.07   -47357.397    4076.3364   -51433.733   0.15492341 
   54900    296.75358   -491.77211     149272.6   -47373.763    4075.1958   -51448.959   0.15663786 
   55000    297.07301   -490.02094    149284.17   -47406.586    4079.5824   -51486.168   0.14917026 
   55100    291.28823   -526.70722    149252.87   -47418.874    4000.1423   -51419.017   0.15818744 
   55200    291.84503    -468.6845    149240.28   -47534.413    4007.7886   -51542.202   0.14407851 
   55300    292.42269   -496.72301    149233.35   -47581.942    4015.7215   -51597.663   0.14928574 
   55400     294.3324   -494.58912     149242.4     -47543.8    4041.9467   -51585.747   0.14980204 
   55500    293.07433    -526.0212    149252.16   -47505.948    4024.6701   -51530.618   0.15313645 
   55600    298.62778   -488.95056    149280.28   -47395.395    4100.9334   -51496.328   0.15468614 
   55700    294.33631   -516.09287    149268.56   -47353.086    4042.0004   -51395.086    0.1585452 
   55800      293.821   -496.71027    149296.15   -47341.382    4034.9238   -51376.306    0.1533463 
   55900    293.05716   -488.09103    149317.62   -47361.555    4024.4344   -51385.989   0.15684144 
   56000    297.11292   -482.41659    149316.89   -47372.835    4080.1305   -51452.966   0.14919738 
   56100    294.94525   -512.55811    149294.54   -47357.964    4050.3628   -51408.326    0.1580531 
   56200    292.82359   -473.34779    149324.28   -47400.339    4021.2268   -51421.566   0.14966127 
   56300     290.1833   -521.62507    149285.55   -47466.406    3984.9688   -51451.374   0.14737902 
   56400    287.12017   -514.84874    149262.72   -47514.268    3942.9042   -51457.172   0.15705417 
   56500    293.77396   -469.50907    149238.35   -47562.312    4034.2779    -51596.59   0.13963102 
   56600    286.87675     -494.152     149204.9   -47619.176    3939.5614   -51558.738   0.15694647 
   56700    287.74168   -538.86116    149215.77   -47599.926     3951.439   -51551.365   0.14903257 
   56800    292.31944   -475.53517     149228.4   -47489.363    4014.3036   -51503.667   0.15398303 
   56900    284.67547   -467.03063    149232.14   -47582.379     3909.332   -51491.711   0.15312096 
   57000     285.3154   -524.83599    149229.95   -47569.842    3918.1199   -51487.962   0.14537491 
   57100    292.22677   -508.20556    149257.63   -47487.691    4013.0309   -51500.722   0.15764209 
   57200    293.28299   -522.98682    149267.34   -47437.737    4027.5356   -51465.273   0.14911532 
   57300     290.0212   -536.22572    149238.18   -47573.395    3982.7428   -51556.138   0.15245547 
   57400    293.89008   -449.79323    149258.15   -47449.204    4035.8726   -51485.076   0.15328004 
   57500    297.05874   -465.23035    149261.57   -47413.685    4079.3864   -51493.072   0.14683079 
   57600    293.16509   -485.02955     149222.4   -47525.858    4025.9166   -51551.775   0.15181987 
   57700    296.86084   -477.65806    149226.22   -47436.081    4076.6688    -51512.75   0.15141974 
   57800    296.18942   -505.77998     149234.5   -47382.636    4067.4484   -51450.085   0.15511726 
   57900    294.10031   -507.41365    149245.43   -47422.746    4038.7595   -51461.505   0.15617174 
   58000    294.19072   -481.95955     149232.7   -47377.607    4040.0011   -51417.608   0.15528122 
   58100    295.84564   -477.67108    149240.01   -47430.611    4062.7274   -51493.339   0.15471841 
   58200    297.89718   -514.95169    149280.19   -47330.974    4090.9005   -51421.874   0.15562266 
   58300    298.08614   -530.01334    149246.15    -47392.58    4093.4953   -51486.075   0.15285938 
   58400    293.42054   -520.87507    149229.19    -47441.08    4029.4245   -51470.504   0.15742844 
   58500    291.36043   -503.98288    149219.89   -47437.697    4001.1339   -51438.831   0.14959112 
   58600    288.60909   -493.97874    149207.56   -47470.641    3963.3508   -51433.992   0.15981212 
   58700    295.50265   -525.03672    149230.57   -47430.558    4058.0172   -51488.575   0.15233393 
   58800    297.23101   -501.75673    149238.25    -47477.85    4081.7522   -51559.602    0.1551107 
   58900    295.54669   -480.97903    149256.74   -47389.266    4058.6221   -51447.888   0.15741232 
   59000    296.69446   -495.45193    149278.19    -47357.46    4074.3839   -51431.844   0.15046456 
   59100    301.32449   -463.68638    149254.35    -47321.01    4137.9662   -51458.977   0.15951027 
   59200    293.44389    -483.6033    149224.93   -47441.709    4029.7451   -51471.454   0.14874757 
   59300    297.08112   -527.79315    149225.52    -47425.38    4079.6937   -51505.074   0.15914582 
   59400    294.29393   -464.87661    149251.19   -47406.474    4041.4184   -51447.893   0.15363014 
   59500    290.89947    -503.6361    149221.46   -47513.718    3994.8037   -51508.522    0.1510006 
   59600    291.57676   -503.31414    149238.64    -47491.02    4004.1046   -51495.125   0.15084234 
   59700    294.00463   -524.57502    149241.19   -47415.745    4037.4456   -51453.191    0.1576311 
   59800    291.75775   -510.28323    149229.97   -47532.786    4006.5902   -51539.377   0.14904524 
   59900    291.93642   -481.11535     149248.1   -47533.743    4009.0437   -51542.787    0.1503429 
   60000    286.29136    -476.3809    149242.46    -47494.33    3931.5225   -51425.853   0.15244038 
   60100    291.09063   -483.73853    149235.51   -47456.307    3997.4289   -51453.736   0.15051947 
   60200    297.45559   -477.72684    149238.17   -47427.281    4084.8362   -51512.117   0.15626259 
   60300    299.60863   -441.86489    149273.12   -47384.535    4114.4031   -51498.939   0.14400016 
   60400    295.30417    -504.5422    149257.42   -47329.644    4055.2917   -51384.936   0.16107722 
   60500    296.97009   -504.91653    149240.57   -47356.381    4078.1691    -51434.55   0.15228147 
   60600     291.2685   -521.75472    149220.37   -47418.667    3999.8714   -51418.538   0.15650775 
   60700    301.62005   -483.77063    149261.84   -47240.834    4142.0251   -51382.859    0.1580576 
   60800    294.56544   -528.82349    149283.34   -47263.251     4045.147   -51308.398    0.1648741 
   60900    300.04461   -494.20476    149243.51   -47363.039    4120.3902   -51483.429   0.15403379 
   61000     295.1332   -458.02922    149211.56   -47404.068    4052.9439   -51457.012    0.1528699 
   61100    294.29966   -477.17577    149225.45   -47384.362    4041.4972   -51425.859   0.15698532 
   61200    297.59912   -495.57748    149234.56   -47327.874    4086.8073   -51414.681   0.15391069 
   61300    290.55644   -532.27252    149225.03   -47421.411    3990.0931   -51411.504   0.16096309 
   61400    290.43661   -553.92204    149223.27   -47475.229    3988.4474   -51463.676   0.15469022 
   61500    295.43986   -507.52154    149231.81     -47413.4     4057.155   -51470.555   0.15388033 
   61600    297.75098   -484.42256    149215.65   -47456.779    4088.8926   -51545.671   0.14692114 
   61700     289.3172   -523.05988    149215.15   -47524.915     3973.075    -51497.99   0.15224943 
   61800     289.9326   -498.12219    149231.78   -47508.671    3981.5261   -51490.197   0.14913884 
   61900    290.22958   -484.09179    149241.58   -47402.752    3985.6043   -51388.356   0.15689491 
   62000    297.40481   -510.64241    149246.97    -47421.53    4084.1388   -51505.668   0.15334297 
   62100    290.03583   -503.43509    149222.09   -47485.294    3982.9436   -51468.238   0.14884659 
   62200    293.24772   -500.48703    149264.18   -47378.331    4027.0513   -51405.382   0.16189965 
   62300    295.75864   -475.28388     149242.4     -47428.4    4061.5328   -51489.933   0.14714226 
   62400    292.86481   -504.62229    149234.38   -47474.564    4021.7929   -51496.357   0.15627445 
   62500    294.93374   -511.78471     149250.4   -47468.315    4050.2047    -51518.52   0.15191309 
   62600    292.44857   -530.04398    149221.47   -47495.011    4016.0768   -51511.088   0.15017534 
   62700    296.03757   -499.42638    149209.16   -47531.536    4065.3631   -51596.899   0.15390512 
   62800    291.99264   -501.00637    149228.39   -47502.443    4009.8158   -51512.259   0.14916407 
   62900    297.46165   -475.08374    149239.71    -47408.25    4084.9194    -51493.17   0.15190277 
   63000    294.04198   -483.51138    149240.22   -47442.733    4037.9585   -51480.692   0.15278238 
   63100     291.6523    -480.5907    149199.21   -47509.773     4005.142   -51514.915   0.15027158 
   63200    298.82919   -479.89379    149213.25   -47390.172    4103.6993   -51493.871   0.15346633 
   63300    287.58247   -482.05265    149213.16   -47483.996    3949.2527   -51433.249   0.15856818 
   63400    290.38553   -484.20952    149202.47   -47575.781    3987.7459   -51563.527   0.14629025 
   63500    289.63152   -547.70139    149203.78   -47550.711    3977.3915   -51528.103   0.15841349 
   63600    286.66362   -484.61279    149209.25    -47601.02    3936.6345   -51537.654   0.14219032 
   63700    292.63323    -502.5472    149223.01   -47573.895    4018.6128   -51592.508   0.15315435 
   63800    290.58247    -506.6367    149193.67   -47639.104    3990.4505   -51629.555   0.14547758 
   63900    293.15339    -534.9074     149215.9   -47534.142    4025.7559   -51559.897   0.15483227 
   64000    292.30169   -490.58066     149220.3   -47444.629    4014.0598   -51458.689   0.15880364 
   64100    299.06947   -474.41365    149249.15   -47395.236     4106.999   -51502.235   0.15025059 
   64200    292.17677   -498.34495    149270.24   -47385.221    4012.3444   -51397.566   0.15993313 
   64300    296.68438   -502.79323    149269.85   -47427.377    4074.2456   -51501.623   0.14535683 
   64400    290.95098   -542.99279    149253.93   -47485.578     3995.511   -51481.089   0.15880029 
   64500    291.65908   -536.05269    149247.65   -47475.898    4005.2351   -51481.133   0.15238121 
   64600     292.9637    -484.4345    149222.83   -47512.412    4023.1509   -51535.563   0.15417817 
   64700     286.6991   -532.19717    149212.14   -47516.376    3937.1218   -51453.498   0.15338019 
   64800    292.02201   -500.51778    149220.89   -47457.299    4010.2191   -51467.518   0.15049299 
   64900    293.19933   -487.85221    149243.88   -47364.913    4026.3868   -51391.299   0.15411375 
   65000    298.27574   -447.46914    149287.99   -47352.471     4096.099    -51448.57   0.15433945 
   65100    294.66505   -521.22028    149280.86   -47424.097    4046.5149   -51470.612   0.15461533 
   65200    294.64582   -520.14433    149288.86   -47447.613    4046.2509   -51493.864   0.15353912 
   65300    295.27051   -495.27646    149305.13   -47382.404    4054.8294   -51437.233   0.15293244 
   65400    296.55577   -488.74948    149291.41   -47426.162    4072.4794   -51498.641   0.14855815 
   65500    294.31624   -496.92652    149276.12   -47354.821    4041.7249   -51396.546   0.16055434 
   65600    296.83665   -509.54989    149285.88   -47376.084    4076.3365   -51452.421   0.15135072 
   65700    297.96713   -510.02389    149280.61    -47335.07    4091.8609   -51426.931   0.16013196 
   65800    293.38876   -481.48358    149288.06   -47403.356    4028.9881   -51432.344   0.14817216 
   65900    297.54696   -503.78286    149276.04   -47413.974     4086.091   -51500.065   0.15210858 
   66000     295.2768    -517.5804    149265.81   -47422.248    4054.9158   -51477.164     0.158511 
   66100    293.25375   -518.93495     149278.7   -47394.739     4027.134   -51421.873   0.15060764 
   66200    285.04848   -557.95727    149238.06   -47528.733    3914.4544   -51443.187   0.16217715 
   66300    293.69449   -504.96795    149268.13   -47461.378    4033.1866   -51494.564   0.14909207 
   66400    295.59219    -512.5892    149250.48    -47464.42    4059.2469   -51523.667   0.15825377 
   66500    288.75175   -512.13127    149261.37   -47503.399      3965.31   -51468.709   0.15789889 
   66600    291.19443   -527.15394    149240.94   -47504.871    3998.8543   -51503.725   0.15537272 
   66700    295.55737   -484.81741    149231.72   -47483.102    4058.7688    -51541.87   0.15245428 
   66800    291.95743    -520.3014    149238.42   -47504.365    4009.3322   -51513.697   0.15708799 
   66900    292.82233   -471.86061    149231.15   -47506.904    4021.2096   -51528.113   0.14995404 
   67000    287.65189   -502.53004    149189.46   -47614.865    3950.2061   -51565.071   0.15318641 
   67100    294.64424   -500.18159    149225.44   -47450.472    4046.2291   -51496.701   0.15963141 
   67200    292.52162   -495.75778    149223.58   -47555.789      4017.08   -51572.869   0.14505071 
   67300    290.33172    -495.5458    149239.14   -47469.381    3987.0071   -51456.388   0.15759743 
   67400    293.64726    -520.2063    149243.35   -47445.657    4032.5379   -51478.195   0.15488112 
   67500    296.72479   -522.97822    149259.32   -47439.766    4074.8005   -51514.566   0.15938117 
   67600    299.69478   -467.47845     149285.3   -47294.589    4115.5861   -51410.175   0.15586412 
   67700    297.62567   -501.49268    149275.42   -47367.526    4087.1719   -51454.698     0.162071 
   67800     299.8243    -526.0096     149278.3   -47411.841    4117.3648   -51529.205    0.1523659 
   67900    292.41353   -491.23714    149255.32   -47443.321    4015.5957   -51458.917    0.1581719 
   68000     293.1423   -515.83453    149253.64   -47482.037    4025.6035    -51507.64   0.15571668 
   68100    294.15246   -510.16942    149265.86   -47487.664    4039.4757    -51527.14   0.15360493 
   68200      295.948   -493.46548    149269.83   -47449.385    4064.1331   -51513.519    0.1622947 
   68300    296.10827   -467.69742    149283.77   -47395.728    4066.3341   -51462.062   0.15232021 
   68400    298.02335    -487.4809    149283.08   -47357.668    4092.6331   -51450.302   0.16114313 
   68500    299.17082   -503.38989    149276.79   -47361.541    4108.3907   -51469.932   0.15730454 
   68600    294.67745   -529.81562    149283.09   -47463.002    4046.6851   -51509.687   0.15718454 
   68700    301.43213   -475.68421    149271.76   -47434.801    4139.4444   -51574.246   0.15076471 
   68800    295.03062   -515.88904    149262.93   -47436.004     4051.535   -51487.539   0.16399288 
   68900    298.34149   -470.30798    149265.02   -47436.239    4097.0019   -51533.241   0.14938583 
   69000    291.64053   -528.99239    149256.56   -47435.376    4004.9804   -51440.356   0.15894785 
   69100    292.45659   -481.80786    149225.79   -47491.155     4016.187   -51507.342   0.15383297 
   69200    290.18618   -495.11108    149213.32   -47507.035    3985.0084   -51492.043   0.15347193 
   69300    287.76183   -487.82716    149210.19   -47540.275    3951.7158    -51491.99   0.16202127 
   69400    290.11606     -488.517    149193.97   -47587.209    3984.0455   -51571.255    0.1470064 
   69500     294.2658   -454.97743    149198.62   -47448.911    4041.0322   -51489.943   0.15646106 
   69600    301.02769   -514.49401    149265.96   -47345.648    4133.8905   -51479.539   0.15850598 
   69700    295.09236   -561.04472    149249.36   -47447.706     4052.383   -51500.089   0.16147089 
   69800     298.7734   -479.81903    149234.16   -47435.809    4102.9331   -51538.742    0.1531797 
   69900    295.81918   -517.34837    149218.92   -47533.488    4062.3641   -51595.852   0.15332619 
   70000    294.98152   -447.35606    149236.88   -47460.936    4050.8608   -51511.797   0.15093548 
   70100    292.76258   -498.90072    149196.71   -47588.698    4020.3891   -51609.087    0.1480302 
   70200    299.74829   -429.57517    149216.46   -47418.669     4116.321    -51534.99   0.15355614 
   70300     291.9125   -479.71281    149215.56   -47426.482    4008.7152   -51435.197    0.1544817 
   70400     297.9664   -475.76175    149252.87   -47314.868    4091.8509   -51406.719   0.15864412 
   70500    294.03236   -553.12003    149230.13   -47395.961    4037.8264   -51433.787    0.1587722 
   70600    294.16892   -522.01845    149212.65   -47449.928    4039.7017    -51489.63   0.16025848 
   70700    293.66764   -463.17413    149209.79   -47418.544    4032.8179   -51451.361    0.1558784 
   70800    293.66316   -502.29972    149233.39   -47461.025    4032.7564   -51493.781   0.15702993 
   70900    291.25548   -505.94633    149239.82   -47447.748    3999.6927   -51447.441    0.1517465 
   71000    291.56343   -496.59043     149249.3   -47469.806    4003.9216   -51473.727   0.15483537 
   71100    297.83178   -465.60679    149214.76   -47455.294    4090.0023   -51545.297   0.15303878 
   71200    286.68207   -521.09001     149227.6   -47496.372    3936.8878    -51433.26   0.15314004 
   71300    291.46998   -497.45897    149217.14   -47551.902    4002.6383    -51554.54   0.15907196 
   71400    292.22794   -492.03532    149230.82   -47484.419    4013.0471   -51497.467   0.14901041 
   71500    295.03871   -490.62362    149226.02   -47433.043    4051.6462   -51484.689   0.15999041 
   71600    297.37625   -512.63648    149238.02   -47455.727    4083.7467   -51539.473   0.15375407 
   71700    294.19911   -521.56252    149235.21   -47445.432    4040.1163   -51485.548   0.15856767 
   71800    289.59271   -518.37909    149188.45   -47621.182    3976.8584    -51598.04   0.15284812 
   71900    292.76549   -488.28769    149187.16   -47560.557    4020.4289   -51580.986    0.1531071 
   72000    293.94934   -509.17216    149189.38   -47527.911    4036.6863   -51564.597   0.15483594 
   72100     298.7697   -497.63461    149244.98   -47390.974    4102.8824   -51493.857   0.15809854 
   72200    297.30865   -517.51528    149275.82   -47284.652    4082.8183   -51367.471   0.16445366 
   72300    301.43669    -519.4281    149287.15   -47259.246    4139.5071   -51398.753   0.15935128 
   72400    291.51208   -522.65118    149275.45   -47377.153    4003.2165   -51380.369   0.16022836 
   72500    296.72263   -484.23544    149295.74   -47376.241    4074.7708   -51451.012   0.15091317 
   72600    295.91348   -548.01636    149276.67   -47313.572    4063.6591   -51377.231   0.16391264 
   72700    294.47595   -511.43051    149263.28   -47478.187     4043.918   -51522.105   0.14947289 
   72800    294.59571   -465.75126     149266.2   -47400.522    4045.5627   -51446.084   0.15822355 
   72900    298.28043   -506.98983    149244.26   -47411.377    4096.1635   -51507.541   0.15565195 
   73000    295.23397   -506.18254    149246.78   -47422.532    4054.3277   -51476.859   0.15656907 
   73100    301.01428   -464.51034    149251.93   -47384.389    4133.7063   -51518.096   0.15513632 
   73200    297.87267   -516.11002    149285.91   -47371.854    4090.5638   -51462.418   0.15582274 
   73300    297.05819   -508.13793    149294.72   -47345.342     4079.379   -51424.721   0.16058859 
   73400    294.69192     -535.511    149288.15   -47324.202    4046.8839   -51371.086   0.15566409 
   73500    293.10278   -533.02568    149293.38   -47327.071    4025.0609   -51352.132   0.16695279 
   73600    297.61355   -448.72954    149289.88   -47372.102    4087.0054   -51459.107   0.15243059 
   73700    293.02515   -479.14355    149250.85   -47433.783    4023.9947   -51457.778   0.15723469 
   73800    290.18138   -532.40005    149233.18     -47524.1    3984.9424   -51509.042   0.15313493 
   73900    287.61494   -522.17369    149242.88   -47508.202    3949.6985     -51457.9   0.15783865 
   74000    291.19071   -511.35824    149252.42   -47427.062    3998.8032   -51425.865   0.15835989 
   74100    302.85949   -519.13519    149293.81   -47268.626    4159.0458   -51427.672   0.15850275 
   74200    297.16337   -531.97904    149253.98   -47430.788    4080.8233   -51511.611      0.15812 
   74300    298.89798    -495.3234    149251.19   -47430.799     4104.644   -51535.443   0.15066408 
   74400    295.53286   -515.76279    149274.98   -47469.363    4058.4321   -51527.795    0.1568098 
   74500    293.12856   -506.23314     149258.4    -47481.43    4025.4149   -51506.844   0.15038397 
   74600    294.98715   -526.62277    149267.68   -47483.041    4050.9382   -51533.979   0.15982557 
   74700     291.5029   -513.37919    149292.75   -47393.033    4003.0904   -51396.124   0.15454303 
   74800    290.52606   -525.61112    149231.09   -47442.951    3989.6758   -51432.627   0.16149029 
   74900    291.82315   -528.60058    149245.62    -47447.96    4007.4882   -51455.448   0.15803464 
   75000    294.27848   -492.06389    149221.26   -47433.725    4041.2063   -51474.931    0.1534619 
   75100    297.44526    -482.7938    149237.49   -47365.277    4084.6944   -51449.971   0.15957285 
   75200      295.249   -488.79121    149226.54   -47408.503    4054.5341   -51463.037   0.15326512 
   75300     294.4526   -500.10864    149205.08   -47461.261    4043.5974   -51504.858   0.15856346 
   75400     293.4228   -510.36488    149186.39   -47472.827    4029.4556   -51502.282   0.15785819 
   75500    290.76876   -480.54253    149178.37   -47467.687    3993.0087   -51460.696   0.15713119 
   75600     292.1572   -534.94002    149194.08    -47394.15    4012.0756   -51406.225   0.15984657 
   75700    299.07554    -456.7822    149224.11    -47348.37    4107.0824   -51455.453   0.15858617 
   75800    299.84353   -471.34535    149224.54   -47372.076    4117.6288   -51489.705   0.14839701 
   75900    295.56872   -510.33776    149223.84   -47392.827    4058.9246   -51451.752   0.16169133 
   76000    300.25074   -493.97423       149219    -47399.53    4123.2209   -51522.751    0.1527511 
   76100    293.04156   -534.04979    149178.74   -47491.254    4024.2201   -51515.474   0.15607459 
   76200    289.39655   -503.47526    149197.03   -47542.983    3974.1647   -51517.148   0.16079896 
   76300    293.29638   -512.39423    149184.52   -47474.599    4027.7194   -51502.318   0.15527983 
   76400    294.69841   -517.15545    149207.48   -47472.728    4046.9731   -51519.701   0.16130118 
   76500    295.41464   -476.33197    149213.47   -47464.531    4056.8087    -51521.34   0.15002722 
   76600    288.18948   -529.94535    149207.13   -47504.329    3957.5885   -51461.918   0.15904081 
[...]
   81900    290.64638   -501.56719    149225.46   -47499.033    3991.3282   -51490.361   0.15311987 
   82000    297.50341   -484.83103    149270.56    -47409.21     4085.493   -51494.703   0.15300671 
   82100    298.04604   -505.06739    149270.93   -47358.951    4092.9447   -51451.895   0.15629444 
   82200    294.90328   -510.36108    149276.71   -47372.633    4049.7864   -51422.419   0.15175905 
   82300    293.80208   -527.02164    149254.83   -47453.449    4034.6641   -51488.113   0.15435396 
   82400    294.73557    -532.0411    149269.77   -47329.747    4047.4834    -51377.23   0.15954383 
   82500    300.91873   -519.60566    149318.55   -47231.803    4132.3942   -51364.198   0.15592742 
   82600    298.18753   -496.35949    149288.34   -47331.546    4094.8877   -51426.433   0.15883975 
   82700    296.45416   -491.21448    149279.87   -47417.429    4071.0841   -51488.513   0.14291953 
   82800    297.77389   -480.55428    149281.22   -47427.213    4089.2074   -51516.421    0.1524139 
   82900     295.6583   -507.52768    149271.59   -47376.631    4060.1548   -51436.785   0.15084975 
   83000    297.03628   -505.68278    149282.14   -47317.002     4079.078    -51396.08   0.15800901 
   83100    296.29351   -501.46495    149300.38   -47360.866    4068.8778   -51429.744   0.15620093 
   83200    294.67301   -512.25525    149303.83   -47391.431    4046.6242   -51438.055   0.15188238 
   83300    300.88287   -524.89887    149271.01   -47379.535    4131.9017   -51511.436   0.15657291 
   83400    293.71116   -517.03502    149285.77   -47463.358    4033.4156   -51496.774   0.15148518 
   83500    292.14475   -456.76189    149260.67   -47571.712    4011.9046   -51583.617   0.14782338 
   83600    291.88017   -493.81167    149278.89   -47511.801    4008.2713   -51520.072   0.14533791 
   83700    295.11826   -493.85113    149279.11   -47543.372    4052.7386   -51596.111   0.14621416 
   83800    295.36277   -452.29035    149276.36    -47498.49    4056.0964   -51554.587   0.14202049 
   83900    293.16534   -507.37151    149299.95   -47502.929      4025.92   -51528.849   0.14995989 
   84000     298.3633    -440.9956    149278.39   -47519.894    4097.3015   -51617.195   0.14566125 
   84100    296.48434   -477.30049    149302.18   -47446.841    4071.4984    -51518.34   0.14398872 
   84200    295.42242   -491.37461    149313.19   -47401.836    4056.9155   -51458.752   0.14922458 
   84300    296.58489   -496.32413    149299.45   -47455.844    4072.8792   -51528.723   0.14848528 
   84400    295.04639   -476.14315    149295.19    -47453.04    4051.7517   -51504.791   0.14725178 
   84500    292.58975   -506.65823    149287.76   -47512.483    4018.0156   -51530.498   0.15239055 
   84600    294.28379   -502.96089    149286.66   -47417.235    4041.2792   -51458.514   0.15050493 
   84700    297.25227   -478.52585    149300.11   -47432.622    4082.0442   -51514.666   0.14254363 
   84800    294.21948   -508.82166    149302.33   -47425.984    4040.3961    -51466.38   0.15543701 
   84900    294.94273   -514.26987    149310.05   -47347.247    4050.3282   -51397.576   0.14933258 
   85000    288.33137   -510.22612    149261.34   -47418.455     3959.537   -51377.992    0.1586339 
   85100    290.55238     -485.311     149263.8   -47437.811    3990.0373   -51427.848   0.14942531 
   85200    291.18919   -503.56804    149249.13   -47475.874    3998.7823   -51474.657   0.14802527 
   85300    289.48746     -516.094    149264.52   -47478.113    3975.4131   -51453.526   0.15673349 
   85400    288.59062   -499.75003    149251.32   -47511.231    3963.0972   -51474.329   0.14827694 
   85500    292.94733     -516.848    149272.59   -47459.737    4022.9261   -51482.663   0.15419404 
   85600    295.32611   -450.64444    149263.33   -47493.544    4055.5929   -51549.137   0.14217424 
   85700    294.00714   -479.89574    149278.69   -47432.057    4037.4801   -51469.537   0.15042785 
   85800    295.10378   -499.85473    149286.32   -47426.396    4052.5398   -51478.936   0.14688096 
   85900    296.81441   -502.54577    149302.55   -47396.834    4076.0311   -51472.865   0.15295982 
   86000    295.03541   -477.81348    149280.68   -47445.765    4051.6009   -51497.366    0.1463088 
   86100    299.90375   -436.83849    149290.17   -47420.191    4118.4559   -51538.646   0.14472319 
   86200     297.6301   -469.68913    149295.57   -47383.616    4087.2327   -51470.849    0.1509579 
   86300    295.51832   -480.73149    149277.29   -47428.179    4058.2325   -51486.412   0.14643788 
   86400    293.16763   -526.38581    149267.55   -47492.709    4025.9514    -51518.66   0.15249473 
   86500    293.86376   -518.37816    149259.62   -47526.299    4035.5111    -51561.81   0.15099554 
   86600    296.25642   -484.57213    149278.04   -47359.788    4068.3684   -51428.156   0.15273443 
   86700    298.99327   -497.38645    149313.16   -47358.501    4105.9525   -51464.453   0.15139511 
   86800    293.67435   -528.70197    149288.89   -47484.093      4032.91   -51517.003   0.15080391 
   86900    291.59194   -522.67233    149277.76   -47471.443    4004.3131   -51475.757   0.14681001 
   87000    293.35554   -503.21403     149276.2   -47443.512    4028.5319   -51472.044   0.15816026 
   87100    298.17551   -452.82883    149291.23   -47416.721    4094.7226   -51511.443   0.14402239 
   87200    297.91103   -482.32586    149293.69   -47348.533    4091.0905   -51439.623    0.1562787 
   87300    298.17112   -499.43709    149308.58   -47361.599    4094.6624   -51456.262   0.15330979 
   87400    292.58871   -515.19638    149288.53   -47421.581    4018.0014   -51439.582   0.15091145 
   87500    294.75685   -544.01168    149285.11   -47391.141    4047.7756   -51438.916   0.16072106 
   87600    297.79105   -501.17087    149307.48   -47412.745    4089.4429   -51502.188   0.14849803 
   87700    297.22316   -547.71385    149307.06   -47383.891    4081.6444   -51465.535   0.16068247 
   87800    293.75408   -495.28979    149280.05   -47467.434    4034.0049   -51501.439   0.15138591 
   87900    295.47622   -473.47758    149258.84   -47487.956    4057.6544    -51545.61   0.15536779 
   88000    294.18826   -497.14432     149280.4   -47453.648    4039.9673   -51493.615   0.14657513 
   88100    294.86799   -515.80089    149279.69   -47425.679    4049.3017    -51474.98   0.15591499 
   88200    290.36785   -508.31533     149271.1   -47527.425    3987.5032   -51514.929   0.14898359 
   88300     294.6562   -507.27948    149241.11   -47463.134    4046.3933   -51509.527    0.1491569 
   88400    294.83384   -510.82184    149267.58   -47392.888    4048.8328   -51441.721   0.15649318 
   88500     295.9794   -491.41241    149270.51   -47471.467    4064.5644   -51536.031    0.1463968 
   88600    291.61691   -502.97042    149282.25   -47459.395    4004.6561   -51464.051   0.15611811 
   88700    295.49825   -518.23925    149284.18   -47430.212    4057.9568   -51488.169   0.15184111 
   88800    291.43776    -517.6067    149262.95   -47495.371    4002.1959   -51497.567   0.15449749 
   88900    293.40951   -493.63203    149263.12   -47437.596    4029.2731   -51466.869   0.15185779 
   89000    294.99619   -510.27529    149263.23   -47403.639    4051.0622   -51454.702   0.15784699 
   89100    292.15525    -498.2602    149258.96   -47455.658    4012.0489   -51467.707   0.14866363 
   89200    296.77497   -488.44965    149257.19   -47406.451    4075.4896    -51481.94   0.15618537 
   89300    291.98011   -527.47371    149245.84   -47532.555    4009.6437   -51542.199   0.14619431 
   89400    297.82695   -489.61392    149263.18   -47430.595    4089.9359   -51520.531   0.14933618 
   89500    291.55486    -525.9001    149241.37   -47527.939    4003.8039   -51531.743   0.15297299 
   89600    290.20878   -509.23275    149238.52   -47556.353    3985.3188   -51541.672    0.1485466 
   89700    293.39665   -471.56108    149255.66   -47467.388    4029.0965   -51496.484   0.15410258 
   89800    297.12928   -473.97748    149283.72   -47403.281    4080.3551   -51483.636   0.14505829 
   89900     297.7328   -453.54558    149268.22   -47381.141    4088.6431   -51469.784   0.15429689 
   90000    296.35019   -497.61992    149273.52   -47409.928    4069.6562   -51479.584   0.15247129 
   90100    299.54883   -490.65839    149265.55   -47392.119    4113.5819   -51505.701   0.15222398 
   90200     293.2403   -508.95394    149254.29   -47463.561    4026.9494    -51490.51   0.14942758 
   90300    291.07502   -528.35486    149239.44   -47440.885    3997.2145     -51438.1   0.15579281 
   90400    290.58938   -519.23557    149262.22   -47424.977    3990.5454   -51415.523   0.15536723 
   90500    296.98803   -488.18778    149283.03   -47439.782    4078.4154   -51518.197   0.14846974 
   90600    290.35978   -507.82095    149256.44   -47459.953    3987.3924   -51447.345   0.15706458 
   90700    292.99159   -502.71634    149263.85   -47498.644    4023.5339   -51522.178   0.14454887 
   90800    292.93514   -486.19065    149253.78   -47512.364    4022.7587   -51535.122   0.14929604 
   90900    291.11759   -537.56931    149249.65   -47489.101     3997.799     -51486.9    0.1521588 
   91000    290.99524   -521.89116    149265.37   -47510.307    3996.1189   -51506.426   0.15208343 
   91100    290.69417   -517.31316    149256.72   -47616.998    3991.9844   -51608.982   0.14743756 
   91200     290.6377   -491.40879    149258.55   -47555.703     3991.209   -51546.912   0.14743483 
   91300    293.64106   -466.75015    149260.54   -47483.866    4032.4529   -51516.319   0.14593067 
   91400    288.01769   -513.04033    149265.41   -47458.436    3955.2294   -51413.665   0.15758902 
   91500    294.35736   -475.20512    149310.66   -47290.235    4042.2895   -51332.524   0.15472075 
   91600    295.11175   -498.60663    149327.76   -47368.243    4052.6492   -51420.893   0.15268234 
   91700    294.67072   -507.27067    149287.48   -47436.988    4046.5927   -51483.581   0.15434942 
   91800    297.16465   -503.91655    149305.17   -47414.142    4080.8408   -51494.983   0.14421022 
   91900    299.04077   -498.53698    149273.36    -47398.71    4106.6049   -51505.315   0.15735711 
   92000    296.41223   -488.61486    149285.01   -47450.291    4070.5082   -51520.799   0.14785169 
   92100    291.23074   -511.20301    149278.21   -47433.359     3999.353   -51432.712   0.15215809 
   92200    289.91903   -492.46842     149261.6   -47464.257    3981.3397   -51445.596    0.1498531 
   92300    303.46457   -486.11643    149305.74   -47341.999    4167.3551   -51509.354   0.14914549 
   92400    293.78369   -531.98927    149283.64   -47387.798    4034.4115    -51422.21   0.15283847 
   92500    297.14896   -483.92905    149284.74   -47381.117    4080.6254   -51461.743   0.15606449 
   92600    300.46681   -488.72591    149313.89   -47289.885    4126.1881   -51416.073    0.1518968 
   92700    292.89383    -492.0637    149305.75   -47414.408    4022.1915   -51436.599   0.14664358 
   92800    294.92927   -509.31438    149302.98   -47427.363    4050.1433   -51477.506   0.15492474 
   92900    288.91269   -551.35735    149270.58   -47464.383    3967.5201   -51431.903   0.14960727 
   93000    289.38193   -491.65049    149261.68   -47471.059     3973.964   -51445.023   0.15603887 
   93100    294.88405   -492.90362    149271.78   -47388.623    4049.5222   -51438.145   0.15047563 
   93200    295.69662   -494.27942    149283.99   -47449.135     4060.681   -51509.816   0.14625614 
   93300    294.94993   -504.23559    149278.95   -47498.191     4050.427   -51548.618    0.1503647 
   93400    290.80485   -509.70423     149248.9   -47552.456    3993.5043    -51545.96   0.15003446 
   93500    285.20948   -538.30072    149269.24    -47553.29    3916.6654   -51469.955   0.15141031 
   93600    288.72505    -516.0221     149296.6   -47505.725    3964.9432   -51470.668   0.15154277 
   93700    291.13197   -489.72449    149302.66   -47485.969    3997.9965   -51483.965   0.14715958 
   93800    294.89104   -502.60232    149288.26   -47487.421    4049.6183   -51537.039   0.14455231 
   93900      289.965   -553.02419    149251.89   -47563.881     3981.971   -51545.852   0.15543529 
   94000    293.13283    -479.2393    149259.05   -47527.522    4025.4735   -51552.996   0.14151257 
   94100    294.61137    -484.9989    149272.02   -47403.801    4045.7777   -51449.579   0.15348084 
   94200    294.38569   -496.34187    149265.81   -47390.274    4042.6786   -51432.953   0.15318186 
   94300    298.91229   -480.12494    149292.56   -47412.288    4104.8405   -51517.129   0.15074994 
   94400    295.61499    -497.0857    149287.22   -47404.195      4059.56   -51463.755   0.15475598 
   94500    296.18282    -485.9714    149293.13    -47411.57    4067.3579   -51478.928   0.15085718 
   94600     297.6195   -475.05025     149283.4   -47415.383    4087.0871    -51502.47   0.14781195 
   94700    295.61681   -511.47425    149292.12   -47461.796     4059.585   -51521.381   0.14868808 
   94800    290.55442   -511.55248     149261.8   -47493.799    3990.0653   -51483.864   0.15214887 
   94900    293.32714    -503.9079    149246.94   -47522.966    4028.1419   -51551.108   0.14424398 
   95000    292.02361   -529.41497    149221.88   -47483.668    4010.2411   -51493.909   0.15899104 
   95100    298.78502   -466.87889    149224.93   -47441.044    4103.0928   -51544.137   0.14456751 
   95200    296.94211   -495.25327    149225.34   -47470.347    4077.7849   -51548.132   0.15043892 
   95300    295.06108   -464.24354    149251.04   -47421.853    4051.9534   -51473.807   0.14997127 
   95400     292.7142   -509.73401       149269   -47391.777    4019.7246   -51411.502   0.15314191 
   95500    296.90388   -494.64615    149290.35   -47412.897    4077.2598   -51490.157   0.15355349 
   95600    297.07957   -477.77265    149279.82    -47400.02    4079.6724   -51479.692   0.14908016 
   95700    289.08507   -522.24451    149255.24   -47438.789    3969.8873   -51408.677   0.15547619 
   95800    294.61695   -489.60878    149267.51   -47377.429    4045.8543   -51423.283   0.15384009 
   95900    299.23539   -497.05405    149279.65   -47399.434    4109.2775   -51508.711   0.15388292 
   96000    303.31343   -443.28754    149280.87   -47371.213    4165.2796   -51536.492   0.14287571 
   96100     301.1186   -460.16389    149294.02   -47320.381    4135.1389    -51455.52   0.15666047 
   96200    297.53972   -499.36104    149304.81   -47340.788    4085.9915   -51426.779   0.14848605 
   96300    297.18701    -463.5294    149289.99   -47361.241     4081.148   -51442.389   0.15131497 
   96400    291.75588   -530.28785    149269.91   -47413.657    4006.5645   -51420.222   0.15624335 
   96500    298.17073   -481.13704    149274.84   -47407.908     4094.657   -51502.565    0.1480405 
   96600    292.03759   -465.49037     149264.9   -47454.362     4010.433   -51464.795   0.15150511 
   96700     293.3847   -508.75938    149264.87   -47426.385    4028.9324   -51455.318   0.15184208 
   96800    298.90728   -428.50967    149222.58   -47441.615    4104.7717   -51546.386   0.14903173 
   96900    296.18972   -465.08724    149249.55   -47457.124    4067.4525   -51524.577   0.14614807 
   97000    287.38019   -513.20895    149224.98   -47526.389    3946.4749   -51472.864   0.15605751 
   97100    292.86738   -493.72119    149247.64   -47497.713    4021.8283   -51519.541   0.14468573 
   97200    301.18725   -454.16119    149253.16   -47433.528    4136.0815   -51569.609   0.14741438 
   97300    297.91309   -457.99864    149285.68   -47323.239    4091.1189   -51414.357   0.14951103 
   97400    298.00882   -502.72241    149281.91   -47423.709    4092.4335   -51516.143   0.14839074 
   97500    297.05026   -553.82318    149278.62   -47391.656    4079.2701   -51470.926   0.15875028 
   97600    298.27995   -501.06044    149300.22   -47334.604    4096.1568   -51430.761   0.15580695 
   97700    299.61767   -516.82806    149328.24   -47293.675    4114.5271   -51408.202    0.1565334 
   97800    293.10834   -500.20423    149302.21   -47399.111    4025.1373   -51424.248   0.15192956 
   97900     299.4998   -510.94985    149310.38   -47359.521    4112.9085   -51472.429   0.15057015 
   98000    291.21791   -525.23837    149266.25   -47450.855    3999.1768   -51450.032   0.15209179 
   98100    293.38817   -507.75332    149266.66   -47432.142      4028.98   -51461.122   0.15341018 
   98200    298.57724   -457.22706    149264.94   -47424.567    4100.2393   -51524.807   0.14586007 
   98300    296.25774   -492.61181    149298.51   -47368.203    4068.3867    -51436.59   0.15631708 
   98400    289.83337   -497.31222    149284.78   -47404.463    3980.1634   -51384.627   0.14821587 
   98500    294.86575   -469.76485    149267.52   -47381.963     4049.271   -51431.234   0.15142645 
   98600     297.8865   -493.00272    149265.16   -47386.644    4090.7537   -51477.397   0.15470457 
   98700     298.6083   -504.76504    149299.06   -47361.661    4100.6659   -51462.327    0.1497662 
   98800    296.05277   -462.96023    149272.66   -47367.138    4065.5719   -51432.709   0.15180097 
   98900    297.75821   -507.93506    149285.44   -47430.178     4088.992    -51519.17   0.14430308 
   99000    296.50482   -518.11991    149264.74   -47425.223    4071.7797   -51497.003    0.1535342 
   99100    294.32243   -461.36121    149255.36   -47487.396    4041.8098   -51529.206   0.14424421 
   99200    291.30266   -522.21774    149267.66   -47494.078    4000.3406   -51494.418   0.15196728 
   99300    298.52696   -452.20625    149282.15   -47417.999    4099.5489   -51517.548    0.1429874 
   99400     293.9457   -487.81996    149277.64   -47463.008    4036.6364   -51499.645   0.14924345 
   99500    293.83679   -494.47669    149261.63   -47409.904    4035.1408   -51445.045   0.15274069 
   99600    290.08996   -529.18652    149266.47   -47409.131     3983.687   -51392.818   0.15234095 
   99700    289.43524    -466.3508    149260.01   -47452.722     3974.696   -51427.418    0.1522882 
   99800    295.15955   -546.65506    149282.04    -47470.98    4053.3057   -51524.286   0.14624806 
   99900    285.44964   -535.80215    149257.25    -47525.93    3919.9634   -51445.893   0.15444387 
  100000    289.77216   -520.09662    149266.42   -47435.996    3979.3228   -51415.318   0.15213604 
Loop time of 52.0556 on 6 procs for 100000 steps with 4608 atoms

Performance: 829.882 ns/day, 0.029 hours/ns, 1921.023 timesteps/s
97.9% CPU use with 6 MPI tasks x no OpenMP threads

MPI task timing breakdown:
Section |  min time  |  avg time  |  max time  |%varavg| %total
---------------------------------------------------------------
Pair    | 38.518     | 38.639     | 38.783     |   1.4 | 74.23
Neigh   | 6.3076     | 6.3811     | 6.514      |   3.7 | 12.26
Comm    | 4.1351     | 4.4248     | 4.6235     |   7.8 |  8.50
Output  | 0.1669     | 0.16775    | 0.17123    |   0.4 |  0.32
Modify  | 1.8164     | 1.872      | 1.9114     |   2.4 |  3.60
Other   |            | 0.5713     |            |       |  1.10

Nlocal:        768.000 ave         776 max         756 min
Histogram: 1 0 0 0 1 0 1 1 1 1
Nghost:        1402.83 ave        1410 max        1394 min
Histogram: 1 0 1 0 0 1 1 0 1 1
Neighs:        0.00000 ave           0 max           0 min
Histogram: 6 0 0 0 0 0 0 0 0 0
FullNghs:      21868.7 ave       22112 max       21498 min
Histogram: 1 0 0 1 0 0 1 1 1 1

Total # of neighbors = 131212
Ave neighs/atom = 28.474826
Neighbor list builds = 6332
Dangerous builds = 0

undump              1
unfix               2
unfix               3
unfix               4




################################################
#######         Run Simulation         #########
################################################

reset_timestep      0
log                 log.run_${NAME}
log                 log.run_ice_295K_-500atm_ML
