
# Set production fixes - Nose/Hoover
#
fix                 2 all nph iso ${PRES} ${PRES} ${PCOUPL}
fix                 2 all nph iso -500 ${PRES} ${PCOUPL}
fix                 2 all nph iso -500 -500 ${PCOUPL}
fix                 2 all nph iso -500 -500 10000.0
fix                 3 all temp/csvr ${TEMP} ${TEMP} ${TCOUPL} 837492
fix                 3 all temp/csvr 295 ${TEMP} ${TCOUPL} 837492
fix                 3 all temp/csvr 295 295 ${TCOUPL} 837492
fix                 3 all temp/csvr 295 295 5000.0 837492

# Define Order parameter
#
compute             2 all orientorder/atom nnn NULL cutoff 3.5
thermo              200
thermo_style        custom step temp press vol etotal ke pe c_1[4]

# Run 1ns simulation
dump		    1 all custom 400 prod.${NAME}.dump id type x y z vx vy vz c_2[*]
dump		    1 all custom 400 prod.ice_295K_-500atm_ML.dump id type x y z vx vy vz c_2[*]
run                 200000
Neighbor list info ...
  update every 1 steps, delay 0 steps, check yes
  max neighbors/atom: 2000, page size: 100000
  master list distance cutoff = 6.0032907
  ghost atom cutoff = 6.0032907
  binsize = 3.0016454, bins = 20 17 17
  2 neighbor lists, perpetual/occasional/extra = 1 1 0
  (1) pair sw, perpetual
      attributes: full, newton on
      pair build: full/bin/atomonly
      stencil: full/bin/3d
      bin: standard
  (2) compute orientorder/atom, occasional, copy from (1)
      attributes: full, newton on
      pair build: copy
      stencil: none
      bin: none
Per MPI rank memory allocation (min/avg/max) = 5.820 | 5.820 | 5.820 Mbytes
Step Temp Press Volume TotEng KinEng PotEng c_1[4] 
       0    289.77216   -519.52802    149266.42   -47436.015    3979.3228   -51415.337   0.15213604 
     200    297.31081   -466.48214    149283.54    -47426.56     4082.848   -51509.408   0.14661803 
     400    296.96535   -494.96665     149315.7   -47420.493    4078.1039   -51498.597   0.14685222 
     600    293.42698   -468.66706    149293.55   -47458.893    4029.5129   -51488.406   0.14935631 
     800    293.48775   -496.99293    149263.28   -47475.932    4030.3475    -51506.28   0.15178132 
    1000    295.80072   -510.77702    149327.04   -47489.066    4062.1106   -51551.177    0.1483776 
    1200    294.42433   -545.24148    149347.91   -47515.207    4043.2092   -51558.416    0.1416872 
    1400    295.41303    -456.9694    149293.32   -47506.274    4056.7865   -51563.061   0.14187541 
    1600    293.96536   -465.63492    149274.82     -47510.4    4036.9063   -51547.307    0.1446695 
    1800    294.07115   -532.27832    149354.39   -47516.609    4038.3591   -51554.968   0.14226101 
    2000    294.65708   -538.51521     149408.4   -47470.515    4046.4055   -51516.921   0.14325495 
    2200    298.49124   -497.45022    149331.94   -47439.783    4099.0584   -51538.841   0.14415348 
    2400    292.26509   -447.13689    149266.75   -47458.534    4013.5572   -51472.091   0.14707912 
    2600     289.1385   -534.21184    149339.05    -47504.27     3970.621   -51474.891   0.14418463 
    2800    290.63853   -599.81921    149385.01   -47520.846    3991.2204   -51512.066   0.14992571 
    3000    288.35954   -497.30335     149257.9   -47533.227     3959.924   -51493.151   0.15161207 
    3200    294.69062   -399.14574    149174.91   -47479.363     4046.866   -51526.229   0.14668736 
    3400    292.58409    -541.8671    149356.61   -47517.867    4017.9379   -51535.805   0.14555157 
    3600     286.5402   -646.74386    149380.56   -47546.501    3934.9396    -51481.44   0.15439683 
    3800    295.08733   -378.65005    149122.02   -47473.957    4052.3139   -51526.271   0.14855539 
    4000    289.97528     -445.157    149202.02   -47466.697    3982.1122    -51448.81   0.14596116 
    4200    293.89601   -643.70355     149503.4    -47481.02     4035.954   -51516.974    0.1463348 
    4400    290.46138   -537.33429    149325.24   -47467.409    3988.7876   -51456.197   0.14935364 
    4600    295.08615   -300.92674    149003.43    -47450.18    4052.2977   -51502.478    0.1466153 
    4800    292.29143   -504.83119    149287.79    -47439.17    4013.9189   -51453.089   0.14912174 
    5000    293.28189   -711.98403    149631.43   -47414.037    4027.5204   -51441.557   0.15757641 
    5200    293.30113   -482.89843    149261.84   -47418.851    4027.7847   -51446.636   0.15378396 
    5400    301.32607    -225.6123    148980.94   -47382.629    4137.9879   -51520.617   0.14510876 
    5600     291.9718   -595.70104     149484.7   -47362.679    4009.5296   -51372.209   0.15441621 
    5800    295.52168   -772.17109    149706.14   -47349.744    4058.2786   -51408.022    0.1583877 
    6000    297.73158   -332.11548    149101.15   -47340.072    4088.6263   -51428.698   0.15065711 
    6200    297.78228   -198.57788    148959.88   -47334.658    4089.3226   -51423.981   0.14669755 
    6400    300.33136   -720.25838    149614.04   -47298.057     4124.328   -51422.385    0.1499753 
    6600     294.5077   -773.07234     149652.3   -47336.252    4044.3541   -51380.606    0.1568548 
    6800    301.10412    -278.3436    148952.76   -47382.555      4134.94   -51517.495   0.15154531 
    7000    296.34984   -258.55151    148966.84   -47385.228    4069.6514    -51454.88   0.14913608 
    7200    297.42695   -768.20585    149637.86   -47327.452    4084.4429   -51411.895   0.15943802 
    7400    291.83575   -697.30364    149557.18   -47310.996    4007.6613   -51318.658   0.15924275 
    7600    298.08857   -253.53576    148963.18   -47350.778    4093.5287   -51444.307   0.15326459 
    7800    297.01434   -359.41497    149146.53   -47378.599    4078.7767   -51457.376   0.14832048 
    8000    298.29077   -766.65935    149655.82   -47340.419    4096.3054   -51436.725   0.15480704 
    8200    294.78185   -577.82067    149399.55   -47378.173    4048.1188   -51426.291   0.15599632 
    8400    300.31955   -261.13685    148972.09    -47408.85    4124.1658   -51533.016   0.14379075 
    8600    302.65602   -435.75509    149298.24   -47365.805    4156.2516   -51522.057   0.14944249 
    8800     302.3901   -706.56273    149674.94   -47291.491    4152.5999    -51444.09   0.15577453 
    9000    302.11407   -487.27221    149324.81   -47273.153    4148.8093   -51421.962   0.15491473 
    9200    298.39682   -271.05234    149061.96   -47259.572    4097.7618   -51357.334   0.15403689 
    9400    303.29067    -569.1035    149421.16   -47310.033     4164.967       -51475   0.15913936 
    9600    292.90008   -678.66023    149561.84   -47296.056    4022.2773   -51318.333   0.16944848 
    9800    298.77289   -411.60429    149198.87   -47316.685    4102.9262   -51419.612   0.15347171 
   10000    299.29758   -348.70835    149122.06   -47313.356    4110.1315   -51423.487   0.15127914 
   10200    296.44241   -616.00795    149448.62   -47302.669    4070.9227   -51373.592   0.16430151 
   10400    299.18648   -599.67807     149431.9   -47289.394    4108.6059       -51398   0.16121598 
   10600    303.82521    -334.5515    149154.31   -47273.088    4172.3076   -51445.395   0.14673773 
   10800    301.38938    -434.8882    149225.84   -47305.254    4138.8573   -51444.111   0.15019306 
   11000    299.17138   -599.32114    149441.34   -47345.851    4108.3984    -51454.25   0.16058935 
   11200    297.19718   -481.61086    149316.31   -47363.654    4081.2876   -51444.942   0.16008685 
   11400    294.34194   -376.88244    149168.96   -47391.886    4042.0778   -51433.964   0.15534026 
   11600    298.51426   -498.00243    149332.07     -47362.6    4099.3746   -51461.975   0.15837422 
   11800    296.38953   -568.35203    149466.63   -47436.075    4070.1965   -51506.272   0.15318615 
   12000    291.94016   -532.37788    149298.46   -47438.115    4009.0951    -51447.21    0.1564568 
   12200    293.04001   -414.05583     149174.1   -47416.911    4024.1988    -51441.11   0.15848588 
   12400    297.07379   -561.42509    149344.92   -47383.429    4079.5932   -51463.023   0.16039846 
   12600    295.12751   -590.94632    149374.55   -47393.496    4052.8656   -51446.362   0.15383206 
   12800    296.82356   -461.09259    149179.97   -47405.711    4076.1568   -51481.868   0.15082415 
   13000    300.28839   -415.99486    149193.92   -47386.149    4123.7379   -51509.887    0.1517975 
   13200    296.40645   -554.96896    149407.35   -47355.198    4070.4288   -51425.627   0.16264324 
   13400    294.62097    -555.5637    149364.75   -47374.663    4045.9095   -51420.572   0.16229344 
   13600    293.08101   -430.73708    149173.08   -47366.769    4024.7619   -51391.531   0.15784857 
   13800    300.53976   -468.56776    149236.43   -47361.131    4127.1898   -51488.321   0.15898946 
   14000    297.55801   -584.16707    149382.77   -47380.035    4086.2427   -51466.278   0.15839795 
   14200     298.3645   -539.30816    149292.25   -47408.065    4097.3179   -51505.383   0.15603868 
   14400    294.03269   -451.56415    149186.39   -47433.332    4037.8309   -51471.163   0.15408574 
   14600    291.14837   -526.44496    149285.41   -47428.313    3998.2218   -51426.535   0.15854923 
   14800    295.60799   -541.12722    149362.83    -47410.28    4059.4639   -51469.744    0.1548385 
   15000    292.52234   -488.42515    149274.86    -47463.49    4017.0899    -51480.58   0.14700861 
   15200    297.30076   -461.41084    149203.65   -47519.283    4082.7099   -51601.992   0.15272068 
   15400    292.83142   -474.21255    149270.56   -47534.879    4021.3344   -51556.213   0.15677698 
   15600    287.48287   -559.55923    149308.45   -47571.511     3947.885   -51519.396   0.15601527 
   15800    299.06795   -455.89866    149239.16    -47523.61    4106.9781   -51630.589   0.14883438 
   16000    287.70829   -514.48815     149226.8    -47508.14    3950.9806    -51459.12   0.16045992 
   16200    290.10557   -524.03456    149283.43   -47454.217    3983.9014   -51438.118   0.15988224 
   16400    295.38559   -515.16636    149305.12   -47450.635    4056.4097   -51507.045    0.1448824 
   16600    294.17327   -499.55288    149252.01   -47468.455    4039.7614   -51508.216    0.1534437 
   16800    292.91893    -528.2578    149256.94   -47422.673    4022.5361    -51445.21   0.16417784 
   17000    295.20531   -524.32328     149299.3   -47446.157    4053.9341   -51500.091   0.15498396 
   17200    297.05661   -508.99706    149298.84   -47428.714    4079.3572   -51508.071   0.14922646 
   17400    293.52304   -468.68474    149258.47    -47475.24    4030.8321   -51506.072   0.15185676 
   17600     298.3017   -462.34538    149219.84   -47514.533    4096.4554   -51610.989   0.15704317 
   17800    288.90936   -546.62345    149239.54    -47531.91    3967.4743   -51499.384   0.15973127 
   18000    289.89721   -509.16028    149254.04   -47566.023    3981.0401   -51547.063   0.15370159 
   18200    288.52391   -524.76743     149228.4   -47591.661    3962.1811   -51553.842   0.15306621 
   18400    284.71946   -451.43764    149142.23   -47612.038    3909.9361   -51521.974   0.14815565 
   18600    289.34241   -463.63981    149188.39   -47568.468    3973.4213   -51541.889   0.14548087 
   18800    292.34942   -607.32593    149346.08   -47501.181    4014.7153   -51515.896   0.15452071 
   19000    289.69074   -559.21274    149315.57   -47529.902    3978.2047   -51508.106   0.15848963 
   19200      293.583   -437.00762    149164.06   -47504.631    4031.6555   -51536.286   0.15072378 
   19400    289.50245   -496.40236    149217.71   -47495.072     3975.619   -51470.691   0.15056721 
   19600    291.72249   -584.66827    149351.87   -47522.621    4006.1058   -51528.727    0.1512067 
   19800    295.17012    -483.2778    149245.66   -47520.757    4053.4509   -51574.208   0.15998713 
   20000    291.84888   -445.94985    149131.62   -47510.346    4007.8416   -51518.187   0.15680345 
   20200    289.72181   -523.80588    149264.65   -47534.007    3978.6314   -51512.638   0.14935183 
   20400     293.9072   -488.51006    149312.63   -47511.794    4036.1077   -51547.901   0.14541402 
   20600    292.81557   -438.58617     149216.9   -47508.176    4021.1167   -51529.292   0.14676251 
   20800    287.60236    -480.0083    149191.84   -47511.133    3949.5259   -51460.659    0.1515257 
   21000    291.68798    -537.8447    149271.99   -47505.198     4005.632    -51510.83   0.15158237 
   21200    293.93271   -538.06783    149293.65   -47494.863    4036.4579   -51531.321   0.15707329 
   21400    293.95176   -450.27992    149228.89   -47491.948    4036.7195   -51528.667   0.15100471 
   21600    296.06823    -474.6727    149260.23   -47446.407    4065.7842   -51512.191   0.14831598 
   21800     297.0671   -556.12145       149361   -47396.379    4079.5013    -51475.88   0.15279965 
   22000    300.13159   -499.67504    149336.63   -47404.018    4121.5846   -51525.603   0.15282215 
   22200    299.03628   -471.85633    149263.09    -47363.03    4106.5431   -51469.573   0.15408461 
   22400    296.93241   -499.34473    149327.38   -47339.203    4077.6516   -51416.855   0.14934321 
   22600    300.55297   -567.23857    149418.94   -47346.998    4127.3713   -51474.369   0.15142811 
   22800     293.3899   -506.37838    149334.68   -47383.981    4029.0038   -51412.985   0.15105406 
   23000    297.44786   -388.60249    149210.03   -47403.263    4084.7301   -51487.993   0.14675861 
   23200    297.57535   -497.31279    149296.56   -47396.649    4086.4809    -51483.13   0.15337874 
   23400    293.45785    -596.1325    149405.15   -47404.376    4029.9369   -51434.313   0.15909164 
   23600    297.54997   -469.43999    149263.75   -47423.972    4086.1323   -51510.104   0.15319286 
   23800    298.00844   -388.58968    149182.06   -47362.085    4092.4283   -51454.513   0.14611265 
   24000    297.28733   -545.93692    149362.07   -47399.469    4082.5256   -51481.994   0.14822848 
   24200    296.56262   -565.67941    149406.07    -47381.56    4072.5734   -51454.134   0.15514744 
   24400    293.24586   -429.04664    149211.45   -47387.328    4027.0257   -51414.354   0.15391204 
   24600    297.81116   -363.68033    149176.83   -47388.572    4089.7192   -51478.291   0.14751128 
   24800    303.38508   -574.76289    149425.63   -47309.622    4166.2635   -51475.885   0.14719362 
   25000    298.60679   -629.26075    149435.85   -47306.761    4100.6452   -51407.406   0.15475974 
   25200    296.03877   -384.22927    149115.33   -47333.523    4065.3796   -51398.903   0.15288981 
   25400    296.98402   -405.41164    149136.61   -47397.688    4078.3604   -51476.048   0.15313139 
   25600    294.40594   -649.13519     149481.8   -47417.777    4042.9566   -51460.734   0.15809227 
   25800    293.96179   -609.48927    149436.57   -47394.551    4036.8573   -51431.409   0.15246928 
   26000    295.33826   -331.09784     149100.9   -47375.113    4055.7597   -51430.872   0.14386996 
   26200    297.96028   -394.92838    149211.73   -47422.832     4091.767   -51514.599   0.14747601 
   26400    296.36592   -666.32502    149542.19   -47443.186    4069.8722   -51513.058   0.15597606 
   26600    292.00428    -579.7113    149352.25   -47453.417    4009.9756   -51463.393   0.15653326 
   26800      297.064   -249.98075    148999.91   -47460.943    4079.4587   -51540.401   0.14246529 
   27000    296.48422   -464.86868    149257.43   -47459.786    4071.4968   -51531.282   0.14284419 
   27200    292.59792   -718.72549    149590.06    -47450.43    4018.1278   -51468.557   0.15093005 
   27400    293.91398      -491.43    149254.14   -47417.491    4036.2008   -51453.692   0.15088622 
   27600    292.89665   -299.59854    148977.88   -47423.966    4022.2301   -51446.196   0.15455789 
   27800    292.73516    -601.9452    149387.19   -47418.041    4020.0124   -51438.053   0.15832508 
   28000    293.50636   -717.11998    149616.08   -47403.235    4030.6031   -51433.838   0.15233086 
   28200    292.76831   -381.47937    149149.98    -47425.92    4020.4677   -51446.388   0.14857332 
   28400    297.02138     -216.576    148967.79   -47423.382    4078.8734   -51502.255   0.14652704 
   28600    289.10221   -677.43199    149515.84   -47440.878    3970.1227       -51411   0.15438607 
   28800    289.44321   -751.89871    149596.06   -47451.798    3974.8055   -51426.604   0.15678289 
   29000    296.50393   -276.06101    148974.84   -47492.792    4071.7675    -51564.56     0.139955 
   29200    291.91213   -295.82913     148966.2   -47529.815    4008.7101   -51538.526   0.14717757 
   29400     286.6698   -748.10593    149595.65   -47524.856    3936.7193   -51461.575   0.15065957 
   29600    290.03601   -675.00232    149479.32   -47485.762    3982.9462   -51468.708   0.15347183 
   29800    297.83084   -212.29483    148859.68   -47410.827    4089.9893   -51500.816   0.15446991 
   30000     298.7536   -368.65009    149095.77   -47400.981    4102.6613   -51503.643   0.15526418 
   30200     293.1303   -848.07088    149682.94   -47403.058    4025.4388   -51428.497   0.16263992 
   30400    298.15309   -565.23947    149313.72   -47459.302    4094.4146   -51553.716   0.15081761 
   30600    296.14714   -135.90984    148769.38   -47407.975    4066.8677   -51474.843   0.14811722 
   30800    292.30881   -519.10286    149274.34   -47372.718    4014.1575   -51386.876   0.15720546 
   31000    293.42991   -853.64924    149739.56   -47354.303    4029.5532   -51383.856   0.15726271 
   31200    295.64173   -463.71087    149170.46   -47361.889    4059.9273   -51421.817    0.1498368 
   31400    296.32758   -164.46877    148834.04   -47362.479    4069.3457   -51431.825   0.15059258 
   31600    292.04652   -620.46137    149442.05   -47420.835    4010.5556   -51431.391   0.15831763 
   31800    295.63702   -770.14295    149641.54   -47390.335    4059.8626   -51450.197   0.15845292 
   32000    298.97912   -335.07624    149072.09   -47365.078    4105.7583   -51470.837   0.15819942 
   32200    297.29279   -295.94164    149018.72    -47401.69    4082.6005   -51484.291   0.15497948 
   32400    297.93581   -658.73098    149555.76   -47391.891    4091.4308   -51483.322    0.1503266 
   32600    296.17114   -622.33682     149509.5   -47377.274    4067.1974   -51444.471   0.14660872 
   32800    292.90776   -316.20357    149059.14    -47377.09    4022.3827   -51399.472    0.1537865 
   33000    297.74523   -409.41775    149166.34    -47366.38    4088.8137   -51455.194   0.15890151 
   33200    295.95644   -651.28331    149505.71   -47357.858     4064.249   -51422.107   0.15049036 
   33400    294.34409   -560.37974    149348.53   -47319.001    4042.1072   -51361.108   0.15122362 
   33600    296.37225   -357.11375    149124.99   -47252.481    4069.9591   -51322.441   0.15608059 
   33800    295.77921   -529.67282     149318.8   -47288.734    4061.8152   -51350.549   0.16393877 
   34000    296.22228   -622.97391    149422.23   -47308.773    4067.8997   -51376.673   0.16208262 
   34200    296.96943   -489.05205    149216.85   -47342.113      4078.16   -51420.273   0.16082146 
   34400    297.66731   -378.28145    149142.01   -47409.878    4087.7437   -51497.622   0.15109614 
   34600    296.00075     -584.838    149340.07   -47382.261    4064.8574   -51447.118   0.14872183 
   34800    297.45037   -571.98671     149378.6   -47422.533    4084.7646   -51507.297   0.14811954 
   35000    291.81642   -455.85644    149169.31    -47448.43    4007.3959   -51455.826   0.15420722 
   35200    297.50644   -463.83292    149147.12   -47436.832    4085.5346   -51522.366   0.15560863 
   35400    296.80355   -536.96632    149369.92    -47394.31    4075.8821   -51470.192   0.14853877 
   35600    295.90852   -607.95768    149399.23   -47387.936    4063.5909   -51451.527   0.15108817 
   35800     298.5961   -412.25573    149163.52   -47390.078    4100.4984   -51490.576   0.15247902 
   36000    295.89664   -414.71582    149175.55   -47391.384    4063.4278   -51454.811   0.15403767 
   36200    296.64576   -591.00173    149410.84   -47405.574    4073.7151   -51479.289   0.15634893 
   36400    290.57004    -581.9785    149354.85   -47433.071    3990.2797    -51423.35   0.15545271 
   36600    292.12746   -393.25177    149141.51    -47409.46    4011.6672   -51421.127   0.14973259 
   36800    292.28192   -480.21669    149231.14   -47453.869    4013.7883   -51467.657   0.14343101 
   37000    297.30897   -587.47462    149374.38   -47441.118    4082.8227   -51523.941   0.14914541 
   37200    294.13721   -505.41186    149233.13    -47401.21    4039.2663   -51440.477   0.15901476 
   37400    295.56827   -384.89411    149102.91   -47393.105    4058.9184   -51452.024   0.15717732 
   37600    296.61749   -488.17975     149288.3   -47419.294     4073.327   -51492.621   0.15234422 
   37800     293.8515   -577.98689    149417.54   -47381.132    4035.3428   -51416.475   0.15036441 
   38000     295.9511   -463.49951     149219.9   -47438.228    4064.1757   -51502.403   0.14975648 
   38200    295.06773   -383.93082    149141.48   -47432.557    4052.0447   -51484.602   0.14951124 
   38400    295.63058   -547.88445    149362.64   -47395.369    4059.7741   -51455.143   0.15197599 
   38600     294.7402   -594.62312    149433.79   -47391.263    4047.5469    -51438.81   0.15340761 
   38800    296.61529   -452.33549    149175.56    -47445.63    4073.2967   -51518.927   0.15163394 
   39000    294.42167   -368.33755    149113.25   -47474.109    4043.1727   -51517.281   0.14604956 
   39200    291.87221    -588.5464     149382.2   -47492.924    4008.1619   -51501.086   0.14577111 
   39400    290.37663   -606.70917    149395.82   -47482.871    3987.6238   -51470.495    0.1541689 
   39600    288.65055   -377.85703    149089.53   -47557.306    3963.9202   -51521.226   0.15199121 
   39800    287.27576   -351.57245    149104.72   -47546.957    3945.0408   -51491.998   0.14851154 
   40000    290.75988   -651.51093    149477.45   -47556.236    3992.8867   -51549.123   0.14801576 
   40200     291.0879   -587.83706    149380.07   -47532.019    3997.3914    -51529.41   0.14542385 
   40400    292.04947   -238.13432    148964.35   -47529.554    4010.5962    -51540.15   0.14437176 
   40600    295.27544   -432.79879    149143.42   -47559.613    4054.8972   -51614.511   0.14450384 
   40800    287.78171    -796.1395    149582.01   -47574.253    3951.9888   -51526.242   0.15327072 
   41000    293.71415   -572.46216    149300.41   -47531.577    4033.4566   -51565.033   0.15107106 
   41200    289.76548   -208.06897    148851.86   -47567.805     3979.231   -51547.036    0.1451089 
   41400    292.41265    -459.2985    149259.38   -47530.019    4015.5835   -51545.603   0.14644677 
   41600    293.79769   -831.88308    149673.67   -47520.912    4034.6037   -51555.515   0.15551035 
   41800    284.57972   -409.15836    149118.51   -47522.772    3908.0171   -51430.789   0.15631492 
   42000    292.11337   -120.69258    148719.06   -47498.244    4011.4737   -51509.718   0.14987466 
   42200    294.03152   -591.54298    149384.08   -47521.954    4037.8148   -51559.769   0.14917105 
   42400    287.67132   -899.62735    149696.71   -47568.972    3950.4729   -51519.444     0.156487 
   42600    286.12764   -370.97679    148959.42   -47602.224    3929.2742   -51531.499   0.15251304 
   42800    288.22568   -147.94624    148770.41   -47603.184    3958.0856    -51561.27   0.14674629 
   43000    289.56657   -730.21451    149502.47   -47551.783    3976.4996   -51528.282   0.15295327 
   43200    288.41578    -793.6142    149581.72   -47553.863    3960.6962   -51514.559   0.15357712 
   43400    289.36856    -250.9296    148891.66   -47549.781    3973.7803   -51523.562   0.14695213 
   43600    291.00779   -254.72913    148914.95   -47545.624    3996.2913   -51541.915    0.1478714 
   43800    291.74896   -775.17549    149546.63   -47513.368    4006.4694   -51519.837   0.16129625 
   44000     291.1886   -668.99807    149445.03   -47532.464    3998.7742   -51531.239   0.15571008 
   44200    285.39087   -271.58781     148910.2   -47579.433    3919.1564   -51498.589   0.14868172 
   44400    292.91432   -415.72446    149052.73   -47554.325    4022.4728   -51576.798   0.15182817 
   44600    289.77525   -678.20881    149500.81   -47485.216    3979.3653   -51464.581   0.15249573 
   44800    292.69851   -555.02125    149331.94   -47451.745    4019.5092   -51471.254   0.15070536 
   45000    290.72394   -344.29095    148989.68   -47490.424    3992.3932   -51482.817   0.14926379 
   45200    289.24628   -455.00606    149175.01   -47510.558    3972.1011   -51482.659   0.14807229 
   45400     290.5189   -654.52042    149433.47   -47558.477    3989.5775   -51548.054   0.14981845 
   45600    295.12256   -500.20825    149256.58   -47548.535    4052.7976   -51601.333   0.14485023 
   45800    292.50592   -391.99021    149092.32   -47523.802    4016.8644   -51540.666    0.1493053 
   46000    290.90743   -526.13682    149284.91   -47520.377    3994.9131    -51515.29   0.15128438 
   46200    288.37788   -641.19992    149415.29   -47552.225    3960.1757     -51512.4   0.15048848 
   46400     289.0355   -469.66102    149188.95   -47536.505    3969.2065   -51505.712   0.15182048 
   46600    295.82598   -381.22221    149109.43   -47535.811    4062.4575   -51598.269   0.14689056 
   46800    292.47363    -565.7223       149309   -47497.735     4016.421   -51514.157   0.14990396 
   47000    290.92361   -556.56566    149332.03   -47475.641    3995.1352   -51470.776   0.14793861 
   47200    293.44014   -468.25062    149208.92   -47447.115    4029.6936   -51476.809   0.15120177 
   47400    300.32014   -470.48885    149236.93   -47376.835     4124.174   -51501.009   0.15135907 
   47600    297.57964   -552.67644    149363.51   -47349.637    4086.5397   -51436.177   0.15391591 
   47800    298.05926   -527.31066    149321.29   -47318.002    4093.1262   -51411.128   0.15121912 
   48000    300.25625   -499.40202    149232.94   -47323.762    4123.2966   -51447.058   0.15684062 
   48200    296.19916    -486.8439    149311.65   -47322.921    4067.5822   -51390.503   0.15558233 
   48400     295.9129    -578.9105    149403.45   -47302.007    4063.6512   -51365.659   0.16204749 
   48600     296.0964   -551.32669       149334   -47366.586     4066.171   -51432.757   0.15813477 
   48800    296.78187   -440.81034    149230.65    -47307.65    4075.5843   -51383.234   0.14829147 
   49000    300.61819   -435.51061    149303.07   -47283.752    4128.2669   -51412.019   0.14884036 
   49200    294.40439   -514.89601    149375.42   -47317.032    4042.9353   -51359.967   0.15214697 
   49400    296.30532   -481.00027    149303.36   -47328.187      4069.04   -51397.227   0.15175617 
   49600    299.64575   -473.95934    149251.69   -47346.987    4114.9128     -51461.9   0.15139085 
   49800    299.26741   -486.88671    149298.62   -47326.376    4109.7173   -51436.094   0.15198881 
   50000    296.24418   -516.55557    149343.92   -47325.986    4068.2005   -51394.187   0.15237404 
   50200    295.36096   -473.87223    149272.47   -47364.788    4056.0716    -51420.86   0.15400374 
   50400    297.88452   -429.10311    149234.47   -47370.901    4090.7266   -51461.628   0.15847902 
   50600     290.2017   -576.01563    149344.33   -47391.944    3985.2216   -51377.166   0.15853549 
   50800    299.12774   -549.15167    149341.22   -47404.247    4107.7991   -51512.046   0.14800571 
   51000    296.50088   -397.26917    149173.76    -47339.51    4071.7256   -51411.236   0.15100353 
   51200    295.75614   -472.53214    149228.09   -47370.713    4061.4984   -51432.212   0.15374946 
   51400    294.33056   -596.89875    149401.82   -47330.935    4041.9215   -51372.856    0.1584104 
   51600    300.67219   -488.01903    149312.63     -47334.1    4129.0085   -51463.109   0.15260652 
   51800    301.47655   -401.60723    149164.46     -47332.7    4140.0544   -51472.755   0.15287211 
   52000    300.67644   -496.96435    149311.75   -47291.605    4129.0668   -51420.672   0.15434367 
   52200    303.00417   -639.77567    149457.24   -47262.632    4161.0326   -51423.665   0.15969391 
   52400    303.94592   -460.98471    149294.24   -47244.122    4173.9653   -51418.087   0.15931929 
   52600    298.64976    -398.3425    149180.74    -47284.56    4101.2353   -51385.796   0.15479803 
   52800    300.25875   -549.14806       149365   -47303.105    4123.3309   -51426.436   0.15241005 
   53000    294.35366   -646.45395     149407.7   -47307.224    4042.2386   -51349.463   0.15796003 
   53200    305.26737   -345.08843    149171.54   -47317.276    4192.1122   -51509.388   0.14522073 
   53400    296.54948    -411.9954    149205.43   -47347.114    4072.3929   -51419.507   0.14872977 
   53600    297.55903    -655.8507    149430.55   -47372.657    4086.2568   -51458.914   0.15286206 
   53800    296.95017   -507.45194    149314.68   -47349.264    4077.8954   -51427.159   0.15368655 
   54000    297.97742    -360.9532    149115.75   -47341.088    4092.0022    -51433.09   0.15525458 
   54200    299.84692   -516.75655     149296.2   -47348.641    4117.6754   -51466.316   0.15781083 
   54400    297.68074    -626.8089    149438.81   -47374.546    4087.9281   -51462.474   0.16020811 
   54600    293.32537   -446.85889    149154.97   -47369.901    4028.1176   -51398.019   0.15918114 
   54800    296.97208   -323.81507    149049.83   -47314.205    4078.1964   -51392.402   0.15971332 
   55000     294.2451   -657.95835    149435.99   -47313.708    4040.7479   -51354.455   0.16160937 
   55200    302.25676   -648.00029    149450.55    -47343.35    4150.7688   -51494.119    0.1567507 
   55400    297.73282    -319.3662    148971.09   -47369.768    4088.6433   -51458.412    0.1569198 
   55600    299.20094   -329.45796    149033.47   -47407.471    4108.8045   -51516.276   0.14995254 
   55800    295.81146   -650.26709    149561.77    -47373.89     4062.258   -51436.148   0.15794075 
   56000    296.38144   -656.59035    149454.86   -47359.363    4070.0853   -51429.448   0.15979736 
   56200    297.86913   -202.85441    148911.27   -47397.803    4090.5153   -51488.318   0.15236123 
   56400    295.05874   -418.85473    149101.05   -47400.682    4051.9212   -51452.603   0.15951802 
   56600    292.21134   -774.03982     149626.2   -47399.354    4012.8191   -51412.173   0.15685663 
   56800    303.80012   -543.22336     149357.1   -47351.694    4171.9631   -51523.657   0.15112467 
   57000    299.31419   -246.15251    148908.49   -47362.312    4110.3596   -51472.671   0.15045962 
   57200    297.77959   -511.49578    149266.36   -47391.125    4089.2856   -51480.411   0.15139096 
   57400    295.66211   -769.08341    149586.38   -47405.852    4060.2072   -51466.059    0.1505487 
   57600    296.95482   -428.51214    149151.04   -47399.206    4077.9594   -51477.165   0.15130182 
   57800    297.22742   -233.35025    148940.65   -47413.946    4081.7028   -51495.649   0.15150193 
   58000    293.84767   -653.57162    149402.76   -47424.811    4035.2901   -51460.101   0.16075917 
   58200    291.23383   -697.08171    149483.72   -47463.591    3999.3953   -51462.986   0.15746482 
   58400    293.45607   -305.22034    148991.97   -47458.778    4029.9124    -51488.69   0.15441411 
   58600    294.89562   -307.16531    149004.57   -47438.039    4049.6812   -51487.721   0.15569646 
   58800    297.04213    -690.1073     149489.5   -47466.894    4079.1583   -51546.053   0.15208433 
   59000     293.0173    -633.6175    149358.65   -47491.234     4023.887   -51515.121   0.15488296 
   59200    293.52576   -268.05995    148904.05   -47494.279    4030.8695   -51525.149   0.14851955 
   59400    295.85414   -412.43442    149135.67   -47435.299    4062.8441   -51498.143   0.14864626 
   59600    291.08867   -784.37694    149567.46    -47427.19    3997.4018   -51424.592   0.15578797 
   59800    295.09398   -547.78371    149252.26   -47415.272    4052.4052   -51467.677   0.16413968 
   60000    295.77654   -235.18652    148896.36   -47404.116    4061.7785   -51465.895   0.15788645 
   60200    295.90297   -551.38626    149270.64   -47375.205    4063.5147   -51438.719   0.15502156 
   60400    299.59668   -722.30915    149580.95   -47339.152     4114.239   -51453.391   0.15410613 
   60600    300.60041   -434.77206    149206.47   -47384.025    4128.0227   -51512.048   0.14780516 
   60800    300.61055   -252.22741    148982.28   -47323.633    4128.1621   -51451.795   0.14986861 
   61000    296.03266   -588.11158    149402.08   -47362.264    4065.2957   -51427.559   0.14854396 
   61200    298.73721   -701.07682    149572.03    -47365.69    4102.4362   -51468.126   0.15028854 
   61400    298.59459   -360.30636    149124.83   -47365.688    4100.4776   -51466.165   0.14566873 
   61600    295.07119   -288.01092    149028.85   -47357.843    4052.0923   -51409.936   0.15006089 
   61800    299.23985   -642.25564    149503.97   -47356.007    4109.3388   -51465.346   0.15693661 
   62000    294.81355   -680.09975    149504.38   -47380.409    4048.5541   -51428.963   0.15750451 
   62200    294.87252   -280.19196    149043.63   -47395.786    4049.3639    -51445.15   0.15066532 
   62400    299.94198   -346.82699    149104.93   -47356.209    4118.9808    -51475.19    0.1499966 
   62600    301.69503   -683.82585    149539.75   -47374.655    4143.0547   -51517.709   0.15352701 
   62800    293.60266   -565.80714    149409.53   -47350.486    4031.9256   -51382.412   0.15256914 
   63000    301.99421   -279.24959    149023.91   -47321.244    4147.1632   -51468.407   0.14767448 
   63200    296.33515   -459.32686    149218.33   -47324.722    4069.4497   -51394.172   0.15389288 
   63400    300.00633   -718.72511    149550.27   -47278.257    4119.8645   -51398.121   0.15642954 
   63600    299.03046   -507.02272    149327.32   -47258.827    4106.4633    -51365.29   0.15515229 
   63800    299.20371   -293.36368    149032.81   -47290.379    4108.8425   -51399.221   0.15223527 
   64000    292.56994    -524.0089    149288.33   -47280.836    4017.7435   -51298.579   0.15643657 
   64200    300.81965   -705.97656    149543.17   -47281.116    4131.0335    -51412.15   0.15736453 
   64400    307.16367   -467.35588    149254.67    -47271.04    4218.1533   -51489.193   0.15357941 
   64600    298.20521   -362.05718    149047.42   -47328.126    4095.1305   -51423.256   0.15376674 
   64800    296.67179    -553.3605    149331.73   -47337.719    4074.0727   -51411.792   0.15048131 
   65000    296.90731   -662.69694    149509.78   -47324.513     4077.307    -51401.82   0.14873096 
   65200    298.56358    -436.6658    149221.33   -47355.369    4100.0518   -51455.421   0.14892725 
   65400    299.65161   -334.11024    149088.69   -47383.234    4114.9933   -51498.227   0.15096932 
   65600    292.32343   -660.47874    149385.46   -47405.543    4014.3583   -51419.901   0.15832423 
   65800    292.94475   -642.94681    149438.27   -47378.498    4022.8907   -51401.388   0.15895264 
   66000    296.24716   -393.16219    149112.44   -47380.409    4068.2413   -51448.651   0.14996185 
   66200    293.29258   -416.82057    149115.54   -47406.947    4027.6673   -51434.614   0.15619283 
   66400    296.41169   -645.25275    149441.87   -47399.789    4070.5008   -51470.289   0.15676586 
   66600     296.4393   -612.93971    149353.73   -47413.563    4070.8799   -51484.443   0.15755288 
   66800    292.92019   -317.36023    148973.48   -47397.272    4022.5534   -51419.825   0.15526709 
   67000    299.87166    -400.6874    149189.51   -47427.166    4118.0151   -51545.181   0.14427419 
   67200    291.91718   -765.50651    149593.62   -47444.564    4008.7794   -51453.343   0.15498471 
   67400    293.67882   -481.70094     149250.5   -47480.571    4032.9714   -51513.543   0.14776188 
   67600    296.65695   -184.19862    148851.97   -47438.164    4073.8688   -51512.033   0.15224353 
   67800    295.24997   -492.68665    149323.21   -47382.917    4054.5474   -51437.465   0.15657202 
   68000    296.02959   -830.97816    149730.84    -47373.82    4065.2535   -51439.074    0.1565103 
   68200    297.51105   -425.58919    149158.78   -47452.204    4085.5978   -51537.802   0.14612758 
   68400    297.08766   -123.54962    148785.48   -47396.732    4079.7836   -51476.516   0.14887141 
   68600     299.6806   -649.47998    149475.01   -47378.273    4115.3914   -51493.664   0.15544857 
   68800    298.49181   -882.02179    149753.86   -47341.143    4099.0662   -51440.209   0.15818932 
   69000    299.65519   -293.47966    148981.21   -47393.455    4115.0424   -51508.497   0.14641276 
   69200    300.13631   -146.01606    148829.54   -47400.817    4121.6495   -51522.467   0.14702073 
   69400    294.46263   -795.63845     149634.7   -47433.279    4043.7352   -51477.014    0.1538963 
   69600    291.11238   -783.44778    149644.34   -47444.837    3997.7275   -51442.565   0.15434913 
   69800    293.77839   -200.08417    148875.35   -47417.222    4034.3387   -51451.561    0.1535495 
   70000    296.33478   -269.00855    149022.17   -47378.255    4069.4446     -51447.7    0.1513151 
   70200    294.27286   -819.56099    149736.88    -47354.89    4041.1291   -51396.019   0.15633203 
   70400    298.31765   -621.80337    149516.11   -47371.834    4096.6745   -51468.509   0.15036406 
   70600    299.14818   -194.91438    148927.22   -47347.637    4108.0799   -51455.717   0.14947821 
   70800    297.42196   -447.63082    149215.25    -47372.94    4084.3744   -51457.315   0.15435249 
   71000    295.94649   -753.43712    149673.72   -47414.101    4064.1124   -51478.213   0.15177348 
   71200    294.76473   -540.28857    149322.29   -47426.035    4047.8838   -51473.919   0.15781418 
   71400    300.04523   -241.99397    148958.39   -47395.187    4120.3987   -51515.586   0.14442324 
   71600     300.2093   -545.80592    149307.74   -47370.586    4122.6517   -51493.238   0.14757071 
   71800    295.09261   -730.59452    149557.81   -47387.046    4052.3864   -51439.432   0.15241961 
   72000    297.99866   -485.48154    149215.89   -47416.395     4092.294   -51508.689   0.15179034 
   72200    291.87564   -302.12683    149048.51   -47452.891    4008.2091     -51461.1   0.14831967 
   72400    292.46724   -606.18644    149369.74   -47432.683    4016.3333   -51449.017   0.14980866 
   72600    294.47308   -621.15052    149451.99   -47396.669    4043.8787   -51440.548    0.1495762 
   72800    297.08516   -427.37952    149138.63   -47476.686    4079.7492   -51556.435   0.14594898 
   73000     292.3873   -413.06644    149107.36   -47473.503    4015.2355   -51488.739   0.15161978 
   73200    291.88122   -611.36677    149392.77   -47484.438    4008.2857   -51492.724   0.15237436 
   73400    289.30648   -578.19976    149380.64   -47477.176    3972.9278   -51450.104   0.14725593 
   73600    293.44574    -376.7245    149078.99    -47462.77    4029.7707    -51492.54   0.14715778 
   73800    291.31993   -425.10713    149133.09   -47457.205    4000.5777   -51457.783   0.14840856 
   74000    297.04604    -675.6691    149443.85   -47503.697    4079.2121   -51582.909   0.14835093 
   74200    295.37776   -538.98101    149319.27   -47500.022    4056.3022   -51556.324   0.15109524 
   74400    296.66841   -330.39296    149036.78   -47463.207    4074.0262   -51537.234   0.14909961 
   74600    291.80355   -495.66315    149214.23   -47486.593     4007.219   -51493.812   0.15138836 
   74800    292.88088   -686.50383    149480.22    -47495.04    4022.0135   -51517.054   0.14821454 
   75000    295.39154   -495.66235    149263.39   -47458.417    4056.4915   -51514.909   0.14552437 
   75200    292.02814    -291.7227    149009.47   -47446.288    4010.3032   -51456.591   0.14660244 
   75400    293.43583   -562.86425    149287.99    -47433.51    4029.6345   -51463.144   0.15251224 
   75600    289.66559   -736.44079    149490.92   -47409.437    3977.8593   -51387.296   0.15919864 
   75800    296.22049   -416.06181    149181.14    -47389.31    4067.8751   -51457.185   0.14887041 
   76000    298.20494     -320.536    149092.31   -47376.201    4095.1267   -51471.328    0.1462873 
   76200    293.56304   -655.47551    149445.87    -47400.51    4031.3815   -51431.891   0.15359468 
   76400    297.31264   -572.92246    149439.06   -47368.778    4082.8731   -51451.651   0.15356324 
   76600    298.14708   -343.92534    149080.06    -47358.74    4094.3322   -51453.072   0.15157111 
   76800    300.00354   -421.89648    149188.51   -47359.094    4119.8262   -51478.921   0.15005236 
   77000    301.45897   -679.96751    149550.71   -47359.073     4139.813   -51498.886   0.15035385 
   77200    299.63768   -538.74974    149355.28   -47405.902     4114.802   -51520.704   0.14852618 
   77400     294.5668   -265.45658    148970.83   -47397.329    4045.1657   -51442.495   0.15017707 
   77600     294.8783   -501.22543    149228.05   -47411.811    4049.4434   -51461.255   0.15560608 
   77800    296.49074   -710.00319    149566.68   -47421.402    4071.5864   -51492.988   0.15775038 
   78000    297.62676   -526.80064    149241.87   -47424.558    4087.1868   -51511.744     0.150723 
   78200    291.71134   -294.71805    148929.77   -47419.354    4005.9528   -51425.307   0.15379319 
   78400    297.78896   -505.49248    149318.42   -47436.554    4089.4142   -51525.969   0.15178056 
   78600    297.11169    -743.7499     149546.8   -47453.414    4080.1136   -51533.528   0.15472825 
   78800    295.91734   -358.82557    149073.72   -47442.483    4063.7121   -51506.195    0.1536773 
   79000    296.61472   -236.36494    148934.81   -47426.142    4073.2889   -51499.431   0.14940135 
   79200    297.56779   -666.15038    149453.77    -47433.01     4086.377   -51519.387    0.1521794 
   79400    299.01132   -670.84366    149493.87   -47384.811    4106.2005   -51491.011   0.15403824 
   79600    296.95571   -284.35887    148985.08   -47377.867    4077.9715   -51455.839    0.1558254 
   79800    293.74602   -392.65603    149061.91    -47405.14    4033.8943   -51439.034   0.15898251 
   80000    298.00125    -708.1657    149540.23   -47373.195    4092.3295   -51465.524   0.15681629 
   80200    302.41639   -596.56902    149413.74   -47339.076    4152.9609   -51492.037   0.15504035 
   80400    296.31069   -295.08964    148984.15   -47310.838    4069.1138   -51379.951   0.15450636 
   80600    297.21882   -456.09953     149149.6   -47330.931    4081.5847   -51412.516   0.15936141 
   80800    297.19178   -749.84275    149563.72   -47270.563    4081.2134   -51351.776   0.16663251 
   81000    299.38794   -575.67391    149342.68    -47324.82    4111.3724   -51436.193   0.15444746 
   81200    297.16715   -245.65755    148905.42   -47307.124    4080.8752   -51387.999   0.15489474 
   81400    294.80554   -460.80151     149238.3    -47281.65    4048.4442   -51330.094   0.15447795 
   81600    301.23509   -852.57265    149762.68   -47297.831    4136.7385    -51434.57    0.1568814 
   81800    300.51762   -479.02486    149257.73   -47307.332    4126.8858   -51434.218     0.157626 
   82000    298.14523   -30.206519     148683.2   -47275.233    4094.3068   -51369.539   0.15789089 
   82200    299.79076    -628.4528    149444.21   -47319.456    4116.9041    -51436.36    0.1559063 
   82400    294.33702   -1025.8621    150007.06   -47312.558    4042.0102   -51354.569   0.15984349 
   82600    299.44278   -283.21805    148959.77   -47367.756    4112.1255   -51479.882   0.14849214 
   82800    299.18712    62.902207    148512.61   -47410.822    4108.6146   -51519.437   0.14850643 
   83000    295.24993   -814.91256    149714.53     -47386.5    4054.5468   -51441.047    0.1589674 
   83200    293.96867   -1029.5495    149959.87   -47402.582    4036.9517   -51439.534   0.16236352 
   83400    292.67565   -117.51241    148744.54   -47433.469    4019.1953   -51452.664   0.14868157 
   83600    292.99248   -110.70868    148764.75   -47451.426    4023.5461   -51474.972   0.14490445 
   83800    299.12686   -871.21796    149816.14    -47393.13    4107.7871   -51500.917    0.1524765 
   84000    294.00468   -773.48947    149623.46   -47424.768    4037.4462   -51462.214    0.1587399 
   84200    292.32581   -100.88796    148762.16   -47417.921     4014.391   -51432.312   0.15200966 
   84400    298.07689   -380.48993    149053.28   -47422.722    4093.3682    -51516.09   0.15245068 
   84600     294.6978   -840.94826       149697   -47412.845    4046.9646   -51459.809    0.1502228 
   84800    292.08514   -547.78451    149378.15   -47425.814    4011.0861     -51436.9   0.14906802 
   85000    294.99482    -246.8922    148916.02   -47392.681    4051.0435   -51443.725   0.14894272 
   85200    299.45493   -449.85411    149295.72   -47359.973    4112.2923   -51472.265   0.14955598 
   85400    298.56739   -734.77188    149646.87    -47342.69    4100.1041   -51442.794   0.15631483 
   85600    297.28813   -440.65083    149224.44   -47343.842    4082.5365   -51426.378   0.14870431 
   85800    295.76111   -267.46303    148975.25   -47359.592    4061.5667   -51421.159   0.14881497 
   86000    301.24673   -538.49582    149400.32   -47309.958    4136.8985   -51446.857   0.14788619 
   86200    299.62098   -698.76486    149565.61   -47318.814    4114.5727   -51433.387   0.15834755 
   86400      298.945   -401.91083    149145.25   -47315.691    4105.2897   -51420.981   0.15653755 
   86600    298.56322    -311.4394    149047.15   -47315.675    4100.0468   -51415.722   0.15341928 
   86800    299.66841   -649.88702    149458.08   -47343.661     4115.224   -51458.885   0.15220654 
   87000    296.99668   -625.82586    149466.68   -47365.475    4078.5342   -51444.009   0.15313775 
   87200    297.18985   -329.14669    149094.24   -47337.155    4081.1869   -51418.342   0.15346275 
   87400    297.62587   -404.72861    149177.23   -47300.168    4087.1746   -51387.342   0.15665718 
   87600    297.09229   -702.28951    149525.73   -47365.121    4079.8472   -51444.968   0.15733153 
   87800    295.86035    -552.5904    149331.04   -47372.651    4062.9294    -51435.58   0.15339592 
   88000    295.39234    -291.0812    148988.36   -47323.642    4056.5025   -51380.145   0.14956465 
   88200    291.76611   -519.08143    149242.05   -47334.832     4006.705   -51341.537   0.15561643 
   88400    303.14441   -673.61678    149505.68   -47318.443    4162.9584   -51481.402   0.15323674 
   88600    300.73673   -501.73417    149251.42   -47335.068    4129.8947   -51464.963   0.15525977 
   88800    296.24727   -358.39405    149085.98   -47325.598    4068.2428   -51393.841   0.15364395 
   89000    294.54886   -574.80582    149368.42   -47346.289    4044.9193   -51391.208   0.15257117 
   89200    299.86525   -624.64005    149469.43   -47318.287    4117.9271   -51436.214   0.15116064 
   89400    296.82257   -385.77287    149195.26   -47291.948    4076.1433   -51368.091   0.14984034 
   89600    297.89395   -387.46331    149156.06   -47315.649    4090.8561   -51406.505    0.1517559 
   89800    298.56578   -555.08958    149394.67    -47351.35     4100.082   -51451.432   0.15229956 
   90000    298.34696   -565.44132    149355.38   -47368.201    4097.0771   -51465.278   0.14790656 
   90200    297.83832   -395.83014    149110.54   -47417.256    4090.0921   -51507.348   0.14655883 
   90400    286.79169   -529.04706    149209.36   -47436.363    3938.3932   -51374.756   0.15550087 
   90600    297.17259    -601.6846    149437.32   -47426.446      4080.95   -51507.396   0.15140078 
   90800    292.21047   -511.15355     149273.3   -47451.659    4012.8071   -51464.466   0.15238063 
   91000     290.0506   -375.08714    149033.55   -47453.928    3983.1465   -51437.075    0.1555742 
   91200    297.88046   -488.75249    149248.66   -47468.083    4090.6708   -51558.753   0.14934019 
   91400     295.7723    -667.9299    149462.31    -47455.99    4061.7203   -51517.711   0.15124838 
   91600    294.77367   -461.76696    149169.97   -47461.895    4048.0065   -51509.902   0.14833936 
   91800    295.36393    -319.3533     148984.1   -47439.227    4056.1124   -51495.339   0.15090638 
   92000    294.07105   -565.93448    149320.49    -47451.74    4038.3577   -51490.098   0.14831794 
   92200    293.88132   -639.78125    149456.28   -47472.475    4035.7523   -51508.227   0.14467278 
   92400     294.2388   -354.16767    149065.65   -47453.583    4040.6613   -51494.244   0.14699127 
   92600    293.13189   -273.56506    148992.02   -47511.884    4025.4606   -51537.345   0.14564517 
   92800    292.08174   -663.71943    149474.98   -47477.002    4011.0394   -51488.042   0.15353911 
   93000     289.7146   -706.55844    149483.64   -47402.871    3978.5323   -51381.403     0.155185 
   93200    291.03713   -281.15869    148947.21   -47405.721    3996.6941   -51402.415   0.15210629 
   93400    298.06991   -364.16219    149072.25   -47409.307    4093.2724   -51502.579    0.1501283 
   93600    294.71296   -806.02975    149686.02   -47386.469    4047.1727   -51433.641   0.15241801 
   93800    295.27025   -631.25628    149442.76   -47378.166    4054.8258   -51432.992   0.15413812 
   94000    295.67527   -131.56405    148775.34   -47383.624    4060.3879   -51444.012   0.14740784 
   94200    293.40378   -438.47133     149135.7   -47466.948    4029.1944   -51496.143   0.14898776 
   94400    292.60565   -916.33412    149781.47   -47445.794    4018.2339   -51464.028   0.15503078 
   94600    292.05645   -512.44649    149295.06   -47446.759     4010.692   -51457.451   0.15233317 
   94800    294.51114   -127.52249    148718.06    -47503.72    4044.4013   -51548.121   0.15012696 
   95000    290.94937   -548.36452    149279.84   -47507.935    3995.4889   -51503.424   0.15154896 
   95200     293.5082   -878.68813    149714.41   -47508.173    4030.6283   -51538.801   0.15365791 
   95400    287.70794   -402.84276    149062.67   -47525.656    3950.9757   -51476.632   0.14787794 
   95600    300.18811   -163.82908    148775.33   -47489.939    4122.3608     -51612.3   0.14501063 
   95800    290.92891   -673.89973    149483.84   -47448.542     3995.208   -51443.749   0.15045765 
   96000    296.18801   -791.66761    149638.17   -47437.596     4067.429   -51505.025   0.15067209 
   96200    290.01245   -289.71084    148932.91   -47484.488    3982.6227    -51467.11   0.14489969 
   96400     293.0933   -238.29665    148884.62   -47479.022    4024.9307   -51503.953   0.14591845 
   96600    292.43814    -729.8444    149544.33   -47486.258    4015.9337   -51502.192   0.15148089 
   96800    291.78003   -724.87418     149489.1   -47539.123     4006.896   -51546.019   0.15037358 
   97000    291.25964    -190.0742    148867.48   -47526.077    3999.7498   -51525.827    0.1459154 
   97200    290.79451   -368.84438    149019.65   -47511.873    3993.3623   -51505.236    0.1518398 
   97400    293.09075    -732.0612    149582.09   -47460.626    4024.8956   -51485.522   0.15001737 
   97600    292.78628   -621.36062    149415.44   -47433.043    4020.7145   -51453.757   0.15143591 
   97800    289.56748   -290.51865    148972.33    -47429.32    3976.5121   -51405.832   0.15017756 
   98000    296.66144   -469.17952    149207.53   -47400.533    4073.9305   -51474.464   0.14823733 
   98200    296.51305    -678.4579    149570.81   -47408.305    4071.8928   -51480.198   0.14588703 
   98400    299.50315   -490.20356    149315.03   -47339.556    4112.9546   -51452.511    0.1487017 
   98600    296.73525   -302.83193    149054.43   -47390.196     4074.944    -51465.14    0.1498695 
   98800    297.11918   -555.38979    149339.11   -47350.305    4080.2164   -51430.522   0.15255219 
   99000    295.65682   -661.84443     149505.2   -47352.339    4060.1345   -51412.474    0.1548826 
   99200    296.20518   -479.82496    149233.83   -47420.949    4067.6649   -51488.614   0.15310041 
   99400    294.41428   -358.02718    149078.65   -47517.764    4043.0712   -51560.835   0.14602776 
   99600    288.33589   -583.91823    149311.52   -47539.614    3959.5991   -51499.213   0.14801387 
   99800    295.72825   -592.53665    149409.47   -47510.335    4061.1153   -51571.451   0.14558601 
  100000    289.67788   -484.17637    149169.77    -47511.72    3978.0281   -51489.748   0.15127922 
  100200    294.61151   -352.19695    149107.45   -47470.539    4045.7797   -51516.319   0.14670514 
  100400    290.16042   -581.49161    149391.03   -47465.897    3984.6547   -51450.552    0.1479575 
  100600    298.71075    -544.8684    149415.68   -47413.904    4102.0728   -51515.977   0.14712537 
  100800    297.48918    -413.2326    149153.54   -47446.885    4085.2975   -51532.182   0.14430062 
  101000    291.84079   -440.31054    149153.77   -47428.473    4007.7305   -51436.204   0.15094329 
  101200    296.31409   -604.95181     149391.6   -47406.132    4069.1605   -51475.293   0.15450235 
  101400    294.42202   -546.21243     149327.2   -47412.961    4043.1775   -51456.139   0.15297448 
  101600    297.23258   -400.15416    149118.11   -47432.599    4081.7737   -51514.373   0.15122773 
  101800    296.62843   -490.53918    149232.95   -47397.613    4073.4772    -51471.09    0.1516505 
  102000    295.36195   -584.21253    149390.52   -47397.397    4056.0852   -51453.482   0.15138266 
  102200    291.90667   -514.92745    149265.16    -47390.53    4008.6352   -51399.165   0.15368724 
  102400    299.58772   -364.45575    149137.56   -47333.906    4114.1159   -51448.022   0.15175187 
  102600    298.34174   -505.01568    149308.94   -47344.615    4097.0054    -51441.62   0.15467839 
  102800    298.95107   -613.67072    149428.04   -47355.721     4105.373   -51461.094   0.15519671 
  103000    300.99735    -416.0905    149226.26   -47350.808    4133.4738   -51484.282   0.14715927 
  103200    301.19178   -386.29986    149140.45   -47331.282    4136.1438   -51467.426   0.15046662 
  103400    296.15842   -573.35898    149385.83   -47358.178    4067.0228   -51425.201   0.15645726 
  103600     301.5806   -589.53295    149458.78   -47361.582    4141.4834   -51503.065   0.15674794 
  103800     297.5355   -426.22258    149218.15   -47368.248    4085.9336   -51454.182   0.15444592 
  104000    297.39964   -419.18603    149165.25   -47377.423    4084.0679   -51461.491   0.14840844 
  104200    297.12784   -555.92591    149408.82   -47389.642    4080.3354   -51469.978    0.1457711 
  104400    294.40358   -604.11619    149418.77    -47406.03    4042.9242   -51448.954   0.15152042 
  104600    296.74616   -424.11592    149144.29   -47404.144    4075.0939   -51479.238   0.15464907 
  104800    294.60696   -402.56331    149181.46    -47394.26    4045.7171   -51439.977   0.15202765 
  105000    298.20672   -609.06028    149482.61   -47421.503    4095.1511   -51516.655   0.14328339 
  105200    296.74244   -511.77758    149367.55   -47422.758    4075.0428   -51497.801   0.15023048 
  105400    292.94937   -351.51521    149065.57   -47414.641    4022.9541   -51437.595   0.15507773 
  105600    296.65044   -467.51961    149229.93   -47412.001    4073.7794   -51485.781   0.15622622 
  105800    298.83451   -648.83115    149528.45   -47425.632    4103.7724   -51529.405   0.15585048 
  106000    302.59435    -499.3586    149292.43   -47407.697    4155.4047   -51563.102   0.14880453 
  106200    297.46387   -311.22274    148995.22    -47384.61      4084.95    -51469.56   0.15133774 
  106400    300.48781   -496.57887    149299.38   -47396.337    4126.4764   -51522.814   0.14522539 
  106600    293.01085   -757.74746    149591.32   -47394.592    4023.7985    -51418.39    0.1607569 
  106800    295.22578   -427.18076    149185.74     -47391.7    4054.2151   -51445.915   0.15095063 
  107000    296.81667   -259.75667    148943.66   -47349.254    4076.0622   -51425.316   0.15122122 
  107200    297.49196   -638.07923    149473.74   -47334.818    4085.3357   -51420.153   0.15700704 
  107400    297.26845   -762.59281    149644.03   -47338.407    4082.2663   -51420.673    0.1543782 
  107600    298.52688   -325.29163    149021.15   -47320.785    4099.5478   -51420.333   0.15497799 
  107800    296.00255   -213.54689    148936.51   -47344.202    4064.8822   -51409.085   0.14903352 
  108000    299.47814   -778.29821    149648.02   -47314.894    4112.6111   -51427.506   0.15317081 
  108200    300.73035   -723.49964    149617.15   -47349.626    4129.8072   -51479.433   0.15118589 
  108400    299.94361   -187.85185    148884.14   -47351.275    4119.0032   -51470.278    0.1469532 
  108600    297.35719   -295.91113    149054.09   -47322.237    4083.4849   -51405.722   0.15222915 
  108800    294.15194   -900.71381     149788.3   -47338.712    4039.4686    -51378.18    0.1558764 
  109000    295.28987   -648.21852     149445.3   -47380.628    4055.0952   -51435.723    0.1539938 
  109200    297.59418   -110.93107    148715.33   -47387.135    4086.7395   -51473.874   0.14977047 
  109400    295.89057   -432.10947    149166.46   -47370.179    4063.3445   -51433.523    0.1564345 
  109600    299.58066   -894.12501    149806.49   -47324.077    4114.0189   -51438.096   0.15593402 
  109800    300.71018   -466.55065    149281.81   -47380.923    4129.5301   -51510.453   0.14508399 
  110000    300.32356   -74.774516     148784.3   -47320.241    4124.2208   -51444.461   0.14364811 
  110200    299.36557   -574.27286     149367.6   -47306.368    4111.0652   -51417.433   0.15262989 
  110400    296.50999   -805.00086    149712.82   -47353.294    4071.8506   -51425.144   0.15073053 
  110600    297.87955   -404.33067    149167.03   -47432.781    4090.6583   -51523.439   0.14699655 
  110800    294.17738   -256.76511    148934.92    -47430.42     4039.818   -51470.238   0.15143444 
  111000    296.25659   -611.19066    149410.82   -47429.866    4068.3708   -51498.237   0.15514203 
  111200     290.1274   -693.04773    149496.68   -47415.521    3984.2012   -51399.722   0.16186931 
  111400    296.13066    -337.8236    149062.27   -47473.728    4066.6415    -51540.37    0.1508661 
  111600    290.77983   -378.33617    149048.98   -47527.733    3993.1607   -51520.894   0.15002841 
  111800    289.15237    -677.8238    149395.81   -47556.984    3970.8114   -51527.796   0.15038791 
  112000    292.38806   -577.33252    149311.81   -47548.097    4015.2459   -51563.343   0.14926671 
  112200    289.59096   -365.04441    149024.81   -47506.682    3976.8344   -51483.517   0.15105835 
  112400    289.97697   -467.78128     149192.6   -47473.419    3982.1354   -51455.555   0.14982498 
  112600    290.09939   -686.20128    149455.67   -47445.501    3983.8166   -51429.318   0.15628268 
  112800     293.8948   -553.50522     149251.6   -47464.415    4035.9374   -51500.352   0.15519909 
  113000     302.0893    -339.4775     149029.4   -47443.041     4148.469    -51591.51   0.15083227 
  113200    290.05084   -536.84599    149245.72   -47478.189    3983.1498   -51461.339   0.15801242 
  113400    298.35416    -639.8877    149416.02   -47456.674     4097.176    -51553.85    0.1538799 
  113600    295.90346   -469.68831    149169.83   -47462.701    4063.5215   -51526.223   0.15099534 
  113800    295.54771   -330.75581    149034.85   -47446.268    4058.6361   -51504.904   0.14519907 
  114000    294.10573   -560.64001    149331.57   -47430.069    4038.8339   -51468.903   0.14780033 
  114200    297.86411   -657.47213    149441.03   -47442.102    4090.4463   -51532.548    0.1482301 
  114400    295.86606   -388.38751     149154.1   -47383.999    4063.0079   -51447.007   0.14738159 
  114600    293.29287   -391.32863    149139.22   -47356.662    4027.6712   -51384.333   0.15196208 
  114800    293.94615   -625.26875    149461.66   -47340.854    4036.6425   -51377.497   0.15518539 
  115000    298.84427   -575.39877    149428.01   -47370.589    4103.9064   -51474.495   0.14842759 
  115200    294.62615   -363.08974    149081.66   -47388.674    4045.9806   -51434.655   0.15734207 
  115400    298.50464   -433.61817    149133.61   -47401.562    4099.2424   -51500.805   0.15121623 
  115600    298.00244   -668.58552    149459.42   -47380.846    4092.3458   -51473.192   0.15350199 
  115800    292.57895   -587.57267    149365.79   -47396.396    4017.8673   -51414.263   0.15538566 
  116000    293.56576   -323.83644    149028.95   -47384.411    4031.4188    -51415.83   0.15049653 
  116200    297.90581   -439.45896    149196.15   -47402.171    4091.0189    -51493.19   0.14650385 
  116400    294.94962   -682.61788    149533.54   -47441.471    4050.4227   -51491.894   0.14785268 
  116600    293.44228   -486.12352    149285.37   -47455.765    4029.7231   -51485.488   0.15198162 
  116800    296.60838   -328.66597     148972.1    -47413.69    4073.2018   -51486.892   0.15323976 
  117000    294.16747   -562.42287    149304.03   -47419.122    4039.6818   -51458.804   0.15610345 
  117200    295.12513   -711.41774    149576.41   -47405.802    4052.8329   -51458.635   0.15278056 
  117400    292.79865   -429.77164    149193.17   -47435.256    4020.8843   -51456.141   0.14958456 
  117600    294.93635    -250.1362    148955.25   -47417.124    4050.2406   -51467.364   0.14912932 
  117800    297.62508   -606.09268    149434.84   -47375.356    4087.1638    -51462.52   0.15126453 
  118000    299.40482   -771.07196    149649.71   -47364.425    4111.6043    -51476.03   0.15237571 
  118200    299.43292   -290.57493    149050.41   -47403.777    4111.9901   -51515.767    0.1399533 
  118400    294.15876   -231.34872    148880.99   -47457.291    4039.5621   -51496.853   0.14696785 
  118600    297.83552   -738.16454    149600.86   -47480.156    4090.0537    -51570.21   0.14650592 
  118800    290.27392   -799.33706    149672.12   -47527.389    3986.2133   -51513.602   0.15254221 
  119000    290.92213   -132.87298     148753.1   -47533.412    3995.1149   -51528.527   0.15057163 
  119200    287.87368   -192.09188    148814.08   -47535.654    3953.2518   -51488.906   0.15016152 
  119400    284.99742   -982.39695    149885.55   -47551.645    3913.7533   -51465.398    0.1526398 
  119600     286.5783   -764.44827    149577.85   -47493.113    3935.4628   -51428.576    0.1540474 
  119800    288.44308    57.580557    148420.59    -47495.77    3961.0712   -51456.841   0.15742157 
  120000    294.05585   -301.88371    148990.74   -47514.945     4038.149   -51553.094    0.1467034 
  120200    295.21987   -1162.7204    150044.87   -47475.716     4054.134    -51529.85   0.15696121 
  120400    289.41048   -545.99573    149250.61   -47529.771     3974.356   -51504.127   0.15315493 
  120600    295.03749    80.067333    148443.45   -47526.999    4051.6295   -51578.628   0.15168328 
  120800    291.83126   -555.18041    149280.34   -47515.127    4007.5996   -51522.727    0.1523383 
  121000    293.20856   -945.60916    149810.47   -47492.548    4026.5135   -51519.061   0.15655626 
  121200    290.21917   -395.57564    149073.02   -47496.564    3985.4614   -51482.026   0.15869718 
  121400    294.15303    -154.0827    148769.97   -47497.979    4039.4835   -51537.462   0.15058351 
  121600    295.54963   -545.56244    149357.53   -47485.714    4058.6625   -51544.376   0.14611298 
  121800    294.07063   -727.30397    149513.54   -47481.069    4038.3519   -51519.421   0.15285852 
  122000    294.42034   -380.75874    149013.29   -47462.433    4043.1544   -51505.587    0.1574912 
  122200    290.23502   -315.49811    148990.87   -47429.465    3985.6791   -51415.144   0.15400025 
  122400     294.9716   -677.43603     149467.4   -47379.496    4050.7246   -51430.221   0.15713714 
  122600    297.67602   -596.22091    149407.33   -47299.561    4087.8632   -51387.424   0.16040656 
  122800    303.12772   -312.85109    149024.28   -47303.181    4162.7293   -51465.911   0.15308574 
  123000    295.41923   -445.22967    149165.57    -47350.39    4056.8718   -51407.262   0.15520882 
  123200    296.90017   -680.62366    149516.88   -47371.398    4077.2089   -51448.607   0.15995569 
  123400    290.00331   -586.49178    149324.74   -47457.324    3982.4971   -51439.822   0.16121516 
  123600    302.94286   -236.51084    148988.92   -47407.072    4160.1906   -51567.262   0.14624099 
  123800    291.25081   -482.22249    149233.68   -47428.037    3999.6286   -51427.666   0.15106669 
  124000    294.01101   -735.07532    149523.48   -47408.712    4037.5332   -51446.245   0.15701381 
  124200    298.90668   -479.84157    149247.24    -47394.67    4104.7634   -51499.434   0.15276068 
  124400      295.204   -338.65496    149016.93   -47410.257    4053.9161   -51464.173   0.15319872 
  124600    294.22488   -568.36421    149311.15   -47427.187    4040.4703   -51467.658     0.154865 
  124800    291.48389   -679.27828    149481.86   -47429.601    4002.8293    -51432.43   0.15795335 
  125000    298.83407   -440.57778    149182.56   -47441.047    4103.7663   -51544.813   0.14735753 
  125200    297.58233    -357.0265    149075.52    -47433.02    4086.5767   -51519.597   0.15032442 
  125400    288.25143   -571.01565    149376.89   -47499.903    3958.4392   -51458.343    0.1530635 
  125600    291.89135   -647.88244    149473.86   -47492.526    4008.4247   -51500.951   0.15160397 
  125800    293.52859   -397.68955       149146   -47485.636    4030.9083   -51516.544    0.1466575 
  126000    293.47482   -366.89787    149091.06    -47452.91    4030.1699    -51483.08   0.14700178 
  126200    294.78722   -615.64904    149394.53   -47430.861    4048.1926   -51479.053   0.15142858 
  126400    296.38578   -583.92692    149342.77    -47460.28    4070.1449   -51530.424   0.15096725 
  126600    296.97434    -318.4025    149003.65   -47488.302    4078.2275    -51566.53   0.14534725 
  126800    292.05352    -409.6646    149144.97   -47458.268    4010.6519    -51468.92   0.14646624 
  127000    290.84938   -759.02076    149524.21   -47472.794    3994.1158    -51466.91   0.15310228 
  127200    289.50971   -544.26319     149316.4   -47507.686    3975.7187   -51483.405   0.14733014 
  127400     298.8558     -262.691    148943.77   -47511.525    4104.0648   -51615.589    0.1458992 
  127600    298.35804   -492.92788    149253.32   -47505.428    4097.2292   -51602.657   0.14565571 
  127800      295.699   -761.50145    149595.96   -47489.697    4060.7136   -51550.411    0.1531373 
  128000    291.12956    -475.8474    149191.16   -47488.653    3997.9634   -51486.616   0.14985334 
  128200    296.72086   -175.45553    148897.34   -47454.101    4074.7464   -51528.848   0.14209038 
  128400    291.18289   -618.27159    149407.51   -47478.523    3998.6958   -51477.219   0.15207458 
  128600    294.57195    -792.7921    149617.78   -47509.749    4045.2363   -51554.985   0.15076939 
  128800     290.1708   -262.42581    148953.34   -47551.266    3984.7972   -51536.063   0.14457184 
  129000    286.95822    -203.8078    148800.34   -47586.728    3940.6801   -51527.408   0.14828718 
  129200    292.74711   -700.42754    149550.14   -47537.709    4020.1766   -51557.886   0.15311413 
  129400    291.14514   -798.80442    149632.22   -47535.812    3998.1774    -51533.99   0.15419294 
  129600    290.75749   -192.35986    148865.31   -47541.526     3992.854   -51534.379   0.14439961 
  129800    292.99375   -249.04057    148929.54   -47555.831    4023.5636   -51579.395   0.14619333 
  130000    288.18797   -835.05556    149717.76   -47558.787    3957.5678   -51516.355   0.14866041 
  130200    291.54786   -682.07133    149493.42   -47579.785    4003.7078   -51583.493   0.14171325 
  130400    291.21402   -135.38229    148721.78   -47568.703    3999.1233   -51567.826   0.14075748 
  130600    288.09199   -361.30513    149059.52   -47523.844    3956.2497   -51480.094   0.14539207 
  130800    286.08727   -907.44567    149774.33   -47538.409    3928.7198   -51467.129   0.15298253 
  131000    292.17924   -582.81144    149292.51   -47563.266    4012.3782   -51575.644   0.14631405 
  131200    294.93403   -73.097992    148698.45   -47539.027    4050.2086   -51589.236   0.14338132 
  131400    294.16927   -505.29818    149234.62   -47538.728    4039.7066   -51578.435   0.14797569 
  131600    291.31619   -804.27726    149665.35   -47526.292    4000.5263   -51526.819   0.15534162 
  131800    294.11404   -500.21824    149162.85   -47502.477    4038.9481   -51541.425   0.15041155 
  132000    300.28375   -227.54646    148910.72   -47448.172    4123.6742   -51571.846   0.14475255 
  132200    293.88619   -615.32111    149395.38   -47452.297    4035.8191   -51488.116   0.14923444 
  132400    293.78078   -678.61954    149529.38   -47453.824    4034.3716   -51488.196     0.147622 
  132600    295.30092   -383.80026    149149.92   -47432.239    4055.2471   -51487.486   0.14456087 
  132800    293.28158   -412.85839    149116.48   -47402.703    4027.5163   -51430.219   0.15603342 
  133000    289.68104   -657.06521    149415.81   -47393.936    3978.0715   -51372.008   0.16293446 
  133200    299.80691   -581.00788    149376.79    -47341.28    4117.1259   -51458.406   0.15560578 
  133400    295.70895   -397.56568     149129.3   -47327.948    4060.8503   -51388.799   0.15825464 
  133600    299.37483   -421.85922    149226.85   -47339.888    4111.1924    -51451.08   0.15392075 
  133800    299.04841   -649.37029    149476.15   -47359.203    4106.7098   -51465.913   0.14995006 
  134000    299.54528    -525.4062    149324.36   -47309.457    4113.5331    -51422.99   0.14985716 
  134200    296.04551   -357.01431    149126.79   -47325.346    4065.4722   -51390.818   0.14596132 
  134400    296.64061   -496.95522    149347.56   -47323.857    4073.6444   -51397.501    0.1510993 
  134600     298.1724    -653.9552    149517.66   -47338.507    4094.6799   -51433.186   0.14605253 
  134800    297.77976   -502.75773    149230.07   -47384.297     4089.288   -51473.585   0.15219585 
  135000    293.63589   -390.92734    149071.95   -47441.612    4032.3818   -51473.993   0.15135798 
  135200    291.36835    -527.5048    149397.31   -47449.905    4001.2426   -51451.148   0.14998195 
  135400    293.30444   -662.58569    149490.99   -47470.376    4027.8302   -51498.206   0.14923684 
  135600     294.2817   -355.32875    149133.08   -47436.236    4041.2505   -51477.486   0.14639876 
  135800    289.52248   -397.97128    149111.07   -47509.912    3975.8941   -51485.806   0.14792768 
  136000      288.799   -659.20436    149416.95   -47540.058    3965.9587   -51506.017   0.14448297 
  136200    290.86495   -582.19658    149316.36   -47551.402    3994.3296   -51545.732    0.1456764 
  136400    293.10696   -354.22116    149028.77   -47507.141    4025.1183   -51532.259   0.14984079 
  136600    295.56867   -419.15162    149223.71   -47449.837    4058.9239   -51508.761   0.14837483 
  136800    292.84265   -759.82837    149556.24   -47455.781    4021.4886   -51477.269   0.15489768 
  137000    292.87625   -536.82206    149280.63   -47462.805      4021.95   -51484.755   0.14917675 
  137200    293.15875   -291.28609    148968.96   -47497.597    4025.8295   -51523.427   0.14946061 
  137400    293.00189   -538.84492    149304.06   -47452.863    4023.6754   -51476.538   0.15462916 
  137600    296.76115    -757.7383    149591.95   -47442.378    4075.2997   -51517.678   0.14942515 
  137800     298.0316   -439.73637    149182.61   -47418.005    4092.7463   -51510.751   0.14758066 
  138000    292.70291   -248.73946     148926.9   -47416.677    4019.5697   -51436.247   0.14735214 
  138200    291.74302   -584.69252    149392.92   -47465.105    4006.3878   -51471.493   0.14721717 
  138400    288.93634   -753.81744    149570.21   -47447.181    3967.8448   -51415.026   0.14903375 
  138600    294.76766   -333.00183    149042.95   -47465.923     4047.924   -51513.847   0.14508988 
  138800    298.84366   -276.46708    148989.55   -47416.003    4103.8981   -51519.901   0.14798562 
  139000    293.84864   -750.08645    149615.76   -47399.156    4035.3035   -51434.459   0.15372283 
  139200    292.05217   -744.95047    149587.98   -47399.363    4010.6333   -51409.996   0.15039559 
  139400      297.176   -193.74275    148898.06   -47431.651    4080.9968   -51512.647   0.14449004 
  139600    297.41734    -249.5898    149045.98   -47413.139    4084.3109    -51497.45   0.14005259 
  139800    298.52738   -815.79641    149788.32   -47367.287    4099.5547   -51466.841   0.15117457 
  140000    297.15785   -673.25516    149551.34   -47335.914    4080.7474   -51416.662   0.15432872 
  140200    298.83055   -74.443341    148827.19   -47383.914     4103.718   -51487.632   0.14001403 
  140400    298.73036   -411.31213    149207.01   -47409.986    4102.3421   -51512.328   0.14221263 
  140600    293.66198   -924.89477    149901.34   -47402.175    4032.7402   -51434.915   0.14920755 
  140800    297.19443   -542.73564    149349.89   -47399.885    4081.2498   -51481.135   0.15343518 
  141000    292.52151   -55.552058    148731.76   -47441.686    4017.0785   -51458.764   0.14928063 
  141200    299.52185    -515.0342    149391.28   -47391.166    4113.2113   -51504.377   0.14509989 
  141400    299.18999   -932.84467     149900.1   -47390.249     4108.654   -51498.903   0.15034674 
  141600    296.89828   -400.92371    149169.94   -47379.804    4077.1829   -51456.987   0.14540797 
  141800     299.5478   -108.65373    148808.58   -47436.619    4113.5677   -51550.186   0.14158993 
  142000    293.92717   -652.92635    149503.81   -47448.327    4036.3818   -51484.709   0.15165787 
  142200    288.47879   -825.71365    149677.61   -47440.642    3961.5615   -51402.203   0.15372011 
  142400    293.99944   -301.77478    148999.98   -47450.576    4037.3744    -51487.95    0.1455567 
  142600    297.19084   -253.79143    148949.08   -47441.477    4081.2005   -51522.678   0.14216375 
  142800    294.32341   -702.81274    149523.96   -47441.191    4041.8233   -51483.014   0.14790689 
  143000     293.2067   -641.18136    149436.37   -47503.992     4026.488    -51530.48   0.15175571 
  143200    292.76713   -260.00099    148951.49   -47473.911    4020.4515   -51494.362   0.15190035 
  143400    298.22719   -397.73259    149084.69   -47438.223    4095.4322   -51533.655   0.14857733 
  143600    297.30897   -652.29343     149483.7   -47424.029    4082.8227   -51506.851   0.14579202 
  143800     297.1429   -577.18219    149322.01   -47437.121    4080.5422   -51517.663     0.153619 
  144000    293.00393   -304.70086    148992.79   -47426.816    4023.7034   -51450.519   0.15365911 
  144200    294.77078   -466.93972    149214.88   -47398.727    4047.9668   -51446.693   0.15160099 
  144400    290.25964   -706.62168     149488.9   -47398.422    3986.0172   -51384.439   0.15731583 
  144600    301.56346   -479.72795    149259.98   -47373.575    4141.2479   -51514.823    0.1487102 
  144800    294.70864   -381.67187    149088.49   -47343.971    4047.1134   -51391.084   0.15090724 
  145000    295.68023   -550.47602    149313.83   -47388.554    4060.4559    -51449.01   0.15266791 
  145200    294.59786   -627.18439    149395.74   -47417.689    4045.5922   -51463.281   0.15754726 
  145400     294.9045   -466.47691    149159.15   -47423.807    4049.8031    -51473.61   0.16245627 
  145600    293.33901   -391.45983    149091.93   -47441.886     4028.305   -51470.191   0.15303193 
  145800    294.62331   -591.03567    149330.77    -47455.85    4045.9416   -51501.792   0.15327581 
  146000    293.78595   -584.20692    149352.92   -47442.214    4034.4426   -51476.657   0.15273319 
  146200    294.03881   -423.34514    149109.71   -47475.475     4037.915    -51513.39   0.15118104 
  146400    297.23218   -417.54382     149106.9    -47427.23    4081.7683   -51508.998   0.15223319 
  146600    295.36099   -602.17499    149325.21   -47387.197    4056.0719   -51443.269   0.15906879 
  146800    296.18232   -515.56476    149263.02   -47342.218    4067.3509   -51409.569   0.15864666 
  147000    295.84962   -418.95765    149105.13   -47358.329     4062.782   -51421.111   0.15482212 
  147200    292.67819   -535.31534    149224.48   -47323.713    4019.2301   -51342.943   0.15886448 
  147400     297.0749   -603.81177     149366.8   -47388.938    4079.6084   -51468.547   0.15822586 
  147600      296.672    -484.7977    149216.04   -47403.312    4074.0755   -51477.387   0.16127763 
  147800    295.81551   -418.00401    149098.57   -47446.387    4062.3136     -51508.7   0.15359593 
  148000    295.13262   -536.53669    149243.64   -47409.374    4052.9358    -51462.31   0.15478388 
  148200    295.86051   -602.64828    149344.16   -47451.287    4062.9316   -51514.218   0.15403025 
  148400    296.62382   -445.94271     149167.3   -47502.715    4073.4139   -51576.129   0.15174382 
  148600    296.88356   -437.14353    149113.93   -47473.139    4076.9808   -51550.119   0.15535129 
  148800    297.62164   -538.58026     149342.6   -47475.435    4087.1166   -51562.551   0.15214886 
  149000    294.01657   -589.88767    149360.84   -47479.993    4037.6096   -51517.603   0.15369323 
  149200     295.2639   -383.85096    149087.14   -47489.014    4054.7386   -51543.753   0.15301974 
  149400    295.09287   -428.99454    149102.96   -47512.495    4052.3899   -51564.885   0.15530506 
  149600    295.69178   -645.47414     149430.7   -47509.425    4060.6146    -51570.04   0.15839271 
  149800    295.17781   -604.48499    149353.09   -47495.666    4053.5564   -51549.222    0.1551644 
  150000    292.29043   -297.94691    148929.36   -47456.451    4013.9052   -51470.356   0.15502203 
  150200    296.86075   -412.80028     149126.6   -47400.528    4076.6676   -51477.196   0.15159124 
  150400    299.36161   -791.42097    149669.91   -47365.813    4111.0108   -51476.824   0.15631119 
  150600    288.33564    -572.3805     149330.2   -47419.435    3959.5957    -51379.03   0.15884632 
  150800    293.43833   -156.92816    148793.41   -47386.444    4029.6688   -51416.113   0.15429081 
  151000     297.9654   -510.61335    149299.46    -47425.51    4091.8372   -51517.347   0.15287881 
  151200    296.71728    -873.8689    149764.33   -47407.624    4074.6974   -51482.321   0.15644938 
  151400     299.9239   -387.08275    149172.17   -47323.998    4118.7325    -51442.73   0.15506582 
  151600    298.90809   -146.39963    148839.65    -47312.93    4104.7828   -51417.713   0.15549965 
  151800    299.75946   -672.17215     149508.1    -47321.37    4116.4743   -51437.844   0.15890407 
  152000     297.2913   -781.58703    149722.19    -47319.81    4082.5802    -51402.39   0.15518724 
  152200    295.97742   -288.83675    149045.41   -47346.781    4064.5371   -51411.318   0.15167935 
  152400    297.22134   -257.36891    148976.04   -47397.963    4081.6194   -51479.582   0.14966989 
  152600    295.74071    -721.9841    149609.44   -47361.926    4061.2865   -51423.213   0.15592119 
  152800    301.57447   -693.31309    149562.44   -47293.372    4141.3991   -51434.771   0.15816937 
  153000    297.26746   -228.51043    148959.95   -47368.197    4082.2527    -51450.45   0.15475432 
  153200     297.9841   -337.44455    149114.19   -47307.672    4092.0941   -51399.766   0.16017788 
  153400    301.20599   -775.62553    149639.01    -47358.44     4136.339   -51494.779    0.1576894 
  153600    297.89622   -609.97448     149354.9   -47388.073    4090.8872    -51478.96   0.15975841 
  153800    295.90708   -218.01792    148872.88   -47419.658    4063.5712   -51483.229   0.15497214 
  154000    295.09469   -459.29283    149199.21   -47432.831     4052.415   -51485.246   0.15503708 
  154200    297.00612   -722.62286    149565.98   -47374.029    4078.6638   -51452.693   0.15837316 
  154400    297.81047   -423.03547    149231.05   -47370.116    4089.7097   -51459.826   0.14650679 
  154600    299.82106   -297.23297    148983.09   -47393.674    4117.3203   -51510.994   0.14780417 
  154800    292.40636   -571.44647    149285.76    -47407.53    4015.4972   -51423.027   0.15907285 
  155000    295.71928   -635.22693    149421.16   -47394.413    4060.9921   -51455.405    0.1606494 
[...]
  163200    296.29776   -359.41089    149072.22   -47466.162    4068.9362   -51535.098   0.14645999 
  163400    293.12074   -576.26619    149375.62   -47498.463    4025.3074    -51523.77   0.14573275 
  163600    291.44635   -629.61969    149410.06    -47446.18    4002.3137   -51448.494   0.15489441 
  163800    293.28783   -370.77507    149093.86   -47510.489    4027.6021   -51538.091   0.14721812 
  164000    290.39997   -381.66607    149086.22   -47527.521    3987.9442   -51515.466   0.15118724 
  164200    290.99716   -646.51029    149413.07   -47522.534    3996.1452    -51518.68   0.15074349 
  164400    291.04998   -590.52014    149377.78   -47463.137    3996.8706   -51460.008   0.15246521 
  164600    296.80324   -304.94031    149041.43   -47444.771    4075.8778   -51520.648   0.14420502 
  164800    293.20557   -427.22038       149146   -47483.327    4026.4724   -51509.799   0.15223228 
  165000    293.89918   -676.58398    149510.01    -47456.25    4035.9976   -51492.248    0.1549378 
  165200    292.48349   -563.81998    149360.82   -47453.612    4016.5564   -51470.169   0.15262383 
  165400    295.59135    -291.6543       148986   -47485.808    4059.2353   -51545.044   0.14956907 
  165600    292.25579   -467.37441    149234.53   -47421.837    4013.4295   -51435.267   0.14932204 
  165800    293.73342   -773.18346    149578.43    -47444.23    4033.7212   -51477.951   0.16108853 
  166000    295.34918   -460.50487     149221.2   -47405.844    4055.9098   -51461.754   0.15687851 
  166200      297.509   -214.49109    148936.95   -47439.564    4085.5696   -51525.134   0.15608913 
  166400    298.27693    -572.1195     149399.6   -47433.102    4096.1154   -51529.217   0.15356976 
  166600    297.30016   -760.21071    149628.21   -47424.941    4082.7018   -51507.643   0.15145519 
  166800    293.76628   -378.13402    149100.45   -47490.307    4034.1725    -51524.48   0.14967172 
  167000    290.84895   -240.98441    148963.46   -47492.206      3994.11   -51486.316   0.14501877 
  167200    295.29528   -709.69205    149531.59   -47437.082    4055.1696   -51492.252   0.15744829 
  167400    293.58959   -723.49186    149560.56   -47482.627    4031.7461   -51514.373   0.15550909 
  167600    295.69104   -260.45026    148954.76   -47468.371    4060.6044   -51528.975   0.15133046 
  167800    289.42061   -315.83761     148991.9   -47538.027    3974.4951   -51512.522   0.14524694 
  168000     291.6329   -724.44909    149577.69   -47522.194    4004.8756   -51527.069   0.15196615 
  168200    291.89915   -660.76389     149464.9   -47520.023    4008.5319   -51528.555   0.15526516 
  168400    292.63728    -189.4509    148892.34    -47479.57    4018.6684   -51498.239    0.1523702 
  168600    292.59958   -395.77003     149089.9   -47491.024    4018.1507   -51509.175   0.15271732 
  168800    292.82542   -752.16593    149606.64   -47526.587    4021.2521   -51547.839   0.14881264 
  169000    296.24617   -563.35003    149288.39   -47514.827    4068.2277   -51583.055   0.15069857 
  169200    290.11037   -159.62715     148836.9   -47485.305    3983.9673   -51469.273   0.14674027 
  169400    287.65504   -514.22634    149235.71   -47509.679    3950.2493   -51459.929   0.16099504 
  169600    295.44887   -725.62351    149585.13   -47516.664    4057.2787   -51573.943   0.15492626 
  169800    292.29596   -479.62237     149123.5    -47525.06    4013.9811   -51539.041   0.15722168 
  170000    286.23804   -202.16417    148847.42   -47564.717    3930.7902   -51495.507   0.14886635 
  170200    288.41396   -569.84302    149340.38   -47571.756    3960.6712   -51532.427   0.14851678 
  170400    294.33706    -715.3907    149526.03    -47539.06    4042.0107   -51581.071   0.15621677 
  170600    291.84422   -375.83673    149044.11   -47524.349    4007.7776   -51532.127    0.1528829 
  170800    289.47267   -319.18773    148980.28   -47549.147      3975.21   -51524.357   0.15010415 
  171000    296.38205   -612.68686    149446.42   -47545.153    4070.0937   -51615.247   0.14363567 
  171200     286.5341   -658.85153    149415.42   -47572.539    3934.8559   -51507.395   0.15148205 
  171400    290.85706   -322.20494    148985.15   -47570.129    3994.2213    -51564.35   0.15011989 
  171600    294.19013   -341.49844    149048.06   -47535.613     4039.993   -51575.606   0.15367087 
  171800    290.04681   -695.83306    149427.75   -47509.325    3983.0945   -51492.419    0.1595209 
  172000    290.89441   -582.28225    149285.58   -47514.163    3994.7343   -51508.898   0.15466539 
  172200    291.65489    -306.3281    148930.91   -47522.639    4005.1776   -51527.816   0.14835311 
  172400     293.3566   -423.67702    149122.33   -47489.934    4028.5464    -51518.48   0.15325861 
  172600    293.79966   -680.53232    149421.84   -47471.073    4034.6308   -51505.704   0.16088298 
  172800    294.91326   -568.00877    149224.53   -47480.312    4049.9235   -51530.236   0.15597054 
  173000     292.9447   -381.79681    148970.79   -47500.666    4022.8901   -51523.556   0.15653902 
  173200    289.98261   -484.79474    149129.27   -47536.756    3982.2129   -51518.969   0.15429586 
  173400    295.22428   -585.37054    149337.19   -47520.911    4054.1945   -51575.105   0.15333196 
  173600    294.75347   -501.85061    149174.55   -47471.368    4047.7291   -51519.097   0.15600145 
  173800    297.81349   -378.94493    149041.65   -47473.629    4089.7511    -51563.38   0.15371787 
  174000    291.11572   -551.54889    149253.43   -47434.602    3997.7733   -51432.375   0.16152085 
  174200    295.32034   -629.38364    149360.29   -47427.745    4055.5138   -51483.259   0.15436848 
  174400    294.91487   -434.09232    149149.34   -47411.495    4049.9456   -51461.441   0.15324326 
  174600    296.54587   -394.29991    149119.27   -47424.843    4072.3434   -51497.186   0.14822561 
  174800    298.57197   -570.13772    149346.07   -47387.342    4100.1671   -51487.509   0.15763014 
  175000    294.49589   -591.09643    149343.39   -47435.207    4044.1919   -51479.399   0.15899303 
  175200    295.66558   -438.43451    149120.61   -47433.368    4060.2547   -51493.623     0.151405 
  175400    290.39537   -440.41811    149154.93   -47442.693    3987.8811   -51430.574   0.15873331 
  175600    292.66714   -630.74747    149386.69   -47453.478    4019.0784   -51472.557    0.1545699 
  175800    292.88616   -536.94005    149312.29   -47437.423    4022.0861   -51459.509   0.15632065 
  176000    292.35713   -361.65589    149097.82   -47426.767    4014.8212   -51441.588   0.15612718 
  176200    299.46565   -483.44566    149248.16   -47375.706    4112.4395   -51488.145   0.15585003 
  176400    294.05471   -614.51297    149454.13   -47413.308    4038.1334   -51451.442   0.15130737 
  176600    296.20753   -475.08555    149264.55    -47395.44    4067.6971   -51463.137   0.14825272 
  176800    294.70065   -324.38469    149109.41   -47404.281    4047.0037   -51451.284    0.1534049 
  177000    295.13276   -583.14122    149367.07   -47420.036    4052.9377   -51472.974   0.15729692 
  177200    291.85315   -659.02867    149496.22   -47432.586    4007.9002   -51440.486   0.15586372 
  177400    295.51674   -411.96513    149172.09   -47526.672    4058.2108   -51584.883   0.15020033 
  177600    294.38948   -341.12566    149057.79   -47492.296    4042.7306   -51535.027   0.15454421 
  177800    296.31342   -568.79922    149413.91   -47468.578    4069.1513    -51537.73   0.14849085 
  178000    295.90351   -657.13917     149500.5   -47425.592    4063.5221   -51489.114    0.1538256 
  178200    296.62631   -372.12796    149137.06   -47464.519    4073.4481   -51537.967   0.15182124 
  178400    293.42209   -367.99667    149083.33   -47440.021    4029.4458   -51469.467   0.15101049 
  178600     287.4877   -660.53646    149456.64    -47453.57    3947.9512   -51401.522   0.15408049 
  178800    294.53508   -647.28604    149460.05   -47421.278    4044.7301   -51466.008   0.15061366 
  179000    297.06021   -315.70363    149012.98   -47399.466    4079.4067   -51478.873   0.15562407 
  179200    296.82188   -367.75807    149090.15   -47423.396    4076.1338    -51499.53   0.15334323 
  179400    294.98807   -750.25855    149570.41   -47392.317    4050.9508   -51443.268   0.16338707 
  179600    291.18813   -565.51677    149424.13   -47398.837    3998.7678   -51397.605   0.15501951 
  179800    293.67608    -250.4791    148892.27   -47431.879    4032.9337   -51464.813   0.15146937 
  180000    297.29387   -377.75365    149134.93   -47398.319    4082.6154   -51480.934   0.15228767 
  180200    297.02276   -834.82182    149740.78   -47353.539    4078.8924   -51432.432   0.15565216 
  180400    298.42739   -559.25955    149366.63   -47312.117    4098.1816   -51410.299    0.1583968 
  180600    295.69659   -128.54415    148775.82    -47405.85    4060.6806   -51466.531   0.15542011 
  180800    295.41235   -542.41238    149294.24   -47367.112    4056.7773   -51423.889   0.15594079 
  181000    293.13821     -920.693    149822.85   -47402.866    4025.5473   -51428.413   0.16006595 
  181200    296.22178   -398.88714    149134.54    -47392.53    4067.8928   -51460.422   0.15483448 
  181400    298.39924   -61.816006    148710.58   -47434.821     4097.795   -51532.616   0.15240615 
  181600    286.89497    -678.3946    149478.09   -47451.593    3939.8115   -51391.404   0.15796972 
  181800    297.95504   -903.89609     149757.9   -47419.299     4091.695   -51510.994   0.15594621 
  182000    297.39888   -267.44977     148970.2   -47434.189    4084.0575   -51518.246   0.14867579 
  182200    297.07449   -217.59694    148861.72   -47452.639    4079.6027   -51532.241   0.14901376 
  182400    290.38394   -731.24871     149612.9   -47446.198    3987.7241   -51433.922   0.14976277 
  182600     296.5862   -662.20332    149597.21   -47408.705    4072.8972   -51481.602   0.15333517 
  182800    293.96062   -256.00583    148946.84   -47377.195    4036.8413   -51414.036   0.15251672 
  183000    295.22928   -354.65341    149098.23   -47379.637    4054.2632     -51433.9   0.15417026 
  183200    296.62466   -787.55044    149652.39   -47356.538    4073.4254   -51429.963   0.15374814 
  183400    295.69147   -581.54056    149388.74   -47366.346    4060.6103   -51426.957   0.15138044 
  183600    293.62389   -238.75118    148923.41    -47398.53    4032.2171   -51430.747   0.15474706 
  183800    296.27868   -484.86991    149195.78   -47431.904    4068.6741   -51500.578   0.14827068 
  184000    296.06664   -746.52532    149565.13   -47440.701    4065.7623   -51506.463   0.15429132 
  184200    293.43726   -494.24187     149239.8   -47486.072    4029.6541   -51515.726   0.15019853 
  184400    289.64265   -328.22135    148978.05   -47497.964    3977.5444   -51475.508   0.15079395 
  184600    292.87576   -539.54761     149308.5   -47504.688    4021.9433   -51526.631   0.14919845 
  184800    289.71879   -684.86016    149492.68   -47489.662    3978.5899   -51468.252   0.15608887 
  185000    290.16532   -427.92107    149175.02   -47481.909    3984.7219   -51466.631   0.15654089 
  185200    286.08342   -376.03594    149061.94   -47540.626    3928.6669   -51469.293   0.15234417 
  185400    292.34965   -569.91661    149358.49   -47517.222    4014.7185   -51531.941   0.14827868 
  185600    286.73037   -657.96156    149428.05   -47518.198    3937.5512   -51455.749   0.14977478 
  185800    290.95824   -389.79404    149104.55   -47465.704    3995.6108   -51461.315   0.15154182 
  186000    293.73674    -382.8137    149109.87   -47452.256    4033.7668   -51486.023   0.15404925 
  186200    296.41585   -620.67797    149436.29   -47442.175    4070.5579   -51512.733   0.15518076 
  186400    294.67769   -599.65168    149367.22   -47390.377    4046.6885   -51437.065   0.15461988 
  186600    293.26311    -347.5972    149064.66   -47426.619    4027.2625   -51453.882    0.1508118 
  186800    295.74801   -430.17613    149162.73   -47453.561    4061.3867   -51514.948   0.14876839 
  187000    289.49645    -675.6278    149432.16   -47420.859    3975.5366   -51396.395   0.15595994 
  187200    296.40357   -538.09857    149327.61   -47441.237    4070.3893   -51511.626   0.15201205 
  187400    293.39483   -398.76893     149084.4   -47428.657    4029.0715   -51457.728   0.15216116 
  187600    292.80877   -463.76459    149217.47   -47469.384    4021.0234   -51490.407   0.14519131 
  187800    297.56373   -602.57656    149432.97   -47455.844    4086.3213   -51542.165   0.14626688 
  188000    296.21643   -503.40085    149246.39   -47430.715    4067.8193   -51498.534   0.15228903 
  188200    297.76318     -360.705    149057.34   -47423.826    4089.0603   -51512.887    0.1513117 
  188400    292.84817   -553.98669    149308.75   -47408.799    4021.5645   -51430.364   0.15436572 
  188600    294.01725   -647.61871    149480.32   -47412.347    4037.6189   -51449.966   0.15555998 
  188800    296.66979   -432.43832    149191.71   -47427.966    4074.0451   -51502.012   0.14725023 
  189000    293.35454   -345.56109    149072.16   -47421.909    4028.5182   -51450.427   0.14825477 
  189200    294.26239   -585.25332    149395.95   -47422.789    4040.9854   -51463.774   0.14912106 
  189400    290.97044   -645.81263    149450.81   -47383.132    3995.7783    -51378.91   0.15506534 
  189600    295.36744   -297.47148    149042.49   -47401.229    4056.1605    -51457.39   0.14592179 
  189800    295.69516   -352.53451     149060.3   -47441.827    4060.6609   -51502.488   0.14298533 
  190000    298.50263   -751.99209    149632.84   -47469.584    4099.2148   -51568.799   0.14935099 
  190200    289.08542   -675.88335    149477.31    -47444.15    3969.8921   -51414.042    0.1541012 
  190400    293.80807   -126.44347     148735.3    -47447.15    4034.7463   -51481.896   0.15245593 
  190600    292.04758   -331.11918    149035.77   -47389.758    4010.5702   -51400.328   0.15165976 
  190800    298.94033   -964.26279    149884.36   -47414.768    4105.2255   -51519.994   0.14988055 
  191000    293.98484    -604.9931    149363.66   -47432.886    4037.1738    -51470.06   0.15295463 
  191200    291.83262     27.43784    148536.08   -47430.481    4007.6183   -51438.099   0.14523598 
  191400    295.33438   -472.94387    149255.32   -47454.731    4055.7065   -51510.437   0.14409847 
  191600    296.72077   -1045.0484    149998.18   -47401.037    4074.7453   -51475.783   0.15460513 
  191800    293.32405    -461.2254    149197.89   -47442.308    4028.0994   -51470.407   0.15357474 
  192000    289.84011   -57.450176    148642.51   -47445.754    3980.2559   -51426.009   0.15278468 
  192200    291.17572   -620.42414    149437.36   -47411.568    3998.5973   -51410.166   0.15318869 
  192400    295.81517   -847.18741     149795.6   -47413.762     4062.309   -51476.071   0.15119093 
  192600    297.73833   -284.20401    149063.25   -47451.169     4088.719   -51539.888   0.14440424 
  192800    294.32714   -222.77521     148903.5   -47428.623    4041.8745   -51470.498    0.1473113 
  193000    294.87459     -695.288    149539.66   -47414.381    4049.3925   -51463.774   0.14964611 
  193200    295.58982    -717.7393    149580.51   -47366.466    4059.2144    -51425.68    0.1547023 
  193400    294.96969   -350.54084    149072.39   -47372.898    4050.6984   -51423.596   0.14739759 
  193600    296.65069   -353.22801    149118.88   -47385.452    4073.7829   -51459.235    0.1494284 
  193800     290.1286   -711.98773    149514.61   -47430.574    3984.2176   -51414.792   0.15348839 
  194000    293.26033   -560.06945    149356.83    -47457.96    4027.2244   -51485.184   0.15146877 
  194200    299.34889   -322.00423     149068.1   -47445.541    4110.8362   -51556.377   0.15062648 
  194400    296.86346   -456.34485    149243.46   -47425.537    4076.7047   -51502.242   0.14467598 
  194600    293.47081   -627.22933    149435.25   -47448.601    4030.1149   -51478.716    0.1502053 
  194800    291.98159   -466.40644    149217.88   -47434.888    4009.6641   -51444.552   0.14859707 
  195000    294.35007   -407.62328    149090.12   -47418.593    4042.1894   -51460.782   0.15078003 
  195200    292.69502   -551.34404    149312.69   -47400.857    4019.4612   -51420.318   0.15151075 
  195400    294.54809    -635.4275    149381.53   -47403.126    4044.9088   -51448.034   0.15291878 
  195600    296.82971   -416.75485    149147.89   -47409.387    4076.2412   -51485.629   0.15115061 
  195800    292.63896   -420.09753    149135.18   -47455.115    4018.6914   -51473.807   0.15059411 
  196000    295.22929   -552.17434    149388.14   -47423.795    4054.2633   -51478.058   0.14916574 
  196200    295.48417    -588.5819    149363.98   -47410.212    4057.7635   -51467.975   0.15049529 
  196400    294.99536   -394.45885    149099.74   -47411.495    4051.0509   -51462.546   0.14962493 
  196600    288.90168   -417.87793    149143.08   -47477.597    3967.3689   -51444.966   0.14626946 
  196800    292.05489   -620.51161    149379.68   -47467.364    4010.6707   -51478.035   0.15264926 
  197000    289.93222   -519.02661    149289.37   -47477.673    3981.5209   -51459.194    0.1482354 
  197200      289.979   -382.15498     149046.4   -47536.144    3982.1633   -51518.307   0.15020331 
  197400    291.81557   -430.72763    149142.91   -47492.459    4007.3841   -51499.843   0.15054378 
  197600    296.02867   -613.28398    149347.38    -47402.38     4065.241   -51467.621   0.15199008 
  197800    294.42355    -536.7476    149246.14   -47389.387    4043.1985   -51432.585   0.15659473 
  198000    297.57765    -400.0606    149098.03   -47420.432    4086.5124   -51506.944    0.1449823 
  198200    296.08415    -492.8792    149265.64   -47444.792    4066.0028   -51510.794   0.14380629 
  198400    297.18961   -579.61669    149418.64   -47369.542    4081.1837   -51450.726   0.14589607 
  198600     296.3945   -460.23402    149255.27   -47361.766    4070.2648    -51432.03   0.14573034 
  198800    293.06569   -400.88331    149152.68   -47395.854    4024.5515   -51420.405   0.14773811 
  199000    297.08248   -527.34199    149336.67   -47402.264    4079.7124   -51481.976   0.14945062 
  199200    292.13829   -631.36729    149429.33   -47395.044    4011.8159    -51406.86   0.15135673 
  199400    293.51704   -443.50214    149172.87   -47408.727    4030.7497   -51439.476   0.14842005 
  199600    290.34975   -410.17867    149110.34   -47432.542    3987.2546   -51419.797   0.15323962 
  199800    298.28588   -557.23962     149439.7   -47409.378    4096.2383   -51505.616   0.14684836 
  200000    292.70707   -660.54683    149514.85   -47428.488    4019.6268   -51448.115   0.15048431 
Loop time of 108.301 on 6 procs for 200000 steps with 4608 atoms

Performance: 797.773 ns/day, 0.030 hours/ns, 1846.698 timesteps/s
97.9% CPU use with 6 MPI tasks x no OpenMP threads

MPI task timing breakdown:
Section |  min time  |  avg time  |  max time  |%varavg| %total
---------------------------------------------------------------
Pair    | 76.543     | 76.905     | 77.196     |   2.5 | 71.01
Neigh   | 12.341     | 12.529     | 12.833     |   5.9 | 11.57
Comm    | 8.2963     | 8.8942     | 9.4752     |  13.8 |  8.21
Output  | 3.0158     | 3.0168     | 3.0209     |   0.1 |  2.79
Modify  | 5.6198     | 5.7145     | 5.766      |   2.1 |  5.28
Other   |            | 1.241      |            |       |  1.15

Nlocal:        768.000 ave         779 max         748 min
Histogram: 1 0 0 0 1 0 0 2 0 2
Nghost:        1387.67 ave        1405 max        1375 min
Histogram: 1 1 0 1 0 2 0 0 0 1
Neighs:        0.00000 ave           0 max           0 min
Histogram: 6 0 0 0 0 0 0 0 0 0
FullNghs:      21860.7 ave       22177 max       21244 min
Histogram: 1 0 0 0 0 1 0 2 0 2

Total # of neighbors = 131164
Ave neighs/atom = 28.464410
Neighbor list builds = 12765
Dangerous builds = 0
write_data		data.${NAME}
write_data		data.ice_295K_-500atm_ML
System init for write_data ...
Total wall time: 0:02:40
