
# Create simulation box of size 50 x 50 x 50 Angstrom
#
lattice	            sc 1
Lattice spacing in x,y,z = 1.0000000 1.0000000 1.0000000
region 	            all block 0 ${X} ${YZ_LO} ${YZ_HI} ${YZ_LO} ${YZ_HI} units box
region 	            all block 0 53.4 ${YZ_LO} ${YZ_HI} ${YZ_LO} ${YZ_HI} units box
region 	            all block 0 53.4 -0.06251933714355218.0 ${YZ_HI} ${YZ_LO} ${YZ_HI} units box
region 	            all block 0 53.4 -0.06251933714355218.0 50.969639337143946.0 ${YZ_LO} ${YZ_HI} units box
region 	            all block 0 53.4 -0.06251933714355218.0 50.969639337143946.0 -0.06251933714355218.0 ${YZ_HI} units box
region 	            all block 0 53.4 -0.06251933714355218.0 50.969639337143946.0 -0.06251933714355218.0 50.969639337143946.0 units box
create_box          1 all
Created orthogonal box = (0.0000000 -0.062519337 -0.062519337) to (53.400000 50.969639 50.969639)
  3 by 1 by 2 MPI processor grid

# fill box with 4175 randomly distributed atoms
#
create_atoms        1 random 4608 63782 all
Created 4608 atoms
  create_atoms CPU = 0.001 seconds
mass                1 18.015

# Define potential
#
pair_style          sw
pair_coeff          * * /data/emrosky-sim/Freezing_Simulations/Melting/MLmW_fancy/ML_mW.sw mW
Reading sw potential file /data/emrosky-sim/Freezing_Simulations/Melting/MLmW_fancy/ML_mW.sw with DATE: 2019-02-27

# Run minimization
#
minimize            1.0e-8 1.0e-8 10000 1000
WARNING: Using 'neigh_modify every 1 delay 0 check yes' setting during minimization (../min.cpp:187)
Neighbor list info ...
  update every 1 steps, delay 0 steps, check yes
  max neighbors/atom: 2000, page size: 100000
  master list distance cutoff = 6.0032907
  ghost atom cutoff = 6.0032907
  binsize = 3.0016454, bins = 18 18 18
  1 neighbor lists, perpetual/occasional/extra = 1 0 0
  (1) pair sw, perpetual
      attributes: full, newton on
      pair build: full/bin/atomonly
      stencil: full/bin/3d
      bin: standard
Per MPI rank memory allocation (min/avg/max) = 4.236 | 4.249 | 4.255 Mbytes
Step Temp E_pair E_mol TotEng Press 
       0            0    7217905.5            0    7217905.5    4933059.9 
     649            0   -49863.219            0   -49863.219   -208.30684 
Loop time of 1.22137 on 6 procs for 649 steps with 4608 atoms

99.1% CPU use with 6 MPI tasks x no OpenMP threads

Minimization stats:
  Stopping criterion = max force evaluations
  Energy initial, next-to-last, final = 
      7217905.47112613  -49862.6703779474  -49863.2193091504
  Force two-norm initial, final = 1.6580981e+08 6.2393648
  Force max component initial, final = 88237192.0 1.3895333
  Final line search alpha, max atom move = 0.031353898 0.043567286
  Iterations, force evaluations = 649 1001

MPI task timing breakdown:
Section |  min time  |  avg time  |  max time  |%varavg| %total
---------------------------------------------------------------
Pair    | 0.99114    | 1.0634     | 1.1301     |   5.2 | 87.07
Neigh   | 0.029262   | 0.029847   | 0.03061    |   0.3 |  2.44
Comm    | 0.040181   | 0.10742    | 0.18009    |  16.5 |  8.79
Output  | 0          | 0          | 0          |   0.0 |  0.00
Modify  | 0          | 0          | 0          |   0.0 |  0.00
Other   |            | 0.0207     |            |       |  1.69

Nlocal:        768.000 ave         786 max         755 min
Histogram: 1 1 1 0 0 2 0 0 0 1
Nghost:        1574.83 ave        1583 max        1566 min
Histogram: 1 1 0 0 2 0 0 0 0 2
Neighs:        0.00000 ave           0 max           0 min
Histogram: 6 0 0 0 0 0 0 0 0 0
FullNghs:      21836.7 ave       22801 max       21142 min
Histogram: 1 1 0 1 0 2 0 0 0 1

Total # of neighbors = 131020
Ave neighs/atom = 28.433160
Neighbor list builds = 29
Dangerous builds = 0

# Add velocity/set timestep
#
velocity            all create ${TEMP} 120598 rot yes dist gaussian
velocity            all create 295 120598 rot yes dist gaussian
timestep            5.0

# Define output
#
compute	            1 all msd
thermo	            100
thermo_style        custom step temp press vol etotal ke pe c_1[4] density

# Neighbor lists
#
neigh_modify        delay 0 every 1 check yes

# Set fixes
#
fix                 1 all momentum 10 linear 1 1 1 rescale
fix                 2 all nve
fix                 3 all temp/csvr ${TEMP} ${TEMP} 500.0 928347
fix                 3 all temp/csvr 295 ${TEMP} 500.0 928347
fix                 3 all temp/csvr 295 295 500.0 928347
fix                 4 all press/berendsen iso ${PRES} ${PRES} 1000.0 modulus 20000
fix                 4 all press/berendsen iso -500 ${PRES} 1000.0 modulus 20000
fix                 4 all press/berendsen iso -500 -500 1000.0 modulus 20000

# Run 0.5 ns equilibration
#
dump                1 all custom 1000 eq.${NAME}.dump id type x y z vx vy vz
dump                1 all custom 1000 eq.liq_295K_-500atm_ML.dump id type x y z vx vy vz
run                 100000
Per MPI rank memory allocation (min/avg/max) = 3.486 | 3.501 | 3.505 Mbytes
Step Temp Press Volume TotEng KinEng PotEng c_1[4] Density 
     649          295    1123.3068    139068.62   -45812.105    4051.1146   -49863.219            0   0.99121225 
     700    173.75804   -369.69309    140292.89   -44836.257    2386.1483   -47222.405   0.29014282   0.98256239 
     800    220.23367   -237.31921    140782.43   -43567.526    3024.3792   -46591.905   0.82594552   0.97914572 
     900    242.28197    -407.4902    140929.46   -42804.747    3327.1594   -46131.907    1.4443409    0.9781242 
    1000    264.42626   -663.31361    140916.04   -42247.081    3631.2579   -45878.339    2.2039485   0.97821735 
    1100    274.11184   -527.36484    141328.54   -41825.947    3764.2661   -45590.214    3.0198828    0.9753622 
    1200    278.69312   -304.26302    141018.19   -41484.402    3827.1789   -45311.581    3.9953634   0.97750878 
    1300    286.21591   -432.28262    140832.37   -41280.447    3930.4862   -45210.934    5.0214336   0.97879851 
    1400    288.21133   -502.19317    140827.73   -41195.303    3957.8886   -45153.191    6.0744479   0.97883076 
    1500     286.6055   -375.13765    141005.47   -41101.527    3935.8363   -45037.363    7.4302231   0.97759693 
    1600    290.36756   -605.51418    140693.01   -41057.752    3987.4992   -45045.251    8.6524328   0.97976802 
    1700      292.114   -379.88751    140788.14   -41063.301    4011.4824   -45074.783    9.8523309   0.97910604 
    1800    292.00477   -463.90831    140382.34   -41072.184    4009.9824   -45082.166    10.942445   0.98193628 
    1900     291.9482   -557.45212    140450.43   -40964.397    4009.2055   -44973.602    12.067277   0.98146025 
    2000     294.5934   -549.32059    140474.61   -40929.211    4045.5309   -44974.742    13.342934   0.98129134 
    2100    291.70532   -393.71179    140590.75    -41005.16    4005.8702    -45011.03     14.40761    0.9804807 
    2200    301.38953   -184.70384    140738.17   -40945.022    4138.8595   -45083.881    15.802932   0.97945367 
    2300    296.30856   -426.68483    140642.26   -40960.916    4069.0845       -45030    17.251269    0.9801216 
    2400    297.92829   -474.91181    140473.38   -40943.673    4091.3276   -45035.001    18.509758   0.98129992 
    2500    294.58283   -378.87942    140348.72   -40936.732    4045.3857   -44982.117      19.6103    0.9821715 
    2600    292.07809   -774.04643    140230.06   -40833.266    4010.9892   -44844.255    20.881257   0.98300264 
    2700    291.91974    -324.8124     140280.4   -40913.198    4008.8146   -44922.013    21.921144   0.98264986 
    2800    300.23692   -640.37782    140415.91   -40909.459    4123.0312    -45032.49    23.389282   0.98170155 
    2900    298.08328   -612.12166    140204.23   -40858.876     4093.456   -44952.332    24.693418    0.9831837 
    3000    305.19464   -303.41967     140174.7   -40848.678    4191.1135   -45039.791    26.196856   0.98339087 
    3100     296.8361   -539.61583    139881.11   -40890.649     4076.329   -44966.978    27.694128   0.98545485 
    3200    303.18701   -437.17934    139905.69    -40883.79    4163.5435   -45047.334     29.35625   0.98528171 
    3300    297.88295   -630.34485    139705.26   -40886.648     4090.705   -44977.353    30.786506   0.98669527 
    3400    296.63055    -396.2544    139925.88   -40859.466    4073.5063   -44932.972    32.203516   0.98513956 
    3500    296.93595   -433.36222    140078.69   -40736.771    4077.7003   -44814.471    33.865584   0.98406489 
    3600    294.12956   -434.91589    140107.46   -40788.781    4039.1612   -44827.942    35.376947   0.98386279 
    3700    296.12313   -365.46303    140125.56   -40816.834     4066.538   -44883.372     36.70214   0.98373572 
    3800    298.21688   -264.88394     139963.7   -40817.403    4095.2907   -44912.694    38.031376   0.98487334 
    3900    289.99534   -760.92637    139916.01   -40994.319    3982.3876   -44976.706    39.382837   0.98520904 
    4000     295.9031   -285.30611    139974.41   -40941.598    4063.5165   -45005.114    40.349908   0.98479795 
    4100    293.73852   -688.93696    140015.59   -40889.596    4033.7912   -44923.387    41.588029   0.98450832 
    4200    298.30986   -338.01576    139901.75   -40897.872    4096.5676    -44994.44    42.556057   0.98530948 
    4300     291.3666   -377.32677    139607.75   -40902.508    4001.2186   -44903.727    43.621499   0.98738442 
    4400    297.94096   -391.03946    139585.22   -40857.406    4091.5017   -44948.908    44.740055   0.98754377 
    4500    298.60524   -645.42228    139811.53   -40827.428    4100.6239   -44928.051    46.076567   0.98594529 
    4600    295.62115   -462.33936    139918.09   -40920.861    4059.6446   -44980.506    47.242233   0.98519439 
    4700    292.89727   -614.73818    139851.82   -40991.983    4022.2386   -45014.222    48.331736   0.98566124 
    4800      299.792   -630.86144    139929.33   -40915.322    4116.9212   -45032.243    49.641768   0.98511524 
    4900    297.38661    -499.0136    140127.95   -40971.048     4083.889   -45054.937    50.997479   0.98371891 
    5000     296.2131    -68.39731    140455.56   -40905.203    4067.7736   -44972.977    52.370332   0.98142441 
    5100    292.40953   -622.61334    140557.12    -40977.97    4015.5407    -44993.51    53.815348   0.98071529 
    5200    291.81918   -493.82087    140336.03   -41078.585    4007.4336   -45086.019    55.263577   0.98226031 
    5300    286.72749   -280.71064    140288.12   -41023.842    3937.5115   -44961.354    56.634133    0.9825958 
    5400    298.70754   -585.06428    139984.65   -40872.541    4102.0287   -44974.569    58.224874   0.98472592 
    5500    293.73448   -410.07375    140292.47   -40821.732    4033.7357   -44855.467    59.926523   0.98256532 
    5600    292.46894   -384.23539       140496   -40750.689    4016.3565   -44767.046    61.429845   0.98114196 
    5700    298.63092   -727.94927    140465.53   -40813.003    4100.9765   -44913.979    62.714815   0.98135474 
    5800    303.43971   -285.91915    140374.47   -40740.909    4167.0138   -44907.923    63.901485   0.98199138 
    5900    295.18617   -660.09011    140248.15   -40924.813    4053.6712   -44978.484    65.014929    0.9828758 
    6000    291.12158   -419.30712    140372.94    -41002.81    3997.8539   -45000.664     66.35278   0.98200206 
    6100     288.1194    -184.8622    140357.98    -40911.01    3956.6261   -44867.637    67.830046   0.98210673 
    6200    295.32486   -594.67765    140519.65   -40982.041    4055.5758   -45037.617    69.067393    0.9809768 
    6300    301.00805   -537.64183    140580.29   -40952.712    4133.6207   -45086.333    70.170618   0.98055367 
    6400     293.4042    -417.0726    140590.18   -40937.798    4029.2002   -44966.998    70.929514   0.98048469 
    6500    293.62918   -365.82663    140492.13   -40999.707    4032.2897   -45031.997    72.256974   0.98116898 
    6600    291.09275   -613.02363     140463.5   -41032.154     3997.458   -45029.612     73.36846   0.98136893 
    6700    289.47952   -844.04608     140069.5   -41082.576    3975.3042    -45057.88    74.620749    0.9841294 
    6800    294.59578   -314.10346    139985.91   -41072.395    4045.5636   -45117.959    75.853689   0.98471708 
    6900    295.45021   -490.14922    140245.87   -40959.784    4057.2972   -45017.081    77.245774    0.9828918 
    7000    293.41404   -635.34223    140328.59   -40944.818    4029.3353   -44974.153    78.441336   0.98231244 
    7100    293.95083   -493.87301    140149.92   -40997.982    4036.7069   -45034.689    79.308715   0.98356472 
    7200    295.04288   -575.11068    140074.08   -41035.819    4051.7034   -45087.523     80.11768   0.98409728 
    7300    292.27017   -645.64816    140180.69   -40969.754    4013.6269   -44983.381    80.883573   0.98334881 
    7400    294.72754   -588.97526    139999.59   -41030.245     4047.373   -45077.618    81.422248   0.98462085 
    7500    292.41516   -505.16146    140030.15   -40956.989     4015.618   -44972.607    82.894294   0.98440597 
    7600    294.56999   -567.68398       140408   -40985.569    4045.2094   -45030.778    84.656545   0.98175683 
    7700    295.28525   -346.26354    140630.62   -40977.873    4055.0319   -45032.905    86.209029   0.98020274 
    7800     289.9954   -581.27578    140325.45   -40995.461    3982.3884   -44977.849    87.531492   0.98233443 
    7900    288.59602   -272.49885    140373.89       -41119    3963.1714   -45082.171    88.845567   0.98199541 
    8000    289.97198   -494.27342     140513.3   -41015.696    3982.0668   -44997.763    89.754167    0.9810211 
    8100    292.91932   -350.64591    140725.62    -40904.53    4022.5414   -44927.071    90.536183   0.97954098 
    8200    292.27776   -772.18909    140509.26   -40939.392    4013.7311   -44953.123    91.699686   0.98104935 
    8300     298.6926   -626.79544    140498.54   -40871.713    4101.8236   -44973.537    92.738521   0.98112419 
    8400    291.06692   -355.48497     140327.5   -40937.955    3997.1033   -44935.059    93.593196   0.98232006 
    8500    291.38177   -623.15153    140144.31   -40967.989    4001.4269   -44969.416    94.592578   0.98360406 
    8600    294.48314   -405.61333    140386.53   -40871.313    4044.0168   -44915.329    95.576958   0.98190703 
    8700    296.17395   -624.53611    140632.99   -40845.785     4067.236   -44913.021     96.91883   0.98018623 
    8800    294.20894   -561.05916    140692.94   -40836.717    4040.2513   -44876.969    98.324947   0.97976857 
    8900    297.30686   -339.92182    140526.93   -40833.947    4082.7938   -44916.741    99.515801   0.98092597 
    9000    302.84602   -740.70029    140778.41   -40748.955    4158.8609   -44907.816    100.99086   0.97917372 
    9100     294.2144    -467.5689    140737.59   -40823.519    4040.3263   -44863.846    102.33253   0.97945769 
    9200    290.66742    -399.9953    140491.39   -40879.851    3991.6171   -44871.468    103.29686   0.98117412 
    9300    302.57354   -539.40705    140372.85   -40804.166     4155.119   -44959.285    104.76143   0.98200266 
    9400    296.00849   -653.53846     139973.6   -40862.896    4064.9638    -44927.86    105.88886   0.98480366 
    9500    293.12383     -215.274    140249.83   -40917.882      4025.35   -44943.232    106.94509   0.98286409 
    9600    294.75308   -751.75357    139699.89   -40974.652    4047.7238   -45022.376    108.07389   0.98673319 
    9700    295.66572   -628.12886    139599.48   -40921.522    4060.2566   -44981.779     109.1187   0.98744292 
    9800    295.80888    -596.1453    140042.53    -40830.17    4062.2227   -44892.393    110.41684   0.98431892 
    9900    292.78567   -592.55433    140149.06   -40859.941    4020.7061   -44880.647    111.58023   0.98357079 
   10000    300.40207   -584.06932    140381.81   -40911.817     4125.299   -45037.116    112.34914   0.98193999 
   10100    288.99889   -525.24301    140083.94   -40878.071    3968.7038   -44846.775    113.13814     0.984028 
   10200    295.57126   -384.27989    140501.43   -40908.873    4058.9595   -44967.832    114.66972   0.98110398 
   10300    295.03289   -889.56062    140528.79   -40830.421    4051.5663   -44881.987    116.06418     0.980913 
   10400    296.39432   -427.44949    139980.52   -40786.738    4070.2622       -44857    116.72749   0.98475497 
   10500    295.37604   -409.13769    140341.08   -40815.009    4056.2786   -44871.288    118.16066   0.98222498 
   10600    296.05009   -435.05374    140099.75   -40805.678    4065.5351   -44871.213    119.33814   0.98391695 
   10700    293.56606   -599.46098    140158.93   -40831.277    4031.4228     -44862.7    120.57043   0.98350148 
   10800    298.20194   -390.04543    140392.06   -40733.949    4095.0856   -44829.034    121.65853    0.9818683 
   10900    293.68929   -551.33542    140573.64   -40730.485    4033.1151     -44763.6    123.14476   0.98060006 
   11000    299.60241   -221.62712    140492.55    -40715.01    4114.3176   -44829.328     124.2991   0.98116599 
   11100    292.68854   -606.03957    140381.93   -40803.575    4019.3722   -44822.947    125.53159    0.9819392 
   11200     294.2874   -315.33052    140216.08    -40787.37    4041.3288   -44828.698    126.23872   0.98310066 
   11300    294.58607   -589.84655    140119.81   -40859.225    4045.4303   -44904.655    127.36866   0.98377605 
   11400    294.27404   -539.88654    139910.91   -40906.536    4041.1453   -44947.681    128.49313   0.98524497 
   11500    289.07433   -283.58353    140011.08    -41029.95    3969.7397    -44999.69    129.95389   0.98454008 
   11600    294.22675   -384.89345    140117.08   -41042.498    4040.4958   -45082.994    131.13177   0.98379528 
   11700    297.09645   -423.77271    140433.76   -40968.519    4079.9044   -45048.423    132.56705   0.98157675 
   11800    294.83927   -614.04854    140514.88   -40984.511    4048.9073   -45033.419    133.80904   0.98101007 
   11900    286.98954   -667.41289    140404.16   -41063.666    3941.1102   -45004.777    134.90368   0.98178371 
   12000      289.728   -539.29727    140438.97   -41027.895    3978.7164   -45006.611    135.97233   0.98154035 
   12100     290.6918   -626.41023    140436.19   -40934.141    3991.9519   -44926.093    137.19073   0.98155981 
   12200    300.91611   -542.16532       140279   -40799.979    4132.3582   -44932.337    137.96706    0.9826597 
   12300    302.77703   -636.77915    140127.13   -40740.059    4157.9134   -44897.972    139.32787   0.98372469 
   12400    298.74147   -233.93249    140647.17   -40723.523    4102.4947   -44826.018    141.34316    0.9800874 
   12500    301.65386    -221.0751    140529.56   -40820.648    4142.4893   -44963.137    142.77966   0.98090765 
   12600    298.19753   -455.42984     140896.4   -40815.681    4095.0249   -44910.706    143.93319   0.97835369 
   12700    293.27713    -684.1444    140549.54   -40834.414    4027.4552   -44861.869    144.91532   0.98076821 
   12800    295.58251   -470.57379    140493.87   -40855.391     4059.114   -44914.505    146.03195   0.98115683 
   12900    291.67291   -306.16018    140408.95   -40877.268    4005.4251   -44882.693    147.18701   0.98175024 
   13000     300.5523    -419.3614    140793.31   -40912.744    4127.3621   -45040.106    148.39482   0.97907006 
   13100    294.40875   -745.61327    140717.62   -40910.205    4042.9952   -44953.201    149.86795   0.97959672 
   13200    297.68274   -507.40262    140644.79   -40826.418    4087.9556   -44914.374    151.17804   0.98010395 
   13300    297.60372   -421.09012    140647.03   -40852.192    4086.8704   -44939.062    152.36998   0.98008839 
   13400    297.14493   -445.80044    140764.86   -40873.561      4080.57   -44954.132    153.87011   0.97926797 
   13500    296.75021   -599.16268    140699.68   -40898.323    4075.1495   -44973.473    155.40776   0.97972161 
   13600    297.19984    -433.8136     140488.1   -40938.844     4081.324   -45020.168    156.43286   0.98119707 
   13700    293.96738   -617.70949     140646.4   -40967.624    4036.9341   -45004.558    157.46275   0.98009278 
   13800    290.95597     -472.745    140761.58   -41037.701    3995.5795   -45033.281    158.59669   0.97929075 
   13900    295.06248   -739.90336    140842.38    -40992.04    4051.9727   -45044.013    159.72233   0.97872893 
   14000    291.83256   -605.49144    140580.84   -41101.079    4007.6175   -45108.697    160.63849   0.98054984 
   14100    295.88457   -407.61334    140439.68   -40998.374     4063.262   -45061.636     161.7744   0.98153538 
   14200    291.96116   -554.08512    140509.31   -40989.047    4009.3835    -44998.43    163.28358   0.98104899 
   14300    291.85362   -505.88839    140384.48   -41041.653    4007.9067    -45049.56    164.35368   0.98192131 
   14400    297.10689   -655.05389     140277.5   -40946.079    4080.0476   -45026.127    165.01609   0.98267021 
   14500    293.82495   -397.94689    140125.94   -41028.188    4034.9782   -45063.166    166.10209   0.98373302 
   14600    295.02137   -423.20918    139903.87   -40890.899    4051.4081   -44942.307    167.36015   0.98529452 
   14700    291.57212   -472.43177    140080.18   -40935.652    4004.0409   -44939.693    169.51259   0.98405442 
   14800    295.71059   -769.57088    139675.49   -40929.019    4060.8729   -44989.892    170.79871   0.98690554 
   14900    296.86655   -240.52519    139661.62   -40876.752    4076.7472   -44953.499    171.84599   0.98700359 
   15000    294.04853   -560.80919       139674   -40977.219    4038.0485   -45015.267    173.27657   0.98691606 
   15100    296.38014   -499.02918    139854.23   -40939.939    4070.0676   -45010.006    175.29615   0.98564421 
   15200    291.53454   -885.48145    139827.72   -41007.296    4003.5249   -45010.821    176.09474   0.98583108 
   15300    294.58669   -221.28749    139863.63   -40942.429    4045.4388   -44987.868    176.97694   0.98557798 
   15400    300.00007   -553.50135    140251.42   -40843.693    4119.7786   -44963.472    178.37755   0.98285289 
   15500    291.41276   -879.53221    139969.56   -40891.839    4001.8525   -44893.692    179.64208   0.98483211 
   15600    291.83029   -442.48919    139976.77   -40945.327    4007.5863   -44952.913    180.57993   0.98478137 
   15700    291.65007   -525.35551     140144.2   -40912.135    4005.1114   -44917.246    181.49417   0.98360489 
   15800    293.55302   -316.78318    140131.27   -40893.498    4031.2439   -44924.742     181.9151   0.98369565 
   15900    298.22958   -469.86903    140176.11   -40893.625    4095.4651    -44989.09    182.68826   0.98338092 
   16000    297.90085   -421.66987    140630.56   -40946.311    4090.9508   -45037.262    184.29273   0.98020316 
   16100    290.19809   -513.63867    140919.32   -40923.248     3985.172    -44908.42    185.42263   0.97819462 
   16200    299.17782   -526.83367    140670.41   -40793.367    4108.4869   -44901.854    186.82259   0.97992545 
   16300    300.92608   -262.26454    140572.19    -40773.26    4132.4951   -44905.755    188.55693   0.98061015 
   16400    303.52462   -415.66157    140496.89   -40788.992    4168.1797   -44957.172    189.55233    0.9811357 
   16500    289.16123   -725.43872    140400.91   -40832.985    3970.9331   -44803.918    190.77665   0.98180642 
   16600    297.22295   -761.16952    140316.99   -40868.417    4081.6415   -44950.059    191.99111   0.98239361 
   16700     299.8609   -651.74732    140427.67   -40939.355    4117.8674   -45057.222    193.43646   0.98161933 
   16800    297.69164   -315.19324    140307.44   -40914.211    4088.0778   -45002.289    194.44678   0.98246051 
   16900     292.6404   -572.21782    140530.26   -40939.486    4018.7112   -44958.198    195.84629   0.98090276 
   17000    297.46336   -654.39979    140546.79    -40888.15    4084.9429   -44973.093    196.45136   0.98078735 
   17100    297.30706   -518.72409    140266.79    -40878.73    4082.7965   -44961.527    197.09287   0.98274521 
   17200    294.65057   -430.71894    139846.52   -40850.239     4046.316   -44896.556    197.92673   0.98569861 
   17300    297.50687   -807.71161    139933.84   -40876.921    4085.5404   -44962.462    199.70129   0.98508353 
   17400    293.94557   -431.93655    139966.57   -40850.137    4036.6345   -44886.771    201.38577   0.98485315 
   17500    299.29695   -690.61864    140019.36    -40885.39    4110.1229   -44995.513    203.13994   0.98448184 
   17600    293.75308    -327.0648    140072.09   -40905.882    4033.9912   -44939.873    204.74229   0.98411126 
   17700     295.8387   -465.31249    140141.23   -40907.875    4062.6322   -44970.507    205.72627    0.9836257 
   17800    295.20316    -797.2365    140243.47   -40978.183    4053.9046   -45032.087    207.22444   0.98290864 
   17900    295.88031   -716.91922    140056.74   -41017.053    4063.2036   -45080.256    208.38161   0.98421909 
   18000    285.71845   -657.02835    140004.82   -41065.647    3923.6549   -44989.302    209.59081    0.9845841 
   18100    297.16577   -496.00747    139894.26   -41010.734    4080.8562   -45091.591    211.12158   0.98536223 
   18200    293.31518   -376.50286    140137.59   -40958.132    4027.9776    -44986.11     212.2701   0.98365129 
   18300    291.29151   -410.97517    140157.06   -40959.533    4000.1874    -44959.72    213.24046   0.98351459 
   18400    287.36813   -523.67163     140119.6   -41014.734    3946.3093   -44961.043    214.70704   0.98377753 
   18500    291.71874   -460.76332    139968.76   -40883.434    4006.0544   -44889.488    215.61379    0.9848377 
   18600    290.36019   -642.74637     140056.3   -40889.253    3987.3979   -44876.651    217.35073    0.9842222 
   18700    291.80482    -422.0371    139892.51   -40783.962    4007.2365   -44791.198    217.97645   0.98537454 
   18800    295.32068   -264.17615    140140.07   -40874.584    4055.5184   -44930.102    219.75536   0.98363384 
   18900     295.1149   -293.80073    140398.99   -40869.113    4052.6925   -44921.805    221.70413   0.98181988 
   19000    293.40809   -574.63446    140091.19   -40878.177    4029.2535    -44907.43    222.19939   0.98397705 
   19100    292.21956   -328.46293    140267.48   -40902.549     4012.932   -44915.481    223.69697   0.98274041 
   19200    301.65243   -470.18471    140201.78    -40857.36    4142.4697   -44999.829     225.3213   0.98320092 
   19300    297.68282   -446.48612    140241.75   -40871.458    4087.9567   -44959.415    226.74635   0.98292067 
   19400    292.01911   -604.89209    140302.02   -40935.739    4010.1793   -44945.918    228.01863   0.98249841 
   19500    300.53243   -396.44191    140097.81   -40925.162    4127.0892   -45052.251    229.47612   0.98393054 
   19600     295.7071   -659.20301    140125.29   -40884.181    4060.8249   -44945.006    231.35399   0.98373759 
   19700     299.0774   -505.29455    140366.66   -40836.735    4107.1079   -44943.843    232.67502   0.98204603 
   19800     300.5493   -488.96247    140181.16   -40853.457    4127.3209   -44980.778    233.61003   0.98334551 
   19900    296.95877   -724.60459    140299.62   -40789.402    4078.0135   -44867.416    234.37876   0.98251524 
   20000    300.75375   -397.75028    140431.23   -40779.818    4130.1285   -44909.947    235.92477   0.98159448 
   20100     298.0769   -637.34376    140322.45   -40794.087    4093.3684   -44887.456    236.97989    0.9823554 
   20200    306.03081    -628.6225    140550.83   -40740.111    4202.5962   -44942.707    238.62386   0.98075917 
   20300    300.29921   -336.24276    140556.07   -40748.199    4123.8864   -44872.085    240.52365   0.98072261 
   20400    298.03224   -775.20495    140181.41   -40801.214    4092.7551   -44893.969    241.40643   0.98334374 
   20500    298.48966   -377.78453    139924.23   -40726.167    4099.0366   -44825.203    242.62182   0.98515116 
   20600    296.22165   -481.17034    140274.49   -40805.094    4067.8911   -44872.985    244.39533   0.98269124 
   20700    295.73659   -693.79552    140072.42   -40919.616      4061.23   -44980.846    245.87368   0.98410889 
   20800    298.61812   -465.67068    140160.02   -40943.367    4100.8008   -45044.168     246.7135   0.98349381 
   20900    296.94673   -461.95374    140060.19   -40887.566    4077.8483   -44965.414    247.89691   0.98419482 
   21000    296.22565   -540.41006    140375.22   -40836.561     4067.946   -44904.507    249.27983   0.98198614 
   21100    293.88383   -426.05731    140237.89   -40915.602    4035.7867   -44951.389    250.28721   0.98294777 
   21200    291.23892   -648.02842    139759.39   -40977.879    3999.4652   -44977.344    251.44262   0.98631313 
   21300    293.35985   -418.78851    140045.92   -41006.007    4028.5911   -45034.598    252.59504   0.98429511 
   21400    292.75893   -482.90539    140058.18   -40899.539    4020.3388   -44919.878    253.37736     0.984209 
   21500    293.22912   -647.01202    139849.48   -40817.032    4026.7958   -44843.828    254.30224   0.98567771 
   21600    297.48215   -414.04879    139673.25   -40866.259    4085.2009    -44951.46    255.58007   0.98692135 
   21700    299.13933   -657.39881    139682.03   -40855.948    4107.9584   -44963.906    256.65152   0.98685937 
   21800    298.32843    -461.1024    139540.37   -40776.103    4096.8226   -44872.926    257.40162    0.9878612 
   21900    301.25532   -701.10204    139304.85    -40779.42    4137.0164   -44916.437    258.40196   0.98953137 
   22000    291.58141   -119.16238    139353.05   -40883.834    4004.1685   -44888.003     259.3588   0.98918908 
   22100    294.24618   -745.20919    139499.24   -40829.518    4040.7627    -44870.28    261.01061   0.98815246 
   22200    300.31019   -662.21292     139341.3   -40809.138    4124.0372   -44933.175    261.86542   0.98927251 
   22300    298.20874   -457.58131    139259.96   -40834.155     4095.179   -44929.334    263.41115   0.98985033 
   22400    295.50506   -394.21399    139734.56   -40898.803    4058.0504   -44956.853    265.16213   0.98648835 
   22500    292.27872   -893.64284    139769.38   -40909.559    4013.7444   -44923.304    266.69986   0.98624259 
   22600    289.70346   -283.40091    139721.17   -40939.272    3978.3794   -44917.652    268.63965   0.98658289 
   22700    296.02407   -467.05509    139612.28   -40887.878    4065.1777   -44953.055    269.75437   0.98735241 
   22800    292.08183   -416.12965    139396.04   -41023.869    4011.0406   -45034.909     271.1974   0.98888402 
   22900    296.35334   -473.95309    139776.17   -40969.906    4069.6995   -45039.606    272.72111   0.98619467 
   23000    294.58368   -308.78087    140383.79   -40846.258    4045.3975   -44891.655    274.84066   0.98192618 
   23100    302.72393   -352.08341    140470.66     -40878.2    4157.1841   -45035.384    275.40235   0.98131891 
   23200    290.28184   -394.65234    140721.44   -40934.872    3986.3221   -44921.194    276.47687   0.97957012 
   23300    291.71302   -348.99362    140669.43   -41027.027    4005.9758   -45033.002    277.98742   0.97993226 
   23400     298.2076   -553.12316    140892.71    -40923.38    4095.1632   -45018.543    279.75099   0.97837937 
   23500    293.63201   -412.84767    140829.42   -40965.426    4032.3285   -44997.755    280.73971   0.97881906 
   23600    288.90164   -566.34283    140855.78   -41017.268    3967.3683   -44984.636    281.64979   0.97863583 
   23700    290.32189   -515.87407    140810.35   -41052.276     3986.872   -45039.148    283.21913   0.97895159 
   23800    295.29033    -240.2748    140872.74     -40972.7    4055.1016   -45027.801    284.44658     0.978518 
   23900    297.19447   -652.04494    140747.61   -40916.131    4081.2504   -44997.381    285.83388   0.97938796 
   24000    291.89503   -583.82469       140768   -40885.648    4008.4753   -44894.123    287.47388   0.97924613 
   24100    300.89029   -366.57125    140697.37   -40885.722    4132.0035   -45017.725    288.89558    0.9797377 
   24200    300.35449    -646.9587    140561.07   -40823.743    4124.6456   -44948.388     289.9528    0.9806877 
   24300    301.84885   -673.01121    140520.13   -40895.749    4145.1671   -45040.916    291.36132   0.98097342 
   24400    302.00463   -634.97434    140464.95   -40861.432    4147.3063   -45008.738    292.46829   0.98135879 
   24500    292.54818   -347.77382    140541.58   -40927.968    4017.4448   -44945.413    293.48299    0.9808237 
   24600    295.75586   -411.82532    140786.19    -40874.71    4061.4945   -44936.204    294.51065   0.97911956 
   24700    297.89469   -581.84551    140657.17   -40870.325    4090.8663   -44961.191    295.32404   0.98001768 
   24800     298.4226   -541.90529    140362.65    -40909.42    4098.1158   -45007.536    296.06448   0.98207403 
   24900    298.03864   -337.29228    140512.05   -40914.129     4092.843   -45006.972    297.23766   0.98102986 
   25000    295.73582   -644.31384    140484.43   -40958.475    4061.2193   -45019.694    297.60981   0.98122277 
   25100    295.03095   -561.71387    140126.81   -41017.067    4051.5397   -45068.607    298.49944   0.98372694 
   25200    294.02492   -466.94243    140101.04   -41014.982    4037.7242   -45052.706    299.50513   0.98390786 
   25300    290.13186   -369.97622    140004.62   -41068.565    3984.2625   -45052.828    300.46955   0.98458551 
   25400    301.21203   -594.20891    140061.05   -40961.741    4136.4219   -45098.163    302.10669   0.98418883 
   25500    298.79651   -484.71622    140018.93   -41047.654    4103.2505   -45150.904    302.61421   0.98448487 
   25600    290.17512   -242.30394       140367   -41088.758    3984.8565   -45073.614    304.63416   0.98204359 
   25700    294.14931   -390.23715    140458.49   -41050.405    4039.4325   -45089.838    305.46169   0.98140396 
   25800    292.33257    -670.4003    140703.38   -41137.745    4014.4838   -45152.229    306.54555   0.97969582 
   25900    291.38774   -457.05609    140284.39   -41147.256    4001.5089   -45148.765    307.39917    0.9826219 
   26000    294.40338   -441.04378    140365.25   -40986.134    4042.9214   -45029.055    309.09775   0.98205585 
   26100    289.36198   -449.02473    140348.43   -40999.852    3973.6899   -44973.542    310.60907   0.98217357 
   26200     297.4448   -667.96467    140509.19   -40827.628     4084.688   -44912.316    312.23999   0.98104979 
   26300     291.8828   -332.75749    140535.23   -40914.401    4008.3073   -44922.708    313.47214   0.98086807 
   26400    296.36908   -452.68039    140320.86   -40886.205    4069.9156    -44956.12    314.57548   0.98236654 
   26500    294.14418   -343.37192    140070.93   -40800.139     4039.362     -44839.5    315.52762   0.98411936 
   26600    293.12766   -606.83842    140313.97   -40921.628    4025.4026    -44947.03    317.21923   0.98241474 
   26700    292.78488   -465.32512    140195.79   -40852.856    4020.6953   -44873.551    317.87613    0.9832429 
   26800    290.80234   -502.52579    140257.42    -40878.63    3993.4699     -44872.1    319.33753   0.98281085 
   26900    291.18562   -611.82788    140298.06   -40966.707    3998.7333    -44965.44    320.59033   0.98252619 
   27000    292.85013   -780.35536    140416.03   -41023.219    4021.5914   -45044.811    322.01706    0.9817007 
   27100    295.69704   -440.25518     140354.6   -40911.782    4060.6867   -44972.468    322.95371   0.98213037 
   27200    293.92594   -470.12493    140204.75   -40869.419     4036.365   -44905.784    323.48946   0.98318011 
   27300    297.90005    -400.0089    140131.14    -40814.34    4090.9399    -44905.28    324.85247   0.98369657 
   27400    300.07265   -442.11916    139914.57   -40865.477    4120.7752   -44986.252    325.53181   0.98521919 
   27500    293.22927   -753.82381    139786.31   -40900.949    4026.7979   -44927.747    326.48798   0.98612317 
   27600    297.21847   -685.25297     139895.4   -40833.714      4081.58   -44915.294    328.44602    0.9853542 
   27700    303.85722   -542.06651    140043.35   -40836.209    4172.7472   -45008.956    330.34762    0.9843132 
   27800      292.984   -556.08399    139747.55   -40847.486    4023.4296   -44870.916    331.34791   0.98639664 
   27900    299.02587   -419.04297    140056.62    -40779.95    4106.4003    -44886.35    333.34066   0.98421991 
   28000    299.27587   -705.60403    140199.26   -40726.834    4109.8334   -44836.667     334.9672   0.98321855 
   28100    294.41351    -415.9984    140484.99   -40822.931    4043.0606   -44865.992    336.54055   0.98121879 
   28200    296.21641   -324.63446     140162.7   -40934.847     4067.819   -45002.666    337.93631   0.98347507 
   28300    292.76444   -693.84864    140137.77   -40907.729    4020.4146   -44928.144    338.83765      0.98365 
   28400    299.34054   -465.74771    140120.75   -40783.539    4110.7215   -44894.261    340.21627   0.98376947 
   28500    294.26828   -531.40657    140192.54   -40874.788    4041.0662   -44915.854    341.39023   0.98326569 
   28600    295.33959   -580.88238    140106.65   -40903.341    4055.7781    -44959.12    342.61229   0.98386849 
   28700     288.5413   -490.35705    139942.87   -40935.539    3962.4199   -44897.959    343.50624   0.98501994 
   28800    294.06627   -654.85361    139938.75   -40884.652     4038.292   -44922.944    345.11444   0.98504897 
   28900    292.52012    -499.8861     140008.6   -40888.549    4017.0594   -44905.608     346.4733   0.98455753 
   29000    293.15421   -683.11448    139776.74   -40876.081    4025.7672   -44901.848    347.71516   0.98619068 
   29100    291.77653   -761.85467    139876.51   -40859.904    4006.8481   -44866.752    349.00432   0.98548726 
   29200    296.02067   -313.12944    140368.01   -40900.166     4065.131   -44965.297    352.12699   0.98203656 
   29300    299.77913    -736.4263    140142.03   -40841.087    4116.7444   -44957.832     353.6493   0.98362012 
   29400    291.67911   -478.50796    139933.16   -40936.821    4005.5102   -44942.331    354.49268    0.9850883 
   29500    296.80506   -244.72174    140311.66   -40926.701    4075.9028   -45002.604    355.92544   0.98243095 
   29600    290.62042   -481.58841    140688.23   -40953.782    3990.9716   -44944.754    357.23917   0.97980134 
   29700    295.77335   -750.23697    140783.61   -40875.967    4061.7347   -44937.702    358.47476   0.97913755 
   29800    303.17212   -507.59066    140966.45     -40814.6     4163.339   -44977.939    360.13719   0.97786754 
   29900    293.86382   -587.22176    141175.27   -40808.508    4035.5119    -44844.02    361.86488   0.97642116 
   30000    301.94463   -749.05753     140965.6   -40810.675    4146.4824   -44957.157     362.4151   0.97787344 
   30100    295.97996   -852.58022    140440.88   -40838.738     4064.572    -44903.31    362.92591     0.981527 
   30200    296.98799   -162.04289    140664.05   -40847.944    4078.4149   -44926.359    364.10335   0.97996979 
   30300    292.02455   -652.08674       140767   -40828.948     4010.254   -44839.202    365.87128   0.97925304 
   30400    291.73951   -741.09123     140466.9    -40999.67    4006.3397    -45006.01    365.98422   0.98134522 
   30500    292.12838   -515.17667    140402.39    -40996.84    4011.6798    -45008.52     366.8492   0.98179606 
   30600    289.23168   -662.27893    140298.49   -41046.999    3971.9006     -45018.9    368.08338   0.98252318 
   30700    294.12007    -398.6684    140119.81    -40963.79    4039.0309   -45002.821    368.94661   0.98377605 
   30800     296.8423   -574.38226    140231.14   -40915.175    4076.4142   -44991.589    370.69251   0.98299504 
   30900    297.67422   -404.46224    140106.99   -41000.852    4087.8386    -45088.69     371.8297   0.98386612 
   31000    293.85977   -72.932145    140000.75   -40980.705    4035.4564   -45016.162    373.36268   0.98461269 
   31100    285.91979   -487.66482    140068.77   -41080.259    3926.4198   -45006.679    375.07695   0.98413457 
   31200    292.10586   -354.62197    139947.32   -41022.605    4011.3705   -45033.975    376.36835   0.98498863 
   31300    291.26744   -420.84322    140440.51   -40967.442    3999.8569   -44967.299    378.12549   0.98152959 
   31400    291.45294   -796.21445     140080.1   -40973.565    4002.4043    -44975.97    378.84767   0.98405497 
   31500    293.73921   -632.77781    140267.27   -40854.462    4033.8007   -44888.262    379.79151   0.98274183 
   31600    297.40653   -503.44948    140457.84    -40913.33    4084.1625   -44997.492    380.97197   0.98140851 
   31700    296.45827   -386.83179    140734.45   -40922.064    4071.1405   -44993.204    382.16043   0.97947957 
   31800    293.63623     -461.788    140582.28   -40958.578    4032.3865   -44990.964    382.33391   0.98053975 
   31900    297.67062   -681.23305    140402.02   -40906.532    4087.7891   -44994.321    383.51831   0.98179867 
   32000    297.85166   -456.19186    140659.95   -40936.418    4090.2753   -45026.693    385.25438   0.97999833 
   32100    292.01776   -602.44007       140576   -40953.029    4010.1607   -44963.189    385.90527   0.98058356 
   32200    294.75589   -514.02671    140214.68   -40962.142    4047.7624   -45009.904    386.32903   0.98311046 
   32300    298.27297    -485.1019    140150.59   -40939.693     4096.061   -45035.754     387.2017   0.98356003 
   32400    295.37274   -601.10209    140175.92   -40836.086    4056.2333    -44892.32     388.2104   0.98338227 
   32500    290.54281   -387.25119    139799.51   -40949.864    3989.9058    -44939.77    389.07141   0.98603006 
   32600    286.63614   -408.82496    139512.22   -40953.589    3936.2571   -44889.846    390.21243   0.98806049 
   32700    291.47392   -682.09656    139850.99    -40868.14    4002.6924   -44870.832    392.53267   0.98566706 
   32800    288.53382   -545.53352    139906.49   -40924.516    3962.3172   -44886.833    393.94763   0.98527609 
   32900    289.04929   -353.63478    139924.19   -41034.954    3969.3959    -45004.35    395.08597   0.98515143 
   33000    295.05084   -171.59111    140268.48   -40940.709    4051.8128   -44992.522    397.98993   0.98273341 
   33100    292.29918   -512.77549    140312.11   -40874.199    4014.0253   -44888.224    398.86495   0.98242777 
   33200     295.5266   -608.91339    140256.67   -40813.016    4058.3462   -44871.362    400.01151   0.98281616 
   33300    291.53771   -659.68758    140194.82     -40825.9    4003.5684   -44829.469    400.74611   0.98324973 
   33400    296.24405   -748.71937    139808.49   -40840.288    4068.1987   -44908.486    401.07414   0.98596671 
   33500    297.67534   -446.53039    139842.66   -40756.415     4087.854   -44844.269    402.36436    0.9857258 
   33600    297.97341   -610.92731    140123.19   -40789.714    4091.9473   -44881.661    404.34833   0.98375237 
   33700     295.2804   -487.51224    139958.12   -40821.304    4054.9652   -44876.269    405.00455   0.98491263 
   33800    299.83169   -408.07757    139695.51   -40825.459    4117.4662   -44942.925    405.00377    0.9867641 
   33900    293.03239   -491.89914    139737.44   -40825.775    4024.0942   -44849.869    406.48492   0.98646805 
   34000     293.1971   -512.09394    140034.66    -40869.44    4026.3561   -44895.796    407.98765   0.98437428 
   34100    293.04849   -121.59785    139783.83   -40926.249    4024.3153   -44950.565    408.53938   0.98614068 
   34200    295.29283   -437.97318    140099.13   -40940.665     4055.136   -44995.801    410.69913   0.98392129 
   34300    294.41773   -527.77908    140058.62    -40886.01    4043.1186   -44929.128    411.80949   0.98420589 
   34400    296.18454   -624.72575    140181.68   -40774.829    4067.3814    -44842.21    413.30276   0.98334191 
   34500    298.14587   -523.72156    140157.88   -40706.753    4094.3156   -44801.069    414.61559   0.98350888 
   34600    295.89724   -579.47741    140364.33   -40815.351    4063.4361   -44878.787    415.48211   0.98206227 
   34700    288.69736   -357.42947    140231.66   -40879.687     3964.563    -44844.25    416.31302   0.98299138 
   34800    292.11469   -322.55173    140204.15   -40877.382    4011.4918   -44888.874    417.35902   0.98318429 
   34900    300.04284   -706.76078     139775.5   -40847.638    4120.3659   -44968.004    418.52278   0.98619942 
   35000    294.38196   -829.09722    139791.41    -40890.18    4042.6274   -44932.808    419.18207    0.9860872 
   35100    299.36071   -432.53424    139698.68   -40820.494    4110.9985   -44931.493    419.92938   0.98674169 
   35200    299.36653   -521.74209    139990.98   -40715.241    4111.0784   -44826.319    420.87883   0.98468141 
   35300    297.78662   -610.87793    139692.38   -40828.526    4089.3822   -44917.909    420.76674   0.98678626 
   35400    294.99341   -545.50079    139548.87   -40957.579    4051.0241   -45008.603    421.21107   0.98780102 
   35500    294.61629   -450.79862    139644.04   -40921.905    4045.8452    -44967.75    422.80043   0.98712779 
   35600    295.48479   -256.77855    139932.54   -40903.164     4057.772   -44960.936    424.39671   0.98509266 
   35700    295.44024   -326.16839    140076.47   -40856.251    4057.1602   -44913.411    426.83487   0.98408044 
   35800    296.16269   -397.79752    140376.81   -40826.015    4067.0814   -44893.096    428.80375   0.98197496 
   35900    295.57818   -650.14442    140300.87   -40794.774    4059.0545   -44853.829    430.62497   0.98250653 
   36000    292.16298   -419.85447    140196.98   -40859.663    4012.1549   -44871.818    431.47071   0.98323457 
   36100    293.95581    -375.3542    140369.83   -40897.169    4036.7752   -44933.944    432.42195   0.98202379 
   36200    296.95289   -637.31801    140485.75   -40853.353    4077.9329   -44931.286     433.4641   0.98121349 
   36300     296.8165   -530.51427     140498.2    -40848.56    4076.0598    -44924.62    433.44545   0.98112657 
   36400    297.03062    -447.8602     140695.3   -40703.652    4079.0002   -44782.653    435.25389   0.97975209 
   36500    300.79785   -494.61352    141036.73   -40683.281    4130.7342   -44814.015    437.42954   0.97738028 
   36600    294.72756   -363.55257    141019.72   -40825.877    4047.3733    -44873.25    438.41301   0.97749818 
   36700    296.45112   -515.87202    140616.97   -40864.873    4071.0423   -44935.915    438.38255    0.9802979 
   36800    290.92182   -634.10275    140363.36   -40918.241    3995.1106   -44913.351    438.85496   0.98206909 
   36900    288.55706   -372.71081    140139.32   -40977.355    3962.6363   -44939.991    439.76679   0.98363909 
   37000    295.31116   -457.66119    140371.24   -40956.214    4055.3876   -45011.602    441.79144   0.98201393 
   37100    291.90332   -500.02965    140521.46   -40977.777    4008.5891   -44986.367    443.66766   0.98096416 
   37200    294.44209   -767.86256    141010.58   -40959.152    4043.4531   -45002.605    445.99605    0.9775615 
   37300    296.02903   -424.15435    140458.29   -40948.469    4065.2459   -45013.715    446.53666   0.98140534 
   37400     293.3076   -406.32281    140382.95   -40998.133    4027.8735   -45026.007    447.63589   0.98193205 
   37500    291.18267   -737.76109    140142.59   -41011.412    3998.6927   -45010.105    448.05184   0.98361618 
   37600    297.74398   -502.21606    140218.91   -40995.149    4088.7966   -45083.945    449.21023   0.98308081 
   37700    289.63006   -595.26337    140148.17   -41049.521    3977.3714   -45026.892    450.64165   0.98357701 
   37800    291.97066   -643.78869    139947.02    -41012.74    4009.5139   -45022.253    451.56035   0.98499075 
   37900    295.41814    -359.9025    140433.34    -40990.24    4056.8568   -45047.097    453.94701   0.98157974 
   38000    292.39546   -576.30268    140648.11   -40974.482    4015.3475   -44989.829     455.5365   0.98008082 
   38100    292.94313   -527.36153    140346.86   -41007.904    4022.8685   -45030.773    455.31349   0.98218456 
   38200    292.25554   -667.48384    140329.02     -41068.7    4013.4261   -45082.126    456.36868   0.98230941 
   38300    288.46443   -443.82601    140216.63    -41132.19    3961.3643   -45093.554    457.50302   0.98309677 
   38400     285.2746   -413.86891    139967.73   -41214.346    3917.5596   -45131.906    457.92851   0.98484498 
   38500    292.55503   -441.71798    140101.78   -41177.281    4017.5388    -45194.82    458.50952    0.9839027 
   38600    289.60377    -623.7838    140003.89   -41065.422    3977.0104   -45042.432    459.47288   0.98459062 
   38700    292.48779   -497.18264    139998.52   -41051.038    4016.6154   -45067.654    460.66291   0.98462838 
   38800    290.79551   -323.07702    140277.82   -40998.389    3993.3761   -44991.765    462.58581   0.98266792 
   38900    291.38606   -569.97326    140082.75   -40863.153    4001.4859   -44864.638    463.40905   0.98403631 
   39000    299.98012   -300.23649    140100.45    -40851.14    4119.5046   -44970.645    464.63414   0.98391204 
   39100     290.9766   -755.22565    139853.11   -40961.422     3995.863   -44957.285    465.80337   0.98565212 
   39200    292.96601   -448.66089       140018   -40912.493    4023.1826   -44935.675    467.52517   0.98449141 
   39300    294.09482   -456.28483    139921.12   -40913.339    4038.6842   -44952.023    468.47313   0.98517307 
   39400    295.29903    -253.1299    139920.78   -40940.772     4055.221   -44995.993    470.43219   0.98517542 
   39500    297.60443    -165.1968    139950.63   -40896.172    4086.8802   -44983.052    471.41975   0.98496534 
   39600    292.92743    -343.4356     140157.3    -40926.47    4022.6529   -44949.123    472.98802   0.98351292 
   39700    290.12258   -470.35927    140097.14   -40984.851    3984.1349   -44968.986    473.48361   0.98393525 
   39800    296.78947   -744.42418     140254.5   -40939.574    4075.6887   -45015.263    475.36165   0.98283131 
   39900    289.02945   -496.94466    140160.58   -41118.646    3969.1234   -45087.769    476.38424   0.98348992 
   40000    297.16103   -607.34827    140415.66   -40995.976    4080.7911   -45076.767    477.59695   0.98170331 
   40100    295.06314   -596.63035    140490.45   -40935.341    4051.9817   -44987.323    478.68305   0.98118071 
   40200    294.68693   -483.91673    140544.54   -40887.785    4046.8153     -44934.6    479.23598   0.98080309 
   40300    294.16394   -473.50108    140245.21   -40959.671    4039.6334   -44999.304     479.7372   0.98289644 
   40400    294.59306    -331.0781     140219.6   -40954.179    4045.5263   -44999.705    480.43713   0.98307598 
   40500    298.76137   -442.91673    140207.32    -40946.71    4102.7679   -45049.478    481.66263   0.98316206 
   40600     295.2203   -552.26797    140401.76   -40961.122    4054.1399   -45015.262    483.27277   0.98180049 
   40700    294.25025   -461.29838    140126.35   -40939.076    4040.8186   -44979.895    483.25775   0.98373017 
   40800    296.51854   -372.92177    140344.83   -41003.647    4071.9681   -45075.615    484.78954   0.98219877 
   40900    295.54969   -496.86967    140231.73   -41000.468    4058.6633   -45059.131     485.4634   0.98299093 
   41000    293.40465   -490.82978     140274.6   -40957.863    4029.2063   -44987.069    485.93496   0.98269048 
   41100    298.46392   -509.24136    140221.83   -40910.626    4098.6832    -45009.31    486.56693   0.98306031 
   41200    291.54459   -258.10758    140261.29   -40832.075    4003.6629   -44835.738    488.11079   0.98278375 
   41300    294.22629   -800.16497    140405.64   -40952.673    4040.4896   -44993.163    489.37305   0.98177336 
   41400    294.57226   -491.94737     140404.7   -40933.948    4045.2407   -44979.189    491.33269   0.98177994 
   41500    292.17005   -944.02997    140398.31   -40964.818    4012.2521    -44977.07    492.53301   0.98182465 
   41600    287.16314    -497.5978     140348.6   -40902.911    3943.4942   -44846.405    493.61327   0.98217236 
   41700    292.22921   -494.11247    140172.09   -40989.878    4013.0644   -45002.943    493.58071   0.98340913 
   41800    296.00912   -340.86273    140320.65   -40884.053    4064.9725   -44949.025    495.16605   0.98236798 
   41900    302.16213   -797.16427    140432.31   -40901.969    4149.4692   -45051.438    496.29148   0.98158691 
   42000    295.51565    -594.7051    140064.61   -40917.673    4058.1958   -44975.868    497.42093   0.98416376 
   42100     298.3905   -608.61296    139999.04   -40905.873     4097.675   -45003.548    498.60701   0.98462471 
   42200    294.16114   -691.35792    139878.19   -40898.295    4039.5948    -44937.89    498.87719   0.98547538 
   42300     290.8721   -599.22513    140130.58   -40991.706    3994.4278   -44986.134    500.52546    0.9837005 
   42400    293.70489   -482.00481    140359.33   -40901.614    4033.3293   -44934.943    502.60012   0.98209728 
   42500    290.76909   -541.76475    140395.22   -40923.724    3993.0133   -44916.738    503.29488   0.98184621 
   42600    298.68911   -94.723274    140269.19   -40916.385    4101.7756    -45018.16    504.12245   0.98272839 
   42700    288.99472   -576.61724    140403.13   -41014.124    3968.6466    -44982.77    505.72149   0.98179088 
   42800    291.59216   -352.37346    140713.98   -40974.891    4004.3161   -44979.207    508.67911   0.97962204 
   42900    288.78623   -707.99326    140551.08    -40944.41    3965.7834   -44910.193    509.15457   0.98075744 
   43000    292.60819   -326.54476    140443.48    -40899.11    4018.2689   -44917.379     509.7247   0.98150883 
   43100    294.59816   -556.77601    140300.54   -40936.163    4045.5963   -44981.759    510.70326   0.98250883 
   43200    286.19438   -639.55145    140270.96   -40966.883    3930.1906   -44897.074    512.18666   0.98271602 
   43300    289.77673   -655.42131    139951.21   -41002.926    3979.3856   -44982.311    512.94051   0.98496127 
   43400    295.26761   -442.84199    139922.74   -40976.288    4054.7896   -45031.077    514.31564   0.98516164 
   43500    291.39554   -466.37815    139966.19   -40972.123     4001.616   -44973.739    515.95859    0.9848558 
   43600    288.57428   -325.98488    139961.47   -40962.988    3962.8728   -44925.861    517.36894   0.98488906 
   43700    294.85415   -609.58364    139928.53    -40925.62    4049.1117   -44974.732     519.0713   0.98512086 
   43800    293.18127   -496.83755    139994.71   -40900.265    4026.1387   -44926.404    520.15867   0.98465516 
   43900    289.59945    -441.4196     139919.4   -40992.318     3976.951   -44969.269     521.3469   0.98518515 
   44000    296.28437   -506.38901     139914.1   -40940.282    4068.7523   -45009.034    523.17325    0.9852225 
   44100    300.27009   -521.78652     139875.9    -40828.19    4123.4866   -44951.677    524.22467   0.98549155 
   44200    293.67534   -734.27668    140186.37   -40927.323    4032.9236   -44960.247    526.35519   0.98330896 
   44300    292.02644   -555.92927    140176.85   -41060.192      4010.28   -45070.472    527.43268   0.98337577 
   44400    292.10938   -93.581886    140173.55   -41045.732    4011.4189   -45057.151    528.06558   0.98339891 
   44500     293.8778   -664.42848    140058.26   -41044.626    4035.7039   -45080.329    528.66963   0.98420838 
   44600    294.66156   -665.58914    140127.05   -41064.258     4046.467   -45110.725    530.01384   0.98372527 
   44700     292.2614   -458.23137     139954.8   -41099.683    4013.5065   -45113.189    531.12297   0.98493597 
   44800    293.68869   -446.36762    140187.49   -41021.815    4033.1069   -45054.922    532.95069   0.98330116 
   44900    285.75819   -369.07425    139981.54   -41059.385    3924.2007   -44983.586    533.93668   0.98474782 
   45000     294.4901   -361.42449    140272.06   -41048.954    4044.1124   -45093.066    536.47434   0.98270827 
   45100    297.51678   -426.54831     140322.4   -40973.005    4085.6765   -45058.682    537.28192   0.98235578 
   45200    288.29196   -821.69608    140203.54   -41009.355    3958.9958   -44968.351    538.95185   0.98318859 
   45300    288.88507   -476.00945    140056.61   -41008.091    3967.1408   -44975.232    539.31116   0.98422003 
   45400    291.08943   -365.10406    140027.63   -41003.347    3997.4123   -45000.759    540.81125   0.98442368 
   45500    295.01258   -215.07514    140055.51   -40930.645    4051.2873   -44981.932     541.9889   0.98422775 
   45600    296.74213   -530.74841    139952.82   -40994.113    4075.0386   -45069.152     543.3842   0.98494993 
   45700    292.11958   -556.93661    139757.61   -40925.549     4011.559   -44937.108    543.67992   0.98632564 
   45800    291.81276   -272.11097     140062.6    -40905.28    4007.3456   -44912.626    546.55839    0.9841779 
   45900    293.02015   -456.61022    140544.68    -40879.24    4023.9262   -44903.166     549.7272   0.98080208 
   46000     293.6438   -464.93646    140499.08   -40914.121    4032.4904   -44946.611    550.37023   0.98112039 
   46100    295.98126   -616.82032    140318.45    -40859.98    4064.5898    -44924.57    550.44379   0.98238344 
   46200    292.44368   -456.23255    140475.13   -40862.015    4016.0097   -44878.025    552.48717   0.98128769 
   46300     296.1431   -419.05059    140612.36   -40924.343    4066.8123   -44991.156    553.96292   0.98033002 
   46400    294.66926   -508.65958    140471.39   -40968.889    4046.5727   -45015.461    555.05845   0.98131381 
   46500    295.52373   -325.08626    140750.78   -40928.396    4058.3067   -44986.703    558.12523    0.9793659 
   46600    300.41493   -647.60903    140843.92   -40853.486    4125.4757   -44978.962    560.31051   0.97871826 
   46700    295.91032   -533.14919    140810.07   -40822.051    4063.6156   -44885.667    561.39177   0.97895356 
   46800    298.89084   -794.56779    140868.63   -40769.216    4104.5459   -44873.761    563.00704   0.97854658 
   46900    299.39402    -403.6557    140925.37   -40804.901    4111.4559   -44916.357    564.87405   0.97815256 
   47000    298.05024   -567.57709    141122.12    -40880.52    4093.0022   -44973.523    565.88585   0.97678888 
   47100    295.51358   -602.34057    140926.66   -40875.614    4058.1674   -44933.781    567.39663   0.97814368 
   47200    298.25639   -323.11007    140921.68   -40928.458    4095.8333   -45024.291    568.13587    0.9781782 
   47300    296.40018   -497.64441    140736.21   -40882.104    4070.3427   -44952.447    568.84791    0.9794673 
   47400    296.73363   -592.69423    140662.12   -40873.277    4074.9218   -44948.199    569.69461   0.97998323 
   47500    300.85912   -458.88344    140479.17   -40877.429    4131.5755   -45009.004    570.60308   0.98125945 
   47600    292.69656   -566.06703    140592.45   -40803.199    4019.4824   -44822.682    572.05166   0.98046886 
   47700     292.3099   -655.29667    140369.47   -40898.105    4014.1726   -44912.277     572.2051   0.98202632 
   47800     294.7267   -425.93983    140682.41   -40907.789    4047.3615    -44955.15    574.52266   0.97984187 
   47900    290.68637   -357.05941    140694.09   -40884.279    3991.8773   -44876.156    575.37073   0.97976055 
   48000    299.45076   -594.62561    140612.44   -40900.285    4112.2351    -45012.52    575.99983   0.98032948 
   48100    296.45737   -586.18878    140633.77   -40937.374    4071.1281   -45008.502    577.70528   0.98018079 
   48200     290.2013   -240.13908    140437.56   -40948.314     3985.216    -44933.53    578.86611   0.98155023 
   48300    297.36483   -658.95818     140768.7   -40938.925    4083.5898   -45022.515    581.60566   0.97924127 
   48400    298.69041   -491.92559    140937.33   -40898.209    4101.7936   -45000.002    584.30624   0.97806962 
   48500    296.20933   -824.24593    140514.91   -40972.991    4067.7219   -45040.713    583.26773    0.9810099 
   48600    296.79913   -547.02429    140349.01   -40922.737    4075.8213   -44998.558    585.14136   0.98216948 
   48700    293.00682   -872.86522    140077.74   -41027.559    4023.7431   -45051.302    585.04908   0.98407152 
   48800    293.46901   -107.45564    139907.87   -40963.567    4030.0902   -44993.657    586.48741   0.98526637 
   48900    290.57229   -591.39564    140187.98   -40961.141    3990.3107   -44951.451     588.3829   0.98329772 
   49000    295.33877   -698.78481    139955.87   -40942.524    4055.7668   -44998.291    587.93654   0.98492846 
   49100    290.93577   -645.54957       140041   -41031.252    3995.3022   -45026.554    588.47961   0.98432968 
   49200    289.47338   -426.97792    140298.04   -41079.433    3975.2198   -45054.653    589.69182   0.98252632 
   49300    295.39439   -331.39083    140192.56   -41027.555    4056.5307   -45084.085    590.29955   0.98326555 
   49400    292.89269   -381.94131    140339.27   -41054.769    4022.1758   -45076.945    591.19565    0.9822377 
   49500    291.43645   -321.03344    140274.19   -40994.344    4002.1779   -44996.522    591.69343   0.98269335 
   49600    292.91173   -431.23532    140228.07   -41009.272    4022.4372   -45031.709     592.2637   0.98301654 
   49700    297.82202   -387.39296    140411.49   -40930.144    4089.8683   -45020.012    593.33185   0.98173244 
   49800    295.92412   -488.89472    140210.66   -40913.554    4063.8052   -44977.359    595.68813   0.98313863 
   49900    289.78842   -742.95874    140150.57   -40984.516    3979.5461   -44964.062    597.28088   0.98356013 
   50000    294.33304   -637.93277    139890.58   -41032.583    4041.9555   -45074.539    597.82524    0.9853881 
   50100    290.38471   -646.93889    139738.95   -41012.374    3987.7347   -45000.109    598.52807   0.98645737 
   50200     296.2903   -180.56847    139375.04   -41017.433    4068.8337   -45086.267    599.21281   0.98903304 
   50300    293.54413   -615.71381    139472.64   -40956.155    4031.1217   -44987.277    600.33197    0.9883409 
   50400    294.41208   -339.40053    139647.22   -40983.055    4043.0409   -45026.096    602.14343   0.98710538 
   50500    291.76742   -521.03727    139622.35   -40990.275    4006.7229   -44996.998    604.06588   0.98728115 
   50600     294.2897   -473.74838    139872.74   -40934.444    4041.3604   -44975.804    605.56552   0.98551381 
   50700    295.82483    -839.1763    140101.22   -40844.837    4062.4417   -44907.279    607.36175    0.9839066 
   50800    298.25719   -537.87356    139805.56   -40831.894    4095.8443   -44927.738    607.94111    0.9859874 
   50900    292.92744   -641.77023    139703.31   -40870.151     4022.653   -44892.804    608.05476   0.98670901 
   51000    294.44505   -655.88229    139792.85   -40946.194    4043.4937   -44989.688    609.64858   0.98607705 
   51100    305.59363    -385.7537    139920.48    -40885.17    4196.5927   -45081.762    610.74543   0.98517753 
   51200    297.13502   -350.85148    139920.66   -40786.989     4080.434   -44867.423    612.32328   0.98517629 
   51300    295.37714   -661.47322     140256.5   -40786.231    4056.2937   -44842.524    615.49977   0.98281734 
   51400    288.66789   -576.55305    140073.75    -40961.17    3964.1583   -44925.329     617.2274   0.98409954 
   51500    292.99463   -786.68213    140099.73   -40963.125    4023.5757   -44986.701    618.28163   0.98391708 
   51600    292.63391   -341.41667       140088   -40930.036     4018.622   -44948.658    619.70674   0.98399944 
   51700    291.74455   -533.76095       140385   -40940.862    4006.4088    -44947.27    622.31956   0.98191772 
   51800    296.11254   -720.73987    140256.02   -40956.771    4066.3927   -45023.164    622.47055   0.98282067 
   51900    292.81868   -486.56273    140198.86    -41042.78    4021.1594   -45063.939    623.20256   0.98322135 
   52000    294.57419   -282.35157    140457.46   -40933.362    4045.2672    -44978.63    625.32257   0.98141114 
   52100    292.18469   -529.66582    140502.61   -40973.585    4012.4531   -44986.038    627.14393   0.98109578 
   52200    288.28272   -564.39813    140459.32   -40988.038    3958.8689   -44946.907    627.57707   0.98139812 
   52300    294.52427   -483.83826    140356.96    -40950.37    4044.5816   -44994.952    628.36726   0.98211385 
   52400     300.7097   -456.65292    140639.37   -40892.469    4129.5236   -45021.993    630.23649   0.98014172 
   52500    293.67427    -449.3353    140623.41   -40919.409    4032.9089   -44952.318    631.09511   0.98025295 
   52600    292.31317   -677.61419    140367.76   -40975.383    4014.2175   -44989.601    632.34377   0.98203832 
   52700    291.09003   -503.66477    140240.63    -40982.38    3997.4205   -44979.801     633.7362   0.98292856 
   52800    288.29464   -382.87731    140461.66   -41040.224    3959.0326   -44999.257    635.45018   0.98138181 
   52900    289.44479   -475.14614    140278.67   -41053.911    3974.8271   -45028.738     635.9482     0.982662 
   53000    285.90968   -509.32392    140664.94   -41109.544    3926.2809   -45035.825    638.02066   0.97996356 
   53100    291.26202   -450.22288    140729.23   -41104.933    3999.7824   -45104.716    639.35597   0.97951589 
   53200    293.86928     -539.131    140715.52   -40935.767    4035.5869   -44971.354    640.27969   0.97961133 
   53300    297.07176   -413.65215     140727.9   -40936.547    4079.5652   -45016.112    641.96892   0.97952517 
   53400     298.7264    -565.8888     140372.7   -40851.531    4102.2877   -44953.818    642.37524   0.98200377 
   53500    292.14465    -758.2092    140255.89   -40836.861    4011.9033   -44848.764    644.80717   0.98282162 
   53600    300.15524   -540.47522    140398.27   -40810.024    4121.9095   -44931.934    647.42541   0.98182489 
   53700    295.51944   -225.66537    140253.79   -40930.274    4058.2478   -44988.522    648.00053   0.98283628 
   53800    294.30114   -404.75798    140373.36   -40997.488    4041.5174   -45039.005    649.78237   0.98199913 
   53900    292.55414   -421.95638    140233.75    -41003.17    4017.5266   -45020.696    650.36355   0.98297672 
   54000    294.17848   -759.89022    140156.94   -40945.308    4039.8331   -44985.141    651.06214   0.98351549 
   54100    293.79151    -231.4665    140171.22   -40919.517    4034.5189   -44954.036    652.66696   0.98341529 
   54200     291.7614    -369.3096    140254.89   -41016.977    4006.6403   -45023.618    654.87538    0.9828286 
   54300    292.14144   -417.04975    140263.41    -40902.62    4011.8592   -44914.479    656.57386   0.98276887 
   54400    294.46876   -448.82731    140063.23   -41006.137    4043.8193   -45049.956    657.03377   0.98417351 
   54500    294.49319   -451.83759    139922.59   -40967.571    4044.1548   -45011.726    657.29016   0.98516269 
   54600    295.75175   -526.39717    140071.03   -40940.524    4061.4381   -45001.962    659.22225    0.9841187 
   54700    296.48269   -490.65193    140369.27   -40934.701    4071.4757   -45006.177    661.58834   0.98202773 
   54800    293.20247   -389.34059    140594.09     -40940.5    4026.4299    -44966.93    663.81008    0.9804574 
   54900    298.16711   -359.84116    140609.35    -40878.73    4094.6072   -44973.337    666.55137     0.980351 
   55000    298.97222   -721.01883    140350.42   -40820.447    4105.6635    -44926.11    667.13486   0.98215966 
   55100    298.19195   -413.93205    140427.08   -40825.245    4094.9484   -44920.194    668.51658   0.98162347 
   55200    297.04876   -567.63127    140271.65    -40852.66    4079.2495   -44931.909    668.97454   0.98271119 
   55300    297.36155   -669.36771    140375.85   -40873.086    4083.5448    -44956.63    670.76344   0.98198168 
   55400    301.94984   -589.04534    140131.79   -40869.008    4146.5539   -45015.562    670.71548   0.98369199 
   55500    298.52643   -492.17021    140342.64   -40822.494    4099.5416   -44922.035    672.79947    0.9822141 
   55600     300.4451   -472.60215    140299.17   -40771.731      4125.89   -44897.621    673.42369    0.9825184 
   55700    296.35444   -508.17212    140344.96   -40842.758    4069.7145   -44912.472    674.68625   0.98219786 
   55800    289.72032   -480.65161    140095.88   -40945.829    3978.6109    -44924.44     675.8074   0.98394408 
   55900     294.4256   -617.87448    140296.12   -40976.334    4043.2266   -45019.561    677.14396   0.98253973 
   56000    291.60193   -519.99097    140253.85   -40954.452    4004.4503   -44958.902    678.42532   0.98283592 
   56100    293.97463   -632.74984    140068.02   -40977.934    4037.0336   -45014.967    678.41505   0.98413985 
   56200    297.61197   -496.51397    139997.88    -40928.07    4086.9838   -45015.054    678.82057    0.9846329 
   56300    297.97932   -546.66873    140160.95   -40830.608    4092.0284   -44922.637     680.7171   0.98348732 
   56400    308.30986   -961.46196    139899.63   -40725.097    4233.8935   -44958.991    681.28226   0.98532437 
   56500     299.0553   -598.94281    140045.06    -40846.09    4106.8044   -44952.894    683.46779   0.98430114 
   56600    301.75817   -481.94943    140323.79   -40804.812    4143.9219   -44948.734    685.16642   0.98234604 
   56700    297.03925   -477.70141    140240.96   -40839.252    4079.1188    -44918.37    686.91225   0.98292619 
   56800    300.51156   -732.45908    140433.78   -40831.996    4126.8025   -44958.799    689.82804   0.98157665 
   56900     295.2701   -530.00253    139971.85    -40909.62    4054.8237   -44964.443    688.81353   0.98481603 
   57000    295.91575   -608.52641    140163.41   -40950.613    4063.6902   -45014.303     690.6549   0.98347007 
   57100    288.19356   -580.55874    140379.87   -41065.984    3957.6445   -45023.628    692.46416   0.98195356 
   57200    290.07289   -748.66476    140219.59   -41125.601    3983.4526   -45109.054    692.95438   0.98307602 
   57300    290.94415    -446.0748    140164.45   -41079.346    3995.4173   -45074.763    693.55004   0.98346272 
   57400    292.57109   -630.29384     140100.4   -41061.092    4017.7594   -45078.851     694.9491   0.98391234 
   57500    290.76497   -585.52015    140110.87   -40999.919    3992.9566   -44992.876    696.41054   0.98383882 
   57600    286.05471    -619.4266    139912.59   -41113.553    3928.2726   -45041.826     696.8533   0.98523309 
   57700    292.43849   -688.87443    139788.57   -40977.891    4015.9385    -44993.83    698.32128   0.98610722 
   57800    294.68459   -531.00142    139594.34   -40938.705    4046.7833   -44985.488    698.30284   0.98747926 
   57900    291.74528   -549.57656    139494.56   -41054.189    4006.4189   -45060.608    698.82774   0.98818563 
   58000     291.6825   -68.073904    139785.03   -41032.905    4005.5568   -45038.462    701.46825   0.98613215 
   58100    301.54243   -361.45624    140125.29   -40925.085    4140.9591   -45066.044    702.87611    0.9837376 
   58200    292.40284   -776.16886    140440.43   -41023.934    4015.4489   -45039.383     704.8914   0.98153012 
   58300    285.97398   -396.47524     140277.1   -40979.783     3927.164   -44906.947    706.03804   0.98267301 
   58400    296.10171   -411.04066    140356.18   -40941.155    4066.2439   -45007.399    707.31048   0.98211934 
   58500    297.04146   -420.11507    140379.22   -40829.062    4079.1492   -44908.211    709.08195   0.98195816 
   58600    294.71456   -319.24498    140162.79   -40904.289    4047.1948   -44951.483    709.87046   0.98347442 
   58700    294.98507   -608.87749    140276.59   -40883.377    4050.9096   -44934.286    711.35133   0.98267654 
   58800    300.10628   -527.30109    140050.08   -40841.729    4121.2371   -44962.966    711.97368   0.98426591 
   58900    299.52668   -351.35589    140204.99   -40845.533    4113.2777   -44958.811    713.74647    0.9831784 
   59000    293.59065    -637.1003    140320.27   -40915.266    4031.7605   -44947.026    716.15208   0.98237065 
   59100    294.79532   -360.80713    140180.14   -40909.574    4048.3038   -44957.878    716.94031   0.98335267 
   59200    290.29772   -539.20202    140068.84   -40946.419    3986.5401   -44932.959    717.45613   0.98413403 
   59300    294.68761   -492.05006    140051.91   -40941.694    4046.8246   -44988.518    718.42721   0.98425303 
   59400    295.77772   -536.96207     140101.2   -40923.217    4061.7947   -44985.012    719.54502   0.98390673 
   59500    297.79619   -539.69661    140093.69    -40916.33    4089.5136   -45005.844    720.49273   0.98395948 
   59600    293.38205   -457.36433    140152.78   -40828.145     4028.896   -44857.041    722.95121   0.98354462 
   59700    296.54017   -433.72467    140368.95   -40818.747    4072.2652   -44891.012    724.95891   0.98202998 
   59800    294.78024   -796.26732    140560.22   -40857.082    4048.0968   -44905.178    726.77955   0.98069365 
   59900    295.32976   -443.58699    140528.68   -40871.672    4055.6431   -44927.315    727.26046   0.98091377 
   60000    290.66453   -415.53248    140336.64   -40905.167    3991.5773   -44896.745    728.25507    0.9822561 
   60100    287.99877   -598.23053    140241.21   -40967.556    3954.9696   -44922.526    728.57842   0.98292444 
   60200    296.25592   -694.16602    140173.83   -40972.501    4068.3617   -45040.862    730.95813   0.98339697 
   60300    294.16508   -428.47161    140308.06   -40881.457     4039.649   -44921.106    731.94165   0.98245613 
   60400    297.09124    -561.7811    140054.16   -40933.504    4079.8328   -45013.337    731.21535   0.98423722 
   60500    294.67465    -410.6355       140020   -40993.507    4046.6467   -45040.153     732.0541   0.98447733 
   60600    291.23963   -285.37543    140282.93   -40905.306     3999.475   -44904.781    734.70827   0.98263218 
   60700    292.83383   -284.59432    140190.23   -40955.929    4021.3674   -44977.296    736.55565   0.98328189 
   60800     297.6283   -651.56996    140236.95   -40977.258    4087.2079   -45064.466    737.82724   0.98295435 
   60900    299.88023   -490.43342     140424.9   -40928.835    4118.1328   -45046.967      740.257   0.98163869 
   61000    302.44567   -583.56284    140707.71   -40894.363     4153.363   -45047.726    741.82275   0.97966573 
   61100    293.30754   -402.04352    140771.07   -40845.365    4027.8727   -44873.237    743.16609   0.97922476 
   61200     297.6809   -493.30918    140646.55   -40882.545    4087.9303   -44970.476    744.21142    0.9800917 
   61300    299.50092   -574.64647    140634.68   -40849.421    4112.9239   -44962.345    745.30343   0.98017445 
   61400    301.35278   -541.67876    140894.21   -40753.067    4138.3547   -44891.422    747.98765   0.97836891 
   61500    297.85672   -413.69749    140586.61   -40766.426    4090.3448   -44856.771    748.51461   0.98050956 
   61600    295.55976   -665.97846    140422.83   -40833.319    4058.8016    -44892.12    748.81819   0.98165315 
   61700     298.1841    -517.1751    140175.16   -40853.112    4094.8406   -44947.953    749.01622   0.98338759 
   61800    294.36079   -111.26308    140241.71   -40830.541    4042.3366   -44872.878    751.03709   0.98292095 
   61900    296.75845   -402.42436    140057.51    -40837.19    4075.2627   -44912.453    751.06967   0.98421366 
   62000    296.11533   -450.15009    140383.07   -40833.145     4066.431   -44899.576    753.53802   0.98193123 
   62100    298.73026   -596.87225    140454.93   -40857.147    4102.3408   -44959.488    755.21492   0.98142884 
   62200     291.4792   -503.32083    140122.64   -40873.613    4002.7648   -44876.378    756.20162   0.98375623 
   62300    294.32183   -655.04816    139907.02   -40913.325    4041.8016   -44955.126    756.63725    0.9852723 
   62400    299.36644   -490.44316     139917.3   -40973.387    4111.0772   -45084.464    758.16149   0.98519995 
   62500     299.1616   -526.38032    139983.23   -40938.779    4108.2642   -45047.043    760.60206   0.98473593 
   62600    300.97975    -714.8437    140109.24   -40881.926    4133.2321   -45015.158    763.18606   0.98385031 
   62700    296.77843   -769.04382    140126.74   -40958.352    4075.5371   -45033.889    764.46003   0.98372746 
   62800    297.99448   -600.68592    140253.62   -40915.717    4092.2366   -45007.954    765.61124   0.98283752 
   62900    292.71443   -627.87724    140289.53   -40969.955    4019.7277   -44989.683    767.41418   0.98258589 
   63000     293.1361   -572.62744    139927.08   -40953.614    4025.5185   -44979.132    767.54359   0.98513107 
   63100    292.61247   -428.79692    139953.02   -40899.259    4018.3277   -44917.587    769.13107   0.98494851 
   63200    292.80674   -416.08062    140257.57   -40911.682    4020.9954   -44932.677    772.63997   0.98280979 
   63300    293.67772   -530.16863    140231.51   -40987.649    4032.9563   -45020.605    773.79785   0.98299246 
   63400    289.93204   -717.91683    140117.28   -41061.556    3981.5183   -45043.075    773.89259   0.98379387 
   63500    294.14231   -512.08086    140008.83    -40922.26    4039.3364   -44961.596    773.93839   0.98455585 
   63600    297.35352   -507.03184     139901.6   -40888.062    4083.4346   -44971.496     775.5757   0.98531053 
   63700    286.63758   -429.52236    140030.05   -41000.724    3936.2768   -44937.001    777.81984   0.98440672 
   63800    287.84726   -517.37192    139936.69   -40973.183     3952.889   -44926.072    780.29148   0.98506345 
   63900    292.98276   -563.67429    139971.23    -40959.03    4023.4126   -44982.443    781.78565   0.98482036 
   64000    291.60957   -210.11145    140107.56   -41028.134    4004.5553   -45032.689    783.23888   0.98386208 
   64100    291.91921   -809.11106    139957.54   -41020.827    4008.8074   -45029.635     783.5124   0.98491671 
   64200    286.85837   -592.44544     139711.8   -41056.151    3939.3089    -44995.46    783.40161   0.98664904 
   64300    289.44975   -438.50747    139720.94   -41038.987    3974.8953   -45013.883    784.44025   0.98658449 
   64400    287.87096   -466.05766    139862.95    -41052.85    3953.2145   -45006.065     786.2012   0.98558277 
   64500    290.72207   -541.03303    139614.09   -41079.463    3992.3675   -45071.831    784.63541   0.98733957 
   64600    289.48807    -628.9319    139710.84   -41025.093    3975.4215   -45000.515    786.07999   0.98665582 
   64700      291.276   -594.14528     139627.4   -40957.265    3999.9745    -44957.24    786.81497   0.98724549 
   64800    297.13675   -571.08453    139883.19   -40902.184    4080.4577   -44982.641    788.80191   0.98544019 
   64900    291.28372   -525.50845    139913.05   -40894.505    4000.0805   -44894.586    789.92431   0.98522989 
   65000    292.08641    -682.2044    139927.77   -40949.746    4011.1034    -44960.85    790.08235    0.9851262 
   65100    294.94679   -722.34248    140093.15   -41004.569    4050.3839   -45054.953    792.69231   0.98396332 
   65200    295.74585   -180.81202    140562.68   -40992.627     4061.357   -45053.984     795.4901   0.98067648 
   65300    296.33646   -279.49061    140844.45   -41018.058    4069.4677   -45087.526    797.50854   0.97871455 
   65400    295.95805   -607.46047    140865.82   -41092.374    4064.2711   -45156.646    797.85767   0.97856609 
   65500    293.61018   -457.34215    140710.37     -40977.9    4032.0287   -45009.929    798.18187   0.97964719 
   65600    296.69213   -384.07892    140475.99   -40877.369     4074.352   -44951.721    798.97647   0.98128168 
   65700    291.98717   -462.68326    140459.73   -40880.351    4009.7407   -44890.091    800.01553   0.98139525 
   65800    298.66186    -751.4172    140316.84   -40933.005    4101.4015   -45034.407    801.50747   0.98239471 
   65900    295.33389   -551.26133    140384.08   -40936.084    4055.6998   -44991.783    804.13251   0.98192417 
   66000     294.1119   -341.84993    140127.19   -41032.272    4038.9187   -45071.191     804.3573   0.98372428 
   66100     296.0987   -351.07343    139969.48   -40960.568    4066.2027    -45026.77    804.78091    0.9848327 
   66200    296.46168   -465.56062    140176.25   -40899.978    4071.1872   -44971.165    806.70315   0.98337997 
[...]
   84600    293.02578   -290.13019    140650.62   -41008.003    4024.0035   -45032.007    1014.3151   0.98006334 
   84700    294.90257   -615.86689    140398.23   -40995.402    4049.7767   -45045.179    1012.8053   0.98182516 
   84800    296.73116   -382.34043    140326.38     -40922.9    4074.8879   -44997.788    1012.9485   0.98232788 
   84900    293.80159   -520.80303    140401.67   -40952.807    4034.6574   -44987.464    1014.7828   0.98180112 
   85000    293.14287   -529.31362    140408.29    -40937.62    4025.6115   -44963.232    1016.6449   0.98175484 
   85100    292.23058   -408.36342    140847.83   -40923.807    4013.0832    -44936.89    1019.6646   0.97869111 
   85200    295.49049   -562.11142    140846.57    -40865.55    4057.8504     -44923.4    1021.2718   0.97869983 
   85300    297.12179   -355.42679    140839.54   -40829.484    4080.2524   -44909.737    1022.1904   0.97874867 
   85400    300.19048   -443.10025    140587.83   -40839.473    4122.3933   -44961.867    1021.5918   0.98050107 
   85500    294.18646   -214.09754    141079.04    -40852.36    4039.9425   -44892.302    1024.6652   0.97708714 
   85600    292.33372    -636.1073    140962.87   -40859.847    4014.4997   -44874.347    1025.3841   0.97789236 
   85700    288.10309   -409.19112    140905.74   -40883.947    3956.4021   -44840.349    1027.9864    0.9782889 
   85800    292.88312   -682.38428    141048.68   -40852.094    4022.0444   -44874.139    1030.5393   0.97729745 
   85900    294.76047    -525.3247    140875.79   -40894.876    4047.8253   -44942.701    1030.5976   0.97849683 
   86000    291.05574   -178.86993    140786.84    -40931.93    3996.9497    -44928.88    1030.4153   0.97911509 
   86100    294.73548   -362.33455    140794.04   -40906.734     4047.482   -44954.216     1031.215   0.97906499 
   86200    293.50491   -542.39759    140730.04   -40911.196    4030.5832   -44941.779    1032.0059   0.97951022 
   86300    292.64614   -220.19112    140821.74   -40914.195      4018.79   -44932.985    1034.7926   0.97887243 
   86400    294.48568   -573.80869    141148.45    -40923.31    4044.0517   -44967.362    1038.8811   0.97660668 
   86500     296.6478    -714.4972    140919.52   -40840.759    4073.7432   -44914.502    1037.9153    0.9781932 
   86600    293.01889   -592.87405    140755.42   -40880.568    4023.9088   -44904.477     1037.913   0.97933361 
   86700    295.44617   -479.19534    140544.13   -40896.424    4057.2417   -44953.665    1037.8233   0.98080596 
   86800    296.13529   -595.09878    140737.69    -40817.55    4066.7051   -44884.255    1039.5316   0.97945702 
   86900    294.30366   -583.99018     140673.1   -40878.722     4041.552   -44920.274    1040.2725   0.97990676 
   87000    294.36561   -607.01456    140560.12   -40945.743    4042.4028   -44988.146    1041.5133   0.98069433 
   87100    290.28002      -411.62    140456.48   -40910.151     3986.297   -44896.448    1042.8276   0.98141798 
   87200    300.89579   -432.68167    140251.25   -40888.343     4132.079   -45020.422    1041.7992    0.9828541 
   87300    294.65369   -470.79031    140557.44   -40785.889    4046.3589   -44832.248    1045.4996   0.98071305 
   87400    296.37481   -473.57962    140394.26   -40851.596    4069.9943    -44921.59    1047.3854   0.98185297 
   87500    297.77543   -449.17645    140291.18   -40884.693    4089.2285   -44973.921    1047.2478   0.98257437 
   87600    296.17155   -418.01692    140551.01    -40862.11    4067.2031   -44929.313    1048.9318   0.98075794 
   87700    293.00988    -463.5932    140758.94   -40900.881     4023.785   -44924.666     1051.037   0.97930917 
   87800    297.01666   -602.79063    140875.68   -40816.657    4078.8085   -44895.465    1052.5711    0.9784976 
   87900    297.46672   -418.98721    140899.96   -40794.306    4084.9891   -44879.295    1053.5866   0.97832899 
   88000    297.41807   -477.47249    140960.74   -40850.624     4084.321   -44934.945    1054.1441   0.97790713 
   88100    300.86267   -769.30413    141136.78   -40811.241    4131.6242   -44942.866    1056.2912   0.97668741 
   88200    297.29785   -734.09943    140970.37   -40770.314    4082.6701   -44852.984    1056.0197   0.97784037 
   88300    298.12932   -436.83529    140852.86   -40767.861    4094.0884   -44861.949    1057.5672   0.97865614 
   88400    297.39982   -651.63054    140796.08   -40870.696    4084.0704   -44954.766    1058.7419   0.97905081 
   88500    290.10714   -401.20877    140585.57   -40889.451     3983.923   -44873.374    1058.9189   0.98051682 
   88600    297.80085   -635.95533    140773.08   -40876.103    4089.5776   -44965.681    1060.2228   0.97921079 
   88700    293.93265   -442.43205    140885.29   -40870.716    4036.4572   -44907.173    1061.1736   0.97843088 
   88800    292.62967   -785.63934    140770.02   -40937.951    4018.5638   -44956.515    1062.0415   0.97923209 
   88900    291.97846   -685.67339     140679.7    -40985.75    4009.6211   -44995.371    1062.1515   0.97986075 
   89000    298.28839   -474.95468    140625.91    -40878.63    4096.2727   -44974.903      1062.35   0.98023553 
   89100    294.81123   -517.53347    140746.47   -40851.103    4048.5224   -44899.625    1064.5048   0.97939587 
   89200    293.70215     -864.206    140360.88   -40953.841    4033.2917   -44987.132    1063.5432   0.98208645 
   89300    291.39919   -728.73143    140185.91   -40928.594    4001.6661   -44930.261    1063.6497    0.9833122 
   89400    295.51843   -725.54441    139815.67   -40912.189     4058.234   -44970.423    1064.9766   0.98591605 
   89500    295.63323   -439.54944    139611.93   -41009.252    4059.8106   -45069.063    1064.8758   0.98735489 
   89600     294.7016   -467.40768    139704.48   -40917.539    4047.0169   -44964.556    1067.4134   0.98670076 
   89700    292.03262   -401.39269    140005.46   -40948.985    4010.3648   -44959.349    1069.3535   0.98457959 
   89800    292.67655   -631.90344    140031.53    -40908.21    4019.2076   -44927.417    1070.4371   0.98439629 
   89900    292.69445   -514.42544    139967.28   -40962.775    4019.4534   -44982.229    1072.4139   0.98484812 
   90000    296.49534    -581.8898    140200.37   -40878.008    4071.6495   -44949.657    1074.6439   0.98321082 
   90100    293.79907   -540.95863    140083.71   -40842.154    4034.6227   -44876.777    1074.7004   0.98402962 
   90200    289.70797   -639.20795    139846.75   -40982.182    3978.4413   -44960.623    1073.7922   0.98569693 
   90300    295.04811   -614.44873    139972.81   -40979.937    4051.7753   -45031.713    1075.9507   0.98480925 
   90400    298.44235   -478.20717    140054.48   -40888.416     4098.387   -44986.803    1078.1495   0.98423496 
   90500    298.05615   -397.55127    140534.68   -40891.176    4093.0835   -44984.259    1081.6962   0.98087189 
   90600    294.75186   -371.27313    140342.61   -40856.811    4047.7071   -44904.518    1081.1744   0.98221427 
   90700    300.63097   -526.84343    140020.88   -40883.329    4128.4425   -45011.771     1079.688   0.98447113 
   90800    293.73026   -362.12828    140221.14   -40931.312    4033.6778    -44964.99    1082.9478   0.98306517 
   90900    287.08939   -527.62971    140219.73   -40983.443    3942.4814   -44925.924    1084.2234   0.98307506 
   91000     287.7378   -509.22153    139846.76   -40954.518    3951.3858   -44905.904    1083.4799   0.98569686 
   91100    298.26236   -181.32241    139916.96   -40925.972    4095.9153   -45021.888    1085.6248   0.98520234 
   91200    293.72082   -380.19218    140120.42   -40947.075    4033.5481   -44980.623    1087.4164    0.9837718 
   91300    296.50563   -740.41591     140080.5   -41034.137    4071.7908   -45105.928    1087.1937   0.98405217 
   91400    294.08197   -424.65684    140071.06   -41021.855    4038.5076   -45060.363    1089.3005   0.98411848 
   91500    293.32015   -433.27035    140216.17   -41000.418     4028.046   -45028.464    1090.4933   0.98310003 
   91600    290.08188     -513.653    140545.79   -41017.753    3983.5761    -45001.33    1093.9964   0.98079438 
   91700    285.49386   -590.44891    140210.21    -41139.96    3920.5707    -45060.53    1093.5778   0.98314181 
   91800    288.75566   -501.39911    139948.62   -41112.092    3965.3636   -45077.456    1092.8377   0.98497944 
   91900    294.58907   -644.03185    139992.45   -41047.675    4045.4714   -45093.146    1094.9691   0.98467107 
   92000     297.0299   -530.02817    139999.32   -40978.357    4078.9904   -45057.347    1096.5606   0.98462278 
   92100    299.66374   -530.68594    139952.46   -40912.326    4115.1598   -45027.486    1098.1267   0.98495242 
   92200    295.22674   -384.63403    140004.83    -40868.12    4054.2283   -44922.349    1099.8016   0.98458398 
   92300    296.67066   -475.13883    139695.66   -40930.888    4074.0571   -45004.945    1099.5444   0.98676309 
   92400    292.18243     -528.796    139642.61   -40895.851    4012.4221   -44908.273    1099.9418   0.98713795 
   92500     290.1691   -421.27127    140106.54   -40825.724    3984.7738   -44810.497    1103.5515   0.98386924 
   92600    295.18023   -263.24894    140095.69    -40812.04    4053.5896    -44865.63    1105.2403   0.98394544 
   92700    292.01924   -573.94087    140474.35   -40899.449    4010.1811    -44909.63    1107.8841   0.98129318 
   92800     297.1138   -390.54559    140800.35   -40861.775    4080.1426   -44941.918    1111.7177   0.97902112 
   92900    301.97666   -393.56737    140816.24   -40834.516    4146.9222   -44981.439    1113.2134   0.97891066 
   93000     291.0864   -590.35537    140677.89   -40890.566    3997.3708   -44887.936     1113.259   0.97987334 
   93100    295.41073   -401.15084    140594.77   -40863.327     4056.755   -44920.082     1113.465   0.98045267 
   93200    297.74176    -459.0105    140681.74   -40832.399    4088.7661   -44921.165    1115.1204   0.97984656 
   93300    298.05462   -816.34643    140500.75    -40817.29    4093.0625   -44910.352    1115.9332   0.98110873 
   93400    292.25023   -618.41208    140134.44   -40896.304    4013.3532   -44909.657    1114.6818   0.98367339 
   93500    292.48713   -316.43212    140197.31   -40843.185    4016.6064   -44859.791    1115.5963   0.98323225 
   93600    292.84801   -359.48877    139916.72   -40914.414    4021.5622   -44935.976    1115.4607   0.98520405 
   93700    292.49081   -341.33412     140196.4   -40913.919    4016.6569   -44930.575    1118.8843   0.98323862 
   93800    295.69579   -650.13684    140078.99   -40820.212    4060.6696   -44880.882    1120.5081   0.98406279 
   93900    290.57142   -655.95893    140157.02   -40883.739    3990.2988   -44874.037    1123.0399   0.98351489 
   94000     293.6102   -470.23555    139914.14   -40954.325    4032.0291   -44986.354    1123.7281   0.98522217 
   94100    294.03158   -309.30555    140014.56   -40943.312    4037.8157   -44981.127    1125.3702   0.98451558 
   94200    291.58178   -589.49633    140263.71   -40932.989    4004.1736   -44937.162    1128.0422   0.98276678 
   94300    294.91581    -551.4529    140053.33    -40891.94    4049.9584   -44941.899    1128.8099   0.98424307 
   94400    293.46919   -225.55492    140309.64   -40982.991    4030.0926   -45013.083    1131.3378   0.98244511 
   94500    291.98134   -397.07407    140310.67   -41051.865    4009.6606   -45061.526    1132.7356   0.98243785 
   94600    290.27968   -458.95514    140196.82   -41120.704    3986.2923   -45106.997    1132.3024   0.98323569 
   94700    291.64009   -636.17748    140265.28    -41003.97    4004.9743   -45008.944    1134.5117   0.98275576 
   94800    290.97214    -652.5403    140029.05   -40912.453    3995.8016   -44908.255    1135.2392   0.98441373 
   94900    296.20128   -478.05881    140190.58   -40929.075    4067.6112   -44996.686    1137.7324   0.98327943 
   95000    301.59568   -354.98075     140074.4   -40915.982    4141.6905   -45057.672    1138.7886   0.98409497 
   95100    301.06822   -561.52554     140193.8   -40800.311     4134.447   -44934.758    1140.9322    0.9832569 
   95200    292.94473   -408.68514    140570.99   -40861.899    4022.8905   -44884.789    1143.6148   0.98061854 
   95300    296.95748   -512.98634    140228.52   -40832.943    4077.9959   -44910.939    1142.0251   0.98301339 
   95400    293.23056   -596.46771    140133.56   -40858.544    4026.8156    -44885.36    1143.7247   0.98367955 
   95500    296.74214   -721.35179    140176.01   -40931.278    4075.0387   -45006.317    1145.5016   0.98338164 
   95600    286.75195    -612.2647    139810.15   -40970.815    3937.8475   -44908.663    1143.8934   0.98595498 
   95700    293.42134   -543.42133    140037.72   -40919.813    4029.4356   -44949.249    1147.8549   0.98435276 
   95800    295.24918   -651.18206     139914.1    -40920.45    4054.5366   -44974.986    1147.2876   0.98522249 
   95900    294.44615   -426.25378    140107.37   -40890.953    4043.5088   -44934.462    1148.9139   0.98386343 
   96000    297.79733   -290.50482    140207.62   -40860.141    4089.5293   -44949.671    1149.9681   0.98315998 
   96100    299.10619   -493.53702    140073.34   -40878.125    4107.5032   -44985.628    1150.3737   0.98410246 
   96200    297.60136   -479.18273    140114.22   -40884.538     4086.838   -44971.376    1152.5283   0.98381532 
   96300    297.44686   -546.79623    140006.68   -40916.732    4084.7163   -45001.449    1152.7239   0.98457098 
   96400    300.15118   -575.19888    140013.83    -40917.12    4121.8537   -45038.974    1154.4423   0.98452069 
   96500     294.7464   -397.99604    139797.91   -40952.384     4047.632   -45000.016    1154.1266   0.98604133 
   96600     299.0151   -659.28685    139523.77   -40921.909    4106.2523   -45028.162    1155.0561   0.98797873 
   96700    295.53786   -392.41819    139805.45   -40837.184    4058.5009   -44895.685    1157.6243   0.98598813 
   96800    294.93411   -611.74041    139914.59   -40822.804    4050.2098   -44873.014    1159.3349   0.98521902 
   96900    300.07284     -302.046    139851.99   -40855.914    4120.7778   -44976.692    1159.7063   0.98566004 
   97000    296.35271   -327.28855    140148.51   -40857.591    4069.6908   -44927.282    1161.9601   0.98357465 
   97100    290.36636    -88.63005    140504.54    -40888.99    3987.4828   -44876.473    1163.7411   0.98108229 
   97200    294.08806    -694.8563    140463.04   -40880.617    4038.5912   -44919.208    1165.2361   0.98137219 
   97300    299.26368   -658.89856    140245.22   -40915.884     4109.666    -45025.55    1165.5838   0.98289636 
   97400    298.65399   -618.18687    140278.04   -40914.674    4101.2934   -45015.968    1166.5606   0.98266637 
   97500    296.87878   -547.38121    140471.57   -40913.798    4076.9151   -44990.713    1168.9911   0.98131256 
   97600    294.92267   -455.89547    140443.88   -40958.258    4050.0527    -45008.31    1170.6947   0.98150602 
   97700    295.97031   -355.02058    140621.79   -40966.536    4064.4394   -45030.976    1173.4024   0.98026426 
   97800    291.62598    -730.1863    140710.41   -40981.499    4004.7806   -44986.279    1174.0371   0.97964688 
   97900    301.18506   -484.64267     140682.1   -40863.246    4136.0515   -44999.297    1175.1381   0.97984401 
   98000    295.18568   -452.82012    140531.77   -40912.584    4053.6645   -44966.249    1175.7469    0.9808922 
   98100    298.02443   -382.13912    140321.93   -40925.949    4092.6478   -45018.597    1176.0932   0.98235907 
   98200    300.27719   -535.71247    140517.69   -40862.926    4123.5841    -44986.51    1177.0156   0.98099046 
   98300    301.33194   -367.06082    140717.55    -40830.57    4138.0685   -44968.638    1178.4855   0.97959722 
   98400     296.3504   -437.48388    140839.23   -40916.855     4069.659   -44986.514    1180.5244   0.97875086 
   98500    296.60676   -453.79141    141224.48   -40884.754    4073.1796   -44957.934    1183.2531   0.97608093 
   98600    292.68922   -507.07724    141052.75   -40940.919    4019.3817   -44960.301     1183.924   0.97726926 
   98700     297.6968   -280.48518    140840.84   -40935.017    4088.1487   -45023.166    1184.2817   0.97873967 
   98800    297.07767   -585.65747    140860.04   -40969.102    4079.6464   -45048.749     1185.056   0.97860625 
   98900    302.96476    -388.1549    140804.52   -40904.205    4160.4915   -45064.697    1185.4171   0.97899213 
   99000    297.84943   -407.35482    140567.31   -40881.216    4090.2447   -44971.461    1184.8381   0.98064419 
   99100    296.44984   -621.01133    140353.59    -40952.37    4071.0247   -45023.395    1184.8582   0.98213747 
   99200    298.38041   -537.88593    140337.99   -40947.207    4097.5364   -45044.743    1186.2077   0.98224665 
   99300    293.41982    -438.0312    140715.87   -40919.855    4029.4146   -44949.269    1188.9604   0.97960885 
   99400    297.68422    -395.7847    141114.98   -40886.805    4087.9759   -44974.781    1193.1699   0.97683831 
   99500    290.34946   -517.85494    140696.16   -40898.891    3987.2506   -44886.142    1191.9635   0.97974615 
   99600    293.70627   -314.16121    140750.06   -40959.296    4033.3484   -44992.645    1193.4194   0.97937092 
   99700    295.17529   -555.05285    140685.06   -40932.383    4053.5217   -44985.905    1193.9758   0.97982342 
   99800    293.12788   -460.31603    140285.23   -40941.201    4025.4055   -44966.607    1192.9169   0.98261602 
   99900    297.67741   -444.60548    140090.99   -40876.058    4087.8824   -44963.941    1193.3966   0.98397848 
  100000    293.08239   -371.64204    140201.16   -40915.282    4024.7808   -44940.063    1195.2504   0.98320522 
  100100    296.88951   -527.31716    139803.91   -40919.724    4077.0625   -44996.786    1194.6993   0.98599904 
  100200    297.46475   -470.71911    140192.72    -40859.32    4084.9621   -44944.282    1199.2951   0.98326446 
  100300    292.75774   -656.73979    139745.69   -40907.967    4020.3226   -44928.289    1199.7352   0.98640981 
  100400    292.56522   -367.32107    139907.39   -40917.604    4017.6787   -44935.283    1202.2729   0.98526973 
  100500    294.65351   -582.64438    140015.69   -40976.215    4046.3565   -45022.572    1205.1944   0.98450767 
  100600    295.67374   -432.25886    140260.96   -40965.278    4060.3668   -45025.645    1208.0806   0.98278606 
  100649    295.54373   -419.62011    140496.84   -40933.673    4058.5814   -44992.254    1210.3506   0.98113609 
Loop time of 115.857 on 6 procs for 100000 steps with 4608 atoms

Performance: 372.875 ns/day, 0.064 hours/ns, 863.137 timesteps/s
99.0% CPU use with 6 MPI tasks x no OpenMP threads

MPI task timing breakdown:
Section |  min time  |  avg time  |  max time  |%varavg| %total
---------------------------------------------------------------
Pair    | 97.643     | 98.377     | 99.216     |   6.2 | 84.91
Neigh   | 7.0527     | 7.1047     | 7.1918     |   1.9 |  6.13
Comm    | 6.878      | 7.6604     | 8.2994     |  20.3 |  6.61
Output  | 0.17202    | 0.17278    | 0.17627    |   0.4 |  0.15
Modify  | 1.8475     | 1.9153     | 1.992      |   3.2 |  1.65
Other   |            | 0.6259     |            |       |  0.54

Nlocal:        768.000 ave         773 max         763 min
Histogram: 1 1 0 0 1 0 0 1 1 1
Nghost:        1568.33 ave        1588 max        1554 min
Histogram: 2 0 1 0 0 1 0 1 0 1
Neighs:        0.00000 ave           0 max           0 min
Histogram: 6 0 0 0 0 0 0 0 0 0
FullNghs:      21875.7 ave       22047 max       21684 min
Histogram: 2 0 0 1 0 0 0 0 1 2

Total # of neighbors = 131254
Ave neighs/atom = 28.483941
Neighbor list builds = 7108
Dangerous builds = 0

undump              1
unfix               2
unfix               3
unfix               4


################################################
#######         Run Simulation         #########
################################################

reset_timestep      0
log                 log.run_${NAME}
log                 log.run_liq_295K_-500atm_ML
