LAMMPS data file via write_data, version 29 Oct 2020, timestep = 200000

4608 atoms
1 atom types

-0.03760731863586031 57.30811731863603 xlo xhi
-0.03342872767548144 50.94054872767644 ylo yhi
-0.03342872767548144 50.94054872767644 zlo zhi

Masses

1 18.015

Atoms # atomic

119 1 0.4175849890093134 19.23103868704957 6.037232416653313 0 0 0
29 1 4.385696516923873 1.5475969901942828 1.4633904846698476 0 0 0
281 1 9.374442930689039 -0.02356494930150177 3.352959900033234 0 0 0
285 1 11.147789522727305 1.4818500121873304 1.6916476815410064 0 0 0
541 1 17.390096277835227 1.801679736992008 1.5565379162082782 0 0 0
30 1 1.8508250340012482 4.569622289168247 1.3412558919019324 0 0 0
286 1 7.802115071729595 4.388650689698997 1.6668531902266077 0 0 0
282 1 6.235917503491311 2.751698798394914 3.1664392757697475 0 0 0
542 1 14.16880388193105 4.517707768569052 1.483955444997324 0 0 0
538 1 12.37107181930452 3.2415310577099885 3.13535833279463 0 0 0
218 1 0.011952624227844655 41.47210536074478 3.151070405286418 0 0 0
57 1 3.3500674476245194 6.227562821114504 2.956967064130292 0 0 0
740 1 17.71668992855494 49.19021407351231 23.53949986554434 0 0 0
61 1 4.616625817819362 8.148045154474747 1.4479311771327312 0 0 0
313 1 8.492273899510742 6.6273974815927845 2.948843309088956 0 0 0
317 1 10.709084012199027 7.572418798940132 1.5720732698088231 0 0 0
573 1 17.81630476775691 7.716032124067286 1.7302477572176644 0 0 0
62 1 1.883407041557814 11.136486601793845 1.7241083963157948 0 0 0
226 1 -0.017989325295435166 47.82244577907528 22.42393542700602 0 0 0
318 1 8.009643347490785 11.202878761530599 1.4768910328551255 0 0 0
574 1 14.12544821234894 10.996619357299794 1.6630292718429984 0 0 0
570 1 12.271156265129601 9.228145941728188 2.937420597738872 0 0 0
191 1 0.12712413915462303 31.830880504887055 0.10176995454292603 0 0 0
93 1 4.6991184321053785 14.835474151639326 1.5997963820155638 0 0 0
346 1 6.575044054809087 16.070566539244577 3.6192965800967856 0 0 0
349 1 10.992128911460046 14.44725088323032 1.576423384389463 0 0 0
234 1 0.16847338262329783 47.82346507081152 15.913183964643402 0 0 0
605 1 17.360234970881013 14.561489041813505 1.380794440923004 0 0 0
7 1 0.1914216214111027 50.7511626205406 19.171783780307543 0 -1 0
94 1 1.188446561034889 17.432967610963544 1.441418112969455 0 0 0
1280 1 9.753742022453638 47.75410706557433 25.03125409119422 0 0 0
350 1 7.92571744827227 17.45145037099992 1.413643766403539 0 0 0
606 1 13.854337268746804 17.55581024748149 1.712364362476305 0 0 0
633 1 15.881672901602235 19.06725552754587 2.8260259093039806 0 0 0
125 1 4.71618653461377 20.435097671562914 1.6426620594648595 0 0 0
288 1 9.549585845906908 3.0181886822286526 -0.022481543212582555 0 0 0
381 1 10.924408867444093 20.778125888345464 1.5087016588454571 0 0 0
377 1 9.077827554265056 19.166949502322883 3.01023949087609 0 0 0
634 1 12.887045733794087 22.442186198352402 3.123809119602782 0 0 0
637 1 17.31890701034261 20.714539148492925 1.117640354470994 0 0 0
126 1 1.7320280769312575 24.099850043569205 1.5611456873502216 0 0 0
1343 1 12.969892542237966 6.227465698464217 25.331162908462186 0 0 0
382 1 7.756634505782149 23.56980246480281 1.3725034481914873 0 0 0
638 1 14.31135698922335 23.87576819567452 1.2244549500834536 0 0 0
1216 1 9.660692775896829 35.153788767979094 25.278103709049887 0 0 0
157 1 4.867526014193537 27.334097589990993 1.1919735471070851 0 0 0
15 1 0.007759876100956534 0.19085587654118819 12.513211862774742 0 0 0
413 1 10.939326795144657 27.18101813255526 1.631612880634244 0 0 0
1408 1 15.817865575495327 21.888751810364433 25.254110641899732 0 0 0
669 1 17.385720187762338 26.970839864495733 1.3544179718450116 0 0 0
665 1 15.99442744871644 25.117264199171448 2.902290810112965 0 0 0
158 1 1.8224630119610004 30.044579050984087 1.3048940202738073 0 0 0
183 1 0.050602261448431135 32.39217124547042 6.41541817410862 0 0 0
34 1 0.03389247139436237 9.573914342927555 22.403557872940816 0 0 0
414 1 8.00253973081094 30.299938776812354 1.253352361675336 0 0 0
441 1 9.479874842287034 31.751449055418764 3.015861477180185 0 0 0
670 1 14.527010698571312 29.950676438337435 1.2977484540241235 0 0 0
189 1 4.622864079492112 33.345033000994334 1.2385827291292242 0 0 0
442 1 6.545441344791496 34.75223641515481 2.8299312247220767 0 0 0
87 1 -0.03276730615544238 12.315772824009226 6.565170728200478 0 0 0
445 1 11.133842188921522 33.31047985782277 1.6420641034920347 0 0 0
701 1 17.92709907541638 33.52001985592578 1.2862691794871095 0 0 0
1056 1 9.748058478567446 3.2205299277087054 25.15870807797162 0 0 0
190 1 1.6234297611032973 36.45652351184282 1.3638110729514055 0 0 0
446 1 7.774487589797197 36.51570934281233 1.2090883636670495 0 0 0
473 1 9.426627296478015 37.807678970187524 3.029694610931467 0 0 0
702 1 14.045273316811633 36.333080535095675 1.175663131917615 0 0 0
162 1 -0.006962897279052527 34.6596429246606 22.48409451157222 0 0 0
2 1 0.13559128547752758 3.222047173509371 22.235365503627616 0 0 0
221 1 4.82563308517045 39.69929610638667 1.6408415597623074 0 0 0
239 1 0.02070272760520745 44.584382232871704 12.79325945946642 0 0 0
477 1 11.273669473653584 39.60345393945114 1.7874732532842015 0 0 0
733 1 17.265878558797684 39.360600845659974 1.339583831704348 0 0 0
729 1 15.706988773300957 37.719151267556555 2.8294448054673444 0 0 0
10 1 0.1469733665722833 3.1156452325682364 15.553485120331022 0 0 0
222 1 1.981093678627229 42.94728306518884 1.3747549148413434 0 0 0
478 1 8.04634523655454 42.82806227890431 1.5565438069624549 0 0 0
730 1 13.087986892992943 41.00723310748778 3.443311585645458 0 0 0
505 1 9.749224011783543 44.36192399081828 3.481406451838016 0 0 0
734 1 14.26460266975533 42.79505585306342 1.757932112350717 0 0 0
484 1 11.46271758808618 49.44404301028773 23.452820327137648 0 0 0
253 1 4.818430079344508 45.90768252251293 1.2536598231041225 0 0 0
249 1 3.500425162448746 44.47517415619147 3.3599103114200046 0 0 0
509 1 11.085056609735467 46.35309517333613 1.5974950045351646 0 0 0
762 1 12.55721234406174 47.93942689831901 3.121084715559904 0 0 0
761 1 15.913437269308483 44.63414502948464 3.0011592457873126 0 0 0
765 1 17.622121351070003 46.05386282842133 1.5105258729839008 0 0 0
254 1 1.253390890688507 49.05921343123151 1.5088887096382486 0 0 0
510 1 7.68599896994772 49.33441423124967 1.6297619393256078 0 0 0
506 1 5.884689144571805 47.735130094571545 3.030135303044939 0 0 0
766 1 14.405513947422941 49.340620339241354 1.392305147866155 0 0 0
228 1 4.703822056957958 49.40267066138044 24.00924325794798 0 0 0
27 1 1.6885435864380103 1.2713715832452237 5.020865496821548 0 0 0
283 1 7.866626361354827 1.6366637031913733 4.971856748523234 0 0 0
537 1 15.957591127252224 50.69236766897825 2.991971700892499 0 -1 0
539 1 14.067735986809064 1.6574621550735094 4.480262274672285 0 0 0
535 1 12.839640399325996 0.059331863326050865 6.334544748321509 0 0 0
1312 1 16.016309581599522 3.5960204237706312 25.3090849598994 0 0 0
28 1 5.042797570058381 4.571621571460282 4.62964054429999 0 0 0
24 1 3.136959440093494 3.21456276474305 6.268438924693825 0 0 0
311 1 6.242478399264494 6.659705486004213 6.042700185582472 0 0 0
280 1 9.53625758456846 3.41533948161974 6.332103787803913 0 0 0
284 1 10.736479260472287 5.1080310442203976 4.3349863317562765 0 0 0
536 1 15.440041991435896 3.485586393051607 6.087895771426253 0 0 0
540 1 17.22601562383529 5.016632072150177 4.738314808966929 0 0 0
59 1 1.861633406517289 7.77155705770557 4.818542328264543 0 0 0
315 1 7.5569240593637685 8.52618520077765 4.61984243329861 0 0 0
569 1 15.70060442061814 6.410630845612879 3.0403924707645906 0 0 0
571 1 14.190195088935507 8.144419281063728 4.5966872633717415 0 0 0
567 1 12.779377983028523 6.328348342733786 5.886072795536435 0 0 0
89 1 2.9903399967925473 13.307613707972834 3.156622541687456 0 0 0
60 1 4.2614468636731795 11.315957005185728 4.644999355023066 0 0 0
314 1 5.937384927108236 10.007602077175395 2.838673181564065 0 0 0
312 1 9.442659505073713 9.61164485152483 6.154868308072052 0 0 0
316 1 11.18372017480616 11.338775958392782 4.55005614437183 0 0 0
601 1 15.464909928656942 13.133471086493083 3.182548271982696 0 0 0
572 1 17.16349086241375 11.182293600874965 4.556233084004733 0 0 0
91 1 1.3342487458532948 14.479133089084677 4.992943628364332 0 0 0
347 1 7.945510010473274 14.176595088101708 4.817836359087431 0 0 0
345 1 9.388615305839547 12.915459596850749 2.9427776981237157 0 0 0
603 1 13.888838537049205 14.843236134017603 5.070233981533588 0 0 0
186 1 0.12299726976165615 35.2515029594622 3.3594495430776834 0 0 0
92 1 4.533295487854631 17.52038138695581 5.038491002094972 0 0 0
88 1 2.932285827288103 15.951282541419603 6.578737293382117 0 0 0
344 1 9.082228329210647 16.34416449092884 6.300492820927989 0 0 0
375 1 5.956246823576701 19.606970717210572 6.252812320908099 0 0 0
348 1 10.606768051236857 18.179701564399235 4.967777809045053 0 0 0
602 1 11.960768920842748 16.114533770678204 3.5261245093422593 0 0 0
604 1 17.322210402841367 17.537644716173684 4.514512539864561 0 0 0
123 1 1.6473400512334833 21.087375507895516 4.1694592067912986 0 0 0
121 1 3.051758922843013 19.013348966717796 3.219832222173507 0 0 0
378 1 6.11282290792583 22.27213760372576 3.1961781977526598 0 0 0
379 1 7.965497490651876 20.981831858037417 4.696719516522752 0 0 0
376 1 9.704969240805362 22.28431150475926 6.138302249981778 0 0 0
635 1 14.7627635518207 20.57741889688728 4.503860293421519 0 0 0
632 1 15.973054574026207 22.19722190114448 6.420456254616276 0 0 0
153 1 3.3309800170070467 25.546769732798644 3.0898226079702433 0 0 0
124 1 4.731015964956117 24.0355292670262 4.775672224560638 0 0 0
407 1 6.29513605439031 25.3313936164946 6.373757201334899 0 0 0
409 1 9.395321412970025 25.35407527567297 2.9558917304647063 0 0 0
380 1 11.32556070648244 24.162403646670427 4.477807808240288 0 0 0
636 1 17.5704314359078 23.737514879511238 4.808774229369252 0 0 0
151 1 0.1876437196037857 25.741064491934267 6.142123102003626 0 0 0
155 1 1.7292772344292529 27.300004455987715 4.586414006004161 0 0 0
410 1 6.111069860919203 28.892949693323292 3.1982975899911117 0 0 0
411 1 7.550298409300333 27.10579274946188 4.47393434940505 0 0 0
667 1 14.430853279464644 26.877221836589975 4.570004718409415 0 0 0
185 1 3.6043512996255394 31.601696492292717 2.768087773992684 0 0 0
156 1 4.756854806849376 30.370067312194422 4.991594869213884 0 0 0
666 1 12.680403245249359 28.849510054096164 3.1510750268692336 0 0 0
412 1 10.953302436899625 30.445440209594455 4.868421562870799 0 0 0
668 1 18.042854288604556 30.035111390102372 4.634670560874415 0 0 0
187 1 2.012075947987189 33.342547604808416 4.51334935717269 0 0 0
1375 1 12.549819074334003 12.979322006252302 25.382152848379686 0 0 0
443 1 8.19766584784221 33.62409675727653 4.727263253476675 0 0 0
698 1 12.933735951463573 34.81090769996699 3.381899411729376 0 0 0
699 1 14.769411467482058 33.19254216877789 4.553252025200386 0 0 0
697 1 16.637170858392782 31.365078392759365 2.782414605346531 0 0 0
696 1 16.213911196507055 34.85564900420928 6.067111792877923 0 0 0
383 1 6.139226435067532 19.008853603578284 -0.02742792517683899 0 0 0
217 1 3.148472652986591 38.04123681944631 3.02607545509256 0 0 0
188 1 4.984078511353877 36.52117164936689 4.3961143541051575 0 0 0
444 1 11.019354943001893 36.03631599814095 4.88702511820718 0 0 0
700 1 17.8240871819493 36.44943696051365 4.148257325634742 0 0 0
219 1 1.48130508569906 39.646045017973165 4.76259942352039 0 0 0
216 1 2.880134518227464 41.200954527759734 6.317184897032188 0 0 0
475 1 7.752297872115494 39.59355750857439 4.323903378621332 0 0 0
472 1 9.348541712323133 41.331880799371035 6.090484550630917 0 0 0
731 1 14.747852280208438 39.48989892425614 4.730842475488686 0 0 0
79 1 0.351985011334904 12.544992997022254 12.76398681624804 0 0 0
220 1 4.680040212179956 42.65818782394726 4.786701859135596 0 0 0
474 1 6.195444871538301 41.50116978252545 2.8226071789224956 0 0 0
476 1 11.328043625261484 42.70586054877941 4.782817509014201 0 0 0
728 1 16.00029959770713 41.48029697824629 6.372643175049699 0 0 0
732 1 17.386619149813438 42.67469592132848 4.423066083553605 0 0 0
1471 1 12.80196414747055 31.81878903501787 25.073127560350787 0 0 0
251 1 1.6726951637199663 46.03574379714014 4.536043823920431 0 0 0
507 1 7.746596686288643 46.417289625846735 4.507529545641682 0 0 0
504 1 9.709466552187369 47.76314557568729 6.016547610638257 0 0 0
763 1 14.122546044312596 46.058465754703974 4.591332939068042 0 0 0
760 1 15.7604368114385 47.605926009926705 6.2652626548109 0 0 0
130 1 0.06170246846837381 28.575648084435965 22.474498986215153 0 0 0
25 1 2.9792452966278247 50.89001944098476 2.9860296357553153 0 -1 0
252 1 4.311871467762258 49.351523375925524 4.545164110706385 0 0 0
248 1 2.9352752305855967 47.47446252959202 6.43318991054633 0 0 0
508 1 11.177527750144753 49.51002712249199 4.772789870262278 0 0 0
764 1 17.418687942619748 48.91751876537532 4.28474464289436 0 0 0
154 1 0.04560396668426754 28.48233180272899 3.0969835617887 0 0 0
21 1 4.841618149691126 1.228577833806863 7.872678193438667 0 0 0
274 1 6.137681340744573 3.091357771743692 9.36650003292396 0 0 0
279 1 6.214332645375672 50.7321222898929 6.18308079426431 0 -1 0
277 1 10.872251973268373 1.5411002175447108 8.054812788851706 0 0 0
529 1 16.124213629172413 0.06885826775968061 9.63387481273171 0 0 0
533 1 17.033465772444302 1.7717469172450415 7.554288722212155 0 0 0
22 1 1.555608108856508 4.685045497045836 7.798900271864807 0 0 0
278 1 7.752666439284536 4.937661929173073 7.74282710643289 0 0 0
530 1 12.762737770230194 2.92285351162004 9.710997286635275 0 0 0
534 1 14.006154131063715 4.874312130548909 7.987768393516564 0 0 0
56 1 3.1978381098568134 9.443078615387654 6.531424740914595 0 0 0
53 1 4.735498598409332 7.724391145053336 8.135609310299332 0 0 0
49 1 3.0171759862250016 6.162917426564657 9.748737309975375 0 0 0
306 1 6.240389913150627 9.477204501389865 9.760446879306864 0 0 0
305 1 9.675374192147295 6.556369467766111 9.030383710793288 0 0 0
309 1 11.237072679991549 8.419042418692316 7.5599786153933906 0 0 0
561 1 15.753612933424689 6.672061909940163 9.25514939390547 0 0 0
565 1 17.595260977482162 8.317042176156587 8.194517205567807 0 0 0
54 1 1.7394454009221358 11.045865714023218 8.014993398472749 0 0 0
310 1 7.80010050687608 11.066492627162031 7.960756027297199 0 0 0
343 1 6.15624272399501 12.365874437845862 6.231984781446305 0 0 0
566 1 14.138263996949144 11.584387586785725 8.046377155233369 0 0 0
568 1 15.859316216873772 9.912681875302887 6.514948421791864 0 0 0
210 1 0.14226401411032635 41.316482712352496 9.31361551554339 0 0 0
85 1 4.8165546609931935 14.163611595572553 7.799129898393374 0 0 0
338 1 6.194541040166555 16.09173262207148 9.286259103313668 0 0 0
81 1 3.1978057249141734 12.616675317516489 9.527874463987914 0 0 0
341 1 10.5927122370953 14.785158046822277 7.925886154851989 0 0 0
599 1 12.413716657686612 12.992736555366259 6.515247883712396 0 0 0
337 1 9.176012059499318 12.892016584768857 9.500768417944787 0 0 0
597 1 17.52591424479282 14.466591724484008 7.7316619694361535 0 0 0
86 1 1.4090876939608745 17.752856230824026 8.101595007983676 0 0 0
342 1 7.438949500883857 17.9113077307935 7.7295333152960595 0 0 0
600 1 15.995973509717068 16.18046308665955 6.356963009940996 0 0 0
598 1 14.267931544442913 17.711145078589734 7.885683728132398 0 0 0
631 1 12.79450420325858 19.27511136799243 5.8089796188156395 0 0 0
58 1 0.21216010242850056 9.215320060881005 3.3889599512860964 0 0 0
117 1 4.650722585389544 21.30164295092899 7.724869661627968 0 0 0
120 1 2.7964208997925812 22.422083564312054 6.370347962181447 0 0 0
370 1 6.308664987448394 22.334201558131696 9.521840153339982 0 0 0
373 1 11.434169743404627 20.756518509510165 7.785837389535048 0 0 0
629 1 17.599612541400646 20.629103688760633 7.967522552028013 0 0 0
1152 1 9.646382533138631 22.390092936796524 25.446635591389477 0 0 0
118 1 1.368856853664885 24.157988636402454 8.076283511759774 0 0 0
145 1 3.211876136605189 25.72942957958989 9.547880129514196 0 0 0
374 1 8.146196279548489 23.552127786397236 7.833337942393693 0 0 0
626 1 12.478207361963776 22.478616972996047 9.595170262077335 0 0 0
630 1 14.33925300035037 23.85489929505739 7.874857761313339 0 0 0
146 1 0.10560119592630396 29.022415877014645 9.472152291499762 0 0 0
152 1 3.326785601937214 28.777419048170813 6.558085975393892 0 0 0
149 1 4.938478361979004 27.175880968047153 8.006611433702556 0 0 0
405 1 10.529315927036707 27.021867518882715 7.420940037323518 0 0 0
663 1 12.824228052402791 25.574497822643067 6.387034839823246 0 0 0
661 1 17.924416913719135 26.920673139086567 7.92721547648131 0 0 0
150 1 1.7958946406642655 30.635136690861156 8.108333793594058 0 0 0
177 1 3.5870972598703705 32.03307025067619 9.836984913908383 0 0 0
439 1 6.266540332045857 32.26095630835708 6.258230627678221 0 0 0
408 1 9.224146542191724 28.620155755126166 6.045450262152952 0 0 0
406 1 7.54147930850778 30.42970236868346 7.940265851792448 0 0 0
662 1 13.908695112131676 30.349489323858275 7.73018615381999 0 0 0
664 1 16.145332845549046 28.766229292994538 6.245919927702419 0 0 0
184 1 3.312161961874508 35.00158529665633 6.443378317152599 0 0 0
181 1 5.188722417362182 33.871511158719784 7.977218735032773 0 0 0
440 1 9.52194865643872 34.80277986507008 6.583086673720518 0 0 0
695 1 12.662284118177215 32.05220967852529 6.096126405735987 0 0 0
437 1 11.383614012295046 33.57072430783728 8.050638192567284 0 0 0
693 1 17.561108118068773 33.2768444912752 8.062884056977293 0 0 0
689 1 15.908671109358522 31.23825555523493 9.45789798140866 0 0 0
182 1 1.4811940990972483 36.34104600531627 7.925429521355907 0 0 0
471 1 6.470154730415046 38.016356137626175 6.4060449863135585 0 0 0
434 1 6.667692600229328 35.29638221636512 9.669106174010592 0 0 0
438 1 8.434571185956088 36.767511101387825 8.006219939832874 0 0 0
690 1 12.906241772840763 34.596893250984465 9.878842006415242 0 0 0
694 1 14.490680045065254 36.368377853876495 7.5698114803316106 0 0 0
721 1 15.810893008436393 37.74915686685473 9.351159800692717 0 0 0
737 1 15.722934540557493 44.528452138022146 21.669627970468444 0 0 0
213 1 4.806427369131621 39.71129812544879 7.7952675498906965 0 0 0
727 1 12.870054372771861 37.86999823768704 6.202745774614378 0 0 0
469 1 11.199790549990889 39.444323822233144 7.5597565906993 0 0 0
722 1 12.887212195035682 40.88093662691682 9.231916031729718 0 0 0
725 1 17.369918429169783 39.61893595594927 7.803738234160144 0 0 0
214 1 1.388597650047215 43.03302541428275 7.682179508977518 0 0 0
241 1 3.34546169648004 44.479470611175856 9.5420244578193 0 0 0
470 1 7.728520664405356 42.98146322786371 7.507376257455547 0 0 0
466 1 6.499888465690257 41.45188660715952 9.586802897169596 0 0 0
726 1 14.290004092842274 42.883422208844934 7.913046654061192 0 0 0
245 1 4.697703259531798 45.80164109650654 7.9356130168027015 0 0 0
503 1 6.216717732931516 44.792131950783656 6.201962231460997 0 0 0
498 1 6.361323760828019 47.58586644144363 9.267985197475408 0 0 0
501 1 11.007901166253488 46.162707256841614 7.8856870974265565 0 0 0
754 1 13.095822500269733 47.71599818454172 8.92499231966945 0 0 0
759 1 12.715742565548325 44.75632771659902 6.318889437133326 0 0 0
753 1 15.970984209963756 44.50621863096438 9.294001801179402 0 0 0
757 1 17.482319498942974 45.905300587785405 7.793883769510088 0 0 0
246 1 1.2811542935430922 49.159754919055715 8.12938164508282 0 0 0
17 1 3.0475903811890817 50.83700257692391 9.34664189035656 0 -1 0
502 1 7.756708191039758 49.10986742616045 7.5830914616297305 0 0 0
273 1 9.018499687600215 50.73003729006446 9.295209609430456 0 -1 0
758 1 14.495632740989874 49.62634392090915 7.708470343602645 0 0 0
739 1 14.378750797061217 46.095665133573505 23.46778152779498 0 0 0
19 1 1.7238331591472458 1.6810977131132567 10.895855287119998 0 0 0
275 1 7.820521202255793 1.7544970499366517 11.135272130177016 0 0 0
527 1 12.615906888407208 50.84866593323642 12.921297446587584 0 -1 0
531 1 14.388189026526675 1.5211200157089224 11.402878700423733 0 0 0
479 1 6.114427673402415 38.086533486402516 -0.03247304892279312 0 0 0
16 1 3.3210366358542527 2.9107059257728447 13.016617129204315 0 0 0
20 1 4.631895055243323 4.852149604015914 11.558033180680317 0 0 0
303 1 6.520889506518177 6.449789646845196 12.951552110786944 0 0 0
272 1 9.553312189300845 3.140083592248263 12.893593526996554 0 0 0
276 1 11.015608227685513 4.9277469022760565 11.01897424027382 0 0 0
528 1 15.893003814943084 3.47891774509763 12.521428338218291 0 0 0
532 1 17.421685279421954 4.92749125971426 10.706264454602755 0 0 0
199 1 0.10775963341925845 38.05174598196517 19.452788104053013 0 0 0
51 1 1.1543289011729039 7.887825030400487 10.833337454905404 0 0 0
307 1 7.9137105655067455 7.861944709117085 11.023532213181701 0 0 0
563 1 14.151514641402144 8.0681390214802 10.987751005363775 0 0 0
559 1 12.477311543018285 6.457194423426147 12.581518314885333 0 0 0
52 1 4.724229894687719 10.982783179220807 11.270654969768156 0 0 0
48 1 2.9894062294173045 9.43534970930525 12.557522610900614 0 0 0
335 1 6.212110931703849 13.01312841740188 12.507428111491251 0 0 0
308 1 10.952927486860116 11.333685817697463 11.0271288520887 0 0 0
562 1 12.52208058796925 9.820345571398867 9.521289113042505 0 0 0
564 1 17.196998783077262 11.353208144666041 10.932502477563258 0 0 0
83 1 1.5806358216308631 14.452125575483631 10.939348499222259 0 0 0
339 1 7.995103281691202 14.677744354353797 11.13140359150005 0 0 0
595 1 14.126297386782124 14.840480193958346 11.209437058907463 0 0 0
593 1 15.763319229285118 13.179807266192878 9.601252093900305 0 0 0
175 1 -0.027255669723918345 32.05142348949913 12.93066716027392 0 0 0
84 1 4.600663472576117 17.6817748794098 11.197212394075745 0 0 0
369 1 9.283359371790564 19.148444066691926 9.156018814400694 0 0 0
594 1 12.40293451869566 16.243411539013028 9.271373102238725 0 0 0
340 1 11.166978897580663 17.85360905120334 10.97635063471323 0 0 0
596 1 17.649534045661532 17.80787184521686 11.206932857974351 0 0 0
115 1 1.4736375052258741 20.312548336581365 10.852356872357031 0 0 0
113 1 3.4424105965908103 19.542307402326326 9.269504585263633 0 0 0
371 1 7.867626464999397 20.85273229099351 10.916997142954639 0 0 0
627 1 14.112966262517181 20.992871619599185 11.142005391001632 0 0 0
625 1 15.700291791386665 19.375726933083932 9.654676550057903 0 0 0
71 1 0.11784179275872672 12.655635496792566 19.034467335799484 0 0 0
26 1 0.48081095271791985 2.7995270359542173 2.9811909848918803 0 0 0
483 1 8.281211991031439 46.0800836392649 23.625104848238376 0 0 0
116 1 4.620930788616501 24.001733666507196 11.380661533595331 0 0 0
401 1 9.491658408545485 25.660919704074544 9.661710908800345 0 0 0
372 1 11.064427923335737 24.183189472674908 11.212220590130476 0 0 0
628 1 17.61713497010193 24.095517640242 10.855980442639492 0 0 0
657 1 15.928225193919994 25.69836437215626 9.300437076980295 0 0 0
1247 1 6.023592114844856 37.93807995889985 25.356667879169414 0 0 0
147 1 1.6859703820707128 27.291740930809873 10.920764933285605 0 0 0
403 1 7.704872034467255 27.175648177620374 11.243792343340543 0 0 0
659 1 14.200852924041975 27.21389463918602 10.988333276905871 0 0 0
148 1 5.137822174328478 30.2350188827056 11.415092331327113 0 0 0
402 1 6.221097547440267 28.824502598055965 9.580803098864104 0 0 0
404 1 10.978469161196244 30.203546007815557 11.069362383595974 0 0 0
658 1 12.233404395028387 28.49794641565786 9.228300274716359 0 0 0
660 1 17.552296911660335 29.89746608004843 11.035596821020114 0 0 0
482 1 6.763270085083383 48.19122080758922 22.63459534682537 0 0 0
179 1 1.6463613408640507 33.62259785251827 11.506579819315752 0 0 0
435 1 8.073794289798697 33.85574176623487 11.195749814105875 0 0 0
431 1 6.724092857184621 31.989551033251256 12.908955343090431 0 0 0
433 1 9.715940818149923 32.056511574443505 9.447563149537958 0 0 0
691 1 14.780495147583153 32.961688106038025 11.285667081843332 0 0 0
1554 1 18.700260168292704 3.229720292351967 9.134101636059595 0 0 0
209 1 3.378138091881031 37.8518414483009 9.368049026085261 0 0 0
176 1 2.858185547046407 35.265266107216206 12.985189918122602 0 0 0
180 1 4.826185640657445 36.82836341579181 11.270193430659184 0 0 0
465 1 9.928285650746052 38.248144495730116 9.797392252797758 0 0 0
436 1 11.365550366652254 36.29982438070448 11.308084095085905 0 0 0
719 1 12.787284036288076 38.06241875623115 13.044021138703775 0 0 0
692 1 17.352674719112198 36.82451895367957 11.269752226044218 0 0 0
211 1 1.4104561382526304 39.50652706598963 10.920106327844344 0 0 0
463 1 6.412264679521386 38.202196736587425 12.945847427010952 0 0 0
467 1 8.091754654775515 39.628197154145596 11.146792282632905 0 0 0
723 1 14.288968857123713 39.57955955154446 11.059945590993781 0 0 0
212 1 4.689209581209132 42.66783839491579 11.288496786556161 0 0 0
495 1 6.306978562698879 44.58414102907362 12.596385503865172 0 0 0
497 1 9.339274471963392 44.37273908081541 9.116277282539334 0 0 0
468 1 11.034478922111552 42.77144194745378 10.681556352335976 0 0 0
464 1 9.40166387392315 41.58092984572863 12.590694684709064 0 0 0
720 1 15.667210027189721 41.21776765842746 12.768091720894986 0 0 0
724 1 17.44837357151096 42.766988771454734 11.09627384009634 0 0 0
243 1 1.7799909968747871 45.80840677583046 11.39306356170267 0 0 0
240 1 3.342339447322578 47.79705163309124 12.39078854892907 0 0 0
499 1 7.898567613532428 46.087812385964185 10.835544927569227 0 0 0
751 1 12.609318484059553 44.67690503907285 12.25413297328843 0 0 0
755 1 14.518093685409141 46.325596498801474 11.007479645527876 0 0 0
244 1 5.108037547350412 49.53737321976352 10.82564752699117 0 0 0
271 1 6.321263027117841 0.2156994724137263 12.627764633088157 0 0 0
500 1 11.421957137244783 49.55686504806553 10.743816201557832 0 0 0
496 1 9.510982214264668 48.17808115854554 12.045756265264627 0 0 0
752 1 16.166891187106 47.894542147750954 12.718354210314773 0 0 0
756 1 17.62312673067612 49.41585702189778 11.105088873789391 0 0 0
103 1 0.067214529431525 19.014301088659543 19.267792622623194 0 0 0
13 1 5.038627190532887 1.4439247786571057 14.519356816776929 0 0 0
266 1 6.571643237565914 3.390444498274948 16.19727651392345 0 0 0
269 1 11.12133290480923 1.458493374936506 14.333680819940957 0 0 0
522 1 12.603399856214763 3.5566987546372473 16.021644517784907 0 0 0
525 1 17.734755656824767 2.0134043643641997 14.187127674356779 0 0 0
1184 1 9.595936617494703 28.698823662608465 25.441048566820374 0 0 0
14 1 1.7922489859304456 4.965339948819555 14.33093661404815 0 0 0
270 1 8.127041098641694 4.895164501709106 14.60153626170358 0 0 0
526 1 14.226523859884761 4.998404741450533 14.479753492856823 0 0 0
553 1 15.79239023960173 6.593476927331806 15.93366868693302 0 0 0
135 1 -0.02042605406259893 25.761836140617508 19.015444382322674 0 0 0
45 1 4.742500988216214 7.940807986656549 14.612513027243665 0 0 0
301 1 11.166929657906735 8.12133971197546 14.077590883322276 0 0 0
297 1 9.702009903240976 6.654664790469137 15.924235015164532 0 0 0
557 1 17.5631776351083 7.847765054518864 13.946806585424458 0 0 0
1472 1 15.756212619458006 34.98480192628398 25.370846893439886 0 0 0
46 1 1.7763355861500456 11.294684466457682 14.473231534265969 0 0 0
302 1 7.669492830590324 11.345572741656433 14.112912221271511 0 0 0
304 1 9.270066728370193 9.473493177852108 12.607009162755356 0 0 0
558 1 14.23378077317286 11.301202845960603 14.023170054124202 0 0 0
554 1 12.740390894033997 9.637812885426605 15.657704358822176 0 0 0
560 1 15.882922043366761 9.601691487734085 12.399976901650712 0 0 0
77 1 4.512389016649401 14.725049368093169 14.435579133670842 0 0 0
80 1 2.815892811759645 15.98189700577198 12.53375461387287 0 0 0
336 1 9.59451582276353 16.47501821554726 12.738723952861244 0 0 0
591 1 12.701900980377607 13.181434091731298 12.720192840096693 0 0 0
333 1 11.019469651967027 14.66580496720568 14.414319388778825 0 0 0
586 1 12.887138293575877 15.559666007531586 16.02621610369382 0 0 0
589 1 17.35627988185525 14.370341057346153 14.079826009437825 0 0 0
592 1 15.75277463546446 16.385648863504443 12.955370588267472 0 0 0
78 1 1.5069997370407007 17.534598772030456 14.590959165349727 0 0 0
334 1 7.8584726964326155 17.419199838196068 14.184363759115989 0 0 0
590 1 14.275359585690758 17.5154713207731 14.423630924829688 0 0 0
109 1 5.026705265591902 20.916072365342515 14.229797601519607 0 0 0
367 1 6.517860277193195 19.060076015982755 12.545081024780131 0 0 0
623 1 12.855083277157606 19.337204218417206 12.732919148276741 0 0 0
365 1 10.918354392828473 20.850870223610176 14.09956873011746 0 0 0
618 1 12.553412556075378 22.412953126809853 15.478498881538663 0 0 0
621 1 17.438214781164348 20.882963756329644 14.397393619409812 0 0 0
110 1 1.4504065354728157 23.82629020298198 14.27395144930592 0 0 0
112 1 2.875794138230709 21.96978400238607 12.53612433108206 0 0 0
399 1 6.1604958062353505 25.688825999415872 12.685251538841214 0 0 0
366 1 7.89421015200725 24.23141631659913 14.16042684384684 0 0 0
368 1 9.373591664331178 22.502533312263342 12.672733071166249 0 0 0
622 1 14.194212323539775 24.09757499685516 14.164700823752302 0 0 0
624 1 15.949470142235906 22.54820080170739 12.333232491166527 0 0 0
137 1 2.9471456893174346 25.13160106454396 16.11029215907402 0 0 0
141 1 4.200735133379235 27.148022997585805 14.397532950286982 0 0 0
394 1 5.7800551601874295 28.545584593645465 16.176508975343886 0 0 0
400 1 9.41952325926558 28.642251487502417 12.658056410681983 0 0 0
655 1 12.689127889496996 25.77318574809504 12.775597533688293 0 0 0
397 1 11.006440584815076 27.4411833463849 14.3827610955133 0 0 0
653 1 17.857298613870707 26.878353346076718 14.473178498193382 0 0 0
656 1 16.23819003141194 28.63380626115935 12.832112376618435 0 0 0
142 1 1.414636937936561 30.33119294952237 14.476569367592974 0 0 0
144 1 3.078073451069699 28.792226258212324 12.776384035484472 0 0 0
398 1 7.7909557015568405 29.86444618335304 14.438758538764608 0 0 0
654 1 14.274633438796648 30.101240276423987 14.430485814959418 0 0 0
681 1 16.250165852310595 31.80787063071967 15.79166447243773 0 0 0
207 1 0.12815484082936965 38.25839293850683 13.143331206471935 0 0 0
173 1 4.6142874065131485 33.59048842646145 14.40519399321441 0 0 0