LAMMPS data file via write_data, version 29 Oct 2020, timestep = 100000

8515 atoms
1 atom types

-0.26317226120386294 104.55066564031208 xlo xhi
-0.14360162866454118 51.05072162866476 ylo yhi
-0.14360162866454118 51.05072162866476 zlo zhi

Masses

1 18.015

Atoms # atomic

1857 1 1.1251656840373059 0.9917541678463007 2.2317414675535168 0 1 1
2055 1 5.639874927061922 2.861133777692984 0.34164848315852653 0 1 1
1837 1 7.482124755054475 1.484273805518977 2.1697468032468286 0 1 1
2051 1 12.111785250626987 2.753381558035115 0.8812058228197901 0 1 1
1744 1 14.258727026106625 1.1719488724377787 2.0108564256608092 0 1 1
2420 1 20.753773190708497 0.9489027111926993 1.7172336464435551 0 1 1
2751 1 22.26650519363073 2.808759951907002 3.410118372307012 0 1 0
2400 1 27.318420270165184 1.41577241077661 1.68826956275809 0 1 1
2336 1 33.45230428378158 1.1490583408838275 1.9154341975553542 0 1 1
1731 1 4.185715919112561 4.477323267636381 1.8538668349150096 0 1 1
1693 1 10.640634784608778 4.514554389891073 2.4437643387400687 0 1 1
1572 1 17.323490167099784 4.54355393834265 1.8382286760399689 0 1 1
2290 1 23.8141360908567 4.176422134968154 1.5697752404880918 0 1 1
2230 1 30.043891438650995 4.521766824996299 1.868549634200229 0 1 1
2061 1 1.4550484294346517 7.4243890686743645 1.8673950330864115 0 0 1
2062 1 7.4596287345563 7.672239293263219 2.382618522442355 0 0 1
2057 1 8.918703932610123 6.12272442125739 0.7973687021067908 0 0 1
2065 1 14.057927521807242 7.707697503020738 2.0507811913805685 0 0 1
2059 1 15.378054198182475 6.05724333540977 0.2842079406275516 0 0 1
2726 1 18.87052467726315 6.272880333722195 3.391357924406496 0 0 0
2702 1 20.278948538501208 7.438638633244808 1.4519429616939654 0 0 1
2629 1 24.701527475074467 8.914016699362913 0.47066827281117773 0 0 1
2703 1 26.920536180562483 7.640509391495088 2.045894386431288 0 0 1
2191 1 28.132438740797163 5.974051168831126 0.2701733960993176 0 0 1
2706 1 33.291983298062085 7.3612334895065885 1.963287357006922 0 0 1
2115 1 2.964998846899158 9.366353742754635 3.148767473353089 0 0 0
2068 1 4.39745149753353 11.135355183454848 2.001244807821864 0 0 1
1977 1 6.059864018677867 9.294858058211052 0.7958374384747826 0 0 1
2069 1 10.757572049481562 10.78625352345727 1.9866857664944204 0 0 1
2064 1 12.220038366616043 9.248850549342452 0.5496594082662448 0 0 1
2071 1 16.98681159564764 10.889214887008535 1.7662694416856164 0 0 1
2707 1 23.3902404919044 10.444556039971335 2.3991913134187635 0 0 1
2711 1 30.391065086424902 10.888942390010255 2.2940241387620883 0 0 1
2625 1 31.667476675983313 9.128178497443606 0.5426606420165988 0 0 1
2072 1 1.3375217566227326 13.795624526043104 2.427701265609329 0 0 1
1976 1 2.518371916840485 12.392153663639226 0.6136191989179969 0 0 1
2074 1 7.380096003872176 14.028158579438347 2.012272468596764 0 0 1
1983 1 9.350765592284562 12.466623738473524 0.433703149660157 0 0 1
2077 1 14.18447949842883 14.077035902913629 2.3487972792784606 0 0 1
1986 1 15.431097468927407 12.586008537837458 0.40296418247663335 0 0 1
2712 1 20.714923748221327 14.10110357006797 2.2496240236107834 0 0 1
2631 1 22.106424515075577 12.192301160578065 0.9340307053720633 0 0 1
2574 1 25.138089918953685 12.155603681574716 3.42739667847548 0 0 0
2715 1 26.884379478482803 14.098958243579208 2.064182208394238 0 0 1
2710 1 28.57599126977269 12.12636154494312 0.7131652370635904 0 0 1
2717 1 33.23210942678523 13.798003950917131 2.1856535330292095 0 0 1
1475 1 -0.1813294573531425 15.127445127327315 0.4823712152790114 0 0 1
2079 1 4.520535271117398 17.269659173276732 2.1019019227406375 0 0 1
1991 1 5.9181642489886555 15.690006816341036 0.3424091824634874 0 0 1
1612 1 9.200134459268515 15.381378095056185 3.313392043803927 0 0 0
2080 1 10.999098539230237 17.147254215486118 1.8398851953956314 0 0 1
1985 1 12.70019844714457 15.599249363614584 0.3883219581208194 0 0 1
2082 1 17.217953195166718 17.078564591107778 1.962655168218559 0 0 1
2589 1 19.193174826525773 15.54015803970784 0.7988102639052235 0 0 1
2718 1 23.611866979953987 17.416050714737434 2.1967647244585478 0 0 1
2714 1 24.970977636211593 15.501537770716157 0.8420941595979873 0 0 1
2721 1 30.17579718309403 17.329612083942404 2.0811367700793055 0 0 1
2716 1 31.69809789428129 15.683761188634762 0.6013367378860072 0 0 1
2084 1 1.0903473867407703 20.43006170794063 2.1839235259493597 0 0 1
1990 1 2.913425486284245 18.961293076573934 0.652384109887231 0 0 1
2087 1 7.6781719558845 20.301122850517096 2.245755880351885 0 0 1
1998 1 9.28045247647552 18.90070811586316 0.5029237210310107 0 0 1
2088 1 13.847236778642454 20.457133595966315 2.116966675678465 0 0 1
2089 1 15.523836037335926 18.755621787035732 0.5793463852400322 0 0 1
2722 1 20.569507787787977 20.236602026942016 2.344691227535886 0 0 1
2637 1 22.197172320708013 18.842487177648128 0.497116924446219 0 0 1
2723 1 27.177068472098913 20.505529888500593 2.3664075961406135 0 0 1
2720 1 28.219414506794013 18.459039033013287 0.42525699715382703 0 0 1
2725 1 33.69335903344042 20.423518923565265 2.0007908819338116 0 0 1
2093 1 4.468223393724267 23.86936987781057 1.6686363200951437 0 0 1
2003 1 6.244270067806156 21.89002635908128 0.6088062109729877 0 0 1
2096 1 10.811382022181773 23.770961015991396 2.073514668808858 0 0 1
2095 1 12.529917249792764 22.100552623975354 0.6602993325883515 0 0 1
2098 1 17.128669429043292 23.74547795035183 1.9852020716624281 0 0 1
2132 1 18.752585072950374 21.94971676755929 0.657374948070497 0 0 1
2728 1 23.535686974101292 23.378339052579474 2.512228901198322 0 0 1
2643 1 25.40541573211576 22.105510808924656 0.9191995097774917 0 0 1
2731 1 30.05874541476789 23.523642467743805 1.8839252359670824 0 0 1
2724 1 31.686639192271684 21.780269644338773 0.5730319112135344 0 0 1
2092 1 2.6714348830368353 25.354810032633388 0.23624224980307257 0 0 1
2102 1 7.568464544125456 26.831678237149863 2.022562912417934 0 0 1
2005 1 9.06043797527483 25.06836233597215 0.5493815300201178 0 0 1
2104 1 15.691688083774588 25.565180459138148 0.6966540964251204 0 0 1
2732 1 20.594098205236243 26.98357232778045 2.078359175151409 0 0 1
2727 1 21.951418518148337 24.724426567227866 0.6246744786105052 0 0 1
2734 1 26.718957857856527 26.55516270901464 2.24461434703038 0 0 1
2730 1 28.440396562817025 25.237374670608947 0.5836727066028099 0 0 1
2735 1 33.591697435088086 26.424867900252725 2.164371347332902 0 0 1
2100 1 1.3200548781047317 27.00777193185082 2.0405547425248995 0 0 1
2108 1 5.941366479031302 28.654261988342753 0.4410839858311886 0 0 1
2014 1 12.089156816156256 28.75165455383936 0.34325776918937095 0 0 1
2103 1 13.833885543136315 27.05948938040051 2.013758893400283 0 0 1
1450 1 15.362010775792376 28.860869830918432 3.20055440373429 0 0 0
2111 1 17.6354327906076 29.929622277720966 1.886007166700543 0 0 1
2166 1 19.013523247608756 28.26225924558153 0.3987669214257765 0 0 1
2733 1 25.282176840705404 28.20166821562475 0.40983859909410514 0 0 1
2738 1 30.27066143541876 29.891829363298463 2.1061601221345705 0 0 1
2654 1 31.612579204984215 27.679674241643074 0.7209498681763564 0 0 1
2106 1 2.745866872793014 31.59231002442711 0.2623657662737362 0 0 1
2107 1 4.373025474257032 30.152636643815992 1.9068365701131071 0 0 1
1549 1 5.938538478613057 31.540167640781995 3.3974047105397354 0 0 0
2110 1 10.462968801040782 30.140981145755156 2.084882178680128 0 0 1
1640 1 12.287047512982618 31.86061501312077 3.3583176866530215 0 0 0
2021 1 16.03660687802721 31.49674191369471 0.39396911772545884 0 0 1
2739 1 20.768551260438926 32.83341635119474 1.6304749498913451 0 0 1
2737 1 23.877340866214197 30.11153503685247 2.024638898507715 0 0 1
2672 1 25.5289976918938 31.718339600856623 3.4085040641000663 0 0 0
2659 1 28.562203557750234 31.358533870525868 0.7641163930089027 0 0 1
2112 1 1.2386113671845018 33.169924643695595 2.019839349986957 0 0 1
2119 1 3.088950584253626 35.05497630734687 3.214121003873697 0 0 0
1995 1 7.425114409687615 33.35955975789695 1.6918037783016464 0 0 1
1752 1 9.073821703061167 34.81513639286427 3.4081151227730015 0 0 0
1963 1 14.229712598277759 33.19086272079757 1.7996269452403273 0 0 1
1981 1 12.737900695889225 35.12534069238038 0.2884759355199403 0 0 1
1904 1 15.9104369561338 34.636053364296735 3.286793258724226 0 0 0
2741 1 27.013836512184536 33.131686788785224 1.7486259895529328 0 0 1
2742 1 33.45056224223383 33.20565296256303 2.0322691439912997 0 0 1
2664 1 31.699283486535403 34.908419635249345 0.5962656315092768 0 0 1
2067 1 2.6297779392449914 37.95227324668639 1.049529761161133 0 0 1
2076 1 4.7490252148300005 36.683654604618276 1.691632765303946 0 0 1
2091 1 10.914190079442053 36.30676214283958 2.0035831261897235 0 0 1
2085 1 9.708756698315717 38.6674475332883 0.4687912396400643 0 0 1
2097 1 17.7872913059649 36.24452425284617 1.7897354482336785 0 0 1
2028 1 15.736587627749737 37.69659110038009 0.24223417284163634 0 0 1
2744 1 23.82757043103701 36.221280069283175 1.8020802842916732 0 0 1
2409 1 25.41705362659116 37.94877381026834 3.3085405481609107 0 0 0
2670 1 28.23675131169415 37.79354876358017 0.28419894654573563 0 0 1
2745 1 29.859454443355734 36.54614589653648 2.0000503568521375 0 0 1
8264 1 0.8013808124185062 33.86955383843864 18.516369180711365 1 -1 -1
2081 1 0.9853374107351434 39.83205620336064 2.256126338907596 0 0 1
2094 1 7.708549855706303 40.04350475491597 1.6366997437280493 0 0 1
2101 1 14.006820733180893 39.30082290262056 2.021424252526452 0 0 1
2116 1 15.538855738246077 41.21141477521617 3.228429104198687 0 0 0
2083 1 12.531999386302205 41.31991867434843 0.32474458660395805 0 0 1
2747 1 20.903457259847304 39.30029011527533 1.755520673709792 0 0 1
2474 1 18.9994880521356 41.25425234606762 0.34479302167806697 0 0 1
2719 1 27.055894783668887 39.69352252646285 1.8124649863333993 0 0 1
2746 1 25.329271660801822 41.37319922008928 0.4348630761899638 0 0 1
2729 1 33.186903902148494 39.849744489290444 2.0822822844296844 0 0 1
2678 1 31.702579573907624 41.44935535082413 0.7153584826276916 0 0 1
2034 1 2.5495072519310322 44.32766486733962 0.6063507481198475 0 0 1
2073 1 4.538987086088875 42.770189556942164 1.9758115613144076 0 0 1
2053 1 10.952760882548137 42.89192774352863 1.8747430878360412 0 0 1
2039 1 9.466034220776747 44.61338044673899 0.3610295551631155 0 0 1
2022 1 17.33169372733997 42.84229905549693 1.9369400515247133 0 0 1
2037 1 15.901453354034569 44.485028092148355 0.36226424899705023 0 0 1
2749 1 23.782599967143046 42.756421930559284 2.2474518235561782 0 0 1
2684 1 21.99697500442586 44.45882020646583 0.32373592483923685 0 0 1
2748 1 29.92850773241726 42.87403582075181 2.120431650247876 0 0 1
2681 1 28.357383843531203 44.68904109121914 0.38734655189062583 0 0 1
1864 1 1.1147661817282701 45.86946711456343 2.3865697389939795 0 0 1
1458 1 2.8348372095519863 47.423676883862655 3.377958920393255 0 0 0
1400 1 -0.11753334172587446 47.30683512114763 0.5225288212230862 0 0 1
2086 1 7.769177120440618 45.697322131977586 2.1081472161627235 0 0 1
2040 1 6.469548593557045 47.410904446796444 0.407531634370182 0 0 1
2078 1 14.294591879701485 46.33095510278066 1.823109849851683 0 0 1
2713 1 20.38780674611618 45.965861249902694 1.9364595251248433 0 0 1
2169 1 18.8545336864762 47.61150459798383 0.47057740545691884 0 0 1
2679 1 26.704167801255643 46.35566262774067 1.806159515759398 0 0 1
2665 1 33.61522956618392 46.159385089513634 2.4571761771019673 0 0 1
2736 1 31.91481868990656 47.60681185216156 0.4873405595587208 0 0 1
1848 1 2.7314013752210466 50.44332275096769 0.4326990652282957 0 0 1
2099 1 4.606907706350486 48.95981868407112 1.8299238069469554 0 0 1
2090 1 11.075612082318738 49.257062378421416 2.1548279271566053 0 0 1
1836 1 9.368668656851824 51.00083322118224 0.5114148003185721 0 0 1
1987 1 17.448815495494525 49.150280215768035 2.0585376779111058 0 0 1
1890 1 15.81767507679642 50.81986430150861 0.41063068041366857 0 0 1
2626 1 23.87928245951637 49.13251108098182 2.01782851385434 0 0 1
2501 1 25.569715690004358 50.958947267150926 3.3596647756006313 0 0 0
2605 1 30.324445282298676 49.20174782931097 1.98320363391056 0 0 1
2688 1 28.807000178070613 50.66813860696905 0.25990183001758527 0 0 1
2691 1 34.496436163959515 50.697019378601844 0.24335604272717198 0 0 1
748 1 2.7971811807704197 2.724092381962742 3.721264815537645 0 1 0
82 1 4.528418701857511 1.0170430215931396 4.978074510301324 0 1 0
84 1 10.822134051239782 1.4643810628354779 5.323395992051161 0 1 0
2117 1 15.983191211241 2.700993216895576 3.5830216452733796 0 1 0
87 1 17.387456637946883 1.1638552228009773 5.236050918029629 0 1 0
828 1 19.214557571695337 2.8359952041910335 6.40209507650176 0 1 0
845 1 24.05955449438387 1.511016799653384 4.990383784885506 0 1 0
847 1 30.25645396974789 1.5638369089473962 5.304394799294948 0 1 0
1423 1 -0.07541452875517599 5.842796802969271 3.6089013829021526 0 0 0
88 1 0.9479688770628727 4.18219708942639 5.2344066776980736 0 1 0
754 1 8.997981474187895 2.9621839741417175 3.9327796877443664 0 1 0
89 1 7.408383265674197 4.458587503128286 5.355802407492309 0 1 0
91 1 14.156944768269208 4.46482043833404 5.11731915881359 0 1 0
850 1 20.757333602847236 4.778649988412537 4.704548694901269 0 1 0
851 1 26.72815279496153 4.427628464949181 5.227841865921945 0 1 0
1386 1 28.50069169602213 3.085328987520515 3.714247066902139 0 1 0
2161 1 31.835546396981606 5.8410320284731725 3.6062602975929594 0 0 0
853 1 33.737879348034134 4.574991703741456 4.919135202462418 0 1 0
766 1 5.749830820374342 5.936240667467435 3.888276019716427 0 0 0
2 1 4.093814557060832 7.659524891746094 5.1887117770258575 0 0 0
4 1 10.885138140520027 7.593493708516714 5.417955663921584 0 0 0
1717 1 12.504128398070375 6.16731520563612 3.6747311462021646 0 0 0
5 1 17.154428587245402 7.914705964972246 5.282261858043086 0 0 0
2750 1 25.08256403216151 6.1641858898044095 3.569173700415628 0 0 0
771 1 23.440544970164638 7.5416750860692865 5.1303503856498835 0 0 0
773 1 30.014501517806966 7.432750335783213 5.226535492660958 0 0 0
6 1 1.5479855558575883 10.694613534437076 5.066049231639661 0 0 0
7 1 7.525001303872333 10.512859646940997 5.393053993172592 0 0 0
36 1 9.280025890178779 9.136473527498104 3.696416752937559 0 0 0
756 1 15.56648698781689 9.269081289256253 3.725182715499332 0 0 0
9 1 13.91921147343985 10.642474602339124 5.209365633743689 0 0 0
1377 1 21.736477255641862 9.021096626298693 3.8304934529009778 0 0 0
775 1 20.44133870378729 10.92286042010087 5.031904246947021 0 0 0
778 1 25.15716057625332 9.15486104126515 6.496310396772754 0 0 0
777 1 26.86810660060673 10.678257229200078 5.000723529168773 0 0 0
2651 1 28.54141788405329 9.229171301284618 3.679078103920872 0 0 0
780 1 33.40749145832771 10.629080205653418 5.511823190290278 0 0 0
765 1 5.978518728043146 12.437253656148423 3.8869474955872496 0 0 0
14 1 4.325742098716584 14.288504889656085 5.1731856433611405 0 0 0
758 1 12.184621724167448 12.269157306216979 3.782791477178664 0 0 0
16 1 10.444536232607112 13.710390267415576 5.297864366496234 0 0 0
17 1 17.582479453535758 13.854624391524402 5.456722596591462 0 0 0
2211 1 19.072401219109988 12.298476306010865 3.5502275211121015 0 0 0
782 1 23.66007851019754 14.108120764026495 4.909655929659441 0 0 0
779 1 28.488245915397066 12.462374202512631 6.4507655393095185 0 0 0
784 1 30.250115841542485 14.505415552840443 5.488391254795747 0 0 0
1378 1 31.845846241394476 12.279399727658387 4.284364206692931 0 0 0
1415 1 2.881828473628969 15.960202801500092 3.650017705651831 0 0 0
18 1 1.5807084060351222 17.28986450738736 5.450556697002444 0 0 0
113 1 5.6522104686849355 16.156100140576587 6.569939424340216 0 0 0
20 1 7.73342666451209 17.356543661280583 5.202270684185997 0 0 0
21 1 13.875668389802842 17.149392657138122 5.389213545092883 0 0 0
752 1 15.862892257109916 15.73936636673776 3.977751784597589 0 0 0
787 1 20.655684006260227 17.362626082015563 5.182848370614172 0 0 0
943 1 22.060441147604916 15.791530170805975 3.741711378219444 0 0 0
789 1 26.940268508192656 17.128086874054404 5.444323995593296 0 0 0
1387 1 28.558469674574752 15.76601720100923 3.749680108754758 0 0 0
791 1 33.39451914860538 17.135405070650208 5.200713075741581 0 0 0
639 1 -0.16954258191400084 18.617235944648154 3.9133528949910756 0 0 0
731 1 5.847945458334167 18.93422255256548 3.982617446600077 0 0 0
767 1 12.145306166464758 18.733460812293888 3.7139221959306816 0 0 0
26 1 10.728804653328034 20.61494026787951 5.3022332853678 0 0 0
749 1 18.72198099151747 18.698900650012856 3.7865878917983538 0 0 0
28 1 17.124438198473108 20.729672245072617 5.105758694403594 0 0 0
793 1 23.730502846549516 20.162666769242474 5.391098715794288 0 0 0
2752 1 25.442517900494103 18.80519273520801 3.6287806197815256 0 0 0
796 1 30.36304721935028 20.522177819463764 5.390982216535886 0 0 0
1325 1 31.88276747323186 18.956508525798444 3.9136785573560964 0 0 0
2120 1 2.7315019656646484 22.45922443049736 3.4513945706151232 0 0 0
30 1 0.8827438118042139 23.61356338784852 5.166644425098776 0 0 0
24 1 4.408591304780884 21.004841713501992 5.325707317721198 0 0 0
32 1 7.649137977837837 23.63212604352629 5.1387500180446875 0 0 0
1406 1 9.292250134422066 22.022809964864397 3.470232974811471 0 0 0
2127 1 15.29198335574583 22.411316311110944 3.449315756461949 0 0 0
33 1 13.603385511790203 23.73693703765369 5.438761897092422 0 0 0
797 1 20.657082193920154 23.52261271970329 5.299304133158194 0 0 0
1369 1 22.27040166895274 21.61925298781611 3.779896375779601 0 0 0
799 1 27.090868122536914 23.704403459553706 5.503654324549655 0 0 0
1368 1 28.660204802861703 22.257266626197442 3.807719244490225 0 0 0
801 1 33.25641695859611 23.197281960340156 5.209980674646977 0 0 0
1303 1 31.677159476045578 50.32671429340278 22.95434892206331 0 0 0
160 1 5.854924479265537 25.19626148107207 3.691448989193431 0 0 0
35 1 4.425733187773275 26.628670790788963 5.368758291129017 0 0 0
2137 1 12.318787217431208 25.545508663740254 3.6824937876809005 0 0 0
37 1 10.660791875094759 26.973181819610485 5.234218818337371 0 0 0
40 1 17.08293158908197 26.90932021262204 4.8414670687379235 0 0 0
34 1 15.639484731835365 25.254915859714036 6.5572374815693495 0 0 0
2754 1 18.874388388538858 25.256596188527798 3.4708395761334314 0 0 0
1326 1 25.254483991607927 25.044132490385643 4.000854096799561 0 0 0
805 1 30.34645009252353 26.840855664362778 5.132967005555651 0 0 0
1255 1 31.716695511020333 24.85899372855567 3.7764450845267636 0 0 0
764 1 2.9275294411607398 28.47808840442222 3.891964180715366 0 0 0
2140 1 9.17475573284108 28.275064408447296 3.6812301429070464 0 0 0
43 1 7.479324138556488 29.77692600869731 5.097431862101583 0 0 0
807 1 20.508446350926054 29.786867595251895 5.486206133803749 0 0 0
2185 1 22.197117634081824 28.579171303066094 3.624422543132501 0 0 0
802 1 23.61173893286991 27.127008443915848 5.368017971398762 0 0 0
2709 1 28.422000465670344 28.28834272346692 3.59774226221926 0 0 0
41 1 1.4286750738071812 30.309264830264116 5.28688954725003 0 0 0
657 1 13.803651300560379 49.22109658980196 23.86853711882133 0 0 0
44 1 14.062380796697077 30.08421434117333 4.948743393039721 0 0 0
51 1 15.752726684335343 31.331076973805608 6.63383205354863 0 0 0
2172 1 19.231766026242983 31.469915800253563 3.568645314444062 0 0 0
809 1 26.728192318158705 30.060004203158144 5.087711950668389 0 0 0
785 1 31.87514888199037 31.6230768876277 3.716802710958228 0 0 0
812 1 33.48691458965615 30.04248615229959 5.509641167617232 0 0 0
46 1 4.577726864271999 33.55749309596615 4.9161215823267765 0 0 0
48 1 10.675774288693482 33.4037519201903 5.357661349885108 0 0 0
50 1 17.150033580595835 33.1926651120991 5.079268207459352 0 0 0
899 1 18.950478053444805 34.84328007947362 6.3394721775862015 0 0 0
2563 1 22.25588166671334 34.58721941855227 3.44261653432841 0 0 0
814 1 23.939311715811236 33.03673666244387 5.141443510681899 0 0 0
2381 1 28.393829614074807 34.49579032226477 3.567021229363798 0 0 0
815 1 30.25525979430167 33.05749901590882 5.243256709802482 0 0 0
23 1 -0.18316640078572566 38.073714306385874 3.821205354082046 0 0 0
52 1 1.5195009329765496 36.27969118652474 5.029530178129481 0 0 0
148 1 3.309091809753883 37.84353959741033 6.499048896411134 0 0 0
1912 1 6.316503096975812 38.40488343192075 3.5014828697257063 0 0 0
55 1 7.726292340946206 36.536154758794126 4.977765719806784 0 0 0
761 1 12.388575137647692 37.910426286867136 3.9743392018339954 0 0 0
57 1 14.278966714829338 36.185382659967274 5.022353723657097 0 0 0
158 1 16.398248488382432 37.605898666081366 6.513437658524791 0 0 0
2311 1 19.323797355408434 37.976159855204834 3.469240704123996 0 0 0
818 1 20.639692735502166 36.269514274820736 4.824711075859963 0 0 0
819 1 26.89540450459595 36.293895494922566 4.992639685638364 0 0 0
1185 1 31.77556884780406 38.24449005506032 3.963602686951509 0 0 0
822 1 33.19692491006659 36.201310592650586 5.259008089622765 0 0 0
2125 1 2.9320985198356615 41.34289354388377 3.4615889760654803 0 0 0
58 1 4.3320073265955275 39.594412047002486 4.96293224239752 0 0 0
59 1 6.262895338878271 41.00769839564081 6.5611596785400685 0 0 0
1601 1 9.42585143581818 41.26051285284963 3.683885700964837 0 0 0
61 1 10.871130516412999 39.55970954055744 5.368157750366043 0 0 0
62 1 17.693752693030245 39.770155319634526 5.010824827528155 0 0 0
2154 1 22.56103109588007 40.822798130821795 3.681281873365482 0 0 0
824 1 23.955362254984237 39.33940644410332 5.28603324107805 0 0 0
2758 1 28.401041521339405 41.16327660475539 3.6262620622011768 0 0 0
827 1 29.888143047063863 39.800010428113126 5.294055107012528 0 0 0
64 1 1.319607318783154 42.71935263387071 5.088701912231234 0 0 0
293 1 5.830018519706641 44.35640867140501 3.6863820568311407 0 0 0
65 1 7.4972543963039495 42.778794308117085 4.933310381301992 0 0 0
2129 1 12.547038277174 44.5840290893985 3.508253189977599 0 0 0
67 1 13.79514692131753 42.595376048741265 4.899740661916001 0 0 0
74 1 15.464045494432183 43.987438365194336 6.560671156634204 0 0 0
2756 1 19.01756482049301 44.23607707013075 3.6842022996349066 0 0 0
829 1 20.746949053219335 42.34452902076992 5.0012696484737384 0 0 0
911 1 22.145140748612054 44.33086815800011 6.239712084959404 0 0 0
2219 1 25.359210293965656 44.482218728057774 3.5225070590007634 0 0 0
830 1 26.85521787120188 42.77565305731708 5.105609170201153 0 0 0
781 1 31.297961092189627 44.44122566010055 3.884383697502666 0 0 0
833 1 33.30123762317953 42.788995934216764 4.955183534845993 0 0 0
70 1 4.5356528442002215 45.97614279902072 5.36692992193483 0 0 0
172 1 5.911385931821942 47.78580545534795 6.553803973002471 0 0 0
2126 1 9.499290484065938 47.42405961227272 3.6101365934253398 0 0 0
72 1 11.011562234166295 45.87988633404364 5.514195461972299 0 0 0
770 1 15.676439361884823 47.78367338858573 3.813251921578585 0 0 0
73 1 17.029673910836433 45.63598345637306 5.064369943607465 0 0 0
746 1 18.77968414643257 47.27731075387317 6.589499658505174 0 0 0
2239 1 22.215273265320352 47.48474954139741 3.516820902996853 0 0 0
835 1 23.810436295403456 46.064495665921505 5.213186566231665 0 0 0
846 1 28.574954754494108 47.529097340582695 3.708665715455165 0 0 0
837 1 30.26899992756277 46.38690647727855 5.525120101401813 0 0 0
76 1 1.6788173142605063 49.23816986862014 5.099693061193089 0 0 0
1571 1 6.105039342895825 50.473324885677854 3.541849551192222 0 0 0
77 1 7.770287205256903 49.11843372526402 5.282267774261848 0 0 0
757 1 12.63247811319608 50.76557464695082 3.8398321624571534 0 0 0
80 1 14.01542437179221 49.085284622167954 5.484526623205897 0 0 0
1388 1 19.075359927624103 50.787320866827244 3.7229113071998197 0 0 0
839 1 20.547240866061102 49.163267975540634 5.142535670111087 0 0 0
840 1 22.136635231730697 50.942193576364 6.318591500991849 0 0 0
918 1 25.404931295651583 48.0793803890041 6.5649350363125105 0 0 0
841 1 27.26769656891806 49.51887729645326 5.01053449351636 0 0 0
2145 1 31.634059541393622 50.98570288757368 3.619973326525898 0 0 0
843 1 33.37187270317251 49.2287056572056 5.162125363886223 0 0 0
177 1 1.3690856815256465 1.145657868173528 8.274647310406634 0 1 0
90 1 5.59928689747992 2.8523901224120434 6.762229181348731 0 1 0
178 1 7.469242928464544 1.5288530094485318 8.24600977312752 0 1 0
179 1 9.440597714637828 2.880526706372014 9.761550887969047 0 1 0
180 1 13.872753676531119 1.168478046207223 8.330175424451765 0 1 0
924 1 20.48187637866885 1.203987693183312 8.23114187610212 0 1 0
926 1 27.050198221612373 1.1693049904790562 8.713418934394827 0 1 0
928 1 33.430941309301176 1.2672671065024492 8.35132183256246 0 1 0
184 1 4.019670383505385 4.475770605697575 8.283807021561879 0 1 0
85 1 12.300653490187646 3.057570042314943 6.853571741940378 0 1 0
186 1 10.915004917718058 4.634959518244911 8.512416741621507 0 1 0
95 1 15.715731130078478 5.822410981885768 6.723900608951277 0 0 0
187 1 17.18314384554964 4.039889918399768 8.022261835504027 0 1 0
929 1 23.57080125416137 4.4475464568112475 8.394628847324546 0 1 0
930 1 25.517372149160582 2.930743083190422 6.856719052725653 0 1 0
931 1 30.073365805170187 4.7994098914868655 8.444941994367232 0 1 0
848 1 32.07370401141526 3.08775857800317 6.877059943321506 0 1 0
183 1 2.681283653806367 6.020917145492736 6.717932857980869 0 0 0
328 1 0.1720492988577465 8.916866669996635 6.71307329102436 0 0 0
93 1 1.3850026124037729 7.382105442035998 8.761564727561192 0 0 0
8 1 5.952033515289081 8.868831684761387 6.8991223568322395 0 0 0
3 1 9.10412588265634 6.081571272361776 7.08644925595551 0 0 0
94 1 7.589791457195187 7.748976614453669 8.712344128579934 0 0 0
96 1 13.817706690958655 7.769864972044324 8.218624633610506 0 0 0
458 1 18.669642756184967 6.097769216636654 9.648739042924294 0 0 0
855 1 20.362676688553186 7.767076104647007 8.128721614614344 0 0 0
772 1 22.0253889718825 5.9882855791748435 6.868324309785332 0 0 0
852 1 27.992077805204364 6.145476530782303 6.846114658509206 0 0 0
856 1 26.6460833938604 7.961110043738749 8.557754892411742 0 0 0
858 1 33.583980498984744 7.92621468267874 8.64411104689307 0 0 0
99 1 4.753756068518752 10.69662145904984 8.36864862241237 0 0 0
10 1 12.113708333630452 9.360781347649873 6.867907059905719 0 0 0
103 1 10.472049902636792 11.23534967524241 8.072720704695843 0 0 0
104 1 15.195944778625627 9.60589166381264 9.83320746627719 0 0 0
735 1 18.66905130661654 9.715789027897296 6.86815796504532 0 0 0
105 1 16.989638659903786 11.143555611778252 8.477792654580206 0 0 0
861 1 23.768342620092785 10.95126845324967 8.109807614267401 0 0 0
862 1 29.97751853571175 10.986278922527758 8.391934963121598 0 0 0
774 1 31.625081044052337 9.187094782869098 6.993074807677606 0 0 0
106 1 1.5588406498505147 13.910389343435947 8.558366974303498 0 0 0
12 1 3.0537087620044905 12.359720865098405 6.688744657240619 0 0 0
101 1 5.958622771922814 12.79373155808461 9.787816512951347 0 0 0
15 1 8.218143489201985 12.761283895488384 6.680585785550552 0 0 0
107 1 7.278750401480834 14.66827952631094 8.358808157002967 0 0 0
108 1 15.457633544034413 12.543580239864298 6.772530687845916 0 0 0
110 1 12.523779487132732 12.460942053458218 9.630512067874779 0 0 0
109 1 13.940695148461998 14.284863342639568 8.335552893955457 0 0 0
783 1 21.892746482550304 12.514204044294896 6.658886328357983 0 0 0
864 1 20.75291338747422 14.063086373789629 8.490548556118272 0 0 0
866 1 26.90735070707489 13.803898242408636 8.291048776444047 0 0 0
867 1 33.26069886405771 13.791013578578061 8.488843357334607 0 0 0
225 1 -0.09776285156977382 15.360393317645327 7.122604925047496 0 0 0
112 1 3.9690278083969517 17.47011070956828 8.384073824844343 0 0 0
22 1 12.013360873334603 15.373274641076593 6.669113697113638 0 0 0
115 1 10.921224110444738 17.493028302528504 8.288720202077622 0 0 0
117 1 16.92684362197195 17.335869516913323 8.294923842839154 0 0 0
854 1 19.043585226065364 15.621539682346425 6.901757106343427 0 0 0
869 1 23.84601704158304 17.302760116104558 8.521862606330261 0 0 0
790 1 25.259407285293157 15.515969211221288 6.951895027942919 0 0 0
872 1 29.8073903792083 17.376578966149804 8.579198013005339 0 0 0
873 1 31.761755407933585 15.870129133017997 7.164371337172433 0 0 0
111 1 2.6924263131596353 19.47037676982216 6.889263187840373 0 0 0
118 1 1.0291762574134544 20.646960291314382 8.733522160920431 0 0 0
120 1 9.118359520896433 19.07652748958829 6.674493954698626 0 0 0
119 1 7.669016097576701 20.34311450581518 8.55765795342508 0 0 0
116 1 15.22092021276609 19.29548138001787 6.915300987590247 0 0 0
788 1 21.855481769767426 18.963829280382562 6.990028045953946 0 0 0
875 1 20.233329374684203 20.65508186120842 8.355573614944241 0 0 0
876 1 26.962216428992367 20.247914964618612 8.401623988066392 0 0 0
877 1 28.517328203068317 18.76209876216141 6.987043844408483 0 0 0
878 1 33.39263964556106 20.298833587748156 8.492920960744085 0 0 0
2341 1 31.78824899689547 2.6986009464170055 0.2205063294887991 0 1 1
123 1 4.242051555770884 23.70135502838162 8.779266422810304 0 0 0
25 1 6.292626012873002 22.24527304925666 7.353937232668838 0 0 0
128 1 11.701631814084385 22.28943033835211 7.260362405925498 0 0 0
121 1 13.638035919123107 21.012637248691316 8.811146617993304 0 0 0
129 1 17.08624926119506 23.718692981993538 8.253022952820215 0 0 0
1037 1 18.92180774963402 22.331756077516356 6.81946678948971 0 0 0
881 1 23.655313699946323 23.897873517790924 8.59628600653089 0 0 0
794 1 25.265673079506406 22.11923780535402 6.868738147252259 0 0 0
882 1 30.074261423877473 23.937135803645806 8.524979598156754 0 0 0
883 1 31.704218488418373 21.98456920442395 7.1555567362688945 0 0 0
131 1 2.754110735512155 25.200776276370732 6.952746105543116 0 0 0
1 1 0.1085500275444769 25.419407006574918 9.78232510843385 0 0 0
38 1 8.80622832351312 25.35504078278912 6.742247365321605 0 0 0
127 1 10.341777989256718 24.363525256783184 8.708247557022954 0 0 0
135 1 14.515738659663402 26.771607229719955 8.242324659788592 0 0 0
224 1 12.538971093649133 25.463670201006106 9.553085639586811 0 0 0
884 1 20.579792405920248 26.538224385510354 8.734432212826437 0 0 0
879 1 22.034991262276062 25.315542936994582 6.916451761526764 0 0 0
800 1 28.575000475171457 25.548721945253224 6.865798025602721 0 0 0
888 1 33.71074146043326 26.531931540952737 8.285496782447597 0 0 0
130 1 1.3436209662010372 27.283768236068678 7.90647805371289 0 0 0
132 1 5.828406817291613 28.47365171671509 6.928989831597037 0 0 0