LAMMPS data file via write_data, version 29 Oct 2020, timestep = 200000

4608 atoms
1 atom types

0.015448029936113272 53.384551970065594 xlo xhi
0.005656465118217824 50.90146353488278 ylo yhi
0.005656465118217824 50.90146353488278 zlo zhi

Masses

1 18.015

Atoms # atomic

4146 1 6.444114967949215 0.17605695582671455 24.014486317100697 1 1 1
1803 1 6.395690778353571 3.9304002122746438 0.923418611418216 -1 1 1
3290 1 10.299998498771366 19.193138667020047 1.5269582655871297 0 0 1
1615 1 0.851337227134593 46.42480835560056 11.722103616071815 0 0 0
4151 1 14.54121020943606 3.286674457451057 3.0989472348038847 1 0 0
3860 1 2.7790115431921243 5.325143066734311 22.044043379388103 1 0 1
1651 1 0.6689078045151562 32.73535521897141 20.66778662819814 0 0 -2
203 1 0.49284299739805315 4.347686896541067 0.270210613778137 0 1 0
499 1 8.183841100040205 7.192915000195137 3.8026620805301845 0 0 -1
853 1 11.97989815796622 4.6721446738314505 2.5355170879571873 -1 0 1
2751 1 13.51971000603431 7.209101615352909 3.0058515509188486 0 0 0
3191 1 1.6282873178066735 50.15724259972632 14.000567606403148 1 0 0
3576 1 15.618183460663566 3.244131332459084 0.44381096696311007 1 0 0
505 1 1.8165344359785065 34.896649401791834 18.97442614605768 0 -1 0
3343 1 3.045019316709712 12.038124748978708 2.668463290059131 0 -1 1
41 1 2.347069786325791 33.497233229999836 7.181404781685728 -1 0 -1
316 1 4.02251125049702 1.3692939023143382 23.298171444522993 -1 1 0
1131 1 0.917054874442452 33.546439634409964 23.4322918448372 0 0 0
1503 1 15.42318119797242 10.27848873489839 0.8672475709063057 0 2 1
2816 1 1.8078724153056938 27.766775882769135 9.377102440708462 0 0 1
2946 1 9.70613832308319 9.318075777777766 2.3223602727626798 1 1 1
1910 1 4.272576970388348 9.042841561254097 5.605432864966507 0 0 1
4260 1 11.250820760461671 8.318659486722813 4.5856540955577065 1 0 1
4369 1 1.366503240595656 38.31738641666399 16.86229934295106 1 -1 0
692 1 0.3534227919156578 19.701791218465768 12.303955397014763 0 0 2
3477 1 14.805977293602943 46.403880521679994 24.81766990830316 1 -1 0
1884 1 0.4589458615046492 15.482789941890957 13.907896523976703 0 0 -1
897 1 0.8095621680420827 35.17425794187241 4.696797631255812 0 -1 1
3159 1 14.395729390261815 39.025003201603866 0.7504379452740818 0 0 0
921 1 12.79463551787613 10.19947863859611 1.9337922455600198 0 -1 1
4477 1 11.402369127821855 26.45131074932663 25.035464453981213 1 0 -1
387 1 11.770754241576133 14.814944567930059 2.1500386042663715 0 0 0
1487 1 16.079583859428418 43.19057997866234 20.085712075337295 0 -1 0
258 1 1.9451521032983776 16.323598095021296 2.0335857052229898 0 0 1
2811 1 1.8442720118922422 36.164808073133784 8.459186418277735 1 0 0
210 1 9.527934582630282 12.969697598199444 22.993840501688656 0 0 -1
2903 1 10.150852099964235 12.756107056821046 3.6293597608132946 1 -1 1
873 1 6.004751042922273 18.88870186318692 1.5313453352612567 0 0 -1
2215 1 15.399342310630304 45.399477641862745 0.7211683955109375 0 0 1
3939 1 12.331508319900736 15.99589737369095 5.257226915857901 0 1 1
1474 1 2.4801427034586565 48.17737147162545 20.492943028041957 0 -1 1
1979 1 16.73804405631753 48.2430692198367 1.262193932479959 0 -1 0
890 1 12.592055565164024 12.419085625726376 0.109151545697033 0 -1 0
1253 1 10.226379955926728 25.404863576675826 0.2288587474345776 1 -1 0
1775 1 10.163019785037502 20.04925634983173 4.193480015960387 0 0 1
3829 1 12.557246575750534 19.179872685686714 5.181803376889202 2 0 -1
2809 1 7.332165120973466 2.7557289450641713 23.868456105844906 1 0 -1
4148 1 7.929212184554063 22.86057221113743 1.8333776482295268 2 0 1
565 1 11.894682359165657 21.00109694605738 0.15472914530539794 0 -1 1
443 1 0.48941602306359855 26.553347416923117 4.3990460224688315 1 -1 0
4013 1 1.692275883388227 6.79448807484693 1.2497424624973905 1 1 2
4484 1 15.700021179743716 0.04348584298225566 1.8653715357544551 1 0 0
3645 1 2.45352423770321 22.243659337529664 1.870741393975035 0 0 1
2251 1 3.2876773994938655 30.68605099687848 6.61248866559789 1 0 -1
4360 1 1.7896374846456453 28.9968820166875 4.611913270336481 0 1 2
4317 1 14.015206599063935 40.97002998917635 20.47311425984575 1 -1 0
3723 1 6.044004318989132 18.788297620217943 24.288018875495137 0 0 0
3431 1 2.258175488929156 12.183315049419916 6.4305286446021475 1 1 1
458 1 0.3276080665821556 35.467216642492986 12.174036832909112 0 0 1
293 1 1.6715643257614154 42.77623467422195 19.82006176267152 -1 -1 0
1641 1 1.5558526869935718 49.25969826698048 6.2189522243294 1 -1 0
3131 1 1.3963275299934397 38.602016805135406 12.389960648418567 0 -1 -1
4325 1 12.430164907729234 27.366359861207673 0.8650652521539305 0 -1 2
797 1 6.917156126429968 40.20893733871901 23.735592307469737 -1 -1 0
488 1 8.20037543229133 34.50907512966799 2.5551345881550027 0 0 -1
48 1 0.6303371590189469 33.27609447873064 14.340157016574656 1 0 1
604 1 9.591861958939957 35.89498146903264 0.7362043088923521 0 -1 1
1711 1 15.103628947479452 26.30572773959571 23.992404485405533 1 0 -1
2642 1 1.7849878390420377 4.156080150840832 24.974733683726818 0 1 0
2473 1 12.527258831238143 32.30617592964944 1.8471355380621197 0 1 1
2927 1 1.2938966751064969 7.016143267116827 18.538030125644333 1 0 1
46 1 0.5359156511685856 10.020264044554198 25.303865820487445 0 0 -1
351 1 11.6963025764759 26.806080890216656 22.22327028409491 -1 1 -1
2192 1 4.46708226019058 34.74068704455074 5.284473539475485 0 -1 1
2551 1 9.551507992361634 41.590045319711734 4.30559585739619 0 -1 1
3764 1 14.696474519258826 31.583419434485535 25.316709019776617 0 0 -1
3575 1 2.6457626835726793 37.45966157267556 5.48819277628007 0 -1 -1
1964 1 14.489988260764088 36.26182734081438 1.2128413283728787 1 0 2
1988 1 10.50104302860996 2.857338789593847 22.529019392761597 1 1 0
1453 1 0.2838090199992453 14.319981613497392 9.613614714715611 1 1 1
1051 1 2.561388935841834 43.068487646934514 3.603820626401672 0 0 2
2795 1 5.954759007370557 35.72419460674995 3.3674571953036505 1 0 0
3976 1 12.134464852189053 42.61010464817561 0.9863406294246735 0 -1 0
3699 1 16.426340111904725 40.42720152191343 1.9063211045892778 0 -1 1
3453 1 3.832836160087221 42.281909210975 6.289405321913656 1 -1 0
4009 1 2.7133908331281162 38.68069323083054 23.60010426840316 1 -1 0
3579 1 9.3205790475687 42.57164939384249 1.797498760867902 1 1 0
1960 1 9.066376213616708 48.50969706482702 3.9762266228663297 0 1 0
2753 1 14.90322958362791 42.92682507761222 2.184378373018351 0 0 1
2124 1 0.3907129049090836 45.33982107541749 2.0932609972327283 0 -1 0
3658 1 2.915629035847789 33.220112883168625 3.3225318571862092 0 1 0
1952 1 3.636222419926066 47.15047001868828 2.5965903235559957 0 0 0
2246 1 9.5782750010003 43.752414677006 21.267182870136715 0 0 -1
3079 1 8.807422310160952 45.53459198808707 0.9529054937559424 1 0 0
4258 1 13.136542454633801 46.352589876067086 5.353563716456474 1 0 1
1065 1 12.427646415614461 47.88552700612854 3.161139459999081 0 0 1
3668 1 0.541754317767458 1.7537823627868454 1.1738226363412032 1 2 -1
641 1 8.16537388440508 49.6000451939872 1.7292343492663789 0 -1 1
1466 1 5.545378659268635 49.49468255929166 2.553498568216687 0 0 1
1034 1 11.015985579132312 50.672458894209015 2.9288540498946696 0 -1 1
3294 1 0.2942739916603786 41.526099790620066 3.026069933771383 1 0 0
3135 1 3.583817127958084 28.891004588837884 11.756710998732556 0 0 1
2822 1 15.20249043148514 48.94206885360332 4.275819759647736 1 0 0
3144 1 16.842953940699662 6.121402231402463 10.445982427395274 1 1 0
2494 1 4.500340434621557 7.558599059063208 0.05638679338194774 0 1 0
2810 1 0.7001139638000871 50.554705481912194 3.859654877234266 0 -1 1
2245 1 4.17829446519875 50.17698529933 6.853960330919571 1 -1 -1
1403 1 6.0755706727011 4.630558666660632 3.813335661278916 0 2 -1
4530 1 8.61832558972698 2.1613625558919822 4.660187567214497 1 1 0
1144 1 12.979954722089682 0.809026579095171 1.5501063681230904 0 0 0
4127 1 10.905094290613636 1.675824523579196 8.571187777024136 1 1 0
2766 1 0.21679125889531672 13.285032486328937 22.221419863148803 0 1 0
3480 1 14.213919241898076 27.927453954093643 21.886462837963997 0 0 0
2467 1 0.7906173622527817 11.133623184065168 4.314578472495821 1 0 1
566 1 9.477172258284218 4.726717692426962 4.0706072379404725 -1 2 -1
96 1 15.645958980870574 5.245306896413427 7.408771895113055 0 1 1
151 1 13.058574288696285 7.551856945675704 6.4953993558023635 0 2 -1
2084 1 0.35388452557656 5.080699474596466 6.7403524083112965 0 -1 0
1920 1 0.645637323039582 6.936845635937873 3.9777193222216645 1 -1 0
4244 1 5.499254522044989 7.6765990216424695 2.8391053067112284 2 0 0
1616 1 9.614649118876805 9.586831058164579 6.6399711374222985 1 0 0
2853 1 11.498598603950217 12.492795788914039 7.535657130454135 0 1 0
4174 1 3.488520400429941 18.044291381274615 0.30502134396299085 2 0 1
498 1 0.32445486340211005 22.814534760889593 17.443185113403178 2 0 0
1032 1 1.474744159152295 8.844609133437498 5.907371988888047 0 0 1
1814 1 7.787558914948402 9.799691260343458 10.581261895099056 1 1 0
2306 1 12.383000178561758 11.301238549090352 4.618093899343978 1 0 1
3751 1 1.7465629141799675 23.209803765662638 7.923348301797109 1 0 0
1938 1 4.094224829157379 14.755919814265392 2.9423484214467583 1 -1 0
2108 1 7.761322617448678 11.926614350097688 2.363764279460378 1 -1 1
3916 1 6.590394210838185 14.650081094370238 2.6721249197452526 1 0 0
4144 1 14.88968640501353 12.260450383894755 5.690259617858553 0 1 1
1828 1 14.280287939915791 16.30817469004024 7.104389135228793 0 1 0
3296 1 14.605252668039126 10.495895328663202 7.785931408921404 1 0 0
4392 1 15.840677982272853 49.41184295964109 20.549882259978183 0 -1 0
3027 1 14.425831058005867 40.5330099852025 25.273238913879155 0 1 0
1811 1 3.6611188749525496 15.343160292507712 5.711672561553365 1 0 0
3609 1 6.927943894024086 20.53959671337604 3.392915132723744 1 0 1
2282 1 6.468387568666 17.306041761817077 4.173616186367464 1 1 0
3400 1 9.512389255932371 16.668771338409304 3.5120548953409507 1 1 0
284 1 14.589882823911903 17.991575300001003 3.555861660002077 0 0 0
4601 1 15.26186189178835 14.939476302905417 0.06301118004155226 1 0 1
2996 1 3.65832009815967 18.01265483773931 4.479064241812235 1 -1 1
371 1 2.7509202176035616 39.03178041502014 3.2783563275919256 1 0 0
1121 1 7.052906763415002 18.000653468550183 7.014593333990443 0 1 1
1739 1 13.746688989075961 21.177062210813336 6.795046600255195 0 0 1
2646 1 9.845294255447255 17.65195258175761 6.273119749795183 1 1 1
3554 1 14.555904708489827 15.088336787215152 2.8461344227810943 1 -1 0
3863 1 3.0319020313285057 49.84733350830808 24.734302481831367 1 -1 0
3368 1 15.377908498134945 19.769155461178723 1.6335036130396443 0 1 1
3346 1 0.1264969383340189 38.180683127008336 9.88404496177766 1 0 1
94 1 5.00347750356581 20.771359815885745 5.088183591723318 0 0 0
4387 1 6.290157783635366 20.772735551512675 7.535941066864303 1 0 0
4569 1 5.97347122843621 24.95895371377303 1.3831649687088492 1 -1 0
2612 1 12.17554063270835 23.29053296720954 5.620618864435861 0 -1 0
1976 1 14.913948008117448 23.554842337938425 4.063391335707476 0 0 0
862 1 4.560368238391739 40.69846351123475 4.13634296428772 0 -1 0
3612 1 7.116897536569681 28.889946571661465 4.660320121451607 1 0 0
4054 1 7.3733132102494805 26.709067312096792 6.403943133121204 0 0 0
2158 1 9.076796720111453 28.76030210476065 2.5610887331038543 0 1 0
1240 1 7.864146031009331 26.901569053658584 0.8926198405826634 0 1 0
1272 1 9.546677602997585 22.868899053775035 4.368597921877969 0 0 1
328 1 15.835190924881521 28.01668653286292 1.595584481043276 0 -1 1
2222 1 1.2786476736624597 45.56229890930446 16.880548040723017 -1 1 0
1044 1 6.1560236290913934 30.413836311019345 6.444913337718523 -1 -1 1
816 1 4.678826452120516 29.281177213028133 3.638680433007199 0 0 2
4310 1 10.677419908081754 31.625862008888756 9.275961162993227 0 1 1
3827 1 10.808467292328537 27.47046937995116 4.274615377383346 1 1 -1
2132 1 15.588104882747619 31.434845616898254 5.565965495547095 0 -1 1
1917 1 12.930287034695011 31.872842430579436 4.540033815263708 0 0 1
2616 1 13.825502677660193 22.156323138352434 1.7829750612307924 1 1 1
1943 1 5.913802832118133 35.534655363909096 7.629980728421137 0 0 0
833 1 11.00640996321151 30.01282216922738 5.42863003045424 0 -1 0
3548 1 8.843854478911222 31.474038411113902 7.00849876964669 1 0 -1
2093 1 12.66828660637828 36.646380996257236 3.259025404692375 1 -1 0
430 1 1.4263242480730678 40.725985697562194 7.543538116976814 0 1 0
3657 1 10.941173577150712 38.14219929058625 1.825342691025684 1 0 0
3909 1 10.117926062754966 37.90219562792474 6.725170281018098 1 -1 1
3443 1 9.697456735508032 38.84162349260714 4.313119012707892 0 0 -1
2541 1 7.812597151328727 11.289113676631212 25.337308918299243 0 0 0
4219 1 15.426441742408079 36.029629778968626 4.613579000407575 1 -1 0
3398 1 13.920792009361886 38.746921128821924 4.759108863020554 1 1 0
60 1 6.856340267572625 38.31994252036863 3.8037121407549592 0 -1 1
417 1 7.863658523799813 49.56630318417544 22.132552565275493 1 0 0
3750 1 6.396692907967113 39.380723232630444 6.38596981130072 0 0 0
484 1 4.402755879454385 37.991183090261416 7.814820652410143 1 -1 1
309 1 7.104095060417126 35.553025162487685 11.159800024196118 -1 1 0
3076 1 12.636535727285215 40.46845654692045 2.9074906148978266 0 1 0
2220 1 15.683494026094415 42.43486021494577 4.822746040631257 0 0 0
4247 1 16.762863088979113 28.252344111114514 20.12248510238949 1 1 0
3347 1 6.533532671476303 42.89197113703867 2.9227095886475056 0 0 2
3459 1 12.072416123316769 44.571288081072865 3.10570121269545 0 0 0
3052 1 15.90177036716162 45.50708565893072 4.638859831714657 1 -1 -1
501 1 4.095083105257792 44.548566998314385 1.6866140373858263 0 0 0
4239 1 13.141457665655189 47.20063673472089 0.8274689438888907 1 0 1
2337 1 5.918938080677417 43.57844293527401 7.219406687369453 1 1 2
2126 1 7.570021448959198 44.56229720123403 5.142954298952319 0 0 0
4208 1 5.992784123273415 46.764759902065606 6.400895280009589 1 0 0
66 1 13.328426756865147 48.903841988879776 6.616619739910803 0 0 0
382 1 10.35457450287371 8.557718180615046 23.913103178593552 0 0 1
1905 1 2.757895287290824 2.2688375320576384 3.0455427122466765 0 2 -1
662 1 5.2792113412489075 1.274467793900274 1.7056065433614518 1 0 -1
4409 1 6.420647568247505 49.96668274192595 5.146223682913388 0 0 2
1907 1 8.972185662564172 1.3426550514039133 1.61253202769892 1 0 0
3370 1 16.335959633642677 0.2541591533666003 5.568989428549867 1 1 1
3240 1 6.003006186866847 2.1872593449834716 4.548108896976106 1 1 0
3913 1 9.52552511219144 5.487259049503028 6.724097671177836 1 0 2
4364 1 8.553996149515434 3.118595705894054 7.682002911056424 0 1 0
920 1 14.061536265837166 1.9179988410149484 5.534940692735583 0 0 0
4173 1 13.429923751736165 2.8710817062042344 8.12030167097342 0 0 1
313 1 3.6630268926768754 2.0372752251588127 6.294997357091321 0 -1 1
356 1 1.067195401404695 3.2476524680671823 9.299564722448983 1 0 0
2787 1 3.123766726903825 5.14915218296834 3.2802742498558377 2 0 0
182 1 6.097021431822753 5.0690811579105555 6.746797647407861 0 1 0
3985 1 7.577696359217074 7.726917455143872 7.124879807919182 1 0 0
3817 1 0.12296758363922383 8.745078424070767 8.59998733626368 2 -1 1
2912 1 17.591777278961253 2.1250721317964887 17.51332451529185 0 0 0
4602 1 3.097890957315425 6.148515424673695 6.256164459278732 1 1 0
1785 1 5.510253868176971 9.986017428317501 7.730486719825629 0 1 0
581 1 7.424258928116115 6.790117075285061 9.755482066247986 0 0 -1
28 1 5.224552439894139 5.344120234465866 11.122103921060315 0 0 2
4088 1 10.250605169187432 5.176808747077412 9.745890258153523 0 1 1
2489 1 2.3019373276743638 34.86402165442463 1.0408584739004163 0 -1 1
675 1 7.6717687233474265 11.84044646314706 7.443743394218698 0 1 0
1837 1 9.343849999204169 12.456365365645611 9.563646008420433 0 0 1
2893 1 13.51007678164224 14.279613100727584 8.707516135213194 -1 2 1
3455 1 16.455800539057243 9.271052178519028 10.403014670321756 1 0 0
629 1 12.411949998064573 5.529663477304479 8.172258048356662 0 0 0
4052 1 11.666371344958833 9.613316364584898 7.990970886544819 1 0 1
1629 1 14.098759172979205 16.236377025920774 13.787632025865319 0 0 0
795 1 4.780796828773978 12.46165925652831 5.516464187428758 0 2 0
2308 1 5.689211460637743 13.150771637244462 9.012660048889636 1 1 0
2977 1 10.078020023631796 14.431712898015274 5.9534028851908545 1 -1 0
4329 1 7.218726265815292 14.425397312481225 5.610028962853078 0 -1 1
1607 1 15.370393073000738 35.71060333517346 23.064054695307735 1 -1 -1
4160 1 1.354999179692717 17.9844840407354 6.54799076812414 0 0 1
1577 1 8.791019049901132 20.646814784117424 9.805371732409894 0 0 1
434 1 5.5802377975932 15.5437821675428 7.838782251380101 0 1 -1
1482 1 10.70954098523148 19.257880660770272 11.455689990766938 0 0 0
1451 1 10.690543906273039 16.56987608277067 8.354513764975872 1 1 1
187 1 17.257154732165063 17.24060730453507 8.48725926609389 0 1 -1
1023 1 0.7695056531067944 29.293667087576424 24.48118091666345 0 1 0
676 1 4.797735338008673 24.14230669717426 9.12838016133724 0 0 0
3004 1 10.614880183061574 22.117452133947303 8.094083443605934 1 0 0
3360 1 12.421100336043601 42.946213823207884 24.296959638535252 1 0 1
1693 1 3.897294098468783 21.23166322402786 9.230768569500142 0 -1 0
1146 1 8.036954976891737 23.1088939589042 7.11735249919604 0 -1 1
1741 1 10.998010736757736 21.598753166193458 12.974043304627138 1 1 0
2908 1 12.369343352365949 20.170902780443825 9.364489044023228 0 0 1
3087 1 15.84546778359195 23.449004957030326 6.960117449577262 0 -1 1
2836 1 1.4636713854334245 3.5350319466188433 14.749137879329458 1 1 1
3789 1 5.73992277105945 24.61940800045186 5.542814556586838 1 1 1
3276 1 2.7691239572077055 24.99660592812845 5.902421119540968 1 1 1
73 1 9.895417327464623 25.708697526697446 6.282739728796752 2 0 0
3989 1 13.165420361235647 24.998430495518967 7.620808698951711 1 1 1
580 1 14.099348250565072 27.343636796518442 6.372486653114036 -1 1 0
1470 1 16.402956150592725 26.15140621100357 6.85752072396961 0 -1 0
1088 1 8.74524011899093 27.011018902775504 24.696719267089115 0 0 1
3195 1 0.7811306633623685 18.992887215232884 3.88161062925463 1 0 -1
456 1 5.926807570994451 28.441108908017476 8.34846268671819 1 -1 0
4550 1 16.098523658606926 26.11991581681386 11.364285215714874 1 0 -1
4130 1 15.022604751279982 30.17490000238116 7.9154180209941 0 0 0
1159 1 13.583106815862491 26.610632585141484 3.541794420387878 1 0 -1
4386 1 0.4665480133859644 30.271483662542604 8.423844683858814 1 1 1
2600 1 15.947280122429227 8.696376181878382 3.226525161556517 0 0 1
3837 1 9.194219572139827 33.74235565680354 5.221761284640424 1 -1 1
179 1 11.103711104869108 26.795654783396017 8.5874243398143 0 0 -1
754 1 12.32842858329377 29.285909757626136 7.609560221638412 -2 -1 1
473 1 16.410649165363196 34.07154019936709 6.493528655235614 -1 0 0
1632 1 13.271310273376224 34.698072419051 6.5479954496819905 1 -1 0
1832 1 5.002071205360225 33.316150595357485 9.131620930350449 1 -1 0
2574 1 8.556879643770642 35.85181897118545 7.176019812910078 1 0 0
4028 1 5.457384955345744 33.29423543569031 12.219401123625232 2 0 1
1497 1 11.770156799855465 34.386403469558246 4.296181682723968 -1 0 1
62 1 12.88760074954483 37.2992577943984 6.998491899038209 -1 -1 0
4292 1 6.7894934094017545 16.015536808220556 25.125875400415026 2 1 0
1546 1 0.939969816242537 15.005056068489095 6.873527454962836 1 -1 1
320 1 2.7356772572370036 34.965193642327364 10.800149082915135 1 0 3
3304 1 4.016872418185712 37.15938836163593 1.3777170452441743 1 -1 0
1844 1 13.010406220328854 38.21037736246058 9.63086838984171 1 0 0
3816 1 14.186484127596689 41.44670793606639 7.155313433541214 1 -1 0
2777 1 16.220067004373664 39.13226207177708 6.445753165838466 0 0 0
2064 1 2.607828257336651 42.50317819108653 10.853928156377442 1 0 0
3608 1 3.0841561088888727 40.135671786511296 9.549715550901233 1 0 0
2216 1 9.136467599911944 39.753561861355436 8.723498337462328 0 -1 1
321 1 7.9520704649958445 41.552230637725486 6.692174957156604 -1 0 1
3733 1 12.084791304227167 42.52731488466624 5.2005962218684605 0 0 0
1270 1 13.811435879280918 44.45458579769799 7.727629859240107 0 0 1
4024 1 16.57029796461441 45.078694677547176 7.344595333817391 1 1 1
4038 1 1.6609238573613037 44.367916288903686 6.154592496576404 1 0 1
4424 1 3.772323849123378 45.96256953607167 8.33827541927491 2 1 0
3066 1 11.8602488008299 40.59284454214871 8.966168015948242 0 1 0
2453 1 9.238319174902745 44.274986535816396 9.837453425327114 0 -1 1
4344 1 15.818347207566475 11.074772012321548 17.15330129269223 2 0 1
1141 1 6.105849210755129 13.310795296100013 25.31612112026419 0 1 -1
3067 1 2.792190050124583 46.956950298071305 5.277973249707991 1 0 0
3220 1 9.143981642022494 50.556785674287454 6.2269584783172585 1 -2 0
860 1 7.3962858322401415 46.181131819382244 8.618089597735976 -1 -1 1
1107 1 11.43399025560474 47.13892572262705 8.326382260019496 1 0 1
1897 1 9.619068213970865 45.92296547990094 3.7111654434332677 0 -2 1
297 1 14.993644766871084 48.96370424036955 8.833542837160605 0 0 1
4227 1 11.835452747263073 0.19689138868322123 5.733435714520525 1 1 1
2270 1 1.454060809058046 49.957282608554664 9.709343490777915 1 0 1
3953 1 6.976074365109478 3.014709084727764 10.047902349461477 0 1 0
3415 1 6.476987511201563 0.4997146429790981 11.088358618629234 1 1 0
1939 1 9.054005253229711 50.488807773003046 10.781303691179977 1 -1 0
3830 1 11.964533162173746 0.3758455576602877 11.064015520074927 0 1 0
3486 1 16.974079251892817 2.5582543804836733 8.92381656841076 0 0 0
2550 1 2.211941900104702 5.991758563407154 14.63246830592594 1 1 0
4200 1 3.181816808190771 1.483922148016521 10.156596628721694 1 1 0
663 1 9.648852974605537 6.776242773621663 14.120895367435555 -1 0 0
3362 1 10.045110134149803 2.5987857208735696 11.479212080125327 1 1 -1
4430 1 16.936248079813534 17.005234406475022 13.0900467322331 0 1 1
3518 1 15.97364987816283 8.380181511545143 16.777780848158 1 -1 -1
2858 1 2.6220166816763064 7.096327280407672 9.333893746944153 2 2 1
1286 1 5.029025705372423 8.685097884278445 10.214491857344095 0 0 1
725 1 3.9257882941865305 7.463651180913483 12.982022169303354 0 1 0
1291 1 9.906171325468806 7.908408008046491 11.334599467070062 -1 0 0
4561 1 13.030345840667756 6.505518108684907 10.975768403131031 0 0 0
1414 1 3.8017352617074804 11.548807559753007 10.528248958559322 0 0 1
4527 1 6.865925307326549 15.519833151329838 12.766587699348939 1 0 2
2123 1 11.52494689173333 8.935716258562683 14.090626145249129 -1 0 1
4225 1 11.367089422134397 10.472188692586759 10.728343228198781 0 -1 0
1069 1 0.6133550443522573 39.376406009959766 1.0229543148955456 1 1 -1
1558 1 14.477891901474264 8.149510704148751 23.738263998989243 -1 0 0
1966 1 5.220262128785131 15.628516965328417 15.073135300892405 0 1 -1
2680 1 9.333645756372984 15.356977144695058 10.68208745339442 0 1 1
2361 1 11.964306397175152 13.851292310339659 11.253400570000611 1 1 1
1465 1 15.754170107193039 13.689815019551915 10.089649853828469 -1 0 0
1563 1 2.4193537199084565 15.415117006373787 11.675031737865122 0 1 0
3476 1 5.7767827450501015 17.774551784202092 11.416860436729548 0 0 0
2072 1 7.81497363741958 17.638991686990316 9.629956862562262 0 1 0
2757 1 3.582273490562299 16.869689234493666 9.719680703845166 0 0 1
3319 1 9.493785896302672 16.68856458549342 13.307268704582384 1 1 0
1245 1 15.939630373883555 16.38367096752753 10.471298923863012 0 1 1
3473 1 4.630284436247444 48.74764064346576 22.436282422653154 0 0 0
784 1 16.072039370099745 27.107812571518895 17.735725100578325 1 0 0
4563 1 6.715098960447783 22.217814412762902 10.477913527220519 0 1 0
3199 1 8.530248476899075 21.930336721314884 14.071290939999598 0 0 -1
610 1 13.246406185186629 17.721002010578594 9.296695346976515 0 -1 0
617 1 15.011957759137642 21.06731886631123 10.089362381560111 0 0 -1
276 1 11.446317191100173 24.504661490368758 2.708425231753617 0 0 0
811 1 3.9473984269411195 24.44678448619026 11.92396249320058 1 0 1
1323 1 2.1034379695651637 19.028279447718543 9.264409989384161 2 1 0
2666 1 13.506231817297735 22.87177563849102 14.550195186045604 1 0 2
4311 1 0.024218288986972425 25.289457725745525 24.903899156233898 2 1 0
1370 1 17.497583386426548 36.87023987371576 7.8189965825501 0 1 0
4169 1 6.116734185480501 28.527701688868746 12.794388372653774 0 0 0
4234 1 12.112265271252971 23.269968164184824 10.442189617079336 0 0 0
1698 1 0.7469069130980344 48.69137881168142 17.987504950317835 1 0 -1
2536 1 1.455993654500368 44.6229056953606 9.506486578569731 0 -1 0
3613 1 2.562411973213035 32.307390106397165 11.454282985450998 0 0 0
1059 1 3.8674675911248784 30.427805215024474 9.445314759443761 0 0 0
706 1 7.8672544954948185 28.575411663850346 10.653584755727529 0 1 -1
527 1 10.371234037105461 25.2908742015094 11.102127890831893 0 0 0
3676 1 16.664618121075026 28.269408342265162 8.99895281657579 1 0 1
1098 1 0.14791389390575796 23.669126991522077 1.453922496290262 -1 0 0
1118 1 13.402961510203438 14.175172387026931 24.90172668898119 0 0 1
3388 1 7.161571731246155 31.26598505564146 9.542928272045963 0 0 -1
1195 1 10.864227206290114 29.019188429065192 10.46650437260955 0 0 1
4230 1 4.658146876160005 34.46130060842974 14.626248315448947 2 0 0
209 1 11.374959408357618 32.35241354829677 12.51847724488312 0 0 -1
4217 1 12.52319830632039 33.53052750448151 9.005765108670685 0 0 1
2543 1 15.453382638935604 32.03977455292056 10.273441647760036 0 0 1
358 1 9.442751720158785 41.77205877762688 24.67339798803148 -1 0 -1
1795 1 6.804113816402023 34.86292180660929 15.87661176330625 0 1 1
2099 1 9.850775937238186 34.97523354269532 9.505713897466082 1 -1 0
395 1 17.10872434849609 37.25171880901151 11.029419591552111 1 -1 1
4055 1 3.411742454316739 35.18055975472272 25.03722106469883 2 -1 0
1455 1 15.850215463665435 24.80060416967429 1.4280092869506058 0 -1 1
36 1 3.600143973313096 36.789103012947365 13.105468330994409 0 0 1
1052 1 5.807449430046281 39.65235135565412 10.912636267191518 -1 -1 1
3359 1 7.0166388087290095 37.68873188461197 9.448911148068909 1 1 0
3413 1 14.936159255146073 39.37509133546553 11.265065256277106 0 0 0
1296 1 15.67537852595409 41.7955189535613 9.878298622287014 0 -1 0
4348 1 3.0506611592989765 41.35017979223022 14.19849787135411 1 0 0
1829 1 5.418305984939083 43.07520507244753 10.301426189792696 0 0 0
2495 1 4.643055130291757 39.19078842895496 13.434523236191353 1 0 1
3835 1 10.625767639785053 42.94486225314283 7.904671181538877 1 0 0
2290 1 12.312059430574617 41.636379552542664 11.45283701470155 -1 -1 0
4517 1 16.827131335412204 41.645977003146314 24.045975419497847 0 0 -1
3259 1 10.651106218841548 45.413421578369 6.263349425117127 0 -1 0
3973 1 13.697942915692467 43.70031300467684 10.6651389880774 1 -2 1
3906 1 14.602246313859002 31.322012843651585 0.37361479202069214 1 -1 1
525 1 16.66622574063961 34.67310675689937 19.75368338812068 0 -1 0
1876 1 3.9224193110113528 48.752766430202 9.32029692454743 0 0 -1
3411 1 9.108749638212567 48.84178940621692 8.695076931533276 1 -1 -1
2012 1 12.87418193522892 48.27602915414447 10.914639357499999 -1 0 -1
347 1 12.631226805869664 48.045820413490006 13.729408627939588 0 0 0
3331 1 15.863785081625233 47.007708771605465 13.93552999179742 1 -1 -2
3162 1 15.436340880419808 13.340777779794475 22.810242375114328 0 0 0
3041 1 6.62113998196597 48.43895752781464 11.81134228614967 1 0 2
602 1 7.954328020728564 3.0231956622124856 13.127453308103249 0 0 0
979 1 12.48913623524743 1.3303209230275344 13.800540574280854 0 1 0
78 1 14.82348428128235 0.16608230048256487 10.888939539283948 -1 0 -1
1773 1 15.10812028711483 49.63386794722332 13.290091879322306 1 -2 2
3145 1 16.43366462998452 46.81098022748388 9.535030907939595 1 0 0
1729 1 3.809288567414204 4.123358556493803 8.491147057181848 0 2 1
3277 1 7.099880874027969 5.521319472736242 13.773957437895515 1 1 -1
3210 1 12.002120654200445 7.673320833960013 16.555630352902828 1 -1 -1
1532 1 14.94041045962196 2.597066537135406 12.58773976015158 0 0 0
1959 1 10.200796093443754 3.0226309717051945 14.80314658890499 1 0 0
3219 1 14.163196715489729 4.816472194217521 14.09446531493678 1 1 -1
3569 1 2.3131450594930305 9.570113910496437 11.978184100070168 1 0 0
1790 1 8.204623229944605 9.781786128333875 13.438515060769001 0 0 0
3549 1 5.726718942595095 9.139212067458878 14.43209163292363 0 0 0
392 1 13.974313070861939 9.18263944694208 12.004883316543776 1 0 0
3962 1 11.584964741138265 5.018257524767962 12.79067871737947 1 -1 1
95 1 4.6365234919694 0.06380509018106884 17.915657744981882 0 0 -1
2761 1 7.187927804632279 12.887569837514224 11.779262322203111 1 1 1
1800 1 4.314632022560613 13.491266951744823 13.07163877012874 1 0 0
2508 1 8.582319691540961 12.458647131410379 14.253083465228551 1 0 0
3987 1 14.008742387794843 12.214517246249113 12.04106313631072 0 1 -1
2059 1 17.326927642483348 47.90339214850674 16.057830628486833 0 0 0
1369 1 8.785793216780293 36.879109905779146 23.62232610818365 0 0 1
3918 1 6.583547798572282 11.715611303607146 15.847350741033715 1 1 1
671 1 11.084493442617891 15.93377282228344 15.61561390046278 0 0 0
3310 1 12.205081091479688 13.311076583488262 15.838038693694813 1 1 0
2949 1 11.188006409761933 11.980557782411841 13.693401021958456 1 1 1
2747 1 12.463206306940348 16.55095854025665 11.685805539659503 1 1 1
3943 1 2.0921845638633156 17.822567877820884 15.263439943971163 2 0 0
1813 1 6.261193573933973 20.34860346309867 12.706102574472904 1 -1 0
3064 1 8.264242731368826 18.7874598168825 14.866529708492155 1 -1 0
2463 1 12.980667261384777 17.78213462119214 16.435139887049818 1 0 1
4442 1 12.243704921931602 10.56030942423577 24.683453884061457 1 -1 0
2128 1 3.2232890864886325 21.603211159435556 12.157934895082182 1 0 -1
3631 1 2.9184650599270054 18.58320309562916 12.631616151634056 0 0 0
785 1 9.385600782094858 18.096566347543465 18.857843188345008 0 1 0
1007 1 11.680959493758653 20.209252149428472 15.504799269950837 1 1 1
378 1 15.043390456550751 19.000723751624236 15.009514276850576 0 -1 0
461 1 2.156516978640398 27.085928848606162 15.386425988983294 0 2 0
953 1 16.289307720298652 17.89894492603058 5.551650474897181 0 0 1
198 1 6.287081934345006 25.32114552730377 13.337028481180056 0 0 -1