

read_data data.ice_${TEMP}K_${PRES}atm_ML group ice
read_data data.ice_289K_${PRES}atm_ML group ice
read_data data.ice_289K_1atm_ML group ice
Reading data file ...
  orthogonal box = (-0.037607319 -0.033428728 -0.033428728) to (57.308117 50.940549 50.940549)
  3 by 1 by 2 MPI processor grid
  reading atoms ...
  4608 atoms
  reading velocities ...
  4608 velocities
  read_data CPU = 0.009 seconds
read_data data.liq_${TEMP}K_${PRES}atm_ML add append shift ${X_HI} ${YZ_LO} ${YZ_LO} group water
read_data data.liq_289K_${PRES}atm_ML add append shift ${X_HI} ${YZ_LO} ${YZ_LO} group water
read_data data.liq_289K_1atm_ML add append shift ${X_HI} ${YZ_LO} ${YZ_LO} group water
read_data data.liq_289K_1atm_ML add append shift 50.9405487276764 ${YZ_LO} ${YZ_LO} group water
read_data data.liq_289K_1atm_ML add append shift 50.9405487276764 0.0334287276754814 ${YZ_LO} group water
read_data data.liq_289K_1atm_ML add append shift 50.9405487276764 0.0334287276754814 0.0334287276754814 group water
Reading data file ...
  orthogonal box = (-0.037607319 -0.033428728 -0.033428728) to (104.32510 50.940549 50.940549)
  3 by 1 by 2 MPI processor grid
  reading atoms ...
  4608 atoms
  reading velocities ...
  4608 velocities
  read_data CPU = 0.009 seconds

write_data data.icewater_test
System init for write_data ...
WARNING: Communication cutoff is 0.0. No ghost atoms will be generated. Atoms may get lost. (../comm_brick.cpp:167)

# Define potential
#
pair_style sw
pair_coeff * * /data/emrosky-sim/Freezing_Simulations/Melting/MLmW_fancy/ML_mW.sw mW
Reading sw potential file /data/emrosky-sim/Freezing_Simulations/Melting/MLmW_fancy/ML_mW.sw with DATE: 2019-02-27

# Delete water and ice atoms that are overlapping
#
delete_atoms overlap 2.5 water ice
System init for delete_atoms ...
Neighbor list info ...
  update every 1 steps, delay 10 steps, check yes
  max neighbors/atom: 2000, page size: 100000
  master list distance cutoff = 6.0032907
  ghost atom cutoff = 6.0032907
  binsize = 3.0016454, bins = 35 17 17
  2 neighbor lists, perpetual/occasional/extra = 1 1 0
  (1) command delete_atoms, occasional, copy from (2)
      attributes: full, newton on
      pair build: copy
      stencil: none
      bin: none
  (2) pair sw, perpetual
      attributes: full, newton on
      pair build: full/bin/atomonly
      stencil: full/bin/3d
      bin: standard
Deleted 701 atoms, new total = 8515

# set timestep
#
timestep 10.0

# Define output
#
compute 1 all msd
thermo 50
thermo_style custom step temp press vol etotal ke pe c_1[4]

# Neighbor lists
#
neigh_modify delay 0 every 1 check yes

# Set fixes
#
fix 1 all momentum 10 linear 1 1 1 rescale
fix 2 all nph iso ${PRES} ${PRES} ${PCOUPL}
fix 2 all nph iso 1 ${PRES} ${PCOUPL}
fix 2 all nph iso 1 1 ${PCOUPL}
fix 2 all nph iso 1 1 10000.0
fix 3 all temp/csvr ${TEMP} ${TEMP} ${TCOUPL} 837492
fix 3 all temp/csvr 289 ${TEMP} ${TCOUPL} 837492
fix 3 all temp/csvr 289 289 ${TCOUPL} 837492
fix 3 all temp/csvr 289 289 5000.0 837492


# Fix ice atoms in place
#
velocity ice set 0.0 0.0 0.0
fix 4 ice setforce 0.0 0.0 0.0

# Run 1.0 ns equilibration of water
#
dump 1 all atom 1000 eq.all.${NAME}.dump
dump 1 all atom 1000 eq.all.coexist_289K_1atm_ML.dump
run 100000
Neighbor list info ...
  update every 1 steps, delay 0 steps, check yes
  max neighbors/atom: 2000, page size: 100000
  master list distance cutoff = 6.0032907
  ghost atom cutoff = 6.0032907
  binsize = 3.0016454, bins = 35 17 17
  1 neighbor lists, perpetual/occasional/extra = 1 0 0
  (1) pair sw, perpetual
      attributes: full, newton on
      pair build: full/bin/atomonly
      stencil: full/bin/3d
      bin: standard
Per MPI rank memory allocation (min/avg/max) = 4.587 | 4.597 | 4.604 Mbytes
Step Temp Press Volume TotEng KinEng PotEng c_1[4] 
       0    132.87199   -448.43235    271170.46   -84102.401    3372.1073   -87474.508            0 
      50    160.41144    -192.0495    270157.88   -83788.877    4071.0204   -87859.897   0.89942516 
     100    166.76479   -111.91984    268447.93   -83442.986    4232.2598   -87675.246    1.9097402 
     150    174.43135    267.81302    267239.03   -83105.463    4426.8265    -87532.29    3.0004228 
     200     178.8225    496.15406    267419.85   -82887.641    4538.2677   -87425.909    4.0518295 
     250    181.95853   -50.627551    268952.51   -82611.266    4617.8557   -87229.122     5.155184 
     300    190.59957   -212.94342    269882.55   -82289.089    4837.1535   -87126.242    6.3375134 
     350    194.25507   -109.29003    269864.89   -82084.396    4929.9249   -87014.321    7.5957719 
     400    196.03485   -82.926135    269482.43   -81873.131    4975.0934   -86848.225    8.9137612 
     450    200.98694    204.22541     268962.9   -81623.287    5100.7704   -86724.057    10.549786 
     500    203.77249    387.56161    268961.87   -81434.025    5171.4638   -86605.489    12.180671 
     550    210.02702   -38.409772    269653.11    -81250.67    5330.1953   -86580.865    13.850455 
     600    212.02223     110.9115    270189.58    -81064.35     5380.831   -86445.181    15.677765 
     650    214.32696    262.45005    270346.36   -80874.458    5439.3217    -86313.78    17.556858 
     700     221.0092    26.195475    270561.49   -80691.132    5608.9077    -86300.04    19.499533 
     750    216.34252    85.100854    270639.83   -80533.355     5490.474   -86023.829    21.513037 
     800    225.67453     162.1473    270687.15   -80350.783    5727.3075    -86078.09    23.526267 
     850    226.30496    -249.6254    270974.88   -80170.642     5743.307   -85913.949    25.576408 
     900    230.77447    12.552476    270938.96   -80006.107    5856.7368   -85862.844    27.534068 
     950    232.06079    218.92062    270992.58   -79854.222    5889.3818   -85743.604    29.810952 
    1000    236.75037    222.84402    271334.56   -79722.706    6008.3969   -85731.103     32.11231 
    1050    238.69886    39.985719    271808.05   -79608.358    6057.8469   -85666.205    34.548277 
    1100    237.88329   -163.45883    272036.66   -79508.072    6037.1489   -85545.221    37.009027 
    1150    241.54662   -31.775101    271624.57    -79390.42    6130.1191   -85520.539    39.384028 
    1200    242.96839    280.62957    271364.95   -79296.727    6166.2016   -85462.928    41.882071 
    1250    247.75255    120.48181    271622.34   -79198.201    6287.6171   -85485.818    44.389433 
    1300    242.24159   -254.59596    272029.67   -79114.074    6147.7565    -85261.83    46.949052 
    1350    246.27879    205.05938    272057.24   -79026.008    6250.2149   -85276.223    49.468173 
    1400    253.65662     376.7895    272196.48   -78907.922    6437.4543   -85345.376    52.113547 
    1450    253.56074     38.86299    272603.32   -78806.202    6435.0209   -85241.223    55.026017 
    1500    251.71975   -71.029865    272672.74   -78729.806    6388.2991   -85118.105    58.343063 
    1550    255.91372    78.754169    272503.39   -78650.498    6494.7361   -85145.235    61.275754 
    1600    257.04197    6.3112461    272417.46   -78564.469    6523.3697   -85087.839    64.279484 
    1650    257.71162   -115.84757    272575.94   -78507.212    6540.3645   -85047.576    67.073972 
    1700     259.1534   -144.60364    272797.99   -78413.441    6576.9549   -84990.395    70.293171 
    1750    262.88196   -92.165603    272565.22   -78354.376    6671.5806   -85025.957    73.312458 
    1800    261.13867    414.86744    272458.99   -78260.115    6627.3383   -84887.454    75.962667 
    1850    260.76596     201.6482    272581.17   -78180.138    6617.8795   -84798.017    78.427895 
    1900    267.84805    178.01527    272882.26   -78097.647    6797.6129    -84895.26    81.295368 
    1950    268.32667     155.9824    273227.56   -78030.579    6809.7597   -84840.338    84.618372 
    2000    273.50642   -116.91311    273555.17   -77943.921    6941.2145   -84885.136    87.747788 
    2050    268.40055   -9.9410779     273582.8   -77928.434    6811.6346   -84740.068     91.09888 
    2100    264.13425     15.29818    273555.54   -77891.317    6703.3619   -84594.679    93.576342 
    2150    270.70909    51.050229    273300.24    -77836.49    6870.2223   -84706.712    96.341363 
    2200    275.92534     66.23337    273252.81    -77766.96    7002.6036   -84769.564    99.312909 
    2250    271.76237    110.27507    273631.58   -77740.348    6896.9531   -84637.301     102.3407 
    2300    273.69225   -90.283718    273985.88   -77646.059    6945.9307    -84591.99    105.50999 
    2350    277.11086   -259.97739     273902.8   -77554.927    7032.6903   -84587.617    108.41432 
    2400    279.20883    41.647718     273579.9   -77528.141     7085.934   -84614.075    111.99078 
    2450    278.49131    94.955763    273483.32   -77477.233    7067.7243   -84544.957    115.04918 
    2500    275.90266    13.921157    273651.98   -77394.719    7002.0279   -84396.747    118.76631 
    2550    280.91683    75.966019    273789.08   -77365.662    7129.2805   -84494.943    122.58734 
    2600    275.32256   -2.9106519    274088.38   -77343.055    6987.3057   -84330.361    125.10276 
    2650    280.76058    332.15923    274179.09   -77270.982    7125.3153   -84396.297    128.48956 
    2700    284.29471    -198.5431    274204.21   -77244.596    7215.0064   -84459.603    132.12908 
    2750    281.68133    61.629897     274044.6    -77260.77    7148.6826   -84409.453    135.09209 
    2800    277.06389    -185.2483    273963.15   -77229.791    7031.4982   -84261.289     138.0595 
    2850    281.79631   -4.1162592    273880.14   -77236.374    7151.6005   -84387.975    140.99769 
    2900    282.70743    62.672952    273884.15   -77248.123    7174.7235   -84422.847    143.92901 
    2950     278.9617    71.349542    274120.64   -77237.095     7079.662   -84316.757     146.7162 
    3000    283.32731    -295.1869     274394.8   -77187.914    7190.4552   -84378.369     149.8386 
    3050    286.30674  -0.43385472    274011.53   -77197.356    7266.0689   -84463.425    152.65628 
    3100    284.27701     87.60352    273646.27   -77186.199    7214.5574   -84400.757    155.60613 
    3150    284.17796    294.53035    273855.27   -77198.201    7212.0436   -84410.245    158.76705 
    3200    284.76531   -121.37961    274530.18   -77152.958    7226.9496   -84379.907    161.61176 
    3250      283.882    -66.87833     274706.5   -77122.651    7204.5324   -84327.184    164.96946 
    3300    285.69113   -157.30215    274480.66   -77073.316    7250.4457   -84323.762    168.08367 
    3350     285.7758    26.902376    274072.48   -76971.075    7252.5946   -84223.669    171.65353 
    3400    283.50136    123.87746    273653.31   -77016.589    7194.8724   -84211.461    174.71455 
    3450    285.15082    15.572943    273815.56   -77035.127    7236.7333   -84271.861    177.83904 
    3500    286.06563   -133.50019    274104.05   -77017.245    7259.9499   -84277.195    180.54285 
    3550    291.03565    163.75905    274320.33   -76975.727    7386.0822   -84361.809    184.33922 
    3600    282.53372    42.022988    274643.04   -76990.675     7170.315    -84160.99    188.17863 
    3650    281.17904   -156.23028    274930.38   -76992.105    7135.9351    -84128.04    191.13667 
    3700    288.19669     133.0016    274804.38   -76991.902    7314.0334   -84305.936    193.69226 
    3750    283.63722   -136.01317    274473.79   -77012.078    7198.3202   -84210.398    196.51502 
    3800    285.23623     239.2349    273907.62   -77009.438    7238.9008   -84248.339    198.98943 
    3850    287.82139    274.73859    273550.77   -76999.745    7304.5089   -84304.254     201.7517 
    3900    287.41782    17.385177    273809.53     -77015.1    7294.2666   -84309.367    204.52617 
    3950    286.83153   -79.829128    274466.28   -76970.139    7279.3874   -84249.526    207.80311 
    4000    288.17093   -107.35577    274761.27   -76976.858    7313.3796   -84290.238    210.52409 
    4050     290.2384   -41.146525    274594.53   -76963.766    7365.8491   -84329.615    213.52122 
    4100    285.35736   -132.53728    274409.64   -76959.298    7241.9752   -84201.274    215.81613 
    4150    286.79407    248.41432     274299.9   -76915.969    7278.4367   -84194.405    218.62673 
    4200    287.68831   -179.66653    274447.33   -76912.419    7301.1313   -84213.551    222.47272 
    4250    287.40769    189.12721    274285.12   -76890.248    7294.0097   -84184.258    225.21355 
    4300    285.91614    322.38388    274174.05     -76911.8     7256.156   -84167.956    227.66815 
    4350    291.50777    55.784818    274137.36   -76929.362    7398.0641   -84327.426    230.79684 
    4400    287.42611   -123.50973    274351.86   -76925.629    7294.4772   -84220.107    234.25625 
    4450    291.28244   -74.960955    274524.37   -76865.893    7392.3454   -84258.238    237.55877 
    4500    284.02634   -12.061722    274564.02   -76814.859    7208.1957   -84023.055    240.56369 
    4550    290.54472    232.34467    274452.05   -76767.792     7373.623   -84141.415    243.71828 
    4600    289.74885   -75.558476    274758.83   -76765.659    7353.4251   -84119.084    247.24077 
    4650    292.78708   -278.39945    275090.07   -76709.824     7430.531   -84140.355    249.50066 
    4700    291.02053   -165.96533    274801.91     -76687.1    7385.6986   -84072.798    252.31941 
    4750    292.20858    194.20439     274393.4   -76702.304    7415.8496   -84118.154    254.44262 
    4800    284.76265    214.38171    274372.37   -76705.281    7226.8822   -83932.163    256.68928 
    4850     291.8996   -23.638014    274483.61   -76717.207    7408.0082   -84125.215    258.79316 
    4900    289.27494   -77.345897     274658.6   -76712.561    7341.3978   -84053.959    261.70216 
    4950    288.36153   -151.21292    274638.68     -76716.7    7318.2167   -84034.916    264.73668 
    5000    292.56259   -177.15687    274617.35   -76748.113    7424.8338   -84172.947    268.07256 
    5050    290.96878    99.892177    274351.52   -76758.307    7384.3851   -84142.692     271.0427 
    5100    290.57769    218.51432    274218.68   -76770.509    7374.4598   -84144.969    273.82596 
    5150    288.94081   0.90989812    274383.66     -76800.2     7332.918   -84133.118    275.52198 
    5200    292.33558    -78.77257    274510.99   -76805.912    7419.0727   -84224.985    278.28005 
    5250    288.20179   -1.3702814    274560.72   -76783.824    7314.1628   -84097.987     280.6922 
    5300    290.37636    138.69169    274616.82   -76769.896    7369.3504   -84139.247    283.50979 
    5350    285.86618    408.90323    274792.56   -76733.311    7254.8883   -83988.199    285.60771 
    5400     286.2157     80.45555    274927.52   -76784.593    7263.7585   -84048.351    288.32219 
    5450    289.15838   -52.796114    274821.24   -76772.608    7338.4397   -84111.047    291.58475 
    5500    287.77577   -59.450944    274649.29   -76762.725    7303.3509   -84066.076    294.51624 
    5550    292.41248   -96.429564    274378.54   -76814.974    7421.0243   -84235.999    297.04928 
    5600    287.98577    29.942584    273910.54   -76872.048    7308.6805   -84180.728    300.13429 
    5650    287.23896    72.345955    273616.51   -76956.835    7289.7276   -84246.563    302.65159 
    5700    291.53591    167.09105    273905.16   -76935.847    7398.7781   -84334.625    306.17496 
    5750    287.41232   -69.137376    274680.06   -76907.284    7294.1271   -84201.411     309.3622 
    5800    285.70997   -48.127104    275162.21   -76902.256    7250.9237   -84153.179    312.43818 
    5850    293.91477   -133.60691    275068.31   -76845.522    7459.1504   -84304.672    315.60437 
    5900    291.43572    33.475006    274287.88   -76880.195    7396.2355   -84276.431    316.65241 
    5950    294.26853    382.92454    273570.73    -76895.87    7468.1282   -84363.998    318.85599 
    6000    290.47914    180.18556    273749.52   -76899.022    7371.9587    -84270.98    322.76692 
    6050    284.01666    161.02244    274488.66   -76843.789    7207.9499   -84051.739    325.21029 
    6100    290.46842   -515.24763       275167   -76848.776    7371.6866   -84220.463    327.07941 
    6150    290.14046   -230.00392    275011.61   -76832.551    7363.3636   -84195.915    329.72942 
    6200    284.56168    143.23828    274567.14   -76852.283    7221.7818   -84074.065    331.46812 
    6250    288.36136    234.19811    274354.47   -76827.368    7318.2124   -84145.581    334.28435 
    6300    291.89203    79.097402     274463.3   -76795.199    7407.8159   -84203.015    336.00352 
    6350    288.36165   -173.91648    274752.83   -76763.774    7318.2197   -84081.994    338.89474 
    6400    283.58949    21.433527    274499.76   -76822.625     7197.109   -84019.734     341.2105 
    6450    288.56353    -26.78224    274208.48   -76827.417    7323.3432    -84150.76    343.22384 
    6500    293.67377    137.43052    274209.72   -76778.701    7453.0341   -84231.735    345.73499 
    6550    291.08783    184.32852    274377.78   -76764.477    7387.4065   -84151.884    348.80756 
    6600     290.4723   -134.77735    274938.82   -76772.653    7371.7853   -84144.438    351.53442 
    6650     286.8648   -179.53548    275120.25   -76815.018    7280.2318    -84095.25    355.50411 
    6700    288.98182   -125.68296    274908.67   -76824.471     7333.959    -84158.43    358.05706 
    6750     286.4873    2.3552895    274347.54   -76846.131    7270.6515   -84116.783    360.00307 
    6800    292.64553    186.63942    274006.58   -76825.465    7426.9388   -84252.403    362.62749 
    6850    289.61435    78.939114    274501.18   -76823.218    7350.0115    -84173.23    364.66815 
    6900    290.09931   -225.73405    275142.11   -76789.105    7362.3193   -84151.424    368.00952 
    6950     292.0289    20.260452    274890.18   -76784.787    7411.2896   -84196.077    370.46498 
    7000     293.8529   -3.8919255    274716.94   -76764.886    7457.5801   -84222.466    371.92244 
    7050    291.90021   -30.865673    274511.13    -76751.03    7408.0236   -84159.054    374.33194 
    7100    291.94433    266.44751    274421.63   -76755.459    7409.1434   -84164.602     377.8965 
    7150     289.1211   -206.13864     274616.4   -76809.615    7337.4937   -84147.109    379.27138 
    7200    289.55333     220.0389    274391.02   -76843.265    7348.4631   -84191.728    381.43711 
    7250     287.3682   -190.57117    274464.57   -76796.699    7293.0075   -84089.707    385.32406 
    7300    289.74456    204.84793    274553.87   -76777.115    7353.3161   -84130.431    389.11048 
    7350    293.42523    252.97671    274787.11   -76768.582    7446.7265   -84215.309    392.76917 
    7400    289.32742   -224.99569    274890.76   -76724.489    7342.7296   -84067.218    396.35471 
    7450     291.5659    127.87624    274476.14   -76700.187    7399.5392   -84099.726    399.61812 
    7500     287.1708   -16.799612    274341.46   -76761.911    7287.9977   -84049.909     402.5349 
    7550    290.42176    116.85053    274662.77   -76794.846    7370.5026   -84165.348    405.68379 
    7600    292.11449   -184.82211    275045.95    -76739.77    7413.4616   -84153.231    408.64018 
    7650     291.2262   -13.621914    275016.25   -76748.683    7390.9181   -84139.601    412.48682 
    7700    289.86445   -25.941993    274604.71   -76733.433    7356.3587   -84089.792    415.56937 
    7750    290.12181    70.685034     274221.1   -76703.151    7362.8901   -84066.041    418.13897 
    7800    291.45298    29.647849     274174.5   -76738.313    7396.6735   -84134.987    420.91174 
    7850    292.24568    134.83165    274652.01   -76724.026    7416.7912   -84140.817    424.08134 
    7900     288.5886   -347.52036    275348.92   -76749.267    7323.9796   -84073.247    427.04017 
    7950    284.95474   -36.826076    275328.83   -76785.337    7231.7572   -84017.094    429.43334 
    8000    289.86445   -227.78355    274622.85   -76771.275    7356.3588   -84127.634    430.65259 
    8050    295.40477    270.51486    273883.81   -76759.484    7496.9644   -84256.448    431.21957 
    8100    296.15986   -6.6614262    274000.69   -76801.195    7516.1276   -84317.322    434.82773 
    8150    289.37113    322.84627    274581.59   -76750.723     7343.839   -84094.562    438.71733 
    8200     288.9718    -362.1762    275282.72   -76772.185    7333.7046   -84105.889     441.4309 
    8250    288.79053   -142.47808    275122.48   -76771.375    7329.1041    -84100.48    444.31869 
    8300    288.78254    166.02207    274398.15    -76756.12    7328.9015   -84085.022    446.26733 
    8350     288.6543     79.78398    273982.42    -76808.43    7325.6469   -84134.077    449.27399 
    8400    285.33494    201.59419    274008.63   -76808.406     7241.406   -84049.812    453.17905 
    8450    287.29125    103.62771     274399.9   -76813.057    7291.0544   -84104.111    456.17709 
    8500    289.53994   -198.40999    274934.65   -76798.127    7348.1231    -84146.25    459.56485 
    8550    293.79079   -267.13685    275035.02   -76829.277    7456.0038    -84285.28    461.92229 
    8600    290.39182    32.447945    274585.27   -76824.008    7369.7426   -84193.751    464.68302 
    8650    291.69646    179.75734    274422.77   -76824.564    7402.8527   -84227.417    467.30079 
    8700    285.95613    148.99272    274632.76   -76820.388    7257.1709   -84077.559    471.39173 
    8750    291.79342   -356.05114     274651.6   -76790.713    7405.3134   -84196.026    473.99564 
    8800    289.39138    -97.57562    274356.09   -76809.683     7344.353   -84154.036    477.17182 
    8850    294.66076   -91.800958     274067.5   -76856.567    7478.0824   -84334.649    479.19826 
    8900    283.45705    176.56805    274104.24   -76870.003    7193.7478   -84063.751    482.47004 
    8950    289.32122    52.863777    274225.67   -76850.032    7342.5723   -84192.604    484.69397 
    9000    293.54927    42.520364    274284.88    -76842.79    7449.8745   -84292.665    487.43614 
    9050    292.76325   -47.330536    274733.49   -76847.635    7429.9263   -84277.561    490.68139 
    9100    286.09088   -40.852222    275030.26   -76902.201    7260.5907   -84162.792    492.51532 
    9150    289.20096   -179.11083     274846.2   -76869.363    7339.5202   -84208.884    495.52584 
    9200    283.94493    199.27623    274418.15   -76875.342    7206.1296   -84081.472     496.6695 
    9250    287.66018    348.86423    274239.02   -76913.269    7300.4174   -84213.687     498.7363 
    9300     288.3618   -168.70649    274380.45   -76963.242    7318.2236   -84281.466    501.74655 
    9350    289.47376   -338.49137    274341.14   -76942.358    7346.4436   -84288.802    504.56174 
    9400    292.68139    475.10877    274078.15   -76944.535    7427.8487   -84372.383    506.76049 
    9450    287.60764   -192.34378    274283.52   -76899.279     7299.084   -84198.363    508.99249 
    9500    289.39242    54.709066    274657.99   -76916.451    7344.3792    -84260.83    511.76023 
    9550    283.67543   -155.11655    274760.54   -76897.984    7199.2901   -84097.274    514.32562 
    9600    292.93105     123.5386    274273.96   -76876.773     7434.185   -84310.958    515.60473 
    9650     292.6124    4.3747391    273934.52   -76914.138     7426.098   -84340.236    517.99387 
    9700    291.92873    215.23941    274066.87    -76923.95    7408.7474   -84332.697     522.0636 
    9750    289.25675    13.652349    274542.28   -76930.283    7340.9361   -84271.219    526.17017 
    9800    288.81994   -162.08402    274655.17    -76931.72    7329.8504   -84261.571    528.86486 
    9850    291.13788    122.84318    274229.32   -76931.882    7388.6768   -84320.558    530.96364 
    9900    289.72166    305.11384    273772.02   -76927.141    7352.7349   -84279.876    533.61915 
    9950    281.72156    308.10925    273940.67   -76902.658    7149.7036   -84052.361    536.27306 
   10000    285.80314   -152.74639    274327.33   -76903.891    7253.2884   -84157.179    539.35095 
   10050    287.22948    175.56133    274700.14   -76900.448    7289.4868   -84189.935    542.76776 
   10100    285.54292   -34.067698    274907.75   -76862.817    7246.6844   -84109.502    545.99078 
   10150    288.28222   -370.39193    274775.41   -76841.354     7316.204   -84157.557    548.12073 
   10200    293.88203     215.8081    274311.48   -76830.407    7458.3194   -84288.727     550.8275 
   10250    292.70727    127.66987     274093.2   -76838.621    7428.5056   -84267.127    553.56439 
   10300     288.1991    46.037732     274254.3   -76816.865    7314.0945   -84130.959     556.6494 
   10350    285.76066    71.802297     274623.3   -76814.197    7252.2103   -84066.408       560.41 
   10400    281.16695    143.40033    275098.34    -76876.38    7135.6283   -84012.009    565.03842 
   10450    290.01885    -256.3581    275160.25   -76860.192    7360.2773    -84220.47    567.18598 
   10500    290.53282    -192.1754    274724.37   -76859.633     7373.321   -84232.954    569.25206 
   10550    287.44635   -104.62888    274075.07   -76838.754    7294.9909   -84133.745    571.88632 
   10600    292.28905    194.11498    273784.28   -76837.521    7417.8917   -84255.413    574.45742 
   10650    290.26235    242.13024    274361.23   -76826.587     7366.457   -84193.044    578.30904 
   10700    287.81456   -266.64772    275021.59   -76850.051    7304.3354   -84154.386    582.65055 
   10750    292.17457   -185.02845    274919.17   -76821.083    7414.9865    -84236.07    585.12215 
   10800    288.67517    67.735065    274388.25   -76834.206    7326.1765   -84160.383    586.97545 
   10850    294.49055    55.194934    274070.66   -76778.751    7473.7628   -84252.514    590.07245 
   10900    289.45547   -190.58891    274289.98   -76779.049    7345.9796   -84125.028    593.52837 
   10950    289.23922    105.21779    274422.69   -76785.063    7340.4913   -84125.554    596.57674 
   11000    285.79572     -201.491    274472.61   -76816.577    7253.0999   -84069.677    598.94321 
   11050     287.4553    197.97635     274397.2   -76848.299    7295.2179   -84143.517    600.95941 
   11100    286.33483   -180.26236    274524.54   -76816.044    7266.7818   -84082.826    604.57113 
   11150    288.50608    115.41808    274429.58   -76828.274    7321.8853   -84150.159    606.86999 
   11200    290.88689    140.64552    274257.85   -76823.903     7382.307    -84206.21    607.69266 
   11250    290.78555   -84.792489    274465.14   -76851.916     7379.735   -84231.651    610.92768 
   11300    286.79333   -3.8654977    274593.89   -76837.026     7278.418   -84115.444    613.61654 
   11350    290.42482   -238.49365    274354.42   -76873.414    7370.5803   -84243.994    615.99936 
   11400     285.6095    281.56484     273892.7   -76877.285    7248.3739   -84125.659    618.08208 
   11450    287.24446    170.08866    274067.95   -76928.053     7289.867    -84217.92    620.63237 
   11500    282.95308   -167.61627    274579.43   -76915.811    7180.9579   -84096.769     623.9215 
   11550    288.37196   -73.206655    274794.83   -76940.621    7318.4815   -84259.102    627.78635 
   11600    289.22708   -287.56271     274747.9   -76920.394    7340.1833   -84260.577    630.76019 
   11650    289.82658   -10.834957    274632.27   -76909.661    7355.3977   -84265.059    632.78438 
   11700     282.6558    181.28536    274472.33   -76869.297    7173.4133   -84042.711    635.12848 
   11750    292.57398   -47.648178    274328.68   -76888.891     7425.123   -84314.014    638.03331 
   11800    286.79446    31.032338     274277.8   -76907.801    7278.4468   -84186.248    640.85576 
   11850    287.92831    94.480804    274197.41   -76838.437    7307.2222   -84145.659    642.50213 
   11900    283.09515    162.97167    274327.46   -76913.844    7184.5634   -84098.407    645.24612 
   11950    286.66832   -271.06927    274447.56   -76906.201    7275.2453   -84181.447    647.45803 
   12000    286.02977   -54.774042     274386.3   -76913.609      7259.04   -84172.649    651.27339 
   12050    286.95583    114.30541     274266.1   -76897.633    7282.5421   -84180.175    655.07966 
   12100    286.31774    17.581775    274243.52   -76864.513    7266.3483   -84130.861    657.30562 
   12150    289.47305   -24.613922     274339.8   -76852.604    7346.4255    -84199.03    661.05138 
   12200    287.05075    -29.46345    274352.61   -76845.616    7284.9509   -84130.567      662.736 
   12250    290.36759   -318.63374    274480.45   -76815.455    7369.1279   -84184.583    665.70233 
   12300    293.95325   -122.52222    274721.94   -76825.972    7460.1269   -84286.099    668.67887 
   12350    284.33659    18.105691    274867.16   -76853.027    7216.0694   -84069.097    672.23185 
   12400    291.02893   -129.63992     274757.1   -76887.933    7385.9116   -84273.844     674.3004 
   12450    288.24771   -250.14361    274550.35   -76858.266    7315.3282   -84173.594    675.13754 
   12500    292.15593    105.23546     273954.7   -76830.627    7414.5133    -84245.14    678.21027 
   12550     287.2432    415.45536     273751.8   -76883.813    7289.8352   -84173.648    680.28132 
   12600    289.40533    105.03167       274328   -76841.642    7344.7069   -84186.349    683.30021 
   12650    290.54522    3.6382887     274878.7   -76859.547    7373.6358   -84233.183    687.58194 
   12700    289.99702   -109.86732    274980.34   -76836.756    7359.7233    -84196.48    690.52342 
   12750    284.01387   -80.220804    274329.32   -76887.641    7207.8792    -84095.52    691.59413 
   12800    290.38552    328.45598    273631.67   -76907.369    7369.5829   -84276.952    693.68356 
   12850    290.68192    159.96267    273568.37   -76901.728     7377.105   -84278.833    697.17666 
   12900     290.2151    120.46573    274057.59   -76884.284    7365.2578   -84249.542    701.23403 
   12950    286.06336   -174.14411    274758.27   -76888.668    7259.8924    -84148.56    705.39537 
   13000    285.75785    102.27353    275023.23   -76862.091    7252.1389    -84114.23    707.38738 
   13050    286.09753    -74.47288    274902.62   -76847.926    7260.7596   -84108.686     708.9857 
   13100    283.48113    125.80992    274539.28   -76827.505     7194.359   -84021.864    712.38768 
   13150    290.50314    10.832854    274063.48   -76850.253    7372.5679    -84222.82    714.69422 
   13200    286.01284    130.18684    273967.65   -76868.397    7258.6103   -84127.008    717.73511 
   13250    283.49219    -31.33767    274250.32   -76916.349    7194.6396   -84110.989    722.22632 
   13300    293.96274   -154.01634    274435.48   -76912.303    7460.3676   -84372.671    725.08754 
   13350    288.93555   -166.38749     274352.7   -76890.607    7332.7845   -84223.392     726.5066 
   13400     287.9619    130.37916    274227.08   -76919.783    7308.0746   -84227.857    727.58646 
   13450    283.41127    64.692169    274373.47   -76941.167    7192.5861   -84133.753    729.80426 
   13500    290.34092   -215.22733    274611.23   -76914.488    7368.4508   -84282.939    731.38557 
   13550    285.63202    151.73716    274339.64   -76993.884    7248.9456    -84242.83    733.20057 
   13600    286.93946   -109.25631    274297.03   -76993.832    7282.1267   -84275.958     735.6078 
   13650    284.16414    156.78554    274474.71   -77002.619    7211.6927   -84214.312    738.69987 
   13700    282.58538   -314.76424     274646.1   -76994.462    7171.6261   -84166.088     741.3346 
   13750    287.16994    104.20216    274323.49   -76979.353    7287.9759   -84267.329    743.04391 
   13800     286.3329    184.16552       274109     -77031.2    7266.7328   -84297.933    744.61847 
   13850    288.24862   -66.901108    274183.35   -77017.809    7315.3512    -84333.16    747.23131 
   13900    285.46775     77.30868    274126.26    -76993.46    7244.7767   -84238.237    750.26215 
   13950    283.83812    112.08949    274152.71   -77016.421    7203.4188    -84219.84    751.13515 
   14000    285.60196    85.635996    274255.39   -76955.846    7248.1826   -84204.029    753.32862 
   14050    285.58045   -10.245635    274375.55   -76944.708    7247.6368   -84192.345    756.62127 
   14100    285.69099   -66.978785    274371.76   -76933.171    7250.4422   -84183.613    760.20909 
   14150    284.66194    86.984039    274216.18   -76929.122    7224.3263   -84153.448    761.68469 
   14200    289.58884    180.74609     274414.5   -76923.904    7349.3641   -84273.268    764.59807 
   14250    287.22141    85.897932    274634.36   -76846.732     7289.282   -84136.014    766.85505 
   14300    294.27587   -3.0637314    274581.63   -76877.458    7468.3144   -84345.773    768.09738 
   14350    286.73222   -27.350101    274257.37   -76875.832    7276.8672   -84152.699    769.92079 
   14400    287.49424    84.107452    274022.93   -76850.167    7296.2062   -84146.373    772.34763 
   14450    287.78731    287.44493    273950.13    -76897.47    7303.6438   -84201.113    775.23988 
   14500     288.0465    113.50713    274327.49   -76909.905    7310.2216   -84220.127    779.60212 
   14550    287.53564    -272.4137    274760.83   -76953.074    7297.2568   -84250.331    783.51717 
   14600    285.07855   -205.59919    274677.11   -76948.285    7234.8993   -84183.184    786.35753 
   14650     288.9602   -19.958986    274354.51   -76962.123    7333.4101   -84295.533    787.84346 
   14700    288.95755    -19.03251    273950.34   -76935.072     7333.343   -84268.415    789.69604 
   14750    288.85044    136.75189    273824.22   -76945.052    7330.6245   -84275.676     793.2179 
   14800    287.89121   -10.082523    274126.25   -76996.221    7306.2806   -84302.502    797.58302 
   14850    283.83814    100.25405    274295.09   -77003.617    7203.4194   -84207.036    800.51687 
   14900    289.54101    27.415551    274278.26   -77012.031    7348.1503   -84360.182    800.43951 
   14950    285.58962    -92.33232    274264.42   -77080.749    7247.8696   -84328.619    802.14785 
   15000    285.98901   -182.98553     274337.3   -77071.479    7258.0056   -84329.484    803.51186 
   15050    283.39234   -319.10516    274421.17   -77070.029    7192.1057   -84262.135    806.13265 
   15100    287.25059    128.94545    274036.96   -77052.452    7290.0226   -84342.474    807.86831 
   15150    287.85471    189.49717    273756.24    -77061.89    7305.3544   -84367.244    810.67676 
   15200    284.77305    130.38409     274020.3   -77058.198    7227.1462   -84285.344    812.40354 
   15250    285.10134   -56.999084    274526.22   -77069.506    7235.4776   -84304.984    815.30285 
   15300    290.49441   -124.74899    274634.99   -77029.667    7372.3464   -84402.013    818.74019 
   15350    286.57079    42.270524    274393.55   -77027.754    7272.7702   -84300.524    821.05086 
   15400    284.01899    55.285821    274318.49   -76990.687     7208.009   -84198.696    823.85287 
   15450    290.63535   -81.435827    274529.87   -77003.573    7375.9232   -84379.496    825.88624 
   15500    286.55414   -103.19329    274527.54   -76985.037    7272.3478   -84257.385     828.9297 
   15550    285.67655    204.11284    274302.41   -76994.253    7250.0757   -84244.329     831.7211 
   15600    291.27975   -121.77343     274058.7   -76993.798    7392.2772   -84386.076    833.78233 
   15650    285.48508    283.00584    273973.03   -76994.997    7245.2163   -84240.213     834.8636 
   15700    289.67595    203.89921    274324.25   -76970.864     7351.575   -84322.439    839.23188 
   15750    284.09213   -79.248838    274604.27    -76968.93    7209.8654   -84178.795    843.34911 
   15800    285.89491   -46.080433    274676.27   -76965.882    7255.6173   -84221.499    846.57125 
   15850    286.51358    -92.95214    274540.61   -76941.213    7271.3184   -84212.531    849.25744 
   15900    286.73654    -121.7751    274549.79   -76942.321    7276.9769   -84219.298    851.71827 
   15950    288.27532    -100.1906    274516.68   -76914.146    7316.0288   -84230.175    854.45033 
   16000     293.8626   -175.72771    274263.05   -76886.674    7457.8263     -84344.5    855.78983 
   16050    293.43544     312.6753    273956.52   -76856.097    7446.9855   -84303.083     857.0734 
   16100    289.03046    15.629007    274256.33   -76842.483    7335.1932   -84177.677    860.38363 
   16150    290.93055   -69.002375    274750.58   -76845.923    7383.4149   -84229.338    864.03384 
   16200    286.08557    321.57477     274885.2   -76784.224     7260.456    -84044.68    866.46195 
   16250    295.68942   -22.815288    274889.38   -76776.269    7504.1884   -84280.457    867.66436 
   16300    287.21764    267.25651    274570.49   -76780.627    7289.1865   -84069.813    868.75746 
   16350    294.16387    36.517485     274544.8   -76808.866    7465.4722   -84274.339    870.03571 
   16400    285.20731    119.78144    274549.52   -76786.863    7238.1671    -84025.03    873.92924 
   16450    289.48546    45.961676    274383.27   -76824.521    7346.7405   -84171.262    876.13287 
   16500    290.06262    50.996398     274205.9   -76800.793     7361.388   -84162.181    878.08386 
   16550    285.31691    307.42119    274300.07   -76757.342    7240.9486    -83998.29    880.81898 
   16600     290.7517   -47.994288    274679.74   -76748.975    7378.8759   -84127.851    885.30826 
   16650    295.25969    53.118065    275022.25   -76693.113    7493.2826   -84186.395    888.31883 
   16700    292.44067   -77.940115     274930.6   -76777.004    7421.7396   -84198.743    889.67915 
   16750    288.10506    2.9481655    274725.74   -76793.544    7311.7078   -84105.251    891.77018 
   16800    286.02799   -21.287853    274770.35   -76804.298    7258.9948   -84063.293    896.27117 
   16850    291.96029    197.60637    274419.19   -76841.086    7409.5484   -84250.634    898.53945 
   16900    291.03997   -39.131474    274316.72   -76835.352    7386.1918   -84221.544    900.57012 
   16950    290.56986   -193.03706    274471.95   -76796.315    7374.2611   -84170.576    903.41801 
   17000    292.10428   -77.841462    274596.79   -76828.984    7413.2025   -84242.186    906.23829 
   17050    288.25074   -246.19047    274654.65   -76789.652    7315.4051   -84105.057    910.84323 
   17100     293.3791   -29.280323    274437.15   -76792.623    7445.5559   -84238.179    912.09192 
   17150    291.40251    109.56323    274285.08   -76734.362    7395.3926   -84129.755    912.84635 
   17200     289.9474    44.510883    274574.06   -76696.535    7358.4639   -84054.999    916.73655 
   17250    290.14638   -50.553776     274849.2   -76699.244    7363.5137   -84062.758    920.37525 
   17300    296.03451    29.316442    274772.13   -76662.127    7512.9464   -84175.073    923.27824 
   17350    291.73923    148.18392    274473.44   -76702.235    7403.9381   -84106.173    924.93059 
   17400    288.51402   -17.340217     274341.8   -76727.592    7322.0866   -84049.679    926.95506 
   17450    292.12712   -133.45786    274441.92   -76688.273    7413.7821   -84102.055    930.53583 
   17500    287.61688    200.42526    274823.53   -76739.593    7299.3186   -84038.911    934.09276 
   17550    291.78958    -92.08986    275147.26   -76793.933    7405.2159   -84199.149    939.41452 
   17600    288.78194   -147.62724    274987.85   -76759.745    7328.8861   -84088.632    942.28491 
   17650    291.22641      220.394    274446.28   -76717.961    7390.9234   -84108.884    944.35817 
   17700    296.11499   -9.1128532    274125.94   -76702.134    7514.9888   -84217.123    946.50401 
   17750    296.34824    156.00046     274242.3   -76704.823    7520.9085   -84225.731    950.18766 
   17800     289.7712   -320.60216    274636.24   -76697.686    7353.9922   -84051.678    954.24759 
   17850    292.42179    34.741129    274708.98   -76731.033    7421.2605   -84152.294    956.07314 
   17900      290.695   -111.21879     274488.9    -76753.94    7377.4371   -84131.377     957.9601 
   17950     289.6267    336.92439    274172.24   -76773.859    7350.3251   -84124.184    959.93335 
   18000    294.88645    6.9299278    274395.19   -76843.513    7483.8103   -84327.324    963.56798 
   18050    285.51498   -69.167383    274615.04   -76869.007    7245.9754   -84114.982    966.30501 
   18100    289.45844    31.472167    274582.33   -76902.342    7346.0548   -84248.397    968.58286 
   18150    287.76013    207.35919    274278.25   -76927.235    7302.9541   -84230.189    970.49914 
   18200    291.55747    19.951803    274188.13   -76878.143    7399.3253   -84277.468    972.53314 
   18250    293.40171    10.109992    274212.14   -76824.489    7446.1296   -84270.618    976.66099 
   18300    292.04966   -86.134357    274495.48   -76807.989    7411.8163   -84219.806    981.50252 
   18350    293.07921   -217.05333    274740.76   -76805.343    7437.9449   -84243.288    984.07591 
   18400    294.42599   -174.52599    274827.84   -76808.576    7472.1245   -84280.701    988.48663 
   18450    291.04516     12.93481    274626.58   -76839.428    7386.3237   -84225.751    989.92747 
   18500    290.72882    7.5435142    274530.57   -76806.013    7378.2952   -84184.308     991.7669 
   18550    292.13137    -14.88977    274615.53   -76775.935    7413.8901   -84189.825    994.62073 
   18600     291.4734    47.265147    274703.31   -76744.568    7397.1918    -84141.76    998.45555 
   18650    291.86523   -46.894197    274754.49    -76767.11    7407.1359   -84174.246     1001.542 
   18700    293.50697   -62.963526    274530.26   -76785.774    7448.8009   -84234.574     1002.558 
   18750    294.73195    163.25695    274341.21   -76712.346    7479.8891   -84192.235    1004.9862 
   18800    293.66714    15.527259    274285.58    -76721.05    7452.8658   -84173.916    1007.0727 
   18850    287.73124    97.248163    274360.39    -76748.57    7302.2209   -84050.791    1009.6186 
   18900    293.22172     129.6972    274389.21   -76771.426    7441.5617   -84212.988    1013.7219 
   18950    288.25936    -154.8497    274506.02   -76798.571    7315.6239   -84114.195    1016.8873 
   19000    292.23504   -351.90056    274558.22   -76771.007     7416.521   -84187.528    1021.2296 
   19050    291.66112    69.680387    274680.53   -76747.673    7401.9558   -84149.629    1024.8532 
   19100    292.02539    -447.8144    274916.67   -76784.086    7411.2006   -84195.287    1025.4686 
   19150    290.69657   -6.0883731    274757.81   -76753.421    7377.4767   -84130.898    1026.5672 
   19200    291.74433   -207.89115    274531.16    -76775.06    7404.0676   -84179.128    1027.8598 
   19250    290.56853    38.779091    274315.09   -76761.142    7374.2274   -84135.369    1030.0053 
   19300    294.38744      53.5659    274305.93    -76783.25    7471.1461   -84254.397    1031.5698 
   19350    288.76244    166.59553    274382.89    -76808.95    7328.3912   -84137.342    1033.7945 
   19400    292.47482     -210.178    274588.22   -76819.876    7422.6063   -84242.483    1038.0513 
   19450    288.62124   -85.704352    274608.73   -76844.622    7324.8078    -84169.43    1040.7597 
   19500    288.66304   -47.977999    274599.18   -76903.918    7325.8686   -84229.787     1043.357 
   19550    289.95846   -124.64537    274634.69   -76841.277    7358.7447   -84200.022    1045.9232 
   19600    292.83814    139.76916    274589.18   -76825.326    7431.8269   -84257.152    1049.4901 
   19650    290.91115    39.944208    274635.92   -76787.779    7382.9225   -84170.702    1051.3307 
   19700    288.68966   -131.01293    274886.05   -76727.243    7326.5442   -84053.787    1053.2147 
   19750    289.18237   -256.52293    274774.79   -76743.661    7339.0486    -84082.71    1055.5581 
   19800    291.21396    117.37106     274289.7   -76764.993    7390.6074   -84155.601     1057.736 
   19850    293.77101    516.28311    274110.97   -76742.643     7455.502   -84198.145    1058.9083 
   19900    292.65467   -54.193459    274537.25    -76688.94    7427.1707    -84116.11    1063.3175 
   19950    290.99127    161.31746    275004.51   -76695.261    7384.9559   -84080.216    1066.2927 
   20000    290.76947    78.525429     274973.7   -76662.588    7379.3268   -84041.915    1067.9075 
   20050    296.99645   -43.374203    274586.11   -76704.979     7537.359   -84242.338    1069.3657 
   20100     293.6641   -137.90677    274345.83   -76736.707    7452.7885   -84189.496    1070.0796 
   20150    290.57311    126.70913    274301.16   -76771.193    7374.3436   -84145.537    1073.2925 
   20200     289.7225    118.59424    274516.42   -76765.077    7352.7564   -84117.833     1075.945 
   20250    288.96112    172.80703    274859.53   -76782.423    7333.4335   -84115.857     1080.221 
   20300    285.55114   -116.32948    275037.36   -76753.456     7246.893   -84000.349     1084.816 
   20350    289.03127   -79.465159    274546.39   -76748.544    7335.2139   -84083.758     1087.467 
   20400    291.64868    207.28691    274099.47   -76717.739    7401.6401   -84119.379    1089.8766 
   20450    291.01576    354.04732    274141.57   -76676.129    7385.5774   -84061.707    1093.2772 
   20500    293.74756    115.56749    274567.48   -76683.091    7454.9068   -84137.998    1095.4525 
   20550     294.4664    -218.9485    275046.82   -76674.121      7473.15   -84147.271    1098.5971 
   20600    290.09483    -144.9155    275299.34   -76658.276    7362.2056   -84020.481      1102.07 
   20650    295.18056   -177.24479    274885.67   -76617.044    7491.2742   -84108.318    1104.1958 
   20700    288.91672    283.51584    274365.19   -76692.639    7332.3067   -84024.945    1105.4817 
   20750    295.96982    289.61991    274470.88    -76692.32    7511.3047   -84203.624    1107.2539 
   20800     289.5207   -315.35832    275268.05   -76676.518     7347.635   -84024.153    1113.3108 
   20850    291.43586   -86.770465    275476.34   -76675.712     7396.239   -84071.951    1116.9977 
   20900    293.89594   -8.4643787     274939.7   -76606.036    7458.6723   -84064.708    1116.0715 
   20950     294.3595     67.92188       274332   -76668.849     7470.437   -84139.286    1116.3024 
   21000     295.2969   -40.016087    274181.73    -76709.79    7494.2268   -84204.017    1118.5356 
   21050    292.43172   -33.503328    274543.99   -76662.969    7421.5126   -84084.482    1121.2253 
   21100     297.6289   -113.44199    275092.14   -76650.123    7553.4098   -84203.533     1125.678 
   21150    291.73547   -207.98579    275448.11    -76689.36    7403.8427   -84093.203    1130.9564 
   21200    294.44794    -250.0084    275038.87   -76704.326    7472.6814   -84177.007    1133.1208 
   21250    294.00072   -75.785203    274430.48   -76741.821    7461.3315   -84203.152    1135.0074 
   21300    290.55985    100.35433    274116.65   -76737.817     7374.007   -84111.824    1137.4393 
   21350    288.48504   -50.998337    274246.13    -76807.49    7321.3514   -84128.841    1139.5483 
   21400     290.7229    292.66179    274294.81   -76807.812    7378.1452   -84185.957    1141.7578 
   21450    295.64216   -72.181336    274736.48   -76791.643     7502.989   -84294.632    1146.2118 
   21500    288.16002      51.1196    275072.98   -76754.522    7313.1028   -84067.625    1149.6311 
   21550    285.46725   -135.89719    275037.28   -76757.602    7244.7638   -84002.366    1152.8871 
   21600    290.64748   -109.48361    274417.93   -76800.454    7376.2311   -84176.685    1154.5735 
   21650    291.93027    328.84409    273824.99   -76807.439    7408.7865   -84216.226     1154.832 
   21700    291.40438    286.95964    273751.68   -76789.768      7395.44   -84185.208    1157.0893 
   21750    289.78696   -84.984455    274059.65   -76787.964    7354.3921   -84142.356    1163.3125 
   21800     289.6019   -252.69468    274650.47   -76802.883    7349.6956   -84152.578    1167.8797 
   21850    289.07014   -224.59097    274754.94   -76801.443    7336.2004   -84137.644    1171.3002 
   21900     290.8253   -380.12552    274571.36   -76775.061    7380.7438   -84155.805    1173.8574 
   21950     291.4397    183.98538     274128.4    -76795.11    7396.3365   -84191.447    1175.1304 
   22000    289.37527    337.93281    274218.83   -76744.365    7343.9441   -84088.309    1177.4247 
   22050    289.41089    71.493568     274777.3   -76735.236    7344.8482   -84080.084    1182.6194 
   22100    292.78593   -70.217516    275226.04   -76721.027     7430.502   -84151.529    1186.7112 
   22150    293.11876   -269.11165    274861.05   -76708.336    7438.9486   -84147.284    1187.1532 
   22200     293.5753    152.50989    274310.99   -76690.708    7450.5349   -84141.242    1188.3636 
   22250     294.3547    168.05887    274068.61   -76715.764    7470.3152    -84186.08    1189.1926 
   22300    289.33012     313.9624       274339   -76745.309    7342.7982   -84088.107    1191.8251 
   22350    288.28026    -85.83501    275180.15   -76754.877    7316.1542   -84071.031    1198.2179 
   22400    285.92432   -367.28298    275666.74   -76774.505    7256.3638   -84030.869    1201.1014 
   22450     287.9266   -280.60745    275034.23   -76748.783    7307.1789   -84055.962    1201.1498 
   22500      297.661    155.22283    274175.27   -76676.649    7554.2244   -84230.873    1199.2441 
   22550    293.86104    445.94656     273804.5   -76708.732    7457.7866   -84166.518    1199.3036 
   22600    296.42904    14.779687    274100.95   -76748.541    7522.9591     -84271.5    1202.9495 
   22650    289.67913   -245.39766    274930.23   -76730.303    7351.6556   -84081.959    1208.4314 
   22700    290.43725   -166.41803    275326.38   -76745.687    7370.8957   -84116.583    1213.3212 
   22750    292.72751   -251.82598    275085.72   -76712.913    7429.0194   -84141.933    1214.9746 
   22800    293.96329    68.626092    274643.67   -76734.813    7460.3817   -84195.194    1218.0791 
   22850    291.74182    121.07467    274388.22    -76720.94    7404.0038   -84124.944    1217.0604 
   22900     290.9107    -74.65931    274563.83   -76669.405    7382.9112   -84052.316    1220.2607 
   22950    291.45242   -127.60111    274867.29   -76679.674    7396.6594   -84076.333    1224.2429 
   23000    292.57306   -101.73817    274700.21   -76745.432    7425.0997   -84170.532    1228.6096 
   23050    289.52534    186.27584    274436.56   -76732.861    7347.7528   -84080.614    1230.3978 
   23100    283.65022    196.53551    274458.53   -76782.322    7198.6502   -83980.972    1232.6156 
   23150    290.61599   -35.978685    274376.76   -76783.126    7375.4317   -84158.558     1235.018 
   23200    290.52565    40.897697    274261.66    -76742.34     7373.139   -84115.479    1236.6941 
   23250     286.2373   -25.319743    274296.92   -76723.055    7264.3067   -83987.361    1239.8293 
   23300    292.35609    149.47537    274488.81   -76742.835    7419.5932   -84162.428    1242.6353 
   23350    293.85384   -223.74855    274908.81   -76761.892    7457.6039   -84219.496     1246.621 
   23400    295.06153   -107.78113    274873.75    -76749.65    7488.2535   -84237.903    1250.3904 
   23450    295.30339   -116.47792    274655.37    -76772.35    7494.3916   -84266.741    1251.5436 
   23500    296.84783   -25.432162    274469.28   -76799.469    7533.5872   -84333.056    1251.8892 
   23550    288.25689    4.0548581     274426.4   -76791.998     7315.561   -84107.559    1252.6553 
   23600    290.31307   -157.11584    274735.95   -76805.522    7367.7442   -84173.266    1253.8343 
   23650    290.53023   -200.52346    274993.79   -76838.995    7373.2553    -84212.25    1253.5355 
   23700    290.32751   -40.188033     274865.8   -76848.324    7368.1106   -84216.434    1254.3622 
   23750     287.4145   -216.39441    274737.67   -76839.771    7294.1826   -84133.953     1255.861 
   23800     292.0416     108.7369    274374.23   -76814.561    7411.6118   -84226.172    1256.4685 
   23850    285.74059   -72.758588    274354.39   -76777.149     7251.701    -84028.85    1260.3569 
   23900    287.50108    41.324624    274595.27   -76787.716    7296.3798   -84084.095    1262.5944 
   23950    284.12305   -97.261173    274681.89   -76823.035      7210.65   -84033.685    1263.5246 
   24000    290.34911    167.96892    274393.83   -76806.125    7368.6587   -84174.784    1264.1582 
   24050    285.69956    32.511844    274350.17    -76783.77    7250.6597    -84034.43    1263.7413 
   24100    292.41091    163.91178    274597.12   -76789.201    7420.9845   -84210.185    1266.4522 
   24150    285.70732    172.14591    274901.25   -76755.064    7250.8566   -84005.921    1271.3929 
   24200    292.38024   -10.601539    275047.08   -76766.937    7420.2062   -84187.143    1276.3755 
   24250    291.63418   -341.89399    275129.54   -76698.805     7401.272   -84100.077    1279.9921 
   24300    286.46938   -144.32147    274927.32   -76728.107    7270.1966   -83998.303    1280.4118 
   24350    285.84816    173.90818    274384.23   -76766.176    7254.4308   -84020.607    1280.3735 
   24400    294.86499    234.08227    273920.24   -76789.556    7483.2656   -84272.821    1281.0404 
   24450    292.10157    66.005728    274237.36   -76801.473    7413.1339   -84214.607    1282.8479 
   24500    291.53886    -94.01554    274699.54   -76796.908    7398.8529   -84195.761    1286.0532 
   24550    290.85959   -100.20071    274768.79   -76826.861    7381.6141   -84208.475    1290.9466 
   24600    290.58775   -28.194616    274382.09   -76856.913    7374.7152   -84231.629    1294.1783 
   24650     289.7884    225.65813    274043.82   -76846.507    7354.4288   -84200.936    1296.8275 
   24700    290.14526   -317.41754    274351.23   -76850.639    7363.4855   -84214.125    1300.7048 
   24750    291.03645   -349.93499    274570.28   -76836.149    7386.1025   -84222.251    1301.9207 
   24800    290.24158   -233.19298    274655.16   -76859.876    7365.9298   -84225.806     1303.245 
   24850    287.39297   -56.770174    274720.48   -76856.255    7293.6361   -84149.891    1306.1641 
   24900    284.34115   -150.79298    274592.33   -76886.973    7216.1851   -84103.158    1306.7149 
   24950     288.2046    74.160253    274384.11    -76888.42    7314.2341   -84202.654    1310.2498 
   25000    289.20855   -211.70059    274473.59   -76855.917    7339.7129    -84195.63    1311.9763 
   25050    285.03589   -100.41671    274535.49   -76835.169    7233.8167   -84068.985    1312.7168 
   25100    285.03998     42.91742    274445.91   -76856.733    7233.9205   -84090.654    1314.5727 
   25150     289.3874    332.03761    274337.61   -76842.205    7344.2519   -84186.457    1315.8871 
   25200    293.52808   -61.649133    274586.95   -76806.579    7449.3367   -84255.916    1319.2501 
   25250    291.87475   -82.435292    274794.75   -76800.626    7407.3775   -84208.004    1323.3461 
   25300    295.32696    -68.10675    275010.42   -76774.172    7494.9896   -84269.161    1325.0034 
   25350    289.99386   -16.560696     274618.5   -76773.437    7359.6431    -84133.08    1324.7019 
   25400    290.05341    154.30588    273924.15   -76794.183    7361.1544   -84155.338    1325.2323 
   25450    290.94073   -76.875079    273901.04   -76826.374    7383.6732   -84210.047    1328.5119 
   25500    286.60929    261.68279    274111.58   -76844.677    7273.7474   -84118.424    1331.5774 
   25550    289.17152   -33.851782    274720.72   -76848.583    7338.7731   -84187.356    1335.8357 
   25600    288.75703     16.03077    274917.83   -76856.797     7328.254   -84185.051     1338.661 
   25650    293.64184    -130.6319    274942.62   -76848.898    7452.2238   -84301.122     1339.859 
   25700    283.56201      34.2967    274602.79   -76806.003    7196.4117   -84002.415     1342.095 
   25750    288.97844    28.930791    274349.13   -76821.147     7333.873    -84155.02    1342.2423 
   25800    291.54388    107.74339    274567.76   -76807.009    7398.9804   -84205.989     1344.599 
   25850    292.81355   -174.92248    275044.94   -76809.946     7431.203   -84241.149    1348.2696 
   25900    288.67228    143.77957    275032.47   -76839.456    7326.1033   -84165.559    1351.8015 
   25950    291.01728    88.492792    274722.76    -76855.81    7385.6161   -84241.426    1353.4589 
   26000    289.23985    69.299338     274188.5   -76889.172    7340.5072   -84229.679    1354.2099 
   26050    285.81476    454.77089    273780.02   -76887.077    7253.5832    -84140.66     1355.164 
   26100    286.18222   -55.145904     274254.5   -76906.538    7262.9088   -84169.447    1358.4793 
   26150    289.77374   -15.420225    274734.45   -76845.998    7354.0566   -84200.055    1362.1585 
   26200    284.72548   -129.09729    274850.76    -76829.09    7225.9388   -84055.029    1366.3252 
   26250     294.9847   -22.095563    274514.52   -76804.595    7486.3038   -84290.899    1366.1922 
   26300    293.39495      165.914    274330.02   -76803.981     7445.958   -84249.939    1367.5896 
   26350     286.8255    118.88337    274492.45   -76745.829    7279.2346   -84025.063    1368.7729 
   26400    289.34597   -31.105174    274712.24   -76752.562    7343.2005   -84095.763    1372.8975 
   26450    285.41828   -80.288112    274939.69   -76788.281    7243.5211   -84031.802    1377.0405 
   26500    292.43558    -205.5438    274797.03   -76757.878    7421.6106   -84179.489    1379.2163 
   26550    291.00852   -171.10407    274296.77   -76805.577    7385.3938   -84190.971    1379.6482 
   26600    291.05436    213.62761    273779.21    -76793.98    7386.5571   -84180.537    1379.7777 
   26650    291.11426    234.11764     273852.2   -76827.644    7388.0772   -84215.721    1384.6122 
   26700    291.53138   -41.034652    274558.58   -76882.609    7398.6632   -84281.272    1389.3124 
   26750     286.3113   -170.20551    275025.42   -76910.676    7266.1847    -84176.86    1393.0775 
   26800    291.42679   -220.33952    274832.28   -76912.035    7396.0088   -84308.043     1396.145 
   26850    285.99108   -21.972476    274056.37    -76954.11    7258.0579   -84212.168    1395.0322 
   26900    287.81114     91.08478    273614.27   -76980.386    7304.2487   -84284.635    1394.1714 
   26950    284.49846    272.19129    273678.21   -76969.864    7220.1774   -84190.041    1395.7721 
   27000     286.0908    74.281298    274429.03   -76988.786    7260.5887   -84249.375     1401.445 
   27050    284.66881   -202.56628    275048.71   -76978.607    7224.5006   -84203.108     1405.877 
   27100    283.72906   -242.70432    275035.77   -77012.903     7200.651   -84213.554    1408.4454 
   27150    289.31193    265.63942    274550.77   -76916.166    7342.3365   -84258.503    1409.9575 
   27200    284.38516    6.9407304    274435.22   -76910.999     7217.302   -84128.301      1411.61 
   27250     290.0231    135.92586    274162.67   -76915.854    7360.3851   -84276.239    1412.4035 
   27300    290.52915    197.36132    274170.97   -76909.905    7373.2279   -84283.133    1413.3122 
   27350    286.94135   -87.084433    274444.27   -76911.069    7282.1745   -84193.244     1415.209 
   27400    287.87325    191.40378    274682.97   -76876.415    7305.8249    -84182.24    1418.9305 
   27450    284.81971   -63.796846    274758.26   -76833.808    7228.3303   -84062.138    1422.5883 
   27500    290.53695   -15.043287    274719.27    -76795.39     7373.426   -84168.816    1424.9235 
   27550    290.17815     51.16987    274630.15   -76783.034    7364.3199   -84147.354    1427.2018 
   27600    293.85953   -88.160199     274573.8   -76770.565    7457.7484   -84228.314    1431.0131 
   27650    288.21423   -14.846054    274529.41   -76802.239    7314.4785   -84116.717    1434.9361 
   27700    286.83564   -56.572508    274354.12   -76803.653    7279.4918   -84083.145    1436.8656 
   27750    286.11048    -150.3381    274558.19   -76764.622    7261.0882   -84025.711    1440.4459 
   27800     291.4441    -17.91825    274638.35   -76824.765    7396.4481   -84221.213    1444.9541 
   27850    292.86351   -86.742267    274746.23   -76803.667    7432.4709   -84236.138    1448.1629 
   27900    288.78294    84.508771    274854.33   -76721.435    7328.9117   -84050.347    1450.6233 
   27950     289.0287   -161.18404    274874.28   -76730.929    7335.1487   -84066.078    1454.6282 
   28000    288.19241    -175.0401    274620.39   -76734.908    7313.9247   -84048.833     1457.196 
   28050    293.91761    541.23557    274221.72   -76720.943    7459.2224   -84180.165    1459.0046 
   28100    293.78081    11.319977    274526.46   -76723.495    7455.7505   -84179.246    1463.3533 
   28150    296.02002   -113.83152    274827.21   -76759.615    7512.5788   -84272.194     1467.863 
   28200    290.10403    -317.9583    274830.96   -76787.198     7362.439   -84149.637    1472.6107 
   28250    294.56373   -233.64329    274591.03   -76738.849    7475.6201   -84214.469    1472.8067 
   28300    290.29419    194.44191     274183.8   -76738.598     7367.265   -84105.863    1473.1264 
   28350    292.38182    31.511235    273967.63   -76767.693    7420.2461    -84187.94    1473.2664 
   28400    290.66385    115.66102    274168.44   -76758.395    7376.6465   -84135.041    1474.9568 
   28450    291.89067   -121.13335    274569.31   -76753.284    7407.7814   -84161.065    1478.7372 
   28500    297.03014   -218.77884    274871.33   -76704.411    7538.2141   -84242.625    1483.6571 
   28550    293.34257   -227.32023    274921.04   -76667.003    7444.6288   -84111.632    1488.7924 
   28600    293.92554   -106.36714    274793.11   -76622.185    7459.4236   -84081.609    1491.2467 
   28650    290.43508    207.38357    274590.72   -76636.622    7370.8406   -84007.462    1492.8924 
   28700    290.42897    364.96004       274644   -76596.599    7370.6856   -83967.284     1494.653 
   28750     292.1698   -308.51874    275036.88   -76631.946    7414.8655   -84046.812    1499.6193 
   28800    288.96794    46.913734    275073.79   -76707.377    7333.6065   -84040.984    1503.3627 
   28850    292.34779   -26.286983    274767.42   -76719.693    7419.3825   -84139.076    1504.3382 
   28900    291.22491    90.851731    274438.27   -76727.108    7390.8855   -84117.993    1505.5382 
   28950    291.43552     317.6883    274340.31   -76736.468    7396.2304   -84132.699    1508.2708 
   29000    289.84495    271.21763    274417.67   -76781.086    7355.8639    -84136.95     1512.183 
   29050     293.2336    217.65048    274747.59   -76783.912    7441.8632   -84225.775    1517.1258 
   29100    284.04916   -99.172399    275019.14   -76759.179    7208.7748   -83967.954    1522.5257 
   29150    293.23911   -252.65459    274653.11   -76774.268    7442.0029   -84216.271    1525.1751 
   29200    286.94266    149.52822    274104.09   -76761.127    7282.2077   -84043.335    1525.2663 
   29250     296.5494    310.05551    274098.16   -76722.022    7526.0137   -84248.036    1527.4544 
   29300    287.88388   -33.171986    274936.18   -76766.458    7306.0946   -84072.552    1533.1877 
   29350    286.33103   -345.54743    275546.09   -76789.122    7266.6856   -84055.808    1538.7818 
   29400    285.96516    71.976574    275098.03    -76805.32    7257.4001    -84062.72     1539.304 
   29450    289.81467    173.92834    274366.86   -76813.186    7355.0954   -84168.281    1539.7583 
   29500    294.03177   -128.22391    274165.33   -76820.988    7462.1197   -84283.107    1542.0295 
   29550    286.52893    293.66172    274122.18   -76792.429     7271.708   -84064.137    1544.6962 
   29600    287.71127    36.773313    274363.22     -76770.1     7301.714   -84071.814     1548.978 
   29650    291.06521    237.78055    274566.81   -76752.926    7386.8323   -84139.759    1548.9113 
   29700    290.32665    266.19653    274563.35   -76785.569    7368.0888   -84153.658    1550.7859 
   29750    289.69618   -101.35602    274663.42   -76767.615    7352.0884   -84119.703    1553.0276 
   29800    292.04203   -59.556484    274892.24   -76742.971    7411.6227   -84154.593    1555.5027 
   29850    289.09546   -146.10688     275038.6   -76731.724    7336.8429   -84068.567    1558.1315 
   29900    292.73019   -2.2605122    274881.26   -76694.738    7429.0874   -84123.826    1560.0679 
   29950    289.51695    84.849345    274717.24   -76687.615    7347.5396   -84035.155    1560.7722 
   30000     290.9064    12.634951    274678.56   -76720.376     7382.802   -84103.178     1561.748 
   30050    287.72549   -22.432984    274724.53   -76743.815     7302.075    -84045.89    1562.8412 
   30100    294.58233   -186.26805    274875.28   -76698.968     7476.092    -84175.06    1564.2441 
   30150    292.97835    84.551699    274852.75     -76699.4    7435.3854   -84134.785    1565.6301 
   30200    294.41964   -224.38204    274712.22   -76710.964    7471.9633   -84182.927    1565.4751 
   30250    290.86913    134.68318    274613.32   -76717.932    7381.8561   -84099.788    1568.2364 
   30300    291.07442    201.29748    274730.27   -76692.105    7387.0663   -84079.171    1572.3964 
   30350    292.50099    -190.8247     274947.3   -76719.155    7423.2705   -84142.426    1574.4342 
   30400    288.66106   -87.846467    275068.55   -76777.921    7325.8184    -84103.74    1575.4403 
   30450    292.14834    56.683211    274734.64   -76810.765    7414.3209   -84225.086    1575.6508 
   30500    289.81907    230.78821    274139.78   -76762.854    7355.2071   -84118.061    1574.9868 
   30550    297.87101    84.208643    273760.42   -76762.039    7559.5543   -84321.594    1576.5459 
   30600    291.39935    103.88609     273935.9   -76795.501    7395.3124   -84190.813    1578.6346 
   30650    287.74491   -71.047703    275020.55   -76823.018    7302.5677   -84125.586    1587.5431 
   30700    287.79033   -320.56884    275818.07   -76821.356    7303.7205   -84125.077    1593.3282 
   30750    286.87025   -217.20393    275429.28    -76851.65    7280.3701    -84132.02    1595.9873 
   30800    287.46774    48.350192    274355.14   -76895.265    7295.5337   -84190.798    1595.1903 
   30850    290.52901     394.8528    273506.51   -76915.849    7373.2243   -84289.073    1594.7076 
   30900    294.87584    299.85053    273583.43   -76899.703     7483.541   -84383.244    1598.3307 
   30950    290.04637    268.71715    274303.72   -76919.982    7360.9757   -84280.958      1605.18 
   31000    285.75458   -371.27613    275127.19    -76923.93    7252.0559   -84175.986    1611.5409 
   31050    290.65448    216.58327    274818.98   -76907.468    7376.4086   -84283.877    1614.0801 
   31100      284.621     206.4644    274279.12   -76872.898    7223.2873   -84096.186    1612.6192 
   31150    289.46951   -98.926653    274194.83   -76840.451    7346.3359   -84186.787    1614.9334 
   31200    293.54725   -197.30303    274272.04   -76828.189    7449.8232   -84278.012    1616.9307 
   31250    292.18997   -138.30597    274367.93   -76823.662    7415.3774    -84239.04    1617.5109 
   31300    289.49307    -140.5992    274693.34   -76824.198    7346.9336   -84171.132    1620.7636 
   31350     285.4409   -379.61611    275143.61   -76840.929    7244.0951   -84085.024     1625.959 
   31400     286.1218   -162.21735    275187.36   -76862.443    7261.3755   -84123.819    1626.8703 
   31450    289.44308    76.813123    274713.02   -76846.854     7345.665   -84192.519    1626.8601 
   31500    288.20012    194.01797    274253.63   -76846.535    7314.1204   -84160.655    1628.7264 
   31550    289.14097    364.11332    274140.78   -76858.621    7337.9978   -84196.618    1629.6195 
   31600    286.33776    277.77573    274240.59   -76872.445    7266.8563   -84139.301    1633.9308 
   31650    291.58678   -95.889216    274593.94   -76815.259    7400.0691   -84215.328      1637.74 
   31700     288.9527   -73.803078     274623.7   -76820.685    7333.2199   -84153.905    1639.4229 
   31750    290.04175   -119.26736    274531.54   -76814.031    7360.8584   -84174.889    1642.3431 
   31800    285.94048   -219.57305    274564.11   -76814.108     7256.774   -84070.882    1643.7824 
   31850    286.62214    32.572346    274691.68   -76850.917    7274.0734    -84124.99    1646.8991 
   31900    292.00924   -65.351699     275015.5   -76878.779    7410.7905    -84289.57     1651.206 
   31950    286.47935   -191.32907    275099.82    -76842.09    7270.4496   -84112.539    1652.2063 
   32000    288.88796   -181.23476    274534.15    -76864.43    7331.5769   -84196.007    1651.9412 
   32050    293.85983    253.59578    273596.79   -76885.507    7457.7559   -84343.263    1650.1671 
   32100    288.99769    364.52806    273484.11   -76857.833    7334.3616   -84192.195    1650.1021 
   32150    286.81614     268.0726    274137.09   -76898.723    7278.9969    -84177.72    1655.0502 
   32200    291.02843   -300.38279     275270.8   -76875.044    7385.8989   -84260.943      1660.63 
   32250    291.93586   -336.25396    275437.13   -76854.068    7408.9283   -84262.996    1663.8241 
   32300    288.52035    143.07981    274705.46   -76873.624    7322.2475   -84195.871    1662.9722 
   32350    286.92342    148.33806    273944.92    -76868.36    7281.7195   -84150.079    1660.9749 
   32400    287.77866    475.05147    273712.04   -76869.246    7303.4243    -84172.67    1660.5027 
   32450    286.55231    268.77563    274420.52   -76911.069    7272.3013    -84183.37    1665.1522 
   32500    290.76206   -453.91949    275350.72    -76887.18    7379.1388   -84266.319    1671.5931 
   32550    289.55239   -294.62241    275354.42   -76901.892    7348.4393   -84250.331    1672.6288 
   32600    288.59594   -80.802583    274649.51   -76846.451    7324.1658   -84170.617    1670.2919 
   32650    290.24417    122.54153    273894.36   -76842.816    7365.9956   -84208.812    1668.1994 
   32700    291.22229    218.31799    273856.35   -76857.656     7390.819   -84248.475     1670.675 
   32750    287.58908    110.48706    274640.93   -76836.953    7298.6131   -84135.566    1675.8421 
   32800     290.6185   -281.73556    275301.95   -76851.096    7375.4955   -84226.592    1680.2374 
   32850    286.38713    -80.29724    274988.49   -76836.198    7268.1092   -84104.307    1681.5537 
   32900    284.00123    92.665775    274345.57   -76854.644    7207.5583   -84062.202    1682.4565 
   32950    288.55295     172.4218    273845.31    -76894.84    7323.0746   -84217.915       1682.9 
   33000    291.84146   -2.9562639    273859.64   -76845.537    7406.5325   -84252.069    1683.3012 
   33050    288.06133    -87.94513    274157.22   -76847.206     7310.598   -84157.804    1689.2814 
   33100    286.73227   -150.32324    274726.73   -76871.146    7276.8683   -84148.014    1695.6277 
   33150    286.90029   -100.98615    274738.88    -76879.17    7281.1325   -84160.303    1697.9651 
   33200     289.5969    8.5807644    274394.63   -76903.049    7349.5687   -84252.617    1700.6043 
   33250    292.00846   -0.7452255    274145.39     -76911.7    7410.7708    -84322.47    1701.9943 
   33300    293.30389    151.14445    274191.32   -76905.424    7443.6469   -84349.071      1704.02 
   33350    287.78561   -45.329377    274678.31   -76936.244    7303.6007   -84239.845    1709.8089 
   33400    286.40845   -208.10825    275049.98   -76898.317    7268.6502   -84166.967    1712.9523 
   33450    283.46941   -27.874467    274902.96   -76877.316    7194.0614   -84071.377    1714.6611 
   33500    289.97697    59.016097    274482.19   -76908.609    7359.2144   -84267.823    1717.7847 
   33550    291.78074    298.42308    274185.02   -76890.176    7404.9917   -84295.168     1720.115 
   33600    285.15581    260.42558    274223.84   -76897.748      7236.86   -84134.608    1724.5145 
   33650    287.33657   -167.34652    274691.53     -76898.1    7292.2047   -84190.305    1729.1939 
   33700     291.1293    51.007329    274718.22   -76871.501     7388.459    -84259.96    1732.1568 
   33750    291.45103   -60.388272    274532.94   -76846.752    7396.6239   -84243.376    1734.9309 
   33800    289.22522    136.35153    274532.96    -76853.18     7340.136   -84193.316    1737.6749 
   33850    289.41601   -388.24335    274768.21   -76859.411     7344.978   -84204.389    1742.4535 
   33900    290.82258     45.18254    274672.38   -76875.994    7380.6749   -84256.668    1741.3623 
   33950    286.99161   -57.769655    274502.22    -76879.77    7283.4501    -84163.22    1741.2149 
   34000    285.60572   -33.206237    274388.36   -76846.056    7248.2781   -84094.334    1742.9211 
   34050    289.61376    159.44374     274176.8   -76860.172    7349.9967   -84210.169    1745.3691 
   34100    287.81044   -43.075016     274235.4   -76884.742     7304.231   -84188.973    1748.8119 
   34150    287.87032   -353.43877    274621.33   -76891.607    7305.7506   -84197.358    1752.7071 
   34200    286.09123    210.17421    274483.85    -76896.88    7260.5997    -84157.48    1754.4624 
   34250    289.03385    155.74437    274421.33   -76890.902    7335.2794   -84226.181    1757.8999 
   34300    288.90666   -20.986288    274557.08   -76846.774    7332.0515   -84178.826    1762.5434 
   34350    289.92858   -154.24777    274659.69   -76860.933    7357.9864    -84218.92    1764.6836 
   34400    288.36983   -218.55166    274664.26   -76906.568    7318.4274   -84224.996    1766.1512 
   34450    291.74448    110.85993    274633.36   -76868.676    7404.0713   -84272.747    1767.9575 
   34500    289.56196   -254.10135    274608.61   -76906.304    7348.6821   -84254.986    1769.2453 
   34550    286.23594   -115.87189    274537.35   -76956.135    7264.2723   -84220.407     1772.029 
   34600    289.16127     68.31164    274470.57   -76983.653    7338.5131   -84322.166     1775.387 
   34650    291.35006   -110.53809    274169.45    -76957.03    7394.0615   -84351.091    1777.2323 
   34700    290.59537    14.536889    273964.02   -76930.249    7374.9086   -84305.158    1778.1143 
   34750    288.62195   -37.315765     273874.8   -76950.757    7324.8258   -84275.582    1780.3262 
   34800    291.45637   -58.759128    274089.57   -76918.562    7396.7594   -84315.321    1784.6181 
   34850     290.2532   -240.01779    274300.03   -76952.573    7366.2248   -84318.798    1787.0528 
   34900    288.36685   -105.07904    274288.46   -76952.796    7318.3519   -84271.148    1789.4118 
   34950    287.64562   -138.95295    274227.41   -76895.213     7300.048   -84195.261    1789.8811 
   35000    287.13676    120.80476    274284.84   -76897.208    7287.1338   -84184.342    1791.2877 
   35050    287.24554   -78.729423    274603.83   -76893.957    7289.8945   -84183.852    1792.6767 
   35100    285.27809   -37.707845    274856.03   -76927.141    7239.9632   -84167.104     1795.749 
   35150    288.78422   -1.1314254    274802.49   -76937.372     7328.944   -84266.316    1797.1159 
   35200    287.03465   -153.17831    274403.03   -76935.938    7284.5424   -84220.481    1796.4915 
   35250    286.97823    125.17379    273946.27   -76894.427    7283.1105   -84177.537    1796.6157 
   35300     287.3414    414.19979    274049.81   -76869.626    7292.3272   -84161.953    1798.3749 
   35350    288.68149    157.02567    274819.26   -76847.928     7326.337   -84174.265    1804.5663 
   35400    283.15263   -487.43179    275516.61   -76881.451    7186.0222   -84067.473    1809.7423 
   35450    293.32311   -476.24046    275255.94   -76868.341    7444.1348   -84312.475    1810.3346 
   35500    292.87503    30.263846    274349.69   -76841.591    7432.7632   -84274.354    1809.4423 
   35550    293.88198     492.2332    273680.49   -76880.479    7458.3181   -84338.797    1808.6362 
   35600     290.8408    188.72799    273871.49   -76794.959    7381.1372   -84176.096    1814.8454 
   35650    293.83625   -169.09271    274502.66    -76792.48    7457.1576   -84249.637    1821.4044 
   35700    284.92716   -327.29765    275027.54   -76833.233    7231.0571    -84064.29    1828.5006 
   35750    289.92329    -135.8049    274955.18   -76835.571     7357.852   -84193.424    1828.8562 
   35800     287.6298   -98.585169    274551.21   -76852.136    7299.6464   -84151.783    1828.8968 
   35850    289.51954    63.369037    274149.12   -76817.092    7347.6055   -84164.697    1829.9957 
   35900    290.29892    344.04244    274044.83   -76819.357    7367.3849   -84186.742    1829.9887 
   35950    289.17596   -101.28203    274315.76   -76833.955    7338.8858   -84172.841    1832.3612 
   36000    290.71384   -65.696439    274496.67   -76863.091    7377.9152   -84241.007    1834.1005 
   36050    287.24017    223.91554    274502.18   -76891.314    7289.7581   -84181.072    1837.6883 
   36100    289.59181   -68.476411    274535.19   -76860.344    7349.4395   -84209.784    1840.1811 
   36150      290.865   -110.45515    274335.38     -76855.2    7381.7514   -84236.951    1841.5923 
   36200    290.96609    113.35245    274196.04   -76861.204    7384.3169   -84245.521    1842.9086 
   36250    289.22025    220.74911    274549.39   -76845.649      7340.01   -84185.659     1846.053 
   36300    287.82251   -81.004065    274860.07   -76888.925    7304.5371   -84193.462    1849.7749 
   36350    287.79605    -294.1104    274806.29   -76817.803    7303.8656   -84121.669    1854.2903 
   36400    293.37148    78.361562    274461.86   -76871.296    7445.3624   -84316.658    1854.8943 
   36450    290.54892    111.47396    274358.55   -76843.751    7373.7298   -84217.481    1857.8019 
   36500    288.85869   -162.47753     274544.7   -76847.611    7330.8339   -84178.445    1862.4356 
   36550    284.16344   -27.299821    274695.25   -76812.717    7211.6751   -84024.392    1865.1589 
   36600    289.50335   -314.33848    274770.47   -76793.021    7347.1946   -84140.215    1866.9479 
   36650    291.12475   -195.10688    274626.71   -76815.988    7388.3435   -84204.331    1867.9225 
   36700    289.57912    292.65973    274336.21   -76809.774    7349.1176   -84158.892    1867.6837 
   36750    290.06807    59.875495    274444.79    -76837.06    7361.5264   -84198.586    1871.4167 
   36800    287.32404    51.718196    274458.46   -76790.377    7291.8866   -84082.264    1874.5901 
   36850    288.61357     133.5034    274382.09   -76794.988    7324.6132   -84119.602    1875.4927 
   36900    290.13865   -44.917681    274188.08   -76804.844    7363.3176   -84168.162    1875.1792 
   36950    286.25703    274.82904    274070.87    -76845.33    7264.8074   -84110.138     1877.309 
   37000    285.27084    252.85636     274163.3    -76869.89    7239.7792   -84109.669    1882.8524 
   37050    285.06974   -86.015437    274624.23    -76872.28    7234.6757   -84106.955    1890.1435 
   37100    291.21692    -135.8306    274959.08   -76832.032    7390.6826   -84222.715    1893.2536 
   37150    289.61369      62.6717    274769.26   -76840.688    7349.9947   -84190.683    1895.1955 
   37200    288.32111     194.9509    274196.53   -76857.273     7317.191   -84174.464     1894.256 
   37250    290.77735    257.51079     273664.7   -76858.659     7379.527   -84238.186    1893.5053 
   37300    290.71624    266.75178    273819.57   -76870.856    7377.9761   -84248.832    1896.8228 
   37350    288.12852    22.164554    274745.56   -76864.375    7312.3032   -84176.678    1902.1871 
   37400    291.21366   -426.53836    275055.07   -76852.276    7390.5999   -84242.875    1904.7577 
   37450    283.53647   -182.52394     274640.2   -76851.429    7195.7634   -84047.192    1904.3776 
   37500    291.54506   -223.19102    274222.68   -76856.269    7399.0104    -84255.28    1904.4181 
   37550    290.99144    -37.05552    274053.92   -76844.815    7384.9602   -84229.775     1906.226 
   37600    288.39605    111.64316    274211.07   -76861.758    7319.0929   -84180.851    1907.8941 
   37650    290.07543   -88.536452    274575.69   -76851.268    7361.7131   -84212.981    1912.7855 
[...]
   90850    294.32356    412.99101    274130.39   -76671.387    7469.5248   -84140.912    4573.9409 
   90900    288.22848    132.05559    275023.96   -76672.279    7314.8402   -83987.119    4584.0398 
   90950     290.9992   -547.27478    275571.57   -76706.834    7385.1573   -84091.991    4588.6378 
   91000    291.40056   -107.32721    275018.77   -76683.307    7395.3431    -84078.65    4586.2686 
   91050    292.54798    112.83781    274277.57   -76713.496    7424.4632   -84137.959    4582.7056 
   91100    296.19997    168.54207    273895.06   -76665.996    7517.1455   -84183.142    4580.1576 
   91150    287.90735    46.332807    274225.73   -76679.781    7306.6903   -83986.472    4587.4908 
   91200    287.82236   -147.46033    274790.01   -76704.099    7304.5335   -84008.633    4598.2779 
   91250    289.07439    260.65891    274793.95   -76713.894    7336.3083   -84050.203    4602.7355 
   91300    294.16302   -264.75604    274767.53   -76714.558    7465.4506   -84180.009    4606.0351 
   91350     292.4335    258.68299    274415.37   -76719.839    7421.5578   -84141.397    4606.0634 
   91400     288.4364    318.81392    274326.14   -76755.214    7320.1167   -84075.331    4604.9687 
   91450    292.83753   -68.865698    274694.89    -76778.29    7431.8114   -84210.101    4612.1884 
   91500    288.99558   -247.92573    274943.36   -76778.586    7334.3082   -84112.894    4616.3844 
   91550    287.76225    156.80755    274783.89   -76766.306     7303.008   -84069.314    4616.8858 
   91600    294.74061    58.375646     274516.2   -76797.377    7480.1089   -84277.486    4614.1524 
   91650    288.23057   -139.22637    274346.28   -76858.677    7314.8931    -84173.57    4614.6799 
   91700    291.02739    148.67221    274110.93   -76880.679    7385.8726   -84266.551    4614.6454 
   91750    291.85003    125.62445    274265.32   -76835.914    7406.7501   -84242.664    4618.1349 
   91800    287.39492   -98.827661    274680.79   -76840.054    7293.6855    -84133.74    4623.8845 
   91850    289.95499   -137.59006    274764.08   -76869.776    7358.6566   -84228.433    4625.5009 
   91900    288.91256    -56.64271    274432.88   -76853.069    7332.2012    -84185.27    4621.5258 
   91950    290.51745    93.636488    274108.95   -76913.978    7372.9309   -84286.909      4619.97 
   92000    289.16434     225.4153    274095.56   -76872.399    7338.5911    -84210.99    4624.0024 
   92050    292.06057    182.75159     274234.8   -76931.264    7412.0933   -84343.357    4627.2099 
   92100    288.48355   -205.97613    274719.05   -76860.783    7321.3136   -84182.096    4634.6889 
   92150    289.02339   -137.59219    275020.98   -76860.017    7335.0139   -84195.031     4640.563 
   92200    287.06929   -23.156079    274892.09   -76847.492    7285.4214   -84132.914    4635.8765 
   92250      285.051   -75.598171    274747.83   -76822.084    7234.2001   -84056.284    4637.0366 
   92300    290.92972   -160.63838    274561.82   -76834.255    7383.3938   -84217.649     4638.623 
   92350     285.1637    316.83272     274281.1   -76852.777    7237.0603   -84089.838    4636.4333 
   92400    292.83337    79.340508    274284.38   -76855.973    7431.7059   -84287.678     4636.156 
   92450    286.85209    86.280567     274429.2   -76836.088    7279.9092   -84115.997    4637.1939 
   92500    290.21119   -79.388673    274733.93    -76856.98    7365.1585   -84222.139    4643.3614 
   92550    288.67488   -53.758551    274656.06   -76869.243    7326.1692   -84195.412    4645.7117 
   92600    291.58146   -229.87964    274236.59   -76900.643    7399.9341   -84300.577    4643.9133 
   92650    284.28039     312.1543    273762.62   -76880.123    7214.6431   -84094.766    4640.3416 
   92700    292.88981    363.38136    274019.65   -76883.068    7433.1383   -84316.206    4643.4634 
   92750    287.58793    -200.9805    274763.11   -76935.012    7298.5839   -84233.595    4653.8171 
   92800    286.39868   -256.48301     274865.8   -76926.819    7268.4023   -84195.221    4657.8939 
   92850    286.00206   -117.09883       274560   -76904.717    7258.3366   -84163.054    4655.1649 
   92900    289.56018    2.9499654    274205.96   -76917.703    7348.6367   -84266.339    4654.6273 
   92950    287.90532     35.66471    274134.37   -76901.655    7306.6388   -84208.294    4658.0062 
   93000    287.69978   -48.597772    274565.41   -76863.562    7301.4225   -84164.984    4666.1809 
   93050    291.12579   -555.21874     275074.4   -76840.508    7388.3699   -84228.878    4676.0642 
   93100    293.56915    7.4307812    274626.65   -76810.521     7450.379     -84260.9    4670.5904 
   93150    289.10604    438.73948    274159.88   -76825.828    7337.1113    -84162.94    4663.9255 
   93200    288.26058   -82.781195    274603.55   -76797.587    7315.6548   -84113.242    4673.1712 
   93250     289.6239   -236.94686    274998.57   -76773.715    7350.2539   -84123.969    4681.2886 
   93300    285.03013   -10.773628     275125.1   -76797.513    7233.6705   -84031.183    4680.3878 
   93350    284.04945    252.72315    274812.02   -76835.207    7208.7821   -84043.989     4675.893 
   93400     290.7392    -6.171782    274416.01   -76846.624    7378.5588   -84225.183    4670.6569 
   93450     291.1301    338.75429     274106.6   -76843.783    7388.4793   -84232.262    4668.8592 
   93500    292.50793   -217.49392     274454.6   -76834.516    7423.4467   -84257.963    4675.5627 
   93550    283.37569   -6.5137497    274654.47   -76820.365    7191.6831   -84012.048    4680.1998 
   93600    286.11965    59.497326    274910.01   -76788.161    7261.3208   -84049.482    4684.1581 
   93650     288.5037    -107.7539    274965.37   -76797.559    7321.8249   -84119.384    4684.7723 
   93700    291.35091   -99.431808    274588.66   -76791.363     7394.083   -84185.446    4680.9407 
   93750    290.96608    335.63095     273897.3   -76779.446    7384.3165   -84163.762     4676.494 
   93800     294.9561   -18.887221    273976.93   -76774.307    7485.5777   -84259.884    4680.9392 
   93850    292.71317   -269.17221    274491.64   -76780.509    7428.6554   -84209.165    4690.0174 
   93900    287.87272   -302.62265    274641.43   -76762.966    7305.8114   -84068.778     4695.769 
   93950    289.70627    81.959373    274429.18   -76765.108    7352.3443   -84117.452    4694.2181 
   94000    291.65183    42.268903    274341.89   -76751.317      7401.72   -84153.037    4696.0891 
   94050     292.7888    84.600038    274474.84   -76715.312    7430.5746   -84145.887    4697.4983 
   94100    293.57886   -39.692707    274724.73   -76736.828    7450.6254   -84187.453    4701.7339 
   94150    294.32675   -162.24193    274874.25   -76723.071    7469.6058   -84192.677     4704.649 
   94200    286.28047   -227.19253    274760.18   -76713.211    7265.4024   -83978.613    4705.2055 
   94250    293.00572    93.457743    274239.11   -76693.773    7436.0798   -84129.853    4699.5571 
   94300    296.91691    302.04722    274130.24   -76667.853    7535.3404   -84203.194    4698.7795 
   94350      298.659   -65.984657    274468.29   -76686.702    7579.5522   -84266.255    4707.7904 
   94400    290.45588    -129.4518    275126.12   -76708.498    7371.3685   -84079.867    4719.0472 
   94450       289.52    -184.4148    275360.87   -76700.903    7347.6172    -84048.52    4726.0498 
   94500    289.90565   -46.736822     274610.4   -76679.859    7357.4043   -84037.263    4719.5939 
   94550    294.71089    396.94178    273728.76   -76720.253    7479.3548   -84199.608    4714.1565 
   94600    291.03915    1.3769439     274166.3   -76710.262    7386.1711   -84096.433    4719.3437 
   94650    285.40804   -180.42174    274977.48   -76672.784    7243.2612   -83916.046    4728.9984 
   94700    291.16523   -244.54493    275217.68   -76629.598    7389.3707   -84018.968    4730.7625 
   94750    288.83071    19.573098    274994.17   -76676.789    7330.1239   -84006.913      4732.53 
   94800    293.65927    357.25115    274521.69   -76694.299     7452.666   -84146.965    4728.1736 
   94850    289.65755   -2.3249106    274526.73   -76710.887     7351.108   -84061.995    4730.3633 
   94900    287.63912   -259.68911    274683.47   -76705.011    7299.8831   -84004.894    4733.5171 
   94950    285.34773   -129.14305    274702.03   -76748.033    7241.7308   -83989.764    4733.7295 
   95000    291.13755    -6.902717    274541.39   -76762.317    7388.6684   -84150.985    4734.0841 
   95050    291.39049    -156.8392    274429.15   -76727.238    7395.0876   -84122.326    4735.8883 
   95100    287.81708    185.08065    274360.38   -76742.899    7304.3994   -84047.299    4736.3054 
   95150    294.05695   -44.057768       274684    -76765.52    7462.7585   -84228.278    4745.6765 
   95200     285.7266    90.157817    274787.48   -76755.049    7251.3459   -84006.395    4752.6016 
   95250    291.66768   -111.88092    274839.93   -76747.985    7402.1224   -84150.107    4756.7461 
   95300    292.17384    135.75813    274878.73   -76793.097    7414.9678   -84208.065    4760.3516 
   95350    287.91512   -142.64445    274946.16   -76805.012    7306.8876   -84111.899    4763.9897 
   95400    294.08807      179.322    274737.47   -76762.863    7463.5483   -84226.412    4766.0743 
   95450    289.97468   -196.24889    274463.07   -76779.978    7359.1564   -84139.134    4765.0347 
   95500    287.01266    197.42829    274236.57   -76773.308    7283.9843   -84057.292    4760.8232 
   95550    295.35121    6.1511625    274244.84   -76787.897    7495.6052   -84283.502    4759.8963 
   95600    289.60393   -12.224878    274449.14   -76789.702    7349.7473   -84139.449    4763.4069 
   95650    288.39861   -73.294362     274563.6   -76822.323    7319.1578   -84141.481    4765.7396 
   95700    288.32359   -89.215986    274732.28   -76801.299    7317.2538   -84118.553    4766.9125 
   95750    293.76891    -240.8933    274626.99   -76800.336    7455.4486   -84255.784    4765.5963 
   95800    293.72577    155.91318    274133.04   -76826.792    7454.3537   -84281.146    4759.3171 
   95850    289.34551   -88.510672    274051.47   -76811.366    7343.1887   -84154.554    4760.0057 
   95900    288.66047    63.779136    274197.67   -76814.913    7325.8034   -84140.717    4765.3461 
   95950    296.36538    223.14775    274350.89   -76806.907    7521.3434    -84328.25    4768.2097 
   96000    290.88811     -8.03173    274412.89   -76810.178    7382.3378   -84192.516    4769.7062 
   96050    287.92089    124.49496    274528.54    -76789.56     7307.034   -84096.594     4775.318 
   96100    286.54451   -30.701036    274876.24   -76717.513    7272.1033   -83989.616     4785.613 
   96150    293.75382    100.82537    274880.15   -76745.655    7455.0656   -84200.721    4785.4271 
   96200    291.84548     4.060906    274621.33    -76704.44    7406.6346   -84111.074    4787.4032 
   96250    294.58892    116.05639    274248.07   -76693.642    7476.2594   -84169.901    4783.9661 
   96300    292.83233    437.64178    274365.18    -76698.14    7431.6794    -84129.82    4787.0405 
   96350    288.73333     15.32243    274851.37   -76707.277    7327.6525   -84034.929    4795.3852 
   96400    289.49904   -158.28221    275045.17   -76741.494    7347.0851   -84088.579    4800.8887 
   96450    289.97807    162.70835    274667.61     -76705.2    7359.2423   -84064.442    4799.3868 
   96500    294.38555   -137.59593    274402.44   -76710.773     7471.098   -84181.871     4793.918 
   96550    293.05564    138.42565    274416.73   -76706.705    7437.3467   -84144.051    4796.3476 
   96600    287.41051    163.39822    274580.17   -76693.168    7294.0811   -83987.249    4799.4069 
   96650    293.02378   -242.39608    274826.16   -76741.125    7436.5383   -84177.664    4803.0627 
   96700    286.10621   -185.57568    275194.52   -76734.877    7260.9799   -83995.857    4809.4543 
   96750    294.22952    38.668686    275042.08   -76718.338    7467.1381   -84185.477    4808.5387 
   96800    294.34375    75.940277    274568.19   -76724.692    7470.0372   -84194.729    4798.5854 
   96850    292.93677    121.58888    274170.71   -76767.202    7434.3301   -84201.532    4794.6215 
   96900    294.39064    157.98123     274369.3   -76722.444    7471.2272   -84193.671    4799.2685 
   96950    291.38777    103.51857    274898.88   -76735.023    7395.0186   -84130.042    4812.0629 
   97000     288.4284   -308.98821    275146.43   -76739.466    7319.9137    -84059.38    4820.4352 
   97050    293.33318   -296.30104    275072.12   -76730.751    7444.3903   -84175.142    4822.9131 
   97100    292.68898    18.302123    274678.56   -76769.776    7428.0414   -84197.817    4825.0587 
   97150    291.67275    16.702561    274302.74   -76774.897     7402.251   -84177.148     4823.509 
   97200    294.90318    61.745323    274281.37   -76769.276    7484.2348   -84253.511    4828.0416 
   97250    286.80933   -96.206844    274770.58   -76772.455     7278.824   -84051.279    4839.5514 
   97300    286.84146    -99.46292    275078.37   -76798.304    7279.6394   -84077.944      4848.59 
   97350     285.3052   -218.56373    274868.49   -76815.085    7240.6512   -84055.736    4847.8122 
   97400    294.69741    247.78847    274351.85   -76841.749    7479.0127   -84320.761     4845.257 
   97450     287.7104   -25.760176    274289.83    -76858.25     7301.692   -84159.942    4844.2098 
   97500    286.28758    -5.590625    274556.89   -76859.227    7265.5828   -84124.809     4853.226 
   97550    284.83564   -100.62646    274776.22   -76820.625    7228.7347    -84049.36    4857.2246 
   97600    296.74505   -206.66295    274780.45   -76804.096    7530.9788   -84335.075    4859.9515 
   97650    290.22027   -378.57154    274707.71   -76792.201    7365.3889    -84157.59    4860.2802 
   97700    292.28246   -156.77962    274518.34    -76790.95    7417.7246   -84208.675    4859.9449 
   97750    288.93157   -120.42606    274609.58   -76791.517    7332.6835   -84124.201     4863.914 
   97800    292.06885    -202.1358    274723.07   -76831.174    7412.3033   -84243.477    4867.8372 
   97850    291.14227   -26.983461    274473.69   -76865.379     7388.788   -84254.167    4870.4353 
   97900    288.11667      137.184    274361.24   -76907.357    7312.0026    -84219.36    4871.7526 
   97950    288.93771    70.814714    274309.18   -76860.221    7332.8394    -84193.06    4871.8027 
   98000    285.81249   -70.551875    274404.96    -76883.45    7253.5257   -84136.975    4874.3151 
   98050    288.74088   -12.775641    274528.61   -76877.487    7327.8441   -84205.331    4878.2742 
   98100    285.56109    136.69497    274303.99   -76895.686    7247.1456   -84142.832    4881.6223 
   98150    291.32859   -9.8676633    274271.04   -76906.408    7393.5168   -84299.924    4883.1311 
   98200    287.39066   -38.877761    274274.76   -76925.612    7293.5774   -84219.189    4888.0109 
   98250     286.7153    171.63076    274211.92    -76911.55    7276.4378   -84187.988    4890.0295 
   98300    287.72555   -103.65029     274391.8   -76945.985    7302.0764   -84248.061    4891.5114 
   98350    290.24342   -45.886085    274477.41   -76951.663    7365.9766   -84317.639    4893.8248 
   98400     288.2741  0.068855681    274450.33   -76919.408     7315.998   -84235.406    4899.0229 
   98450    287.93003   -138.63546    274486.47   -76889.616    7307.2658   -84196.882    4904.8556 
   98500     290.2863    87.708165    274503.81   -76905.135    7367.0648     -84272.2    4908.6187 
   98550    287.36537   -26.280885    274593.16   -76926.766    7292.9357   -84219.702    4914.2518 
   98600    288.53834   -65.303954    274427.32   -76940.846     7322.704    -84263.55    4916.2311 
   98650    287.10112    156.99418    274315.33    -76934.18    7286.2293   -84220.409    4918.9238 
   98700    283.24678    73.043176    274732.94   -76917.611    7188.4114   -84106.022    4926.6021 
   98750    284.63795   -119.21743    275059.99   -76900.093    7223.7174   -84123.811    4932.6138 
   98800    288.58136   -23.829535    274927.72    -76907.58    7323.7957   -84231.376    4935.4636 
   98850    288.92812    5.1326815    274322.02   -76887.015     7332.596   -84219.611    4931.3107 
   98900    287.71687    395.44977    273840.78   -76895.961    7301.8563   -84197.818    4924.5777 
   98950    290.14074    65.780525    274014.19   -76878.147    7363.3706   -84241.517    4928.1319 
   99000    288.96341    206.78905    274408.58    -76864.92    7333.4917   -84198.412    4936.5585 
   99050    291.77714   -77.521125     274969.9   -76869.087    7404.9003   -84273.987      4947.71 
   99100     288.6475   -116.98041    275188.67   -76879.156    7325.4742    -84204.63    4949.0219 
   99150    289.15064    21.784475    274569.97   -76885.604    7338.2432   -84223.847    4943.8643 
   99200    286.97839    330.54727    273800.05   -76899.642    7283.1147   -84182.756    4939.6303 
   99250    290.04942    85.980698    273796.69   -76934.473    7361.0531   -84295.526    4945.1836 
   99300    286.39927     85.14455    274243.47   -76967.732    7268.4174   -84236.149     4952.864 
   99350    286.48386   -411.66374    274956.47   -76987.232     7270.564   -84257.796    4963.7189 
   99400    288.86396   -408.72611    275002.22    -76958.77    7330.9678   -84289.738    4965.2458 
   99450    286.18328   -314.28507    274528.45   -76956.282    7262.9358   -84219.218    4962.1224 
   99500     286.0409    256.33685    274038.19   -76985.558    7259.3223    -84244.88    4956.3191 
   99550    293.89648    39.630786    274111.55     -76940.8    7458.6861   -84399.486    4959.0971 
   99600     288.2439   -130.39653    274401.16   -76940.187    7315.2316   -84255.419    4966.0821 
   99650    287.78168   -153.79163    274660.35   -76945.219     7303.501    -84248.72    4971.7512 
   99700    286.85189    98.554968    274576.38   -76932.406    7279.9042   -84212.311     4974.346 
   99750    291.30965    280.68172    274179.68   -76942.188    7393.0361   -84335.224    4974.0105 
   99800    291.73883   -130.17225    274103.74   -76930.437    7403.9278   -84334.365    4972.6494 
   99850    286.43015    -351.8272    274163.78   -76919.154    7269.2009   -84188.355    4973.4438 
   99900    288.03135    100.24549    274147.51   -76941.057    7309.8371   -84250.894    4975.2289 
   99950    286.14727   -145.83824    274483.12   -76925.082    7262.0218   -84187.104    4981.5629 
  100000    284.97682   -25.898881    274702.26   -76882.884    7232.3175   -84115.201    4984.5819 
Loop time of 253.507 on 6 procs for 100000 steps with 8515 atoms

Performance: 340.819 ns/day, 0.070 hours/ns, 394.466 timesteps/s
99.4% CPU use with 6 MPI tasks x no OpenMP threads

MPI task timing breakdown:
Section |  min time  |  avg time  |  max time  |%varavg| %total
---------------------------------------------------------------
Pair    | 72.175     | 129.63     | 197.23     | 449.9 | 51.13
Neigh   | 32.085     | 37.838     | 42.26      |  67.0 | 14.93
Comm    | 8.043      | 79.688     | 142.92     | 616.5 | 31.43
Output  | 0.14488    | 0.14768    | 0.15946    |   1.4 |  0.06
Modify  | 5.1095     | 5.155      | 5.2078     |   1.4 |  2.03
Other   |            | 1.047      |            |       |  0.41

Nlocal:        1419.17 ave        1457 max        1391 min
Histogram: 2 0 0 0 2 1 0 0 0 1
Nghost:        2024.17 ave        2045 max        1999 min
Histogram: 2 0 0 0 0 1 0 0 2 1
Neighs:        0.00000 ave           0 max           0 min
Histogram: 6 0 0 0 0 0 0 0 0 0
FullNghs:      39607.7 ave       40411 max       39023 min
Histogram: 1 0 2 0 1 1 0 0 0 1

Total # of neighbors = 237646
Ave neighs/atom = 27.909102
Neighbor list builds = 21637
Dangerous builds = 0

# Create data file for import to other simulations
#
write_data data.${NAME}
write_data data.coexist_289K_1atm_ML
System init for write_data ...

Total wall time: 0:04:13
