
# Create simulation box of size 50 x 50 x 50 Angstrom
#
lattice	            sc 1
Lattice spacing in x,y,z = 1.0000000 1.0000000 1.0000000
region 	            all block 0 ${X} ${YZ_LO} ${YZ_HI} ${YZ_LO} ${YZ_HI} units box
region 	            all block 0 53.4 ${YZ_LO} ${YZ_HI} ${YZ_LO} ${YZ_HI} units box
region 	            all block 0 53.4 -0.03342872767548144.0 ${YZ_HI} ${YZ_LO} ${YZ_HI} units box
region 	            all block 0 53.4 -0.03342872767548144.0 50.94054872767644.0 ${YZ_LO} ${YZ_HI} units box
region 	            all block 0 53.4 -0.03342872767548144.0 50.94054872767644.0 -0.03342872767548144.0 ${YZ_HI} units box
region 	            all block 0 53.4 -0.03342872767548144.0 50.94054872767644.0 -0.03342872767548144.0 50.94054872767644.0 units box
create_box          1 all
Created orthogonal box = (0.0000000 -0.033428728 -0.033428728) to (53.400000 50.940549 50.940549)
  3 by 1 by 2 MPI processor grid

# fill box with 4175 randomly distributed atoms
#
create_atoms        1 random 4608 63782 all
Created 4608 atoms
  create_atoms CPU = 0.001 seconds
mass                1 18.015

# Define potential
#
pair_style          sw
pair_coeff          * * /data/emrosky-sim/Freezing_Simulations/Melting/MLmW_fancy/ML_mW.sw mW
Reading sw potential file /data/emrosky-sim/Freezing_Simulations/Melting/MLmW_fancy/ML_mW.sw with DATE: 2019-02-27

# Run minimization
#
minimize            1.0e-8 1.0e-8 10000 1000
WARNING: Using 'neigh_modify every 1 delay 0 check yes' setting during minimization (../min.cpp:187)
Neighbor list info ...
  update every 1 steps, delay 0 steps, check yes
  max neighbors/atom: 2000, page size: 100000
  master list distance cutoff = 6.0032907
  ghost atom cutoff = 6.0032907
  binsize = 3.0016454, bins = 18 17 17
  1 neighbor lists, perpetual/occasional/extra = 1 0 0
  (1) pair sw, perpetual
      attributes: full, newton on
      pair build: full/bin/atomonly
      stencil: full/bin/3d
      bin: standard
Per MPI rank memory allocation (min/avg/max) = 4.234 | 4.248 | 4.253 Mbytes
Step Temp E_pair E_mol TotEng Press 
       0            0      7238782            0      7238782    4958674.4 
     663            0   -49879.544            0   -49879.544   -504.07429 
Loop time of 1.28192 on 6 procs for 663 steps with 4608 atoms

98.8% CPU use with 6 MPI tasks x no OpenMP threads

Minimization stats:
  Stopping criterion = max force evaluations
  Energy initial, next-to-last, final = 
      7238781.97686446  -49879.0804462369  -49879.5436276421
  Force two-norm initial, final = 1.6635616e+08 5.7112123
  Force max component initial, final = 88485068.0 1.6868143
  Final line search alpha, max atom move = 0.037279376 0.062883385
  Iterations, force evaluations = 663 1001

MPI task timing breakdown:
Section |  min time  |  avg time  |  max time  |%varavg| %total
---------------------------------------------------------------
Pair    | 0.99736    | 1.0759     | 1.1682     |   5.6 | 83.93
Neigh   | 0.029249   | 0.030168   | 0.030899   |   0.4 |  2.35
Comm    | 0.061983   | 0.15447    | 0.23356    |  15.0 | 12.05
Output  | 0          | 0          | 0          |   0.0 |  0.00
Modify  | 0          | 0          | 0          |   0.0 |  0.00
Other   |            | 0.02134    |            |       |  1.66

Nlocal:        768.000 ave         788 max         753 min
Histogram: 2 0 0 0 1 1 1 0 0 1
Nghost:        1564.50 ave        1579 max        1544 min
Histogram: 1 0 0 0 1 1 0 2 0 1
Neighs:        0.00000 ave           0 max           0 min
Histogram: 6 0 0 0 0 0 0 0 0 0
FullNghs:      21889.3 ave       23041 max       21137 min
Histogram: 2 0 0 1 1 1 0 0 0 1

Total # of neighbors = 131336
Ave neighs/atom = 28.501736
Neighbor list builds = 29
Dangerous builds = 0

# Add velocity/set timestep
#
velocity            all create ${TEMP} 120598 rot yes dist gaussian
velocity            all create 289 120598 rot yes dist gaussian
timestep            5.0

# Define output
#
compute	            1 all msd
thermo	            100
thermo_style        custom step temp press vol etotal ke pe c_1[4] density

# Neighbor lists
#
neigh_modify        delay 0 every 1 check yes

# Set fixes
#
fix                 1 all momentum 10 linear 1 1 1 rescale
fix                 2 all nve
fix                 3 all temp/csvr ${TEMP} ${TEMP} 500.0 928347
fix                 3 all temp/csvr 289 ${TEMP} 500.0 928347
fix                 3 all temp/csvr 289 289 500.0 928347
fix                 4 all press/berendsen iso ${PRES} ${PRES} 1000.0 modulus 20000
fix                 4 all press/berendsen iso 1 ${PRES} 1000.0 modulus 20000
fix                 4 all press/berendsen iso 1 1 1000.0 modulus 20000

# Run 0.5 ns equilibration
#
dump                1 all custom 1000 eq.${NAME}.dump id type x y z vx vy vz
dump                1 all custom 1000 eq.liq_289K_1atm_ML.dump id type x y z vx vy vz
run                 100000
Per MPI rank memory allocation (min/avg/max) = 3.484 | 3.499 | 3.503 Mbytes
Step Temp Press Volume TotEng KinEng PotEng c_1[4] Density 
     663          289    803.43537     138751.7   -45910.825    3968.7191   -49879.544            0   0.99347626 
     700    148.99827   -117.72545     139331.1   -45206.438    2046.1325    -47252.57   0.21685598   0.98934495 
     800    211.24666   -29.759302     139153.6   -43883.203    2900.9642   -46784.167   0.71078931   0.99060688 
     900    234.70012    4.6668558    139052.87   -43091.449     3223.041    -46314.49    1.2905462   0.99132449 
    1000    251.64645   -283.86418    139075.97   -42510.537     3455.758   -45966.295    2.0359759   0.99115986 
    1100    265.94571    282.42844    139254.63   -42067.176    3652.1239     -45719.3    2.8236983   0.98988823 
    1200    278.68195   -58.657766    139170.14   -41787.116    3827.0255   -45614.142    3.6923955   0.99048917 
    1300    284.50718   -54.776857    138830.31   -41539.762     3907.021   -45446.783    4.6981034   0.99291371 
    1400    279.79074    71.558735    139029.76    -41493.39     3842.252   -45335.642    5.7169698   0.99148929 
    1500    287.57007   -227.35178    138846.88   -41363.204    3949.0824   -45312.286    6.6853088   0.99279523 
    1600    286.55543   -123.25462     138581.5   -41329.504    3935.1488   -45264.653    7.8853368    0.9946964 
    1700    286.11452    189.01688    138628.64   -41323.517    3929.0939   -45252.611    8.9650438   0.99435815 
    1800    287.64882    6.0240546    138230.39   -41285.675    3950.1638   -45235.839    10.035487   0.99722293 
    1900    282.91858   -59.217697    138059.43   -41231.723    3885.2054   -45116.928    11.331595   0.99845784 
    2000    289.22852    99.971962    138231.36   -41139.445    3971.8572   -45111.302     12.49761   0.99721597 
    2100    286.56961   -87.886216    138345.58    -41236.59    3935.3435   -45171.934    13.600265   0.99639262 
    2200    284.41468    140.32569    138308.47   -41230.755    3905.7507   -45136.506    14.754243   0.99665994 
    2300    288.75903   -137.56899    138359.93   -41144.584      3965.41   -45109.994    15.979255   0.99628928 
    2400    291.37793    14.203033    138533.06   -41191.304    4001.3741   -45192.678    16.909291   0.99504416 
    2500    290.06674    27.088946    138387.23   -41183.264    3983.3682   -45166.632     17.97709   0.99609279 
    2600    293.77947   -254.53525    138582.06   -41058.638    4034.3535   -45092.992    19.174493   0.99469237 
    2700     292.5982   -38.569762     138384.4   -41148.669    4018.1317   -45166.801    20.365573   0.99611315 
    2800     292.2124    219.84279    138548.33   -41219.015    4012.8337   -45231.848    21.667756   0.99493455 
    2900     286.3562   -30.928978    138783.62   -41208.212    3932.4128   -45140.624    22.819329   0.99324771 
    3000    291.33033   -213.71361    138529.68   -41176.118    4000.7205   -45176.839    23.901924   0.99506844 
    3100     287.6332    68.249912    138542.15   -41159.033    3949.9493   -45108.982    25.101799   0.99497893 
    3200    291.06234   -22.959532     138350.3   -41154.812    3997.0403   -45151.852     26.31513   0.99635865 
    3300    290.53149    260.43917    138199.27   -41151.209    3989.7504   -45140.959     27.53258   0.99744753 
    3400    289.65123    143.02903       138380   -41156.017    3977.6621    -45133.68    28.838636   0.99614477 
    3500     289.0049   -178.75726    138104.51   -41056.164    3968.7864    -45024.95    30.109048   0.99813192 
    3600    289.36389   -50.368127    137903.91    -41113.02    3973.7163   -45086.737    31.170306   0.99958382 
    3700    285.62272    79.839052    138031.09   -41126.559    3922.3403   -45048.899    32.305578   0.99866279 
    3800    292.62984   -352.57951    137868.59   -41114.388    4018.5662   -45132.954    33.534916   0.99983988 
    3900    287.60997    48.976472    138134.06   -41258.013    3949.6303   -45207.643    34.985354    0.9979184 
    4000    284.46872    65.779012       137753   -41235.722    3906.4929   -45142.215    36.031872    1.0006788 
    4100    288.96642     80.75171    137759.82    -41142.51     3968.258   -45110.767    37.213007    1.0006293 
    4200    287.70753   -87.344766    138001.12   -41155.318    3950.9701   -45106.288     38.24364   0.99887972 
    4300    288.63821   -142.12974    138001.97   -41113.612    3963.7508   -45077.362    39.338139   0.99887354 
    4400    290.79824   -211.03511    138075.23   -41124.231    3993.4135   -45117.644    40.466667   0.99834356 
    4500    289.04566   -217.17595    137679.54   -41120.103    3969.3461   -45089.449    41.556121    1.0012128 
    4600    291.29659   -133.78969    137807.13   -41137.998    4000.2572   -45138.255    42.768016    1.0002858 
    4700    285.38821   -16.341224    137992.92   -41188.671    3919.1199   -45107.791     43.78046   0.99893906 
    4800    284.65427    265.25586    137947.95   -41143.222     3909.041   -45052.263    44.946684   0.99926472 
    4900    288.81848    110.89095    137897.01   -41147.544    3966.2263    -45113.77    46.256808   0.99963381 
    5000    293.20261    175.15351     138070.6   -41157.852    4026.4318   -45184.284    47.638516   0.99837702 
    5100    286.56546    -72.42703    138045.55   -41186.762    3935.2865   -45122.048    48.692267   0.99855818 
    5200    289.06313   -127.87263    138280.24   -41238.465     3969.586   -45208.051    49.794184   0.99686347 
    5300     289.5445   -138.76434    138228.05   -41233.453    3976.1965   -45209.649    50.793054   0.99723986 
    5400    285.41086   -50.487769    138197.37   -41128.293    3919.4309   -45047.723    51.882319   0.99746123 
    5500    290.75353   -121.64621     138069.4   -41081.763    3992.7996   -45074.562    53.123537   0.99838573 
    5600    293.00519   -99.574428    138015.25   -41012.245    4023.7207   -45035.966    53.957478   0.99877744 
    5700     291.6274    77.353557    138190.86   -41045.514       4004.8   -45050.314    55.438589   0.99750824 
    5800    288.25152    212.03605    137908.95    -41019.44    3958.4405   -44977.881    56.741017   0.99954727 
    5900    286.87657    12.054877    137729.25   -41224.543    3939.5588   -45164.101    57.740967    1.0008514 
    6000    289.47528   -201.05046    137701.93   -41264.001    3975.2459   -45239.247    59.148598      1.00105 
    6100    287.41305   -385.90475       137882   -41197.058    3946.9262   -45143.984    60.092862   0.99974269 
    6200    288.03151    41.397169    137651.02   -41225.748    3955.4192   -45181.168    60.922022    1.0014202 
    6300     288.5461   -25.780365    137923.23   -41204.899    3962.4858   -45167.385     61.95162   0.99944379 
    6400    287.79351    216.49669    138197.12   -41231.641    3952.1508   -45183.791    62.953292   0.99746304 
    6500    291.54501    92.261903     138099.1   -41230.824    4003.6687   -45234.493    64.280463   0.99817101 
    6600    289.65443   -73.681441    138277.54   -41294.448     3977.706   -45272.154    65.444773   0.99688294 
    6700    285.82759   -58.891771    138194.49   -41303.386    3925.1537    -45228.54    66.876141   0.99748202 
    6800    283.49034    265.13638    138133.94   -41362.554    3893.0571   -45255.611    68.054543   0.99791922 
    6900    289.01119   -137.48334    138073.25   -41275.957    3968.8727    -45244.83    69.337841   0.99835784 
    7000    282.50488    89.689702    137687.55    -41132.29    3879.5243   -45011.815    70.176346    1.0011545 
    7100     288.2265   -37.306015    137850.45   -41241.729    3958.0969   -45199.826    71.527912   0.99997149 
    7200    287.19594   -86.799093    138024.21   -41276.578    3943.9447   -45220.523    73.028268   0.99871259 
    7300    281.32357    39.289262    137843.96   -41271.095    3863.3017   -45134.397    74.272577    1.0000186 
    7400    283.89387    -218.5498    137519.62    -41318.33    3898.5987   -45216.929    75.149095    1.0023771 
    7500    293.74789    192.70079    137436.57   -41202.501      4033.92   -45236.421    76.189659    1.0029828 
    7600    294.04056     72.57731    137413.49   -41208.995    4037.9391   -45246.934    77.136996    1.0031512 
    7700    287.93463   -162.47992    137659.45   -41162.316    3954.0888   -45116.405    78.181932    1.0013589 
    7800    285.53961    234.92839    137724.84    -41205.14    3921.1989   -45126.339    79.275877    1.0008835 
    7900    283.35085   -213.33692    137712.42    -41312.34    3891.1416   -45203.482    80.655415    1.0009737 
    8000    284.36702   -22.536293    137856.84   -41301.058    3905.0962   -45206.154    81.692129   0.99992509 
    8100    289.77196   -332.91156    137664.78   -41192.575    3979.3201   -45171.895    82.947998    1.0013202 
    8200    288.71046   -28.606997    137822.28   -41223.696    3964.7429   -45188.439    84.551576    1.0001759 
    8300    287.74037     182.3521    137646.47   -41149.999    3951.4211    -45101.42    86.105049    1.0014533 
    8400    283.83046    -112.1497    137573.26   -41234.227    3897.7278   -45131.955    87.336495    1.0019863 
    8500    285.29372    53.095671    137611.11   -41234.539    3917.8222   -45152.361    88.817737    1.0017107 
    8600    288.81344    182.91717    137841.75   -41213.377    3966.1571   -45179.534      90.4193    1.0000346 
    8700    296.01278    250.11404    137843.54   -41195.678    4065.0228   -45260.701    91.522243    1.0000216 
    8800     292.5508    37.525943    137689.41   -41170.074    4017.4807   -45187.555    92.809643     1.001141 
    8900    284.28577   -160.12856    138033.03   -41197.574    3903.9805   -45101.555    93.935434   0.99864879 
    9000     287.8575    121.33633    138194.73   -41066.913    3953.0295   -45019.942    95.372928    0.9974803 
    9100    289.30795    145.52595    138345.12   -41118.958    3972.9481   -45091.906    97.133831   0.99639594 
    9200    293.31372    83.699275    138456.29   -41181.301    4027.9576   -45209.258    98.501937   0.99559588 
    9300    297.07205   -168.79287    138577.54   -41174.055    4079.5692   -45253.624     99.66965   0.99472479 
    9400    287.39873   -73.561319    138580.16    -41257.89    3946.7295   -45204.619    100.62306     0.994706 
    9500    285.65398    65.211078    138173.62   -41303.709    3922.7695   -45226.479    101.16865   0.99763263 
    9600    285.43213   -104.67865     138132.2   -41307.293     3919.723   -45227.016     102.1184   0.99793184 
    9700     284.8137    398.96883    138583.35   -41258.703    3911.2304   -45169.934    103.39419   0.99468309 
    9800    289.27252   -96.003297    138630.66   -41228.053    3972.4614   -45200.514    104.37694   0.99434365 
    9900     290.3466   -17.584948    138387.89    -41190.94    3987.2113   -45178.151    105.43614   0.99608801 
   10000    283.69144   -290.19421    138062.11   -41320.272    3895.8188   -45216.091    106.55014   0.99843843 
   10100    284.02428    134.56718    137783.61   -41269.991    3900.3895   -45170.381    107.59095    1.0004566 
   10200    285.75552   -165.57958    137814.17   -41301.899    3924.1639   -45226.063    108.80498    1.0002347 
   10300    291.56837   -130.81364    137854.67   -41251.357    4003.9894   -45255.346    109.92364   0.99994086 
   10400    284.53531    19.107907     137802.4   -41177.641    3907.4073   -45085.048    111.50352    1.0003201 
   10500    292.76642   -139.19146    137607.74   -41164.538    4020.4417    -45184.98    112.85813    1.0017352 
   10600    288.38939    133.76713    137771.91   -41167.691    3960.3338   -45128.025    114.53809    1.0005415 
   10700    289.60465    338.57433    137732.07   -41163.339    3977.0225   -45140.361    115.36203    1.0008309 
   10800    295.18046    265.63833    137804.57   -41129.106    4053.5928   -45182.699    116.69462    1.0003044 
   10900    293.59057    9.8258457     138148.4   -41078.062    4031.7595   -45109.821    118.00437   0.99781478 
   11000    290.74987   -198.31947    138337.01   -41080.632    3992.7494   -45073.381    119.25766   0.99645436 
   11100    294.26521   -9.2706874    138288.39   -41115.332     4041.024   -45156.356     120.3347   0.99680468 
   11200    290.48044   -51.614763    138172.35   -41134.647    3989.0494   -45123.697    121.07291   0.99764185 
   11300    287.68735   -114.95547     138348.1   -41166.221    3950.6929   -45116.914    122.30413   0.99637449 
   11400    287.75531    214.07504    138434.15   -41216.426    3951.6262   -45168.052    123.61171   0.99575513 
   11500    288.62563    88.580075    138421.94   -41307.916     3963.578   -45271.494    124.88564     0.995843 
   11600    282.24527    77.106207    138363.83   -41372.206    3875.9591   -45248.165     125.9343   0.99626124 
   11700    289.39805   -125.37012    138173.38   -41226.912    3974.1853   -45201.098    127.22614   0.99763443 
   11800    285.97962   -152.26503    138090.67   -41255.987    3927.2414   -45183.228    128.31224   0.99823193 
   11900    280.07904   -17.348583    138301.13    -41304.33    3846.2112   -45150.541    129.44331    0.9967129 
   12000    284.27296     76.03724    138390.11   -41269.221    3903.8046   -45173.026    130.58127   0.99607204 
   12100    284.98995   -139.79115    138369.12   -41229.555    3913.6507   -45143.205    131.70598   0.99622312 
   12200    291.51099    195.36238    138482.84   -41079.858    4003.2015    -45083.06    132.79508   0.99540506 
   12300    295.81318     184.3421     138697.8   -41080.348    4062.2817   -45142.629    134.30167   0.99386234 
   12400    293.06749    -275.5732    138496.91   -41047.895    4024.5763   -45072.471    135.17055    0.9953039 
   12500    288.00393   -39.056102    138620.15   -41099.936    3955.0404   -45054.976    136.82951   0.99441907 
   12600     289.1217   -8.9240198    138256.19   -41123.641    3970.3903   -45094.032    137.81435   0.99703688 
   12700    285.02077   -116.29037    138264.56   -41101.534     3914.074   -45015.608    138.96792   0.99697653 
   12800    284.94909    16.133292     138033.1   -41143.831    3913.0896    -45056.92    140.08142   0.99864828 
   12900    290.65695     146.8919    138240.29   -41121.507    3991.4732    -45112.98    141.27377   0.99715155 
   13000    287.71303   -143.48396     137962.9   -41194.543    3951.0456   -45145.588    142.34421    0.9991564 
   13100    289.88634   -44.777454    138149.53   -41142.978    3980.8908   -45123.869     143.9326   0.99780666 
   13200    291.57393    200.22721    138086.06   -41049.213    4004.0657   -45053.279    145.25134   0.99826528 
   13300    284.94793   -6.5096215    138290.44    -41068.25    3913.0737   -44981.324    146.46632   0.99678992 
   13400    291.15713    258.63702    137703.24   -41154.686     3998.342   -45153.028    147.46444    1.0010405 
   13500    285.14739    -96.16367       138147     -41140.1    3915.8128   -45055.913    148.59447   0.99782491 
   13600     291.1264   -265.75982     138145.1   -41123.384    3997.9201   -45121.304    150.22128   0.99783865 
   13700    288.16761   -309.77777    138176.35   -41176.799    3957.2882   -45134.087    151.11919   0.99761299 
   13800    287.84716    22.123012    137943.08   -41255.307    3952.8876   -45208.194    151.95241   0.99929999 
   13900    292.03024    279.03954     137792.1   -41252.707    4010.3321    -45263.04    152.30998    1.0003949 
   14000    286.73952   -333.29224    137811.54   -41368.538    3937.6768   -45306.214    152.92554    1.0002538 
   14100    286.88471    262.64467    137757.82   -41333.468    3939.6706   -45273.138    153.93618    1.0006439 
   14200    284.61213    496.04291    138050.64   -41285.685    3908.4622   -45194.147    155.56498   0.99852138 
   14300    286.05419    61.734575    138198.63   -41292.927    3928.2655   -45221.192    156.81422    0.9974521 
   14400    285.44066   -67.001016    138384.07   -41209.266      3919.84   -45129.106     158.2847   0.99611548 
   14500    283.63604   -217.50267    137809.86   -41245.012    3895.0579    -45140.07    158.70512     1.000266 
   14600    288.13662  0.049630294    137817.96    -41149.43    3956.8626   -45106.292    159.84805    1.0002072 
   14700    289.67438    229.59484    137763.49   -41144.416      3977.98   -45122.396    160.91545    1.0006027 
   14800     291.1572   -36.067531    137991.11    -41189.94     3998.343   -45188.283    162.09947   0.99895214 
   14900    290.12733    8.4081598    138293.32   -41157.137    3984.2002   -45141.338    163.68175   0.99676918 
   15000    289.09596      139.821    138491.86   -41264.125    3970.0368   -45234.162    165.38128   0.99534019 
   15100    289.94136    154.11954    138352.89   -41238.543    3981.6464   -45220.189    166.29156   0.99633999 
   15200    286.88916   -267.67964    138196.06   -41288.012    3939.7317   -45227.743    167.29118   0.99747065 
   15300    286.63515    122.26737    138277.09   -41216.419    3936.2435   -45152.663    168.24784   0.99688615 
   15400    294.60463    15.414622    138278.69   -41137.622    4045.6851   -45183.307    169.74365   0.99687465 
   15500    289.58092    57.166764    138437.32   -41177.478    3976.6966   -45154.174     171.1773   0.99573231 
   15600    291.89506    -6.816107    138820.95   -41216.893    4008.4757   -45225.369     172.5194   0.99298063 
   15700    288.32522   -108.78073    138748.63   -41230.216    3959.4526   -45189.668    173.64981   0.99349819 
   15800    286.69183   -265.61478    138431.01    -41228.21    3937.0219   -45165.232    174.01685   0.99577775 
   15900    288.17197   -121.38869     138325.1   -41202.518     3957.348   -45159.866    175.09224   0.99654014 
   16000    284.08529   -85.664614     138412.8   -41242.247    3901.2273   -45143.474    176.36224   0.99590873 
   16100    282.84756    59.006013    138216.32   -41274.154    3884.2301   -45158.385    177.51639   0.99732446 
   16200    295.69769    -209.0546    138393.35   -41103.685    4060.6957    -45164.38    178.28277   0.99604872 
   16300    292.46181    111.52557    138089.45   -41067.444    4016.2587   -45083.703    179.45709   0.99824078 
   16400    293.00798    120.43912       137992       -41032     4023.759   -45055.759    180.11245   0.99894571 
   16500    296.38127    205.17292    138205.34   -41041.134     4070.083   -45111.217    181.59454   0.99740368 
   16600    293.51755   -59.673064    137980.37   -41047.321    4030.7568   -45078.077    182.64449   0.99902993 
   16700    288.69208    107.46828    137809.93   -41150.557    3964.4906   -45115.047     183.9816    1.0002655 
   16800    288.03965     105.2483    137665.51   -41155.354    3955.5309   -45110.885    185.20511    1.0013148 
   16900    286.19007    215.91377    137888.39   -41124.137    3930.1314   -45054.269     186.6945   0.99969632 
   17000     289.4229    83.314995    137882.62   -41115.469    3974.5265   -45089.996    188.59127   0.99973818 
   17100     289.7579    26.886539    137866.85   -41121.925     3979.127   -45101.052    189.86895   0.99985252 
   17200    295.87458   -394.33484     137869.8   -41055.044    4063.1248   -45118.169    191.55372   0.99983112 
   17300    288.08217    118.97605    137914.98   -41092.645    3956.1148    -45048.76    192.88659    0.9995036 
   17400    288.95673   -72.204618    137851.27   -41097.988    3968.1248   -45066.113    194.53654   0.99996553 
   17500    290.60988    238.55257    137803.62   -41104.744    3990.8269   -45095.571    195.60447    1.0003113 
   17600    287.77175   -231.44902     137909.6   -41174.379     3951.852   -45126.231    196.85821   0.99954259 
   17700    289.13164    27.069255     138060.6   -41081.632    3970.5268   -45052.159    198.71417   0.99844935 
   17800    286.79945    2.8651954    138205.12     -41138.6    3938.4998     -45077.1    199.96641   0.99740531 
   17900    288.20201   -179.77731    138209.99   -41161.129    3957.7606    -45118.89    201.20911   0.99737015 
   18000    289.11061   -85.363116    138309.06   -41206.599     3970.238   -45176.837    201.84172   0.99665574 
   18100    288.77992    144.45618    138315.76   -41174.098    3965.6968   -45139.795    202.58297   0.99660748 
   18200    281.64382    43.582154    137754.49   -41134.291    3867.6997    -45001.99    203.71406     1.000668 
   18300    289.13806   -68.734573    137651.17   -41205.362     3970.615   -45175.977    204.76261    1.0014192 
   18400    285.10355    59.197378    137638.55   -41267.932    3915.2107   -45183.143    206.21509     1.001511 
   18500    291.37828    78.499413    137496.93   -41181.501    4001.3789    -45182.88    207.25777    1.0025425 
   18600    286.61265    133.76844    137616.74   -41188.437    3935.9346   -45124.372    208.11669    1.0016697 
   18700    293.90695     35.34138     137710.4   -41092.708    4036.1042   -45128.812    209.39986    1.0009884 
   18800    285.78428    213.81689    137998.09   -41155.772    3924.5589   -45080.331    210.39256   0.99890166 
   18900    288.61441    80.516694    138123.14   -41152.159    3963.4239   -45115.583    211.06952   0.99799731 
   19000    289.76608   -225.18037    138241.89   -41161.204    3979.2393   -45140.443    212.07698   0.99713998 
   19100    288.23874   -104.76838    138072.87   -41201.953     3958.265   -45160.218    212.68541   0.99836062 
   19200    284.63548   -91.314188    138261.61   -41121.016    3908.7829   -45029.799    213.41344   0.99699776 
   19300    290.94591   -111.02375    137987.33   -41144.309    3995.4414   -45139.751    213.87181   0.99897954 
   19400     283.8476   -76.161343    138063.81   -41180.208    3897.9633   -45078.171    214.96201   0.99842613 
   19500     289.7753    99.033967     138088.6   -41138.237    3979.3659   -45117.602    216.70815   0.99824688 
   19600    294.23833    38.612693    138323.06   -41104.117    4040.6549   -45144.772    218.63159   0.99655483 
   19700    293.10072    26.876998    138135.54   -41141.602    4025.0326   -45166.635    219.60774   0.99790766 
   19800    288.98661    158.06109    138063.84   -41194.562    3968.5351   -45163.098     220.0213   0.99842595 
   19900    288.98866    -167.8544    137985.64   -41111.565    3968.5634   -45080.128    221.25471   0.99899175 
   20000    294.97992    116.65473     137960.1   -41091.259    4050.8388   -45142.098    222.56686   0.99917673 
   20100    293.06935   -93.387889    138074.11   -41083.612    4024.6017   -45108.214    223.79009   0.99835163 
   20200    294.20414   -189.47455    137746.36   -41056.325    4040.1853    -45096.51    225.42034    1.0007271 
   20300    292.88629   -35.594433    137764.44   -41040.642     4022.088    -45062.73    226.77524    1.0005958 
   20400    293.75016    109.25364    137953.97   -41067.414    4033.9511   -45101.365    228.27792   0.99922107 
   20500    289.31225   -37.310923     138275.5   -40985.646     3973.007   -44958.653    229.65341   0.99689761 
   20600    289.33711    28.630794       138415    -41082.95    3973.3485   -45056.298    230.88826   0.99589287 
   20700    286.97514    -53.25724    138280.38   -41137.855    3940.9125   -45078.767    232.11134   0.99686242 
   20800    284.74043    76.012792    138446.41   -41173.894    3910.2241   -45084.118    233.30391   0.99566698 
   20900    290.03199   -204.55615    138244.88   -41166.846     3982.891   -45149.737    234.54192   0.99711841 
   21000    291.73907   -246.01169    138232.65   -41083.781    4006.3336   -45090.115    236.12766   0.99720661 
   21100     290.0887   -250.13591    138119.26   -41137.276    3983.6698   -45120.946    237.50957   0.99802528 
   21200    289.97094    57.075113    137721.39   -41226.334    3982.0526   -45208.386    238.70171    1.0009086 
   21300    286.72205   -8.7054575     137838.9   -41240.316     3937.437   -45177.753    239.97945    1.0000553 
   21400    289.67117    186.92382     137891.6   -41158.609     3977.936   -45136.545    240.92723   0.99967303 
   21500    285.81288    88.815465    137884.25   -41135.981    3924.9517   -45060.932    241.56102   0.99972634 
   21600    286.45697    -117.0524    138142.99    -41166.58    3933.7967   -45100.376    243.35436   0.99785385 
   21700      291.989    49.092391    137798.13   -41089.766    4009.7657   -45099.532    244.75128    1.0003511 
   21800    295.99062    -97.06263     137855.6   -41076.518    4064.7183   -45141.237    246.37803   0.99993408 
   21900    297.08335   -122.27617    138283.73   -40999.625    4079.7243   -45079.349    248.88958   0.99683831 
   22000    289.70114    110.59962    137900.44   -41069.162    3978.3476    -45047.51    250.07794   0.99960893 
   22100     294.0868    -53.19909    137805.88   -40996.942     4038.574   -45035.516     251.3326    1.0002949 
   22200    285.59426   -48.545633    137544.27     -40996.4    3921.9494   -44918.349    252.10217    1.0021975 
   22300    294.61186    36.192514    137306.41   -41034.131    4045.7845   -45079.916    252.96873    1.0039336 
   22400    290.73149   -17.336028    137390.72   -41095.513    3992.4969    -45088.01    254.30239    1.0033175 
   22500    289.66438   -169.83335     137177.8   -41157.889    3977.8427   -45135.732    255.20723    1.0048748 
   22600    288.12049    11.675307    137060.73   -41180.046    3956.6411   -45136.687    256.62163    1.0057331 
   22700    289.76165     4.534142    137491.61    -41134.23    3979.1785   -45113.408    258.34363    1.0025813 
   22800    286.75138   -2.0652572    138012.76   -41266.383    3937.8397   -45204.223    260.31664   0.99879547 
   22900    286.25445    2.0532691    138042.67   -41241.899    3931.0155   -45172.914     261.2014   0.99857901 
   23000    291.64834    54.875168    138301.22   -41143.482    4005.0877   -45148.569    262.67079   0.99671223 
   23100     291.0782   -180.19957       138480   -41156.198    3997.2581   -45153.456    264.37255   0.99542545 
   23200    288.92254   -16.323818    138622.18    -41145.88    3967.6553   -45113.535    265.99064   0.99440447 
   23300    288.88174    219.42948    138445.87   -41252.956     3967.095   -45220.051    266.87704   0.99567083 
   23400    286.78936   -155.31881    138571.27   -41215.031    3938.3613   -45153.392    267.67617   0.99476978 
   23500     289.5162   -116.31699    138456.57   -41210.401    3975.8078   -45186.209    268.06528   0.99559394 
   23600    284.68865     73.30492    138192.65   -41247.499     3909.513   -45157.012    268.79773   0.99749532 
   23700    282.60505    4.9108046     138245.3   -41282.168    3880.8998   -45163.068    269.64194   0.99711538 
   23800     286.6184   -180.91916    138069.16   -41239.956    3936.0135    -45175.97    270.18064   0.99838746 
   23900    295.79217   -64.021578    138158.04    -41139.75    4061.9932   -45201.743    271.13256   0.99774519 
   24000    289.63895     166.0595    138108.88   -41138.869    3977.4935   -45116.362    272.40559   0.99810031 
   24100    289.79765    148.15959    138260.62   -41148.007    3979.6728   -45127.679    274.60846   0.99700488 
   24200     289.3148    8.9971761    138122.41   -41076.977    3973.0421   -45050.019    275.59414   0.99800253 
   24300    291.77914    18.308852    137866.47   -41111.222    4006.8838   -45118.106    277.14172   0.99985529 
   24400    294.17128   -105.08385     138019.3   -41087.325    4039.7341   -45127.059    278.46298   0.99874815 
   24500    286.29214     66.28045    137979.86   -41109.687    3931.5331    -45041.22    278.87982    0.9990336 
   24600    286.38383   -5.2036898    137913.04    -41102.03    3932.7923   -45034.822    279.08726   0.99951762 
   24700    290.84389    3.6222401    137794.03    -41052.41    3994.0404    -45046.45    280.00697    1.0003809 
   24800    287.02954    222.14172     138385.1   -41086.191    3941.6595    -45027.85    281.54958   0.99610811 
   24900    287.74589    259.08583    138480.41   -41161.098    3951.4969   -45112.594    282.78456   0.99542252 
   25000    289.82088   -211.51142    138090.99   -41167.588    3979.9919    -45147.58    284.46679   0.99822962 
   25100    289.00665   -188.67404    138022.46   -41183.799    3968.8103   -45152.609    285.27315   0.99872523 
   25200    289.12719    49.434821    138193.48   -41230.418    3970.4657   -45200.884    286.55599   0.99748931 
   25300    282.95428   -88.780444    138495.08   -41270.416    3885.6956   -45156.112     287.7177   0.99531708 
   25400    290.24479    177.47177     138431.2   -41224.574    3985.8132   -45210.387     288.4956   0.99577633 
   25500    287.07239    -13.30574    138336.93   -41244.624     3942.248   -45186.872    289.52335   0.99645492 
   25600    287.27929   -83.855075    138376.65   -41284.863    3945.0893   -45229.952    290.59554    0.9961689 
   25700     287.7709   -34.994102    138252.53   -41276.039    3951.8403   -45227.879    290.74098   0.99706323 
   25800    279.80097   -62.169253     138241.7   -41332.418    3842.3925   -45174.811    291.68854   0.99714135 
   25900     281.9861    127.22635    138314.26   -41391.538       3872.4   -45263.939    293.03352   0.99661823 
   26000      285.742   -33.118027    138150.96    -41254.46    3923.9783   -45178.438    294.18359   0.99779632 
   26100    287.09872   -5.7374488    137885.81   -41217.059    3942.6095   -45159.669    295.05999   0.99971501 
   26200    286.25341   -58.120038    137936.03    -41114.14    3931.0013   -45045.141    296.27226   0.99935102 
   26300    287.26403    35.037082    138201.06   -41106.765    3944.8797   -45051.644    297.00825   0.99743456 
   26400    289.51659    137.34653     138447.2   -41139.985    3975.8132   -45115.798    299.06427    0.9956613 
   26500    291.88835   -68.509995    138277.51    -40984.31    4008.3836   -44992.694    300.33993   0.99688315 
   26600    288.89764    -211.1288    138271.56   -41088.417    3967.3135    -45055.73    302.03226   0.99692606 
   26700    293.15641    51.163639    138182.36     -41039.8    4025.7973   -45065.598    302.78499   0.99756954 
   26800    291.85082    107.05385    138121.62   -41076.295    4007.8682   -45084.163    304.58624   0.99800823 
   26900    287.63605    103.38764    138091.07   -41199.225    3949.9886   -45149.213    305.91642   0.99822902 
   27000    288.78107    139.38779    137935.86   -41189.622    3965.7126   -45155.334    307.03944    0.9993523 
   27100    296.12938   -193.02517    137954.41   -41150.951    4066.6239   -45217.575    308.40109   0.99921788 
   27200    290.81202    364.27516     138252.9   -41142.571    3993.6028   -45136.174    310.85007   0.99706061 
   27300    292.35009    269.28403    138716.04   -41091.631    4014.7244   -45106.355    312.54507   0.99373164 
   27400    294.01279    35.244248    138840.78   -41065.631    4037.5577   -45103.188     313.7548   0.99283884 
   27500    281.09791   -128.14846    138334.55   -41139.687    3860.2029    -44999.89    314.47879   0.99647206 
   27600    292.21234    6.5777918    138356.54   -41092.471    4012.8328   -45105.304    315.81145   0.99631372 
   27700    295.59238    296.18701     138594.5   -41088.774    4059.2495   -45148.024    317.12642   0.99460309 
   27800    295.69704    -251.2518    138621.11    -41091.88    4060.6867   -45152.567     318.4384   0.99441217 
   27900    293.74301    2.3345316    138203.26    -41125.48    4033.8529   -45159.333    317.97587   0.99741874 
   28000    293.36824   -6.1887374    138344.69   -41005.537    4028.7063   -45034.243    319.43731   0.99639902 
   28100    291.44401   -64.775128    137996.12   -41083.092    4002.2816   -45085.373    319.79729   0.99891586 
   28200    290.78476    155.24522    138118.56    -41232.86    3993.2284   -45226.088    320.94031   0.99803035 
   28300    291.61121   -25.946775    137965.59   -41253.177    4004.5777   -45257.755    321.81834   0.99913696 
   28400    288.89408    107.13044    137960.93   -41150.409    3967.2644   -45117.674     323.6234   0.99917065 
   28500    289.28543   -424.21003    137797.11   -41210.175    3972.6388   -45182.814    323.61251    1.0003585 
   28600    287.01854   -60.028127     137519.6   -41224.986    3941.5084   -45166.494    324.16533    1.0023772 
   28700    276.52808    147.79712    137763.04    -41295.04    3797.4473   -45092.487     325.8919    1.0006059 
   28800    289.05065    47.251953    137697.94   -41237.852    3969.4146   -45207.267    327.19342     1.001079 
   28900    287.54536   -74.553895    137742.92   -41249.378    3948.7431   -45198.121    328.59112    1.0007521 
   29000    286.15204   -30.146511    137632.34   -41251.248    3929.6092   -45180.857    329.12016    1.0015562 
   29100    287.55091    56.431592    137396.37   -41215.987    3948.8194   -45164.807     329.9224    1.0032763 
   29200    290.07956    91.439688     137645.6   -41257.196    3983.5442    -45240.74    331.22881    1.0014597 
   29300    293.67893    8.4676184     137837.1   -41238.949    4032.9729   -45271.922    332.85871    1.0000683 
   29400    284.44242   -73.397685    138114.56   -41272.617    3906.1317   -45178.749    334.82049   0.99805929 
   29500     290.8862    163.66411    138112.28     -41248.1    3994.6215   -45242.722     335.4608   0.99807576 
   29600    293.89087   -57.099219    138116.14   -41264.433    4035.8834   -45300.317    336.55171   0.99804783 
   29700    286.58186   -37.028325    138174.89   -41216.001    3935.5117   -45151.513     337.9129   0.99762352 
   29800    292.30707   -47.082862    138132.03   -41104.199    4014.1336   -45118.333    338.77222   0.99793302 
   29900    289.17042    192.92905    138625.79   -41103.731    3971.0593   -45074.791    340.94027   0.99437856 
   30000    288.19344    49.055764    138503.47   -41089.052    3957.6428   -45046.695    342.14092   0.99525677 
   30100    289.94351   -130.85661    138458.17   -41070.285    3981.6759   -45051.961    343.08752   0.99558242 
   30200    291.72474   -159.67132    138031.42   -41072.216    4006.1368   -45078.353    343.38025   0.99866041 
   30300    286.95829   -41.956842     137857.7   -41036.605    3940.6811   -44977.286    344.56503   0.99991888 
   30400    286.30037   -130.51032    137632.54    -41223.69    3931.6462   -45155.336    345.49174    1.0015547 
   30500    285.95884    176.00085    137785.92   -41228.215     3926.956   -45155.172    346.88382    1.0004398 
   30600      292.008   -51.945388    137828.71   -41253.548    4010.0267   -45263.575    348.40737    1.0001292 
   30700    288.49219    226.01378    138001.15   -41219.802    3961.7456   -45181.547    349.93304   0.99887949 
   30800    286.84574    145.09835       138153   -41174.933    3939.1354   -45114.069    351.88751   0.99778159 
   30900    291.31825    22.887965    138452.12   -41193.143    4000.5546   -45193.697    353.96674   0.99562589 
   31000    293.03141    -61.33249    138523.41   -41164.046    4024.0808   -45188.127    355.35338   0.99511352 
   31100     286.5785   -42.008655    138704.62   -41332.803    3935.4655   -45268.268    357.01445   0.99381347 
   31200    287.79238    45.209821    138610.52   -41322.738    3952.1353   -45274.874    357.88231   0.99448813 
   31300    283.92757    27.796486    138272.81   -41264.006    3899.0614   -45163.067    358.22508   0.99691701 
   31400    289.54618    -177.6231    138106.77   -41259.027    3976.2195   -45235.247    359.32656   0.99811558 
   31500    287.82404    313.37202    138192.57   -41153.535      3952.57   -45106.105    360.57188   0.99749588 
   31600    288.69366   -13.435796    138202.37   -41125.969    3964.5122   -45090.481     361.1328   0.99742516 
   31700     288.2348    90.091808    138481.51   -41142.192    3958.2109   -45100.403    362.26362   0.99541459 
   31800    284.39597   -111.65437    138745.01   -41129.743    3905.4938   -45035.237    364.59109   0.99352416 
   31900    287.62262   -84.701541    138432.83   -41082.539    3949.8041   -45032.343    365.12458   0.99576462 
   32000    293.87305   -15.155687    138444.92   -41043.114    4035.6387   -45078.753    366.49908   0.99567768 
   32100     288.7296   -46.897919    138148.25   -41150.423    3965.0058   -45115.429    367.89267   0.99781589 
   32200     290.0165    85.412749    138149.75   -41126.374    3982.6783   -45109.052    369.36903   0.99780506 
   32300    290.93291    192.04518    138339.97   -41124.101    3995.2629   -45119.363    370.97521   0.99643303 
   32400    289.37965   -40.870923    138152.73    -41037.45    3973.9326   -45011.383    371.81863   0.99778355 
   32500    285.87137   -67.053205    138042.42   -41155.809    3925.7549   -45081.564     372.9342   0.99858084 
   32600      287.988    272.38819       138248   -41137.368    3954.8216    -45092.19    374.50656   0.99709595 
   32700    286.48923    118.26795    138465.45   -41122.715    3934.2397   -45056.955    375.98912   0.99553006 
   32800    288.42067   -213.33866    138279.21   -41156.717    3960.7633    -45117.48    376.47942   0.99687086 
   32900    285.37683    131.84049     138365.9   -41244.095    3918.9636   -45163.059     376.8016   0.99624627 
   33000    285.69955    149.57326    138245.38   -41252.418    3923.3953   -45175.813    378.27359   0.99711483 
   33100    291.47463   -226.74184    138295.83    -41231.34    4002.7022   -45234.042    379.48931   0.99675111 
   33200    290.12322    -171.7425    138510.83   -41207.218    3984.1437   -45191.361    380.99953   0.99520386 
   33300    286.81872   -23.375291    138306.69    -41160.57    3938.7644   -45099.335    382.26159   0.99667279 
   33400    285.31779   -156.50428     138166.9    -41202.13    3918.1528   -45120.282    383.14906   0.99768121 
   33500    296.86037    59.036181    138477.82   -41116.208    4076.6624   -45192.871    384.93238    0.9954411 
   33600    294.95499   -166.97239     138339.9   -41188.739    4050.4965   -45239.235    385.78849   0.99643353 
   33700    289.98721   -81.673957    138396.56   -41190.056     3982.276   -45172.332    386.60608   0.99602558 
   33800    287.07994   -24.874169     138529.5   -41161.954    3942.3517   -45104.306    388.13435   0.99506975 
   33900    291.75544   -173.65018     138252.6   -41170.204    4006.5584   -45176.763    388.87883   0.99706276 
   34000    288.22487    125.05799    138158.01   -41189.764    3958.0745   -45147.838     390.6339   0.99774538 
   34100    288.63006   -14.681214    138294.62   -41276.713    3963.6388   -45240.352    391.84503   0.99675978 
   34200    286.51106    116.93949    138118.59    -41223.86    3934.5394   -45158.399    392.87306   0.99803016 
   34300    292.51725    1.6686302    138286.22   -41167.558    4017.0201   -45184.578    394.66997   0.99682037 
   34400     292.6258   -12.678151    138413.67   -41092.384    4018.5107   -45110.894    395.94981   0.99590247 
   34500    292.92854    67.517277    138551.96   -41039.726    4022.6681   -45062.394    397.37032   0.99490847 
   34600    288.15765   -204.62357    138571.69    -41090.29    3957.1514   -45047.441    398.40262   0.99476683 
   34700    288.99292   -72.920416    138190.19   -41170.327    3968.6219   -45138.949    399.09887   0.99751303 
   34800    289.59158   -280.76055     137870.5   -41205.659    3976.8431   -45182.502    399.83196   0.99982605 
   34900    289.07529    86.974125    137862.07   -41202.266     3969.753   -45172.019    401.32247   0.99988721 
   35000    284.75908   -30.087121    138000.73   -41255.819    3910.4802   -45166.299    403.16404   0.99888255 
   35100    287.27152    148.32355    137979.87   -41204.421    3944.9825   -45149.404    404.85101   0.99903353 
   35200      293.976   -89.130973    137830.73   -41002.113    4037.0525   -45039.165    405.35952    1.0001145 
   35300    286.90942   -177.05998    137550.59   -41144.537      3940.01   -45084.547     405.3852    1.0021514 
   35400     285.2757   -211.09771    137562.19   -41229.148    3917.5748   -45146.723    407.96923    1.0020669 
   35500    288.17209      210.337     137977.7   -41180.929    3957.3497   -45138.278    410.17417   0.99904926 
   35600    289.93331    215.91415    138136.39    -41189.84    3981.5358   -45171.376    411.86586   0.99790152 
   35700      291.107    106.36989    138457.24    -41135.19    3997.6537   -45132.843    413.79608    0.9955891 
   35800    289.41595    197.95519    138886.66    -41154.11    3974.4312   -45128.541    415.93673   0.99251085 
   35900    287.45451    127.63804    139006.54    -41109.33    3947.4954   -45056.825    417.15362   0.99165488 
   36000    294.74242   -34.004075    138626.72   -41153.428    4047.5774   -45201.005    417.67421   0.99437194 
   36100    287.69997    201.93555       138493   -41181.561    3950.8663   -45132.427    418.83516   0.99533204 
   36200    290.61803    233.13929    138618.67   -41169.785    3990.9388   -45160.724     420.5407   0.99442968 
   36300    288.94853    152.23965    138694.49   -41193.007    3968.0123   -45161.019    422.15127   0.99388602 
   36400    292.70833    284.25661     138764.7   -41122.085    4019.6441   -45141.729    423.02126   0.99338313 
   36500     293.4154    -208.5784    138746.62   -41062.308     4029.354   -45091.662    423.85347   0.99351262 
   36600    288.95711     167.4204    138619.42   -41155.613      3968.13   -45123.743     424.8653   0.99442425 
   36700    286.36533    -9.839812    138512.39   -41189.053    3932.5383   -45121.591    425.34096   0.99519265 
   36800    289.40928    41.519075    138451.11   -41206.057    3974.3395   -45180.397    426.64887   0.99563317 
   36900    282.19953   -159.73679    138208.57   -41290.183     3875.331   -45165.514    427.75776   0.99738041 
   37000    292.98889   -65.663072    138259.96   -41242.354    4023.4968   -45265.851    428.17106   0.99700967 
   37100    294.57046   -94.591569    138325.11   -41270.616    4045.2159   -45315.831    430.31038   0.99654008 
   37200    285.07222   -198.31482    138273.77   -41254.013    3914.7805   -45168.794    431.17413   0.99691007 
   37300    287.32264   -103.55249    138325.06   -41226.191    3945.6846   -45171.876    432.66608   0.99654047 
   37400    284.64088   -72.029194    138039.26   -41337.256     3908.857   -45246.113    434.02481   0.99860373 
   37500    287.21859   -89.495146    138186.01   -41314.801    3944.2557   -45259.056    435.67371   0.99754318 
   37600     286.7269   -201.27588    137898.53   -41286.639    3937.5035   -45224.143    436.38654   0.99962284 
   37700    279.37339     125.7355    138152.84   -41302.112    3836.5207   -45138.632    437.87222   0.99778274 
   37800    286.36008   -153.17558    138097.62   -41292.057    3932.4662   -45224.523    438.85019   0.99818171 
   37900    286.87259  -0.67816168    138327.78   -41308.409    3939.5042   -45247.913     439.2909   0.99652086 
   38000    284.98341   -118.01881     138139.4   -41267.209    3913.5609    -45180.77    440.03774   0.99787979 
   38100    285.23869    139.59521    138031.11   -41277.014    3917.0665   -45194.081    441.13496    0.9986627 
   38200    284.71871    55.778558    137981.16   -41227.797    3909.9259   -45137.723     442.0894   0.99902416 
   38300    281.93815    209.02789    137641.57   -41312.124    3871.7415   -45183.866    442.68365     1.001489 
   38400    284.02186   -25.818685    137844.23   -41367.082    3900.3563   -45267.439    443.80745    1.0000166 
   38500    285.13071   -72.345139    137752.85   -41363.514    3915.5837   -45279.098    445.13362    1.0006799 
   38600    283.84556     56.40457    137949.65   -41243.051    3897.9353   -45140.986    447.49205   0.99925237 
   38700    288.12885    17.124679    138067.56   -41244.795    3956.7559   -45201.551    448.56224   0.99839899 
   38800    288.71509    30.235399    138355.48   -41242.503    3964.8065   -45207.309    451.13833   0.99632135 
   38900    292.75912    10.216332     138733.3   -41109.504    4020.3415   -45129.845     453.2714   0.99360799 
   39000    290.50865   -19.643045    138425.58     -41174.7    3989.4367   -45164.137    455.07155   0.99581682 
   39100    288.06993   -126.62894    138299.59   -41219.105    3955.9467   -45175.052    456.73006   0.99672398 
   39200    285.37646   -7.4242015    138370.71   -41171.139    3918.9584   -45090.097    458.78762    0.9962117 
   39300    284.81537   -82.039614    138144.17   -41135.461    3911.2532   -45046.715    459.60225   0.99784531 
   39400     290.0859   -74.998277    138071.33    -41136.81    3983.6312   -45120.442     461.2725   0.99837177 
   39500    289.57485    49.113036    138064.49   -41077.851    3976.6132   -45054.464    463.24601   0.99842121 
   39600    293.38453   -172.43217    138004.26   -41041.966      4028.93   -45070.896    464.40021   0.99885693 
   39700    283.55186    34.797031    138354.55   -41140.431    3893.9019   -45034.333     466.6936   0.99632802 
   39800    289.92965    216.21585    138456.48   -41117.354    3981.4856    -45098.84    468.16544   0.99559455 
   39900    280.11249   -64.585738    138315.16   -41356.587    3846.6705   -45203.257     469.6168   0.99661175 
   40000    289.67094    3.4261633    138134.97   -41218.859    3977.9328   -45196.792    470.32153   0.99791178 
   40100    287.10386   -62.509263    138251.85   -41213.195    3942.6802   -45155.875    472.55093   0.99706814 
   40200    292.86112    6.1743358    138026.27   -41101.298    4021.7422    -45123.04     472.5407   0.99869766 
   40300     292.0122   -63.163894    138039.88   -41167.366    4010.0844   -45177.451    473.92518   0.99859924 
   40400    289.13113   -103.59971     138453.2   -41223.888    3970.5198   -45194.408    476.48819   0.99561812 
   40500    286.99152    153.24037     138615.6   -41201.216    3941.1375   -45142.353    477.78321   0.99445169 
   40600    289.44119    -111.6343    138422.24   -41152.439    3974.7777   -45127.216    478.26732   0.99584082 
   40700    294.58469   -32.315402    138249.75   -41193.521    4045.4113   -45238.933     478.5781   0.99708332 
   40800    282.23304    -18.58208    137927.37   -41207.115    3875.7912   -45082.906    478.70125   0.99941382 
   40900    288.43819    56.871297    137659.65   -41240.307    3961.0039    -45201.31    478.88182    1.0013575 
   41000     288.6677   -48.767947    137700.02   -41239.373    3964.1557   -45203.529    479.91344    1.0010639 
   41100    291.00344    252.37048    137913.12    -41215.32    3996.2314   -45211.551    481.47381   0.99951704 
   41200    290.82196   -119.20678    138065.63   -41125.817    3993.7393   -45119.556     482.3212   0.99841297 
   41300    282.03146   -218.56761     137474.4   -41271.213    3873.0229   -45144.236     482.1703    1.0027068 
   41400    285.17268    17.225763     137669.1   -41211.635    3916.1601   -45127.795    483.35776    1.0012887 
   41500    285.94756   -67.394689    137511.26   -41212.233    3926.8012   -45139.035    483.89341     1.002438 
   41600    290.46235   -79.513742    137615.73   -41127.429    3988.8009    -45116.23    485.24945     1.001677 
   41700    284.44464   -213.42696    137564.29   -41279.708    3906.1622    -45185.87    485.99616    1.0020516 
   41800    290.85167    75.362198    137307.66   -41178.325    3994.1472   -45172.473    486.90767    1.0039245 
   41900    288.85192    115.90996    137412.02    -41165.31    3966.6856   -45131.995    488.79021     1.003162 
   42000    294.09227    -21.08902    137910.43    -41167.61    4038.6491   -45206.259    490.09669   0.99953654 
   42100    290.84166   -259.73052    137963.66   -41145.031    3994.0098   -45139.041    490.84333   0.99915094 
   42200    287.70384   -77.019797     137932.2   -41107.115    3950.9195   -45058.034    491.61369    0.9993788 
   42300    281.67383    28.596018     138037.8   -41208.425    3868.1118   -45076.537    492.74196    0.9986143 
   42400    289.10959     -36.1595    137914.29   -41185.131     3970.224   -45155.355    493.13992   0.99950859 
   42500    288.98746    6.8527042    137956.49   -41228.876    3968.5469   -45197.423    494.73876   0.99920281 
   42600    287.87968    138.18745    138012.13   -41282.054    3953.3341   -45235.388    496.11118   0.99880004 
   42700    288.75903    283.60644    138111.23    -41331.61    3965.4099    -45297.02    497.24107   0.99808334 
   42800    282.70137   -161.74732    137781.42   -41366.209    3882.2225   -45248.432    497.11136    1.0004725 
   42900    290.79241   -111.58098    138067.96    -41281.52    3993.3334   -45274.853     498.9652    0.9983961 
   43000    293.83291     212.1472    138048.63   -41208.134    4035.0874   -45243.221    500.39161    0.9985359 
   43100    285.84831    126.98567    138201.96   -41218.122    3925.4382   -45143.561    501.66626    0.9974281 
   43200    284.73386    123.55939    138173.68   -41217.634    3910.1339   -45127.768    502.54706   0.99763223 
   43300    286.38055    63.568701    138098.29   -41260.224    3932.7472   -45192.971    503.25212   0.99817685 
   43400    286.58867   -2.4027049    138143.74   -41272.613    3935.6053   -45208.218    505.05359   0.99784846 
   43500    292.07166    15.025653    138175.39    -41177.72    4010.9009   -45188.621    505.60466   0.99761985 
   43600    284.64032    331.64691    138182.64   -41200.761    3908.8493   -45109.611    507.03051   0.99756752 
   43700    289.33811    117.46507    138606.25   -41168.798    3973.3621    -45142.16    508.85461   0.99451874 
   43800    295.43868   -167.50515    138634.37   -41103.343    4057.1388   -45160.482    509.27918   0.99431702 
   43900    283.56527     117.7937    138372.33   -41183.357    3894.0861   -45077.443     509.8441   0.99620005 
   44000    291.96319    232.76111    138106.33   -41109.763    4009.4113   -45119.174    511.01056   0.99811874 
   44100    294.70235    95.647429    138281.54    -41037.01     4047.027   -45084.037    513.39983   0.99685411 
   44200    292.80059    92.395642    138272.82    -41136.12     4020.911   -45157.031    515.03477   0.99691693 
   44300    282.95938   -129.12075    138069.75   -41273.602    3885.7657   -45159.368    516.10358   0.99838317 
   44400    282.99821   -208.33217    137940.05   -41272.521    3886.2989    -45158.82    517.65679   0.99932195 
   44500    287.56155    135.44116    138107.34   -41323.135    3948.9654   -45272.101    519.43266   0.99811146 
   44600    282.26737    133.10731    138453.18   -41286.604    3876.2626   -45162.866    521.73533    0.9956183 
   44700    284.32043   -123.78687    138281.36   -41332.144    3904.4565   -45236.601    522.80627   0.99685538 
   44800    288.54853   -146.62704    138219.93   -41289.402    3962.5191   -45251.921    523.49184    0.9972984 
   44900    284.47777    96.363905    138311.17   -41316.216    3906.6171   -45222.833     525.1774   0.99664051 
   45000    287.94838    -177.1613    138429.13   -41288.628    3954.2775   -45242.906    526.58515   0.99579124 
   45100    287.96348    62.584951    138390.28   -41235.732    3954.4849   -45190.217    527.07657   0.99607079 
   45200    290.87084   -82.740429    138483.24   -41234.259    3994.4106    -45228.67     527.6881   0.99540213 
   45300     282.7342    11.538761    138606.18   -41292.079    3882.6734   -45174.752    528.99502    0.9945193 
   45400    285.44484   -146.00467    138362.72   -41304.876    3919.8976   -45224.773    529.95731   0.99626921 
   45500    288.13987    118.19024     138274.5   -41236.332    3956.9072   -45193.239    530.80397   0.99690486 
   45600     281.5686   -27.978075    138319.28   -41266.613    3866.6666    -45133.28    531.96294   0.99658206 
   45700     288.7652   -120.95069    138300.31   -41150.609    3965.4947   -45116.103    533.27373   0.99671876 
   45800    284.40972    137.47022    138009.87    -41155.86    3905.6827   -45061.543    533.83844   0.99881636 
   45900    289.86081   -195.50871    137939.56   -41107.864    3980.5402   -45088.404    534.05621   0.99932545 
   46000    288.94161   -247.82839    137927.54   -41174.016    3967.9172   -45141.934    534.93704   0.99941256 
   46100     292.2651       5.5267    138510.73   -41167.345    4013.5573   -45180.903    537.53731   0.99520462 
   46200    291.63388    66.652412    138554.09   -41187.047     4004.889   -45191.936    539.18436   0.99489317 
   46300    285.50879    36.299758    138448.56   -41196.668    3920.7757   -45117.444    539.70647    0.9956515 
   46400    287.56138    27.191603    138251.23   -41203.726     3948.963   -45152.689    540.49927    0.9970726 
   46500    288.43529    111.27244    138397.06   -41143.118    3960.9641   -45104.082    541.73992   0.99602201 
   46600    293.45267   -283.79832    138244.39   -41060.394    4029.8658    -45090.26    542.25022   0.99712199 
   46700    291.13675    1.6655817    138593.96   -41070.036    3998.0622   -45068.098    545.33735   0.99460698 
   46800    289.39675   -226.39239    138566.73   -41028.381    3974.1675   -45002.549    546.81902    0.9948024 
   46900    295.34945     75.95372    138367.16   -41056.651    4055.9135   -45112.564    546.75596   0.99623725 
   47000    287.72636    146.51743    138334.76   -41100.751    3951.2286    -45051.98    547.61442   0.99647059 
   47100    289.94778   -106.25947    138394.27   -41072.976    3981.7346   -45054.711    548.80846   0.99604209 
   47200    283.56361   -318.69115    138091.68   -41144.099    3894.0633   -45038.162    548.00452    0.9982246 
   47300    286.76026    90.898297    138140.68   -41105.972    3937.9616   -45043.933    549.47329   0.99787054 
   47400    293.09116   -56.944176    138037.54   -41058.273    4024.9012   -45083.174    550.20615   0.99861617 
   47500    287.74181    149.86207    137917.51   -41131.765    3951.4408   -45083.205    550.89404   0.99948523 
   47600    294.64861   -271.59777    137561.17   -41101.904     4046.289   -45148.193    551.44645    1.0020743 
   47700    287.78807    5.8090631    137659.51   -41195.545    3952.0761   -45147.621     552.5152    1.0013585 
   47800    289.67604    93.863267    137730.85   -41231.991    3978.0029   -45209.994    553.78739    1.0008398 
   47900    284.81733     153.2828    137715.44   -41204.575    3911.2802   -45115.855    555.04803    1.0009518 
   48000    288.40476    26.875253    137842.85   -41257.809    3960.5449   -45218.353    556.90777    1.0000266 
   48100    286.18782   -86.777957    137753.45   -41266.664    3930.1005   -45196.765    557.88372    1.0006756 
   48200    288.54725   -17.242487    137736.17     -41238.6    3962.5016   -45201.102    559.96785    1.0008011 
   48300    283.71506   -83.701741    138071.81   -41228.815    3896.1431   -45124.959    561.92651   0.99836828 
   48400    290.32387   -103.41878    137815.24   -41159.188    3986.8992   -45146.087    562.86307     1.000227 
   48500    282.57861   -21.997196    137751.86   -41254.673    3880.5367    -45135.21    563.86411    1.0006872 
   48600    287.08808   -235.36699    137957.76   -41214.975    3942.4634   -45157.439    564.73961   0.99919366 
   48700    281.94655   -201.42426    137898.37   -41300.728     3871.857   -45172.585    565.88445   0.99962397 
   48800    286.63852    25.568199     137816.8   -41256.474    3936.2898   -45192.763    565.48469    1.0002156 
   48900    290.93898    25.590536     138059.3   -41196.575    3995.3463   -45191.922    566.37174   0.99845875 
   49000    290.56421   -35.231809    137968.66   -41181.629    3990.1997   -45171.828    567.20235   0.99911471 
   49100    287.29783    112.57489    138006.38   -41276.374    3945.3438   -45221.718    567.92902   0.99884162 
   49200    286.40993    49.072455    138165.47   -41331.244    3933.1507   -45264.395    569.43497   0.99769149 
   49300    282.71457     187.0688    138310.59    -41301.26    3882.4038   -45183.664     571.2285   0.99664474 
   49400    284.46143   -55.606844    138318.92   -41296.307    3906.3927   -45202.699    573.25641   0.99658465 
   49500    286.49143    33.935917    138050.92   -41282.206    3934.2699   -45216.476    572.48205    0.9985194 
   49600    287.24177   -46.684322    138021.58   -41272.278     3944.574   -45216.852    573.67047   0.99873164 
   49700     282.9643   -257.20511    137750.59   -41248.575    3885.8332   -45134.408    573.64796    1.0006964 
   49800    285.95731   -87.683902    137792.17   -41192.878    3926.9351   -45119.813    574.73438    1.0003944 
   49900    292.96767    79.493226    137771.07    -41260.37    4023.2054   -45283.575    575.16033    1.0005476 
   50000    283.71343    315.57198    137746.65   -41300.613    3896.1207   -45196.733    576.06759     1.000725 
   50100    285.92591    240.06153     138046.8   -41282.256    3926.5038    -45208.76    578.34389   0.99854915 
   50200    285.17893   -68.229332    138095.54   -41281.053    3916.2459   -45197.299    580.34061   0.99819676 
   50300     290.9383   -60.375951    137873.34   -41225.988     3995.337   -45221.325    579.89674   0.99980547 
   50400    285.85319   -135.56302     137696.8   -41276.208    3925.5052   -45201.713    581.03248    1.0010873 
   50500    283.99706    229.99526    137894.68   -41285.724    3900.0157    -45185.74     582.9397   0.99965071 
   50600      291.656   -59.556194    138054.81   -41281.621    4005.1928   -45286.814     584.2898   0.99849123 
   50700    288.76215    163.44356    138220.07   -41169.919    3965.4528   -45135.372    586.12536   0.99729738 
   50800    292.62832   -89.614851    138265.01   -41140.982    4018.5452   -45159.527    587.73632   0.99697325 
   50900    290.42846    99.905705    138127.87   -41187.642    3988.3355   -45175.977    588.84501   0.99796313 
   51000    283.41193   -59.391643    138200.79   -41208.224    3891.9804   -45100.205    590.21092   0.99743653 
   51100    286.38629    -12.39795    138065.32   -41167.027     3932.826   -45099.853    591.06989   0.99841524 
   51200    292.43588     260.0731    138203.44   -41050.986    4015.9026   -45066.889    591.58385   0.99741742 
   51300    291.99686    20.105972    138582.82   -41025.068    4009.8737   -45034.942    593.65699   0.99468688 
   51400    285.72714   -63.581092     138397.4   -41196.868    3923.7743   -45120.642    594.36691   0.99601956 
   51500    288.76813   -125.95166    138333.68    -41263.61    3965.5348   -45229.145    594.91387   0.99647837 
   51600    291.96073     0.342392    138354.55   -41223.809    4009.3776   -45233.187    596.02111   0.99632806 
   51700    285.74057    18.714126    138468.02   -41240.822    3923.9586    -45164.78    597.04782    0.9955116 
   51800    286.71017    35.355131    138451.95    -41289.17    3937.2738   -45226.443    598.73549   0.99562711 
   51900    285.05297   -45.874936    138395.26   -41360.089     3914.516   -45274.605     599.4683   0.99603494 
   52000    287.42886    123.12764    138232.65   -41299.213    3947.1433   -45246.356    599.91644   0.99720667 
   52100      285.476   -263.61998     138234.3    -41326.07    3920.3255   -45246.395    600.37895   0.99719471 
   52200    288.17324   -56.477439     138186.7   -41345.743    3957.3655   -45303.109    601.43778   0.99753821 
   52300     283.4862    191.02504    138349.23   -41291.245    3893.0002   -45184.245    602.89023   0.99636636 
   52400    286.59363    88.893358    138503.13     -41172.3    3935.6734   -45107.974     603.8037   0.99525922 
   52500    287.94999    81.465646    138703.28   -41153.127    3954.2997   -45107.427    605.67198   0.99382304 
   52600    286.94106    241.44494    138698.56   -41276.285    3940.4445   -45216.729    607.02556   0.99385687 
   52700    288.24755   -214.23116    138681.46   -41271.092     3958.386   -45229.478     607.6992   0.99397941 
   52800    280.43194   -186.53077    138748.57   -41279.567    3851.0574   -45130.625    608.69432   0.99349862 
   52900    280.96713   -30.531506    138185.68   -41383.194    3858.4069   -45241.601    608.27182   0.99754562 
   53000    280.44976    91.422659    138409.44   -41411.549    3851.3021   -45262.851    609.70473   0.99593291 
   53100    277.52706   -108.06979    138207.92   -41416.532    3811.1659   -45227.698    610.34626   0.99738509 
   53200    286.24611    9.0305882    137869.09   -41230.897    3930.9009   -45161.798    609.66329   0.99983629 
   53300    286.54357   -191.98492    138056.21   -41254.722    3934.9859   -45189.708    610.65418   0.99848113 
   53400    287.65061    22.073358    138003.25   -41142.107    3950.1885   -45092.295    612.16641   0.99886429 
   53500    294.37877   -50.966605    138316.14   -41117.066    4042.5835   -45159.649    614.07807   0.99660471 
   53600    290.71345   -140.15798    138276.97     -41131.7    3992.2492   -45123.949     615.1826   0.99688705 
   53700    288.48874    23.045894    138212.66   -41188.237    3961.6981   -45149.935    616.13108    0.9973509 
   53800    287.88265     5.883767    137873.72   -41276.734     3953.375   -45230.109    615.43672    0.9998027 
   53900    291.25475    130.98109    137999.42   -41260.346    3999.6826   -45260.029    617.32186     0.998892 
   54000    286.11661    -34.08652    138034.15   -41260.289    3929.1226   -45189.411    618.47603   0.99864069 
   54100    288.40698   -93.479122    137890.33   -41232.542    3960.5753   -45193.118    619.07828   0.99968227 
   54200    283.97673    5.9095657    138014.72   -41249.586    3899.7366   -45149.323    620.79737    0.9987813 
   54300    289.75048   -33.842885    137895.68   -41159.913     3979.025   -45138.938    621.29922    0.9996435 
   54400    283.58304   -117.91993    137829.87   -41246.654    3894.3302   -45140.985    622.32145    1.0001208 
   54500     288.9766    89.000307     137871.7       -41197    3968.3977   -45165.398    623.70362   0.99981732 
   54600    288.56771   -32.692058    137761.31   -41206.352    3962.7826   -45169.135    624.43593    1.0006185 
   54700    286.77628    119.81514    137990.01   -41182.753    3938.1816   -45120.935    626.52257    0.9989601 
   54800    287.86401   -9.3841202    137697.44   -41171.758     3953.119   -45124.877    626.79105    1.0010827 
   54900    292.21029    39.919358    137904.81   -41085.473    4012.8046   -45098.278    628.21594   0.99957732 
   55000    291.33283    149.88248    138348.45   -41040.131    4000.7549   -45040.886    630.66798   0.99637193 
   55100    297.16652    198.31522    138331.08   -41062.736    4080.8666   -45143.602    632.20545   0.99649707 
   55200    288.25408   -40.277844    138535.89   -41136.203    3958.4757   -45094.679    633.85377   0.99502383 
   55300    292.62955    49.776349     138487.2   -41121.376    4018.5621   -45139.938    634.77297   0.99537367 
   55400    290.21656    204.63122    138786.94   -41059.535    3985.4255    -45044.96    636.98082   0.99322401 
   55500    290.44295   -145.57096    138539.68   -41089.086    3988.5345    -45077.62    636.45776   0.99499666 
   55600    290.96035   -47.297234    138478.41   -41044.691    3995.6397   -45040.331    637.59509   0.99543688 
   55700    292.99783     -121.991     138544.4   -41080.881    4023.6196   -45104.501    638.51651   0.99496276 
   55800    286.51036   -98.892745    138368.27   -41171.555    3934.5299   -45106.084    638.99115   0.99622927 
   55900    286.94131    77.167581     138335.5   -41283.114    3940.4479   -45223.562    640.25854   0.99646526 
   56000    285.18291   -152.51332    138140.05   -41352.267    3916.3005   -45268.568    640.48119    0.9978751 
   56100    287.04376     -124.773    137612.36   -41289.527    3941.8548   -45231.382    640.40203    1.0017016 
   56200    290.30686   -27.426973    137734.48   -41263.014    3986.6657    -45249.68    642.83631    1.0008134 
   56300    289.39086    401.59103    137537.69   -41172.928    3974.0866   -45147.014    642.44907    1.0022454 
   56400    294.28106    -103.6113    137556.39   -41085.906    4041.2418   -45127.147    643.27612    1.0021091 
   56500    288.31284    186.81263    137647.18   -41149.121    3959.2826   -45108.404    644.60289    1.0014482 
   56600    290.46783   -233.69591    137570.29   -41075.743    3988.8762    -45064.62    645.30218    1.0020079 
   56700    295.10673    32.342047    137871.74   -41085.053    4052.5803   -45137.633    647.45103   0.99981708 
   56800    289.30785   -78.993438    138020.94   -41092.681    3972.9466   -45065.628    647.99873   0.99873623 
   56900    292.46445   -234.79909    137921.86   -41142.764    4016.2949   -45159.058    648.51551   0.99945376 
   57000    287.21041     119.6269    137748.69   -41212.064    3944.1433   -45156.207    649.79811    1.0007102 
   57100    286.84026    69.017768     137791.9   -41322.647    3939.0603   -45261.708    651.45334    1.0003963 
   57200    285.88941    156.93776    137922.68   -41384.398    3926.0026     -45310.4    653.73106   0.99944776 
   57300     284.8726   -102.98005    137977.87   -41338.066    3912.0392   -45250.105    654.43403   0.99904803 
   57400    282.88315   -306.46988    137566.35   -41347.198    3884.7188   -45231.917    654.82524    1.0020366 
   57500    289.85027    192.26633    137387.35   -41262.387    3980.3955   -45242.783    655.05211    1.0033422 
   57600    284.25742    89.364328    137500.44   -41330.386    3903.5911   -45233.978     656.1068    1.0025169 
   57700    283.71317   -53.478562    137503.13   -41294.173    3896.1172   -45190.291    657.31193    1.0024973 
   57800    286.77133   -95.947111    137727.37   -41202.551    3938.1137   -45140.664    659.16946    1.0008651 
   57900    288.41152    21.442426    137680.37   -41269.086    3960.6377   -45229.723    660.66464    1.0012068 
   58000    287.68928   -7.8067238    137711.02    -41262.38    3950.7195     -45213.1    661.49693    1.0009839 
   58100    284.05031    136.19238    137757.28   -41173.963     3900.747    -45074.71    662.86888    1.0006478 
   58200     289.7352   -109.25137    137678.96   -41237.892    3978.8153   -45216.707    663.60329     1.001217 
   58300    289.14207    92.431109     137864.1   -41282.798    3970.6701   -45253.468    665.29806   0.99987244 
   58400    291.91839   -77.874904    138138.91   -41251.191    4008.7962   -45259.987    666.88559   0.99788332 
   58500    293.93618   -66.154617    138000.82   -41149.934    4036.5056   -45186.439    668.23593   0.99888189 
   58600    286.84685   -146.19403    137868.48     -41255.5    3939.1507   -45194.651    668.56524    0.9998407 
   58700      289.679   -110.29688    138143.91   -41183.305    3978.0435   -45161.348    670.41157    0.9978472 
   58800    289.38892   -53.269399    138353.94    -41173.41    3974.0599    -45147.47    672.34491   0.99633246 
   58900    286.61568   -97.410755    138421.03   -41146.398    3935.9761   -45082.374     673.6609   0.99584949 
   59000    293.96341   -199.54601    138270.08   -41195.969    4036.8796   -45232.849    674.26069    0.9969367 
   59100    289.12589    22.442657    138244.52   -41194.217    3970.4479   -45164.665    675.49024   0.99712105 
   59200    287.61344    93.803019    138415.82   -41237.459     3949.678   -45187.137    676.88158     0.995887 
   59300    283.20421   -276.93855    138449.86   -41248.187    3889.1278   -45137.315    677.89571   0.99564216 
   59400    284.96049    -206.7236    138321.66   -41202.495    3913.2462   -45115.741    678.69024   0.99656497 
   59500     289.6375   -20.628672    138161.97   -41210.551    3977.4735   -45188.024    679.65989   0.99771682 
   59600     290.9456   -148.04289    137856.03   -41121.969    3995.4371   -45117.406    679.52926   0.99993096 
   59700    291.79388   -74.468248    137823.17   -41181.591    4007.0863   -45188.677    680.58234    1.0001694 
   59800    284.82609    173.32695    137875.13   -41205.609    3911.4004    -45117.01    681.86934   0.99979248 
   59900    291.08446   -217.02854     138247.8   -41214.116    3997.3442    -45211.46    684.64325    0.9970974 
   60000    287.63863   -173.39228    137994.72   -41221.922     3950.024   -45171.946    684.70019   0.99892605 
   60100    286.93926    105.62868    137929.84   -41232.502    3940.4197   -45172.921    686.41472   0.99939588 
   60200    287.12425    86.757337     137993.9   -41308.045    3942.9602   -45251.005    687.74806   0.99893199 
   60300    285.94372   -160.03033    137753.33   -41257.408    3926.7484   -45184.156    688.32761    1.0006764 
   60400    289.09812   -74.985452    137999.11   -41235.263    3970.0665   -45205.329    690.67779   0.99889426 
   60500    286.70964    133.68617    138094.14    -41320.37    3937.2665   -45257.637    692.52617   0.99820682 
   60600    283.20665    303.54248    138272.47   -41220.846    3889.1613   -45110.007    694.18537   0.99691945 
   60700    287.28125    119.06531    138713.74   -41262.989    3945.1161   -45208.105     697.2475   0.99374814 
   60800    293.74737   -57.540766     138536.6   -41257.256    4033.9128   -45291.169    697.91868   0.99501878 
   60900    291.60598    157.87772    138343.36   -41174.424     4004.506    -45178.93    698.06443    0.9964086 
   61000     293.0378    278.91161     138668.2   -41128.564    4024.1685   -45152.733    700.63764   0.99407445 
   61100    287.25925   -69.921537    139010.81   -41095.695     3944.814   -45040.509     702.6505   0.99162443 
   61200     293.5125    -298.1788    138876.99   -41167.137    4030.6874   -45197.824    703.75884   0.99257993 
   61300    293.64926   -431.20298    138929.21   -41114.587    4032.5655   -45147.152    706.40575   0.99220689 
   61400    289.38397   -102.77335    138838.43   -41018.396    3973.9919   -44992.388    708.45557   0.99285563 
   61500    291.97018    140.34993    138838.22   -40993.241    4009.5073   -45002.748    710.10985   0.99285711 
   61600    285.49234    132.37333    138848.11   -41105.038    3920.5499   -45025.588    712.31297   0.99278641 
   61700    288.03166   -243.47865    138724.44   -41107.433    3955.4213   -45062.854    712.86601   0.99367147 
   61800    289.54219    122.74487    138550.02   -41140.382    3976.1647   -45116.547    712.34979   0.99492236 
   61900     294.9634   -113.55314    138699.39   -41099.344     4050.612   -45149.956    713.74754   0.99385093 
   62000    291.83571   -100.25673    138620.41   -41192.056    4007.6608   -45199.717    715.58568   0.99441714 
   62100    289.30643    5.5239242    138443.87     -41187.9    3972.9271   -45160.827    715.99975   0.99568522 
   62200    286.68365    158.85351     138427.5   -41211.048    3936.9096   -45147.957    715.90421   0.99580294 
   62300    290.04996   -30.229367    138482.32   -41226.469    3983.1378   -45209.607    717.82663   0.99540874 
   62400       284.93   -50.109021    138253.08   -41278.621    3912.8274   -45191.448     719.3632   0.99705931 
   62500    289.06495    131.85429    138470.91   -41221.068     3969.611   -45190.679      721.389   0.99549081 
   62600    288.86334   -77.908949    138716.59   -41155.598    3966.8424    -45122.44    722.86786   0.99372771 
   62700    291.85157    189.76089    138888.78   -41173.259    4007.8786   -45181.138    724.79363   0.99249567 
   62800    287.95419     73.95486    138691.62   -41212.753    3954.3574   -45167.111    725.16006   0.99390662 
   62900    287.38699   -66.675795    138554.39     -41180.9    3946.5683   -45127.468    727.07866   0.99489098 
   63000    289.45621    298.49323    138610.94   -41173.776    3974.9839    -45148.76     728.3333   0.99448511 
   63100     290.2925   -227.20145    138578.81   -41170.829    3986.4684   -45157.297    730.32855   0.99471571 
   63200    287.93142   -148.60363    138512.41    -41187.87    3954.0447   -45141.915    731.13573   0.99519251 
   63300    283.02162    103.43314    138364.36    -41273.59    3886.6204   -45160.211    731.96168   0.99625741 
   63400    277.85586    2.8217361    138327.52   -41319.568    3815.6812   -45135.249    731.53483   0.99652273 
   63500    292.65933   -7.3748129    138233.29   -41168.166    4018.9711   -45187.137    732.36976   0.99720206 
   63600    290.66395    -130.9412    138485.99   -41168.057    3991.5695   -45159.627    733.75091   0.99538243 
   63700    285.83837   -186.38487    138580.32   -41226.447    3925.3017   -45151.749    736.27311   0.99470484 
   63800    285.83757    7.6830077     138598.8   -41240.656    3925.2907   -45165.947    737.77348    0.9945722 
   63900    286.06935   -162.64593    138477.48   -41206.248    3928.4736   -45134.721    738.64727   0.99544354 
   64000    283.60723   -9.7597672       138268   -41291.504    3894.6624   -45186.167    739.22693   0.99695168 
   64100    289.09749    353.01943    138284.47   -41258.918    3970.0579   -45228.976    740.06816   0.99683297 
   64200    280.03942   -35.893535    138278.84   -41302.631    3845.6671   -45148.298    740.76087   0.99687351 
   64300    287.61905   -28.343977    138339.86   -41321.386     3949.755   -45271.141    742.25333   0.99643384 
   64400    285.65545    92.931535    138492.65   -41355.353    3922.7897   -45278.143    745.12897   0.99533456 
   64500     282.2165    12.503578    138336.84   -41365.261     3875.564   -45240.825    745.71868   0.99645557 
   64600    282.70149    10.664565    138585.19   -41319.574    3882.2241   -45201.798    748.10993   0.99466989 
   64700    291.24889    240.86095    138744.96   -41221.679    3999.6021   -45221.281    749.32638   0.99352447 
   64800    287.83394   -63.718903    138650.52   -41123.271     3952.706   -45075.977    750.80954   0.99420123 
   64900    287.21847   -163.33686    138633.08   -41169.889     3944.254   -45114.143    752.15617   0.99432628 
   65000     287.5624   -81.814295    138026.45   -41237.039    3948.9771   -45186.016    750.11754   0.99869636 
   65100     286.2697    56.796824    138141.24   -41353.129     3931.225   -45284.354    752.44049    0.9978665 
   65200    295.06066   -83.661529    138322.39   -41255.086    4051.9477   -45307.033    754.83811    0.9965597 
   65300    290.66322    135.61118    137964.97   -41305.011    3991.5593    -45296.57    754.57625    0.9991414 
   65400    285.33913   -92.682369    138087.91   -41394.436    3918.4459   -45312.882    755.42933   0.99825188 
   65500    286.16859    321.64679    138046.81   -41277.024    3929.8364    -45206.86    755.67217   0.99854907 
   65600    292.23795   -179.33857    138071.26   -41164.005    4013.1844    -45177.19    757.66656   0.99837227 
   65700    292.00259   -277.22088       138088   -41171.618    4009.9524    -45181.57     759.1141   0.99825121 
   65800    287.05604   -45.418629    138176.34   -41222.939    3942.0234   -45164.962    760.70312   0.99761306 
   65900    285.49856   -124.28866    138167.82   -41231.961    3920.6351   -45152.596    761.66463   0.99767453 
   66000    289.25296   -65.787727    138091.71   -41232.029    3972.1928   -45204.221    762.14872    0.9982244 
   66100    288.37622   -64.944612    138054.62   -41211.154     3960.153   -45171.307    762.97613   0.99849257 
   66200    291.65769   -11.843366    138298.58   -41139.432     4005.216   -45144.648    765.69466   0.99673126 
[...]
   84600    283.06337    42.985913       138324     -41265.3    3887.1937   -45152.494    985.27442   0.99654807 
   84700    286.83709   -239.25182    138275.73    -41337.45    3939.0167   -45276.467    986.90949   0.99689596 
   84800    284.71422   -78.411588    138314.51   -41258.752    3909.8642   -45168.616    987.57922   0.99661646 
   84900    285.35935   -17.238765    138388.17   -41245.353    3918.7235   -45164.077    988.89383   0.99608602 
   85000    286.02485    36.235396    138098.23   -41229.344    3927.8625   -45157.206    988.11014    0.9981773 
   85100     281.6591    60.852065    138287.23   -41226.801    3867.9095   -45094.711    989.87008   0.99681306 
   85200    292.26156   -19.050543     137937.5   -41197.677    4013.5087   -45211.186    988.43427    0.9993404 
   85300    286.53909    138.88809    138170.75   -41148.936    3934.9243   -45083.861    991.14565    0.9976534 
   85400    293.33848    16.282078    138087.47   -41177.193    4028.2976    -45205.49    992.62319   0.99825509 
   85500    291.12918    13.040462    137897.88   -41117.752    3997.9582    -45115.71    993.65294    0.9996275 
   85600    285.41293   -186.16455    137847.44   -41131.611    3919.4593    -45051.07    994.47366   0.99999332 
   85700    289.12056   -28.767719    137804.73   -41135.647    3970.3747   -45106.022    995.03321    1.0003033 
   85800    296.80043   -47.951211    137751.65   -41120.218    4075.8391   -45196.057     995.2611    1.0006887 
   85900    287.85586     172.9533    137885.29   -41179.342    3953.0071   -45132.349    996.76321   0.99971877 
   86000     285.2649   -13.125688    137832.49   -41238.352    3917.4265   -45155.778    996.68303    1.0001018 
   86100    287.54641   -41.856843    137725.13   -41216.357    3948.7576   -45165.115    998.06736    1.0008814 
   86200    286.22811    94.942725    137861.77   -41241.484    3930.6539   -45172.137    999.80153   0.99988938 
   86300    289.28804   -24.954749    138072.82   -41284.301    3972.6746   -45256.975    1001.3064   0.99836102 
   86400    288.47459    38.112069    137688.08    -41290.23    3961.5038   -45251.734     1000.038    1.0011507 
   86500    290.56398     139.8348    137884.86   -41176.024    3990.1966   -45166.221    1002.4217   0.99972195 
   86600    292.72259   -374.89664    138084.59   -41230.926    4019.8398   -45250.766    1004.7503   0.99827587 
   86700    281.08997   -12.236555    137948.07   -41215.141    3860.0938   -45075.235    1005.7452   0.99926382 
   86800    290.49974    199.24834    138287.37    -41186.72    3989.3144   -45176.034    1008.0814   0.99681204 
   86900    291.97121   -93.123639    137930.06   -41201.614    4009.5215   -45211.135    1007.2041   0.99939428 
   87000    289.84351    138.51169    137714.45   -41250.921    3980.3027   -45231.223    1008.2737     1.000959 
   87100    283.44858    5.3989071    137886.37   -41267.124    3892.4837   -45159.608    1010.7417   0.99971095 
   87200    288.53465    -112.9144    138127.22   -41257.366    3962.3286   -45219.694    1014.4002   0.99796779 
   87300     287.0459   -60.290726     137951.4    -41156.09    3941.8841   -45097.974     1014.212   0.99923973 
   87400    284.57065     256.9354    138047.31   -41179.398    3907.8926   -45087.291    1015.6084   0.99854547 
   87500    291.28919   -139.89373    138158.44    -41219.65    4000.1556   -45219.806    1017.7593   0.99774227 
   87600      290.549    83.777214    138255.12   -41241.238    3989.9908   -45231.229     1019.226   0.99704459 
   87700    290.69184    190.26714    138267.52   -41218.766    3991.9524   -45210.718    1020.1143   0.99695515 
   87800    293.96026   -30.050871    138074.18   -41103.692    4036.8363   -45140.528    1021.4914   0.99835112 
   87900    289.09947   -152.33524    137943.22   -41108.911    3970.0851   -45078.996    1021.4774   0.99929895 
   88000    288.28339   -168.78755    137821.75       -41137    3958.8782   -45095.878    1021.4001    1.0001797 
   88100    290.48107     21.21649    137596.66   -41139.603     3989.058   -45128.661    1021.6077    1.0018158 
   88200    295.42186    263.52797    137894.57   -41073.996    4056.9079   -45130.904    1024.2038    0.9996515 
   88300    285.36516    179.76929    137909.61   -41111.191    3918.8033   -45029.994    1025.9123   0.99954248 
   88400    287.57443   -157.06349    137767.24   -41165.705    3949.1423   -45114.847     1026.799    1.0005754 
   88500    289.23111    199.17332    137559.95   -41210.656    3971.8928   -45182.548    1027.2599    1.0020832 
   88600    291.92689    90.485823    137626.12   -41180.282    4008.9129   -45189.195    1028.8522    1.0016014 
   88700    285.43294    154.87287     137999.4   -41184.008     3919.734   -45103.742    1032.4094   0.99889217 
   88800    290.74355     55.76876    137891.15    -41182.24    3992.6625   -45174.902    1032.5463   0.99967631 
   88900    286.34773    121.94666    138091.74    -41241.53    3932.2965   -45173.827    1034.6773   0.99822422 
   89000    292.51503   -92.781309    137958.89   -41192.127    4016.9895   -45209.117    1035.5001   0.99918548 
   89100    292.37306    20.270055    138117.99   -41134.855    4015.0398   -45149.895     1036.883   0.99803449 
   89200    284.19877    307.99799    138332.95   -41257.467    3902.7857   -45160.253    1039.0373   0.99648358 
   89300    282.56754    72.911651    138346.96   -41238.376    3880.3847   -45118.761    1041.4766   0.99638272 
   89400    286.12417    176.31982    138442.23   -41192.459    3929.2264   -45121.686     1043.947   0.99569706 
   89500    290.74938   -185.99726    138815.92    -41258.54    3992.7425   -45251.282    1045.8383   0.99301665 
   89600     289.6469    138.68142    138725.01    -41196.97    3977.6027   -45174.573    1046.6635   0.99366735 
   89700    289.33561    128.29051    138443.96   -41208.605    3973.3279   -45181.933    1046.6889   0.99568455 
   89800    287.64343   -31.862426    138415.26   -41206.073    3950.0899   -45156.163      1047.38   0.99589106 
   89900    286.87691   -242.43371     138237.5   -41250.409    3939.5635   -45189.973    1047.5613   0.99717166 
   90000    293.34588   -162.47223    138547.93   -41239.354    4028.3993   -45267.753    1050.3653   0.99493739 
   90100    284.52897   -435.92088    138530.97   -41198.006    3907.3203   -45105.326    1051.7621   0.99505919 
   90200    279.57411   -87.162559    138234.83   -41362.763    3839.2772    -45202.04    1050.8931   0.99719093 
   90300    286.90071   -41.546848    138057.74   -41327.906    3939.8904   -45267.796    1051.8208   0.99847006 
   90400     280.8778   -211.27865    138134.75   -41270.302    3857.1802   -45127.482    1053.8264   0.99791339 
   90500    284.71934   -27.334513    138020.08   -41189.227    3909.9345   -45099.161    1055.1338   0.99874251 
   90600    288.16658   -190.01448    138174.83   -41184.336    3957.2741    -45141.61    1057.8181   0.99762396 
   90700    288.32446    54.742381    138062.96   -41180.743    3959.4421   -45140.185    1056.9196   0.99843228 
   90800    289.79516   -49.596783    137969.84   -41158.006    3979.6387   -45137.645    1057.4211   0.99910614 
   90900    287.10831   -134.15539    137834.72   -41224.396    3942.7413   -45167.137    1057.7942    1.0000856 
   91000    293.59481   -6.7465653     137945.9   -41213.213    4031.8177   -45245.031    1059.5694   0.99927955 
   91100    288.54184   -118.22532    137784.41   -41152.093    3962.4273    -45114.52     1060.838    1.0004508 
   91200    293.03005    42.375264    137666.18   -41194.325     4024.062   -45218.387    1062.1448      1.00131 
   91300    285.18338     173.3447    137660.35   -41245.088     3916.307   -45161.395    1064.1983    1.0013524 
   91400    286.45059    25.893479    137683.15   -41231.678     3933.709   -45165.388    1063.9883    1.0011866 
   91500    287.13641    32.567135    138027.02   -41248.902    3943.1271   -45192.029    1067.0823   0.99869225 
   91600    287.93838    20.470806    138000.95   -41240.349    3954.1402   -45194.489    1068.8562    0.9988809 
   91700    284.73381    54.133869    138161.54   -41356.907    3910.1332    -45267.04    1071.7533   0.99771987 
   91800    284.75394   -189.44081    138191.02   -41392.179    3910.4096   -45302.589    1073.1575   0.99750708 
   91900    286.31636    155.49737     138281.8   -41315.478    3931.8657   -45247.343    1074.1425    0.9968522 
   92000     290.9251     40.53536    138361.45   -41237.539    3995.1557   -45232.695    1076.4924   0.99627835 
   92100    289.20588     121.8616    138590.64   -41180.717    3971.5463   -45152.264    1077.9804   0.99463075 
   92200    292.84605   -82.162091     138477.8   -41151.132    4021.5353   -45172.667    1078.4091   0.99544129 
   92300    287.31607   -140.95879    138139.59   -41174.569    3945.5943   -45120.163    1077.7634   0.99787846 
   92400    298.54387    261.86521    138212.46   -41165.814    4099.7811   -45265.596    1078.9682   0.99735235 
   92500     289.7721   -30.165776    137992.95   -41141.608    3979.3219    -45120.93    1079.7009   0.99893883 
   92600    293.12588   -128.82038    138064.17   -41108.069    4025.3781   -45133.447    1081.3162   0.99842357 
   92700    288.21538    20.323915    138011.27    -41202.77    3957.9441   -45160.714    1083.1973   0.99880622 
   92800    290.66781    176.96226    138005.83   -41240.356    3991.6224   -45231.978    1083.6024    0.9988456 
   92900    294.50306   -59.649455    138321.16   -41196.576    4044.2904   -45240.866    1086.0944   0.99656852 
   93000    290.94212   -43.832614    138421.85   -41189.765    3995.3894   -45185.155    1087.8389   0.99584365 
   93100     289.4008   -74.977622    138330.25    -41212.34    3974.2231   -45186.564    1088.8667   0.99650304 
   93200    291.09893   -261.05304    138168.08   -41149.266    3997.5428   -45146.808    1089.9255   0.99767266 
   93300     290.4186   0.30069633    137947.29   -41071.603    3988.2001   -45059.803    1091.0509   0.99926948 
   93400    289.03687    136.70882    137939.16   -41185.438    3969.2253   -45154.663    1092.6715   0.99932841 
   93500    285.49253   -235.38033    138048.55   -41210.021    3920.5524   -45130.574    1095.2473   0.99853648 
   93600    285.71968   -173.94461    137800.94   -41239.974    3923.6718   -45163.645    1096.5114    1.0003307 
   93700    283.80079    38.254166    137559.09   -41222.645    3897.3204   -45119.965     1095.276    1.0020895 
   93800    287.54396    -39.04782    137800.75   -41107.188    3948.7239   -45055.912    1097.1025    1.0003321 
   93900    287.98152    10.091126    137850.69   -41156.528    3954.7327   -45111.261    1099.3691   0.99996975 
   94000    287.00825    -151.5964    138105.85   -41252.907    3941.3671   -45194.274    1100.9175   0.99812222 
   94100    281.15615    -56.50195    138040.05     -41272.2    3861.0027   -45133.202    1102.6987   0.99859798 
   94200    288.66521    79.446987    138267.88   -41285.493    3964.1216   -45249.615    1105.3664   0.99695258 
   94300    288.05444    -86.53928    138256.23   -41226.772     3955.734   -45182.506    1106.5175   0.99703654 
   94400    287.89005    66.689801    138225.33   -41240.037    3953.4766   -45193.514    1107.2255   0.99725943 
   94500    282.67885   -69.173419    137810.71   -41274.876    3881.9133   -45156.789    1107.3868    1.0002599 
   94600    285.43419    -42.99277    138069.74   -41344.683    3919.7513   -45264.434    1110.4874   0.99838326 
   94700    294.38797    122.65737    138196.19   -41214.167    4042.7099   -45256.877    1112.6026   0.99746973 
   94800     294.0327     125.5619    138253.33   -41212.971    4037.8311   -45250.802    1113.8366    0.9970575 
   94900    288.72697   -93.984164    138523.62   -41229.184    3964.9697   -45194.153    1116.6805   0.99511202 
   95000    289.58029     62.88185    138736.06   -41182.037    3976.6879   -45158.725     1119.005   0.99358823 
   95100    286.33988    -30.23493    138641.71   -41124.172    3932.1887   -45056.361    1119.3578   0.99426443 
   95200    289.08596   -74.786522    138578.55   -41196.447    3969.8995   -45166.347    1119.9772   0.99471758 
   95300    286.03933   -71.696751    138670.48   -41193.513    3928.0614   -45121.574    1119.9486   0.99405816 
   95400    285.06927   -250.99001    138288.08   -41199.138    3914.7399   -45113.878    1119.5533   0.99680693 
   95500    287.62123   -88.060053    138055.15   -41210.729     3949.785   -45160.513    1119.4623    0.9984888 
   95600    285.59838    125.26626    137949.95   -41276.996    3922.0061   -45199.002    1121.3547   0.99925018 
   95700    284.11108    119.59614    138319.53   -41209.446    3901.5815   -45111.028    1124.3245   0.99658031 
   95800    288.37493    325.18632    138582.07    -41164.06    3960.1352   -45124.195    1125.7869   0.99469229 
   95900    282.74676    113.58677    138860.12   -41177.699    3882.8459   -45060.545    1128.9198   0.99270055 
   96000    289.72999    16.676884    138933.53   -41108.155    3978.7437   -45086.899    1130.8418   0.99217605 
   96100    292.85987   -37.957713    138444.55   -41101.157    4021.7251   -45122.882    1128.5382   0.99568032 
   96200    293.97923    108.78244    138371.94   -41131.257    4037.0968   -45168.354    1129.9844   0.99620284 
   96300    293.19386   -5.6952011    138133.59   -41165.712    4026.3117   -45192.024    1130.6483   0.99792179 
   96400    287.87877   -111.26919    138023.29   -41216.859    3953.3217    -45170.18    1130.8653   0.99871924 
   96500    291.34353    23.702651    137780.35   -41213.294    4000.9018   -45214.195    1132.2654    1.0004802 
   96600    296.57753    8.4249814    138143.09   -41135.572    4072.7782    -45208.35    1134.8378   0.99785315 
   96700    289.74838   -220.84953    138494.05   -41090.852    3978.9963   -45069.848    1138.7805   0.99532447 
   96800    293.60375    -266.1221    138287.17   -41055.059    4031.9405       -45087    1139.4578   0.99681348 
   96900    295.02657    366.97464    138266.34   -41086.356    4051.4795   -45137.835    1139.6255   0.99696366 
   97000    290.88407   -34.660048    138496.41   -41095.022    3994.5922   -45089.614    1142.4353   0.99530752 
   97100    283.33803   -4.6887897    138286.37   -41136.861    3890.9655   -45027.827    1142.1959   0.99681924 
   97200    287.21146   -52.749288    138146.85   -41114.926    3944.1578   -45059.083    1142.6638   0.99782598 
   97300    291.22352     81.32307    138184.75   -41165.309    3999.2537   -45164.563    1144.3669   0.99755234 
   97400    285.58394    108.94017    138200.46    -41129.07    3921.8077   -45050.877    1145.5396   0.99743891 
   97500    284.78199   -411.17933    138073.25   -41181.681    3910.7948   -45092.476    1146.0992   0.99835786 
   97600    285.95324    275.45071     138081.3   -41188.018    3926.8792   -45114.897    1148.2807    0.9982997 
   97700    285.83086   -196.42685    137990.78   -41186.465    3925.1985   -45111.663    1149.0539   0.99895457 
   97800    288.73848    63.544965       138019   -41180.598    3965.1278   -45145.725    1149.2488   0.99875028 
   97900    291.65438   -87.489529    137934.09    -41134.54    4005.1706   -45139.711    1148.8884   0.99936511 
   98000    293.46409   -111.15314    137703.82   -41101.278    4030.0226     -45131.3    1149.1327    1.0010363 
   98100    285.92122     308.4972     137936.7     -41130.5    3926.4395   -45056.939    1151.6094   0.99934617 
   98200    291.15347   -78.710765    137609.71   -41076.547    3998.2918   -45074.839    1149.6647    1.0017209 
   98300    292.58033     43.07532    137660.36   -41016.482    4017.8863   -45034.368    1150.3845    1.0013523 
   98400    295.36246     76.18947    137813.06   -41065.834    4056.0921   -45121.926    1152.5153    1.0002428 
   98500     290.3581   -87.327084    137594.68   -41086.251    3987.3694    -45073.62    1152.9311    1.0018303 
   98600    288.09105    19.929966    137836.05   -41181.511    3956.2368   -45137.747     1154.961    1.0000759 
   98700    287.53404   -18.900783    137913.02   -41188.212    3948.5876     -45136.8     1156.851   0.99951776 
   98800    289.19958    3.3288528     137983.4   -41164.998    3971.4598   -45136.458    1159.1732   0.99900797 
   98900     290.7381    126.88733    138306.36   -41165.197    3992.5876   -45157.785    1161.6999   0.99667519 
   99000    292.93895   -5.8934405    138748.68   -41079.587    4022.8111   -45102.398    1165.5391   0.99349783 
   99100    291.71627    33.863493    138823.69   -41154.574    4006.0205   -45160.595     1168.037   0.99296106 
   99200    288.88646   -240.20657    138898.39   -41209.362    3967.1598   -45176.522    1168.3517   0.99242704 
   99300    289.67722   -67.409469    138842.19   -41224.075    3978.0191   -45202.094    1168.6962   0.99282876 
   99400    288.40321   -115.29048    138869.68   -41175.305    3960.5236   -45135.828     1170.697   0.99263222 
   99500    291.49197   -29.093366    138439.11   -41192.264    4002.9403   -45195.204    1170.4682   0.99571946 
   99600    287.94825    38.456589    138395.67   -41293.737    3954.2758   -45248.013    1171.9093   0.99603203 
   99700    289.93325   -29.486639     138076.1   -41213.658     3981.535   -45195.193    1172.0358   0.99833724 
   99800    289.22017   -78.097496    137722.75   -41235.981    3971.7426   -45207.724    1171.4899    1.0008987 
   99900    287.75414   -130.28423    137771.72   -41168.698    3951.6102   -45120.309    1173.9611    1.0005429 
  100000    291.22419   -132.65918    137975.39   -41182.075    3999.2629   -45181.338    1174.9374   0.99906595 
  100100    287.79974    30.919867    137961.41   -41234.501    3952.2363   -45186.738    1176.3023   0.99916719 
  100200    287.99071    -113.1874    137862.35   -41172.031    3954.8589    -45126.89    1176.1969   0.99988518 
  100300    286.52762   -189.38922    137870.91   -41189.713    3934.7669   -45124.479    1177.1106   0.99982306 
  100400    288.53794     201.4982    137695.26   -41183.816    3962.3738   -45146.189    1177.1121    1.0010985 
  100500    280.97587    244.32322    137841.74   -41252.136     3858.527   -45110.663    1180.4901    1.0000347 
  100600    284.67261    106.57385    138002.43   -41225.577    3909.2927   -45134.869    1182.4689   0.99887023 
  100663    290.25504    -63.38322    138114.33   -41162.596     3985.954    -45148.55      1184.56   0.99806091 
Loop time of 123.531 on 6 procs for 100000 steps with 4608 atoms

Performance: 349.710 ns/day, 0.069 hours/ns, 809.515 timesteps/s
99.1% CPU use with 6 MPI tasks x no OpenMP threads

MPI task timing breakdown:
Section |  min time  |  avg time  |  max time  |%varavg| %total
---------------------------------------------------------------
Pair    | 102.15     | 104.24     | 107.79     |  20.8 | 84.38
Neigh   | 7.0953     | 7.1833     | 7.3287     |   3.0 |  5.81
Comm    | 5.7579     | 9.34       | 11.553     |  70.8 |  7.56
Output  | 0.17791    | 0.17901    | 0.18394    |   0.5 |  0.14
Modify  | 1.898      | 1.9533     | 1.9903     |   2.2 |  1.58
Other   |            | 0.6378     |            |       |  0.52

Nlocal:        768.000 ave         771 max         766 min
Histogram: 1 0 3 0 0 0 0 0 1 1
Nghost:        1579.67 ave        1590 max        1564 min
Histogram: 1 0 0 1 1 0 0 0 0 3
Neighs:        0.00000 ave           0 max           0 min
Histogram: 6 0 0 0 0 0 0 0 0 0
FullNghs:      22230.0 ave       22360 max       22152 min
Histogram: 1 1 2 0 0 0 1 0 0 1

Total # of neighbors = 133380
Ave neighs/atom = 28.945312
Neighbor list builds = 7003
Dangerous builds = 0

undump              1
unfix               2
unfix               3
unfix               4


################################################
#######         Run Simulation         #########
################################################

reset_timestep      0
log                 log.run_${NAME}
log                 log.run_liq_289K_1atm_ML
