
# Set production fixes - Nose/Hoover
#
fix                 2 all nph iso ${PRES} ${PRES} ${PCOUPL}
fix                 2 all nph iso 1 ${PRES} ${PCOUPL}
fix                 2 all nph iso 1 1 ${PCOUPL}
fix                 2 all nph iso 1 1 10000.0
fix                 3 all temp/csvr ${TEMP} ${TEMP} ${TCOUPL} 837492
fix                 3 all temp/csvr 289 ${TEMP} ${TCOUPL} 837492
fix                 3 all temp/csvr 289 289 ${TCOUPL} 837492
fix                 3 all temp/csvr 289 289 5000.0 837492

# Define Order parameter
#
compute             2 all orientorder/atom nnn NULL cutoff 3.5
thermo              200
thermo_style        custom step temp press vol etotal ke pe c_1[4]

# Run 1ns simulation
dump		    1 all custom 400 prod.${NAME}.dump id type x y z vx vy vz c_2[*]
dump		    1 all custom 400 prod.ice_289K_1atm_ML.dump id type x y z vx vy vz c_2[*]
run                 200000
Neighbor list info ...
  update every 1 steps, delay 0 steps, check yes
  max neighbors/atom: 2000, page size: 100000
  master list distance cutoff = 6.0032907
  ghost atom cutoff = 6.0032907
  binsize = 3.0016454, bins = 20 17 17
  2 neighbor lists, perpetual/occasional/extra = 1 1 0
  (1) pair sw, perpetual
      attributes: full, newton on
      pair build: full/bin/atomonly
      stencil: full/bin/3d
      bin: standard
  (2) compute orientorder/atom, occasional, copy from (1)
      attributes: full, newton on
      pair build: copy
      stencil: none
      bin: none
Per MPI rank memory allocation (min/avg/max) = 5.820 | 5.820 | 5.820 Mbytes
Step Temp Press Volume TotEng KinEng PotEng c_1[4] 
       0    287.34894    25.336698    148546.58   -47636.248    3946.0457   -51582.294   0.13908655 
     200    285.66453   -24.564583    148550.92   -47627.282    3922.9145   -51550.197   0.14313925 
     400    291.60255   -10.906182    148554.11   -47622.795    4004.4588   -51627.253   0.14224192 
     600    289.42361   -31.837338    148570.69   -47660.036    3974.5363   -51634.572   0.14212349 
     800    289.72789    9.4071395    148522.54   -47674.732    3978.7149   -51653.447   0.14043418 
    1000    284.32419    19.744144    148505.65   -47688.008    3904.5081   -51592.517   0.14254128 
    1200    286.88026    4.3880452    148591.65   -47713.561    3939.6095   -51653.171   0.13970043 
    1400    286.70076   -95.204666    148636.99   -47704.622    3937.1446   -51641.766   0.14138292 
    1600    290.10752     55.37682    148496.31   -47708.323    3983.9282   -51692.251   0.13933561 
    1800    290.18423    63.598279    148473.72   -47715.455    3984.9816   -51700.437    0.1370413 
    2000    285.52712   -87.363189    148662.65   -47669.019    3921.0274   -51590.046   0.13725369 
    2200    287.87341   -79.030286    148654.63   -47638.562     3953.248    -51591.81   0.14162247 
    2400    288.78865    116.89598    148448.26   -47656.721    3965.8167   -51622.538   0.13946452 
    2600    284.99243    44.074048    148481.65   -47701.929    3913.6847   -51615.613   0.14180639 
    2800    285.79272   -131.10529    148670.04   -47718.096    3924.6748    -51642.77   0.14195514 
    3000    287.54665   -12.396011    148555.53   -47729.818    3948.7608   -51678.579   0.13928915 
    3200    284.70476    127.43744    148352.23   -47676.156    3909.7342    -51585.89   0.14325027 
    3400    290.34685    1.5461261     148551.3   -47715.849    3987.2148   -51703.064    0.1380685 
    3600    287.76403   -125.91464     148698.1   -47743.727     3951.746   -51695.473   0.13446311 
    3800    284.92969     91.90073    148388.29   -47669.869    3912.8232   -51582.692   0.14378787 
    4000    291.15197    166.66298     148323.6   -47663.822    3998.2711   -51662.093   0.14007708 
    4200    286.85719   -180.27015    148731.42   -47680.799    3939.2927   -51620.091   0.14331492 
    4400    286.07547   -147.28879    148725.49   -47667.015    3928.5577   -51595.572    0.1435456 
    4600    288.10942    198.15055    148283.89   -47647.513    3956.4891   -51604.002   0.14276283 
    4800    285.77991    113.35842    148417.26   -47637.583    3924.4988   -51562.081   0.14506507 
    5000    286.13954   -229.18238    148856.66   -47617.255    3929.4375   -51546.692   0.14763569 
    5200    291.05713   -44.385781    148619.44    -47619.07    3996.9688   -51616.038   0.14379178 
    5400     291.1156    261.42731    148213.91   -47579.974    3997.7718   -51577.745   0.14549843 
    5600    290.29218    9.1280223    148559.51   -47564.164     3986.464   -51550.628   0.14304354 
    5800    287.01645   -248.50838    148927.61   -47551.974    3941.4798   -51493.454   0.14824617 
    6000    295.67485    96.338971    148503.09   -47538.988    4060.3821    -51599.37     0.140884 
    6200    289.36261    255.89848    148225.07   -47531.932    3973.6987    -51505.63   0.14392546 
    6400    294.67363   -44.992816    148748.11   -47501.974    4046.6327   -51548.607   0.13894441 
    6600    292.52608   -275.76426    148967.33   -47540.338    4017.1412   -51557.479   0.14173629 
    6800    289.36628    167.00898    148361.11   -47580.339    3973.7491   -51554.088   0.14157188 
    7000    291.81836    283.52913    148218.24   -47584.686    4007.4224   -51592.108    0.1428242 
    7200    290.92684   -196.45565    148852.35   -47533.333    3995.1796   -51528.512   0.14404166 
    7400    293.96043    -259.8688    148932.31   -47518.037    4036.8386   -51554.876   0.14654758 
    7600    287.57896    162.56044    148345.56   -47551.157    3949.2045   -51500.362   0.14426868 
    7800    289.20088    185.30161    148363.05   -47580.753    3971.4777    -51552.23   0.13988927 
    8000    292.09509   -219.89975     148913.7   -47547.425    4011.2227   -51558.648   0.14425268 
    8200     291.1007   -144.66339    148797.69   -47583.256    3997.5671   -51580.823    0.1406779 
    8400    297.84283    274.97009    148282.98    -47609.75     4090.154   -51699.904   0.13684338 
    8600    289.94356    90.820081    148476.73   -47568.595    3981.6766   -51550.271   0.13952211 
    8800    292.23397    -218.3036    148912.81   -47498.238    4013.1298   -51511.368   0.14567467 
    9000    285.78631   -61.643295    148666.77   -47477.887    3924.5867   -51402.473     0.149193 
    9200    296.29375    259.02061    148310.58   -47463.936    4068.8811   -51532.817   0.14135211 
    9400    290.79791   -82.787891    148628.21   -47514.768     3993.409   -51508.177   0.14814536 
    9600    291.16955   -232.93186    148904.57   -47503.399    3998.5127   -51501.912   0.14966042 
    9800    294.47671     49.52253    148552.08   -47521.109    4043.9284   -51565.037   0.14707414 
   10000    293.32613    196.74283    148363.18   -47517.472     4028.128     -51545.6   0.14035006 
   10200    290.98493   -83.721298    148713.91   -47509.683    3995.9773    -51505.66   0.14419018 
   10400    291.79951   -161.54701    148798.73   -47496.509    4007.1636   -51503.673   0.14743201 
   10600     292.7097    76.478228    148499.36   -47478.472    4019.6629   -51498.135   0.14850795 
   10800    297.01692    112.41219    148473.08   -47511.288    4078.8122     -51590.1   0.14283783 
   11000    291.14565   -115.92818    148712.98   -47552.928    3998.1843   -51551.112   0.14483145 
   11200    285.35913   -40.185296    148654.62   -47568.632    3918.7205   -51487.353   0.14814761 
   11400    288.72832    91.535721    148412.87   -47595.143    3964.9882   -51560.131   0.14650399 
   11600    291.35239    77.289382    148508.44   -47567.018    4001.0234   -51568.041   0.14514228 
   11800    288.52232   -147.35842    148748.95   -47638.945    3962.1592   -51601.104   0.14417311 
   12000    288.29192   -68.565258    148597.34   -47640.271    3958.9953   -51599.266   0.14609107 
   12200    290.73569    93.944004    148393.19   -47617.881    3992.5545   -51610.435   0.14292123 
   12400    287.25977     41.65689    148540.21   -47586.082    3944.8212   -51530.904   0.14227809 
   12600    289.14406   -143.75762     148713.6   -47596.913    3970.6974   -51567.611   0.14704341 
   12800    291.89932    9.5553265    148546.82   -47607.593    4008.5343   -51616.127   0.14301558 
   13000    289.31352    113.59178    148415.89   -47587.451    3973.0246   -51560.475   0.14462826 
   13200    291.21041    11.657327    148610.77   -47560.767    3999.0738    -51559.84    0.1427227 
   13400    288.95926   -159.84735    148733.39   -47579.674    3968.1596   -51547.834   0.14530687 
   13600    293.17137    60.274178     148516.6   -47570.007    4026.0028    -51596.01   0.14198404 
   13800    287.08916     84.05753    148415.68   -47564.003    3942.4783   -51506.481   0.14745588 
   14000    287.87904   -65.989134    148626.87   -47585.013    3953.3254   -51538.338   0.14446696 
   14200    288.69458   -74.702661    148686.06   -47610.236    3964.5248   -51574.761   0.14214442 
   14400      289.031    58.112577    148467.83    -47635.18    3969.1448   -51604.324   0.14133862 
   14600    286.30414    109.88479    148433.33   -47630.656     3931.698   -51562.354   0.14202013 
   14800    287.55349   -37.605657    148614.94   -47613.019    3948.8547   -51561.874   0.14272778 
   15000    289.84633   -61.266864    148606.26   -47665.707    3980.3414   -51646.049   0.14538185 
   15200    282.50561    46.967702    148450.73   -47718.267    3879.5342   -51597.801   0.14484237 
   15400    286.51039    61.558824       148478   -47735.643    3934.5302   -51670.173   0.14234618 
   15600    285.63379   -14.782723     148586.4   -47770.449    3922.4923   -51692.941   0.13654971 
   15800    287.62108    21.151252    148537.02   -47722.573    3949.7829   -51672.355   0.13979387 
   16000    291.57404    59.634706     148447.8   -47708.856    4004.0673   -51712.923   0.14523589 
   16200     287.1553    -29.76451    148530.11   -47656.838    3943.3866   -51600.224    0.1502791 
   16400     284.8563   -88.953905    148623.67   -47652.523    3911.8153   -51564.338   0.14723771 
   16600    285.75763   -25.617652    148539.67   -47670.165    3924.1929   -51594.358     0.142154 
   16800    289.38782    91.167899    148465.84   -47625.313    3974.0448   -51599.358   0.14341125 
   17000    292.74308   -2.9032704    148570.14   -47649.163    4020.1213   -51669.284   0.14698384 
   17200    287.34521   -65.640327     148626.1   -47631.316    3945.9945   -51577.311   0.14310652 
   17400    283.57081   -14.505949       148521   -47676.642    3894.1622   -51570.804   0.14599186 
   17600     286.3182    59.947378    148462.12   -47714.885     3931.891   -51646.776   0.14427859 
   17800    284.67991   -49.715514    148580.55   -47733.494     3909.393   -51642.887   0.14243834 
   18000    284.19291   -65.562626    148579.34   -47766.712    3902.7052   -51669.417   0.14155471 
   18200    286.33449    45.253625    148431.81   -47792.338    3932.1147   -51724.453   0.13722754 
   18400    283.78746    61.936738    148454.89    -47811.55    3897.1373   -51708.688   0.13897219 
   18600     289.5944    -31.73369    148574.43   -47768.533    3976.8816   -51745.415   0.13590659 
   18800    284.96901    11.691072    148525.98   -47703.697    3913.3631    -51617.06   0.14048125 
   19000    283.61897    48.650217     148453.3   -47731.045    3894.8236   -51625.869   0.14335292 
   19200    285.62489    30.838244    148496.67   -47704.911    3922.3701   -51627.281   0.14422528 
   19400    285.05318   -57.831299     148575.1   -47695.127     3914.519   -51609.645   0.14732777 
   19600    289.05278   -31.388733    148534.18   -47724.147    3969.4439   -51693.591    0.1420926 
   19800    288.62724    67.306249    148453.52   -47720.361    3963.6001   -51683.961   0.13924525 
   20000    288.24718   -28.540427    148504.23   -47709.941    3958.3808   -51668.322   0.14472887 
   20200    288.73106    13.025603    148576.99   -47735.619    3965.0258   -51700.645   0.13636359 
   20400     282.3742   -18.610325    148518.53   -47713.649    3877.7296   -51591.379   0.14528694 
   20600    290.48907    67.968167     148440.1     -47710.7    3989.1678   -51699.868   0.13999861 
   20800    285.77695   -28.860095    148530.38   -47713.142    3924.4583     -51637.6   0.14538135 
   21000    283.82177   -60.209198    148606.69   -47707.872    3897.6086    -51605.48   0.14250523 
   21200    284.57258   -12.896425    148520.76   -47697.716    3907.9191   -51605.635   0.14733515 
   21400    286.85739    31.504351    148482.52   -47693.004    3939.2955     -51632.3   0.14759352 
   21600    285.46968    -53.13413    148560.28    -47648.79    3920.2386   -51569.029    0.1508103 
   21800    288.53631   -14.638841    148572.98   -47600.054    3962.3514   -51562.406   0.14712174 
   22000    289.16481    26.335039    148542.53   -47606.347    3970.9824   -51577.329   0.14464579 
   22200    294.73486    50.391832    148527.52   -47565.191    4047.4736   -51612.665   0.14166112 
   22400    291.81206   -21.472081    148572.77   -47543.448    4007.3359   -51550.784   0.14475886 
   22600    287.40811   -20.367827    148584.08   -47549.159    3946.8582   -51496.017   0.14231534 
   22800    297.35585    9.4005226    148529.08   -47586.268    4083.4666   -51669.735    0.1428869 
   23000    292.05426     57.56362    148488.53   -47603.345     4010.662   -51614.007   0.14185842 
   23200    298.41755    27.033931    148529.55   -47598.538    4098.0464   -51696.585   0.14228123 
   23400    292.00917    5.3779627    148567.98   -47605.827    4010.0428    -51615.87   0.14479178 
   23600     282.0272   -20.412395    148511.25   -47622.097    3872.9644   -51495.061   0.15083589 
   23800    289.65113    40.135389    148486.52   -47561.471    3977.6608   -51539.132   0.14628156 
   24000    291.13239   -0.9488847    148587.79   -47599.772    3998.0022   -51597.774   0.14105292 
   24200    287.48736   -39.178421    148603.86   -47582.606    3947.9466   -51530.552   0.14898799 
   24400    290.72835    33.290994    148459.79   -47588.881    3992.4537   -51581.334   0.14690268 
   24600    288.14933    45.018165    148450.84   -47587.358    3957.0372   -51544.395    0.1445685 
   24800    290.07153   -21.137399    148581.91   -47510.122     3983.434   -51493.556   0.14960613 
   25000    292.15805   -69.032765       148611   -47508.793    4012.0873   -51520.881   0.14941771 
   25200    296.50645    30.775279    148507.79   -47534.711     4071.802   -51606.513   0.14543006 
   25400    289.23429    85.005649    148467.16   -47596.623    3971.9364   -51568.559   0.14423485 
   25600    284.60147   -19.338761       148561    -47618.61    3908.3158   -51526.925   0.15117515 
   25800    287.39764   -51.818426    148582.84   -47595.643    3946.7144   -51542.357   0.14771295 
   26000    290.47933    68.321573    148454.21    -47574.82    3989.0341   -51563.854   0.14538121 
   26200    289.60321    44.628518     148435.5   -47620.315    3977.0027   -51597.318    0.1469121 
   26400     289.7457   -14.644707    148562.91   -47642.641    3978.9594   -51621.601   0.14526109 
   26600    287.12279   -59.413745    148592.39   -47652.204      3942.94   -51595.144   0.14898735 
   26800     285.7104    66.032783    148461.14   -47656.762    3923.5443   -51580.306   0.14278984 
   27000    282.86999    30.498767    148475.45   -47656.645    3884.5382   -51541.183   0.14685669 
   27200    288.11445   -54.215855    148578.46   -47651.252    3956.5581   -51607.811    0.1473378 
   27400    285.98504   -30.099357    148535.39   -47616.504    3927.3159    -51543.82   0.14824995 
   27600    287.24328    71.937873    148442.26   -47620.604    3944.5948   -51565.198   0.14653996 
   27800    296.82864    25.059858    148506.55   -47617.268    4076.2266   -51693.495   0.14352033 
   28000    292.99475   -52.090831    148582.29    -47605.93    4023.5774   -51629.508   0.14298368 
   28200    286.87986    30.751789    148511.02   -47624.453     3939.604   -51564.057    0.1491539 
   28400    291.04195    72.857081    148480.07   -47620.501    3996.7604   -51617.262   0.14222425 
   28600    289.03606   -35.307274    148574.66   -47640.365    3969.2142   -51609.579   0.14980859 
   28800    290.45505   -56.430521    148597.28   -47651.688    3988.7007   -51640.389   0.14642315 
   29000    289.16239    60.068193    148461.16   -47687.446     3970.949   -51658.395   0.13834373 
   29200    284.03302    49.851021    148431.85    -47722.86    3900.5095   -51623.369   0.14386752 
   29400    286.49299    -61.93927    148577.87   -47723.509    3934.2913     -51657.8   0.14026193 
   29600    285.12943   -37.037053    148588.65    -47684.71    3915.5661   -51600.276   0.14750935 
   29800    290.85507    51.587955    148458.82   -47608.291    3994.1939   -51602.485   0.15093571 
   30000    287.48481    12.110804    148485.08   -47597.913    3947.9116   -51545.824   0.14833518 
   30200    282.80815   -82.773765    148621.33   -47606.456    3883.6888   -51490.145   0.14989785 
   30400     284.1888   -51.795245    148552.97   -47658.715    3902.6487   -51561.363   0.14652228 
   30600    292.55591    135.04317    148374.89   -47606.748    4017.5509   -51624.299   0.14536549 
   30800    284.62354   -17.881907     148488.5   -47574.548    3908.6189   -51483.167   0.15236821 
   31000    291.91251    -126.3733    148690.12   -47561.383    4008.7154   -51570.099   0.14857843 
   31200    295.09886    8.2839277    148524.02     -47563.5    4052.4722   -51615.972   0.14780024 
   31400    289.10284    112.97603    148350.72   -47561.657    3970.1313   -51531.788   0.14811083 
   31600    289.87804   -20.470065    148554.08   -47624.031    3980.7768   -51604.808   0.14664915 
   31800    287.39746   -154.64088    148707.43     -47595.5    3946.7121   -51542.212   0.15273751 
   32000    290.15285    63.684325    148473.12   -47565.056    3984.5507   -51549.607   0.14825502 
   32200     290.7082    117.94471    148367.59   -47600.517    3992.1771   -51592.694   0.14910352 
   32400    290.42501   -82.556485    148639.01   -47594.492    3988.2881    -51582.78   0.14704811 
   32600    289.68163   -114.64421    148704.74    -47580.48    3978.0795    -51558.56   0.14671067 
   32800    293.40755    87.514828    148449.63   -47577.753    4029.2461   -51606.999   0.14738295 
   33000    293.43062    140.64175    148432.94     -47567.5    4029.5629   -51597.063   0.14471963 
   33200    287.81128   -148.51722    148733.36   -47562.013    3952.3948   -51514.408   0.15244242 
   33400    295.71605   -90.016819    148697.65   -47523.194    4060.9479   -51584.142   0.14119665 
   33600    294.49869    135.44246    148382.66   -47456.033    4044.2303   -51500.263   0.15215958 
   33800    295.03068    59.561653    148486.03   -47492.759    4051.5359   -51544.294   0.14819127 
   34000    291.96973   -197.25891    148808.33   -47514.045    4009.5011   -51523.546   0.14952832 
   34200    289.87409   -2.4478158    148622.52   -47544.835    3980.7226   -51525.558   0.14462408 
   34400    284.75381    167.04487    148291.64   -47609.866    3910.4079   -51520.273   0.14641601 
   34600    292.79044    34.932642    148518.44   -47585.282    4020.7716   -51606.053   0.14388747 
   34800    291.79294   -216.74829    148835.06   -47625.411    4007.0733   -51632.484   0.13999392 
   35000    289.65441    47.159081    148491.93   -47649.952    3977.7058   -51627.658   0.14191188 
   35200    292.94953    270.73755     148200.4   -47638.315    4022.9564   -51661.271   0.14622994 
   35400    289.52536   -77.845754    148622.59    -47600.82    3975.9336   -51576.753   0.14912555 
   35600    290.12719   -238.73588    148844.39    -47593.41    3984.1983   -51577.609   0.14733352 
   35800    289.15214    93.702679    148352.23   -47594.178    3970.8084   -51564.987   0.14714299 
   36000    292.24592    257.55175    148221.96   -47595.767     4013.294   -51609.061    0.1465293 
   36200    290.52939   -192.76929    148757.72   -47610.972    3989.7216   -51600.693    0.1475905 
   36400    286.85884   -198.09684    148778.04   -47636.771    3939.3154   -51576.086   0.14330129 
   36600     286.1337    210.00863    148216.94   -47611.079    3929.3574   -51540.437   0.14748678 
   36800    286.78693    165.26373    148315.05   -47656.404    3938.3279   -51594.732   0.14522083 
   37000    291.71972   -258.99415    148879.52   -47645.342    4006.0679    -51651.41   0.14405324 
   37200    288.96595       -121.3    148695.21   -47606.685    3968.2515   -51574.936   0.14341819 
   37400    290.60423    254.64763    148205.34   -47598.197    3990.7493   -51588.947   0.14411335 
   37600    290.35504    50.659951    148488.07   -47627.498    3987.3272   -51614.826   0.14236823 
   37800    290.45315   -264.19929    148924.74   -47590.973    3988.6746   -51579.647   0.14358815 
   38000     292.1655   -5.4878257    148529.46   -47645.176    4012.1896   -51657.365    0.1425992 
   38200    283.74032    281.84652     148137.1   -47637.997      3896.49   -51534.487    0.1455662 
   38400    287.51079   -71.782449    148610.48   -47605.632    3948.2683   -51553.901   0.14373816 
   38600    285.68019   -275.21617    148899.43   -47601.115    3923.1294   -51524.244   0.14560048 
   38800    286.10546    120.58101    148380.61   -47651.673    3928.9695   -51580.642   0.14099111 
   39000    284.38777    240.13143    148197.96   -47678.535    3905.3812   -51583.916   0.14226827 
   39200    286.19493   -177.79023    148728.83   -47699.561    3930.1982   -51629.759   0.14285129 
   39400    284.70197   -199.23586    148773.33   -47689.309     3909.696   -51599.005   0.14355838 
   39600     288.8778    197.48638       148248   -47760.042    3967.0409   -51727.083   0.13831456 
   39800    282.03062    173.90209    148296.82   -47748.267    3873.0114   -51621.278   0.14153745 
   40000    278.58916   -219.54179    148761.16   -47759.437    3825.7513   -51585.188   0.14577757 
   40200     284.1422   -67.907931    148628.83   -47734.956    3902.0089   -51636.965   0.14219034 
   40400    282.10981    177.96159     148296.1   -47729.159    3874.0989   -51603.258   0.14355066 
   40600     287.5071    44.798894    148472.51   -47758.261    3948.2176   -51706.478   0.13771375 
   40800    279.74834   -151.67136    148698.31   -47776.832    3841.6697   -51618.502   0.14541281 
   41000    283.82489    14.337177    148528.32   -47733.198    3897.6513    -51630.85    0.1414996 
   41200    283.40294    105.39054    148393.37   -47766.016    3891.8569   -51657.873   0.13742511 
   41400      287.572   -10.833238     148553.1   -47731.437    3949.1089   -51680.546   0.13660195 
   41600    286.88318   -100.31493    148645.48   -47726.121    3939.6496   -51665.771   0.13868393 
   41800    289.16443    9.1909938    148490.28   -47725.474    3970.9772   -51696.452    0.1443995 
   42000    287.94514    77.116406    148461.51   -47698.397    3954.2331    -51652.63    0.1392034 
   42200    285.52053   -46.100253    148598.63   -47724.293    3920.9369    -51645.23   0.13963256 
   42400    283.10323   -34.952151    148566.26   -47774.788    3887.7411   -51662.529   0.14008205 
   42600    282.42374    92.319718    148434.72   -47801.475      3878.41   -51679.885   0.13477761 
   42800    281.47131   -27.853922    148483.87   -47802.383    3865.3306   -51667.713   0.14081014 
   43000    282.86046    -61.93958    148549.25   -47756.256    3884.4072   -51640.663   0.13827491 
   43200    288.40355   -6.0539812    148500.61    -47760.49    3960.5282   -51721.019   0.13748509 
   43400    287.30125    50.254934    148440.76   -47751.241    3945.3908   -51696.632   0.13596446 
   43600    281.10179    12.125636    148480.44   -47744.428    3860.2562   -51604.684   0.13950523 
   43800    287.52104    -25.99173    148542.71   -47717.422    3948.4091   -51665.831   0.14466787 
   44000    286.22316   -4.1326652    148510.18   -47734.989    3930.5859   -51665.575   0.14356249 
   44200    284.35028    24.991476    148455.07    -47776.76    3904.8663   -51681.627   0.14423203 
   44400     287.2088   -17.363381     148499.6   -47751.054    3944.1212   -51695.175   0.14332869 
   44600    290.57819   -22.055163    148574.81   -47688.653    3990.3917   -51679.045   0.13534985 
   44800    288.40085    -15.12502    148569.82   -47654.057    3960.4912   -51614.548   0.14085748 
   45000    285.39262   -38.376299    148500.82   -47691.549    3919.1804   -51610.729    0.1434807 
   45200    286.20207    26.195601    148501.97   -47711.601    3930.2962   -51641.897   0.14050787 
   45400    282.36047   -35.426993    148544.73   -47760.509    3877.5411   -51638.051    0.1423115 
   45600    290.42023  -0.93880083     148523.8   -47750.502    3988.2225   -51738.724   0.13737234 
   45800    287.67661    56.833638    148512.36   -47723.688    3950.5455   -51674.233   0.14000901 
   46000    287.39078   -24.289301    148568.07   -47721.436    3946.6203   -51668.056   0.14070329 
   46200    280.83667   -52.213841    148580.48   -47754.146    3856.6154   -51610.762   0.14498598 
   46400    288.25868    47.157901    148473.09    -47737.37    3958.5388   -51695.909   0.13793189 
   46600    289.86429    105.95174    148460.86   -47735.656     3980.588   -51716.244   0.13288219 
   46800    288.15989   -80.578335    148613.78   -47700.154    3957.1822   -51657.336   0.13795631 
   47000    285.94735   -58.374888     148601.6   -47679.404    3926.7982   -51606.202   0.13862985 
   47200    293.38155     103.4729    148415.71   -47649.979    4028.8891   -51678.868   0.14000048 
   47400    289.15416    66.528167    148466.99   -47580.553    3970.8361   -51551.389   0.14280517 
   47600    289.03015   -122.89432    148721.93   -47554.805    3969.1331   -51523.939   0.14749347 
   47800    293.88993   -49.240259     148648.9   -47523.681    4035.8705   -51559.552   0.14241103 
   48000    299.24066    165.08696    148408.82   -47528.355    4109.3498   -51637.705   0.14083372 
   48200    291.24803    18.456889    148545.67   -47528.496    3999.5904   -51528.086   0.14669738 
   48400    291.23858   -136.49763    148795.17    -47508.66    3999.4606   -51508.121   0.14772685 
   48600    293.98076   -23.594657    148585.66   -47574.071    4037.1178   -51611.189   0.14704555 
   48800    296.16049    220.08473    148338.02   -47516.325    4067.0511   -51583.376   0.14129863 
   49000    294.14984   -52.745237    148646.08   -47494.806    4039.4397   -51534.245   0.14491461 
   49200    290.24136    -157.8422    148856.97   -47526.979    3985.7662   -51512.745    0.1417311 
   49400    291.65226    71.338221    148472.03   -47538.369    4005.1414   -51543.511   0.14531987 
   49600    285.43824    169.96036     148324.3   -47555.941    3919.8069   -51475.748   0.14936364 
   49800    289.09615   -138.49351    148744.01   -47535.956    3970.0394   -51505.995   0.14526558 
   50000     288.7609   -139.43885    148774.14   -47536.094    3965.4356    -51501.53   0.14415285 
   50200    283.74525    165.59162    148299.98   -47572.216    3896.5577   -51468.774   0.14363731 
   50400    290.79212    164.61289    148350.84   -47578.542    3993.3295   -51571.871   0.14310683 
   50600    284.85843   -268.85966    148849.08   -47598.068    3911.8446   -51509.913   0.14956236 
   50800    290.71973   -79.847732     148663.8   -47609.098    3992.3354   -51601.433   0.14169161 
   51000    292.46774     309.2024     148214.6   -47543.667    4016.3402   -51560.007   0.13650469 
   51200    287.47742    14.265589    148544.06   -47575.828    3947.8101   -51523.638    0.1408039 
   51400    292.33483   -266.68151    148936.84   -47538.955    4014.5149   -51553.469   0.14566117 
   51600    293.72252    28.240235    148543.61   -47540.377    4033.5715   -51573.949   0.14325534 
   51800    293.98062    249.68607    148206.21   -47536.309    4037.1159   -51573.425   0.14639682 
   52000    292.22979   -45.095029    148648.61   -47498.565    4013.0725   -51511.638   0.14983325 
   52200    287.57629   -279.64075    148896.55   -47468.409    3949.1678   -51417.577   0.14948216 
   52400     295.3865    128.38761    148387.81   -47450.202    4056.4222   -51506.624   0.14580878 
   52600    293.12142    225.44768    148252.14   -47489.014    4025.3168   -51514.331   0.14771753 
   52800     294.1347   -190.35008       148819     -47508.7    4039.2318   -51547.932   0.14994658 
   53000    292.60639   -246.31797    148881.81   -47512.971    4018.2441   -51531.215   0.14661595 
   53200     292.3754    241.73118     148298.2   -47521.308     4015.072    -51536.38   0.14107182 
   53400    292.36129    219.03135    148328.07   -47551.124    4014.8782   -51566.003    0.1388905 
   53600     289.9638   -237.40511    148884.84   -47577.172    3981.9545   -51559.127   0.13976416 
   53800    289.74588    -140.9599     148753.3    -47554.08    3978.9619   -51533.042   0.14466243 
   54000     297.2036    251.64839    148241.64   -47545.029    4081.3757   -51626.405   0.14202847 
   54200    289.35343    55.098508    148486.98   -47553.975    3973.5726   -51527.547   0.14375722 
   54400    291.83396   -240.89208    148933.27   -47579.557    4007.6367   -51587.194   0.14077628 
   54600    288.75564   -10.966426     148595.5   -47573.812    3965.3633   -51539.176   0.14065092 
   54800    295.86313    274.12553    148266.04   -47518.741    4062.9676   -51581.709   0.14094538 
   55000    294.06068    -32.96548    148644.78   -47522.877    4038.2154   -51561.092   0.14324437 
   55200    288.05063   -220.10779    148878.65   -47550.799    3955.6818   -51506.481   0.14491817 
   55400    288.83635    78.083947    148466.23   -47574.595    3966.4718   -51541.066   0.14246721 
   55600     288.9336    182.44774    148331.44   -47611.538    3967.8072   -51579.345   0.13894403 
   55800    287.03464   -124.17927    148751.77   -47584.286    3941.7296   -51526.016    0.1396764 
   56000    294.03127   -119.02922    148796.67   -47569.896    4037.8114   -51607.707   0.14037292 
   56200     290.0567    102.50779    148439.78   -47604.165    3983.2302   -51587.395   0.14029224 
   56400    292.32123    107.33829    148464.56    -47608.02    4014.3282   -51622.348   0.14158573 
   56600    290.76426   -124.67413    148765.32   -47611.642    3992.9469   -51604.589    0.1411606 
   56800    288.73935   -57.959524    148654.87   -47561.246    3965.1397   -51526.385   0.14381747 
   57000    290.73439    113.10642    148419.45   -47568.538    3992.5367   -51561.074   0.14430892 
   57200    288.55955    16.402372    148561.03   -47598.671    3962.6706   -51561.341   0.14360813 
   57400    290.39639   -144.99527    148735.15   -47617.658    3987.8951   -51605.554   0.14257894 
   57600    286.28753    7.5308983    148540.79   -47606.155    3931.4698   -51537.625   0.13977219 
   57800    287.28876    131.29015    148398.19   -47618.933    3945.2193   -51564.153   0.14053412 
   58000    289.63379    -26.94411    148589.63    -47632.45    3977.4226   -51609.873   0.14176144 
   58200    290.01484   -95.273549    148670.02   -47671.907    3982.6554   -51654.563   0.13989658 
   58400    289.50792    67.914494    148468.66   -47663.635    3975.6941   -51639.329    0.1446234 
   58600    286.44441    60.499972    148429.91   -47642.778    3933.6242   -51576.403   0.14877858 
   58800    289.20437   -60.235101    148641.36   -47675.343    3971.5256   -51646.869   0.14043351 
   59000    285.11822    -36.06975    148618.32   -47698.302    3915.4122   -51613.714   0.14056648 
   59200    285.88825    121.21226    148411.04   -47698.517    3925.9866   -51624.504   0.14374262 
   59400    286.10352    17.204127    148515.48    -47641.57    3928.9429   -51570.513   0.14230519 
   59600    289.55308   -67.776893    148700.35    -47636.72    3976.3143   -51613.034   0.13983552 
   59800     291.7992    30.897289    148555.51   -47622.556    4007.1594   -51629.716   0.14127272 
   60000    293.86941    119.22348    148413.62   -47610.354    4035.5887   -51645.942   0.14317705 
   60200    296.09822    6.4599061    148598.45       -47584     4066.196   -51650.196   0.14266781 
   60400    293.04244   -129.36772    148719.27   -47552.198    4024.2322    -51576.43   0.14780211 
   60600    289.60109    32.336025    148545.84   -47592.726    3976.9735     -51569.7   0.14574489 
   60800    289.99016    92.843377    148438.01    -47532.76    3982.3165   -51515.077   0.14721015 
   61000     289.3063    -53.46406    148641.61   -47571.599    3972.9253   -51544.525   0.14573285 
   61200    289.61991   -130.11551    148682.51   -47575.536     3977.232   -51552.768   0.14574861 
   61400    290.68961    85.594209    148449.19   -47572.877    3991.9218   -51564.798   0.14182131 
   61600    291.60243    80.835705    148417.49     -47564.2    4004.4572   -51568.657   0.14457018 
   61800    290.88361   -92.629671    148616.13    -47563.98    3994.5859   -51558.566   0.14264891 
   62000    283.43946   -76.266551    148581.08   -47587.468    3892.3585   -51479.826   0.14774174 
   62200    289.12226    84.198029    148367.26   -47598.674     3970.398   -51569.072   0.14821612 
   62400    290.45961     70.40127    148463.56   -47558.667    3988.7633    -51547.43   0.14622429 
   62600    291.37594   -143.33956    148716.11    -47579.55    4001.3469   -51580.897    0.1463892 
   62800    291.86955   -49.025753    148571.99   -47555.346    4008.1255   -51563.471   0.14759224 
   63000    294.13294    224.86398    148323.14   -47522.302    4039.2077    -51561.51   0.14447907 
   63200    294.14752    29.261931    148554.44   -47528.326    4039.4079   -51567.734   0.14627215 
   63400     295.0767   -212.22186    148823.99   -47484.073    4052.1679   -51536.241   0.14609437 
   63600    292.78947    67.591574    148493.49   -47464.071    4020.7583   -51484.829   0.14850521 
   63800    293.90498    244.14317    148226.84   -47491.997    4036.0772   -51528.074   0.14628778 
   64000    291.42359   -44.705159    148629.95    -47485.01    4002.0012   -51487.012    0.1514053 
   64200    291.27176   -309.09398    148867.54   -47485.975    3999.9162   -51485.892   0.15901688 
   64400    292.36149    122.19083    148363.19   -47473.253    4014.8811   -51488.134   0.15437623 
   64600     291.0267    228.52114    148207.19   -47529.319    3996.5509    -51525.87   0.15137071 
   64800    290.08982   -181.97619     148776.4   -47539.448    3983.6851   -51523.133   0.15096375 
   65000    291.79288   -230.87199    148839.03   -47528.164    4007.0726   -51535.236   0.14956996 
   65200    286.03697    246.14189    148198.42   -47555.092     3928.029   -51483.121   0.14834755 
   65400     291.2819    175.72209    148294.55   -47582.878    4000.0554   -51582.933   0.14669057 
   65600    292.80107   -291.78537    148972.22   -47605.477    4020.9176   -51626.394   0.14412589 
   65800    287.93385   -159.06492    148708.86   -47580.445    3954.0781   -51534.523   0.14283945 
   66000    293.55252    404.00948    148023.81   -47578.857    4031.2369   -51610.094   0.14266728 
   66200    284.74369    28.439343    148458.69   -47606.289    3910.2689   -51516.558   0.14847498 
   66400    287.87645   -411.95391    149106.06   -47600.375    3953.2897   -51553.665   0.14845342 
   66600    287.10137    5.8108259    148540.62   -47614.727    3942.6459   -51557.373   0.14701391 
   66800    290.38469    402.77518    148011.98   -47596.205    3987.7345    -51583.94   0.14500954 
   67000    286.87012   -122.95123    148641.26   -47626.792    3939.4702   -51566.262   0.14756875 
   67200    289.11977   -337.15256    148988.18   -47645.561    3970.3639   -51615.925    0.1433211 
   67400    288.58265    165.16336    148319.62   -47679.863    3962.9878   -51642.851   0.14258386 
   67600    289.38173    304.96697    148138.11    -47635.45    3973.9612   -51609.411   0.14473321 
   67800    292.63825   -191.61466    148836.57   -47584.839    4018.6817    -51603.52   0.14233965 
   68000    294.59489   -244.36463    148888.46   -47579.472    4045.5514   -51625.023   0.14569736 
   68200    293.38809    244.42846    148239.34   -47651.373    4028.9789   -51680.352   0.14330471 
   68400     288.0711    166.22699    148307.52   -47594.738    3955.9629     -51550.7   0.14818337 
   68600    289.29594   -231.66474    148866.32   -47579.152     3972.783   -51551.935   0.15216391 
   68800    295.11066   -73.854938    148698.47   -47546.409    4052.6343   -51599.044   0.14822431 
   69000    291.70767    217.50526    148278.77   -47591.214    4005.9024   -51597.117   0.14641764 
   69200    293.62549    37.214975     148491.7   -47597.911     4032.239    -51630.15    0.1414941 
   69400    287.64888   -216.34857    148806.21   -47636.922    3950.1647   -51587.087   0.14678571 
   69600    289.06656    -9.672187    148587.47   -47649.862    3969.6331   -51619.495   0.14382436 
   69800    289.33115    153.82364    148347.53   -47616.517    3973.2667   -51589.784   0.14346514 
   70000    289.40913   -53.205712    148566.41   -47577.717    3974.3375   -51552.055   0.14815099 
   70200    293.44366   -98.827593    148735.84   -47560.579     4029.742   -51590.321   0.14060234 
   70400    289.26405     1.835029    148532.82   -47574.098    3972.3452   -51546.443   0.14439688 
   70600    287.17025    96.549289    148396.83   -47546.782    3943.5919   -51490.374   0.15118406 
   70800    289.60417    12.381462    148600.97   -47571.736    3977.0158   -51548.751   0.14891469 
   71000    288.67833   -128.32429    148701.39   -47616.721    3964.3016   -51581.023   0.14767626 
   71200     290.7329     48.60635    148462.24   -47625.067    3992.5163   -51617.583   0.14384584 
   71400    285.92721     55.12438    148392.41   -47592.139    3926.5217   -51518.661   0.15227149 
   71600    293.75086     -38.3177    148639.32   -47569.509    4033.9607   -51603.469   0.14184521 
   71800     294.8075   -72.286475    148677.78    -47588.18     4048.471   -51636.651   0.14094642 
   72000    289.33299    105.25778    148404.66   -47612.876    3973.2919   -51586.168   0.14273109 
   72200    289.66035    32.195169    148416.49   -47649.489    3977.7874   -51627.276   0.14466594 
   72400     290.0313   -121.51696    148673.92   -47630.432    3982.8815   -51613.314   0.14255212 
   72600    289.93845   -76.455907    148602.48    -47597.15    3981.6064   -51578.756   0.14590946 
   72800    291.21922     87.89308    148379.71   -47673.707    3999.1947   -51672.902   0.14590812 
   73000    288.06393     29.12867    148489.78    -47671.92    3955.8643   -51627.784   0.14570553 
   73200    287.00653   -117.72152    148675.78   -47684.351    3941.3435   -51625.694   0.14229654 
   73400    286.26641    3.0955876    148502.56   -47679.676    3931.1797   -51610.856   0.14617559 
   73600    285.48182    107.17912    148381.53   -47662.986    3920.4053   -51583.392   0.14513829 
   73800    290.26082   -66.644468    148614.37   -47658.293    3986.0333   -51644.326     0.141872 
   74000    287.63082   -70.349399    148670.04   -47705.398    3949.9166   -51655.315   0.13978094 
   74200    289.19262    92.548729    148420.88   -47701.653    3971.3642   -51673.017   0.13688921 
   74400    288.68481     119.1599    148399.82   -47664.103    3964.3906   -51628.493   0.14127352 
   74600    283.75496   -118.61946    148666.81   -47687.557    3896.6911   -51584.248   0.14416193 
   74800    287.15447   -84.283344    148655.35   -47697.306    3943.3751   -51640.681   0.14161002 
   75000    285.62228    102.31707     148390.6   -47661.049    3922.3342   -51583.383   0.14653626 
   75200    291.73057    94.068351    148461.49   -47648.593    4006.2168    -51654.81   0.14237941 
   75400    287.84433   -140.24267    148704.36   -47635.943    3952.8488   -51588.791   0.14976234 
   75600    288.25883   -28.886681    148565.21   -47615.257    3958.5409   -51573.798   0.14689688 
   75800    286.73481     128.9637    148352.69   -47592.957    3937.6121   -51530.569   0.14972921 
   76000    290.36236   -23.374303    148560.73   -47579.252    3987.4278    -51566.68     0.144163 
   76200    288.11603   -123.20304    148743.25   -47605.009    3956.5798   -51561.589    0.1453026 
   76400    292.53107    56.075801    148493.49   -47574.563    4017.2097   -51591.773   0.14711392 
   76600    290.21924     115.9413    148371.35   -47561.273    3985.4623   -51546.735   0.14916996 
   76800    290.63121   -81.215963    148665.04   -47562.125    3991.1198   -51553.245   0.15028337 
   77000    290.62158   -112.53679    148746.33   -47563.528    3990.9875   -51554.516   0.14681812 
   77200    290.98608     102.8567    148404.31    -47610.16    3995.9931   -51606.153   0.14944656 
   77400    287.25747    128.15054    148379.06   -47599.953    3944.7895   -51544.742   0.14919984 
   77600    292.56085   -176.05897    148782.25     -47616.5    4017.6188   -51634.119   0.14698854 
   77800    290.90008   -120.51464    148699.55   -47628.485     3994.812   -51623.297    0.1454901 
   78000    288.93701    246.07249    148257.62   -47628.628     3967.854   -51596.482   0.13978788 
   78200     287.9059    92.791238    148423.27   -47623.603    3953.6943   -51577.297   0.14278446 
   78400    287.64771   -272.83917    148847.83   -47642.667    3950.1486   -51592.815   0.14588511 
   78600    285.48532   -18.929584    148542.47   -47659.926    3920.4534   -51580.379   0.14485763 
   78800     288.0058    269.17062    148190.18   -47645.557    3955.0661   -51600.623   0.14181119 
   79000    290.06334   -42.371792    148612.71   -47629.903    3983.3215   -51613.224   0.14261017 
   79200    287.79001   -283.61352    148929.11   -47639.162    3952.1028   -51591.265   0.14573359 
   79400    292.80139    142.36174    148400.32   -47592.965     4020.922   -51613.887   0.14815175 
   79600    283.10079    284.20774       148158   -47582.096    3887.7077   -51469.804   0.15387048 
   79800    289.07534   -170.97837     148749.2   -47609.328    3969.7537   -51579.082   0.14874766 
   80000    289.29738   -231.30233    148841.95   -47579.431    3972.8028   -51552.234   0.14782858 
   80200    292.31662    215.82322    148262.79   -47545.314    4014.2649   -51559.579    0.1434935 
   80400    287.80819    138.83128    148364.34   -47515.932    3952.3524   -51468.284   0.14741552 
   80600    290.14471   -289.87247    148932.51   -47535.919    3984.4389   -51520.358   0.14903907 
   80800    295.94824   -95.298681    148699.89    -47479.47    4064.1365   -51543.607    0.1485335 
   81000    287.87398    299.57308    148170.05   -47530.532    3953.2559   -51483.788   0.14929577 
   81200    294.75062     49.62618    148487.18   -47513.335      4047.69   -51561.025   0.14952465 
   81400    291.62963   -288.45987    148960.63   -47487.816    4004.8307   -51492.647   0.15249517 
   81600     292.8896   -14.678856    148553.62   -47509.848    4022.1333   -51531.981   0.15488524 
   81800    292.65928    293.19548    148170.14   -47513.728    4018.9704   -51532.698   0.15281798 
   82000    293.73038   -53.975506    148648.99   -47480.982    4033.6794   -51514.662    0.1453936 
   82200    292.65691   -254.88443    148922.35   -47524.739    4018.9379   -51543.677   0.14554241 
   82400    291.38473    115.31233    148418.05   -47526.925    4001.4675   -51528.393   0.14438531 
   82600    287.86246    226.62773    148246.51   -47571.719    3953.0976   -51524.817   0.14925771 
   82800    289.37716    -181.9549    148730.01   -47612.124    3973.8984   -51586.022   0.14658174 
   83000    289.50111   -181.55915    148778.24   -47594.661    3975.6006   -51570.262   0.14657818 
   83200    287.60377     134.3169    148363.22   -47614.971    3949.5452   -51564.516   0.14733162 
   83400     289.7853    155.06128    148385.36   -47635.217    3979.5032    -51614.72   0.14570351 
   83600    288.95488   -131.15171    148699.17   -47650.978    3968.0994   -51619.077    0.1478056 
   83800    289.81156   -76.606597    148629.97    -47600.25    3979.8639   -51580.114    0.1474732 
   84000    292.54116    125.38636    148415.27   -47631.686    4017.3484   -51649.034   0.14253521 
   84200    289.52514    21.875609    148510.17    -47619.22    3975.9306   -51595.151   0.14448321 
   84400     288.6502   -83.825202    148659.84   -47622.778    3963.9154   -51586.693   0.14187685 
   84600    293.78186    8.1611579     148530.7   -47620.017    4034.3863   -51654.403    0.1429047 
   84800    286.76865    62.776451    148406.39   -47628.877    3938.0768   -51566.954    0.1508559 
   85000    285.31478   -35.174682     148521.8   -47592.747    3918.1114   -51510.858   0.15735795 
   85200    292.46715   -58.904722    148627.77   -47562.546     4016.332   -51578.878   0.14942406 
   85400    291.43398   -3.9511876    148533.41    -47549.59    4002.1439   -51551.734   0.15096577 
   85600    295.01085     56.57582    148467.32   -47547.044    4051.2636   -51598.308   0.14575027 
   85800    285.49271   -28.658015    148557.16   -47560.317    3920.5549   -51480.872   0.15180661 
   86000    293.63271   -16.143807    148605.95    -47514.65    4032.3382   -51546.988   0.14562535 
   86200    296.97222    28.830786    148543.62   -47525.971    4078.1983   -51604.169   0.14447397 
   86400    287.37153    23.373968    148501.12   -47519.373    3946.3559   -51465.729   0.15283919 
   86600    297.00013    3.8907975    148608.71   -47518.864    4078.5816   -51597.445   0.14430645 
   86800    289.18602   -77.609214    148648.36   -47548.093    3971.2737   -51519.367    0.1495884 
   87000     290.9511    13.616025    148495.74   -47570.854    3995.5128   -51566.367   0.15024761 
   87200    294.89306    97.656374    148432.54   -47540.904     4049.646    -51590.55     0.150764 
   87400    287.34477   -43.844034    148607.86   -47502.727    3945.9885   -51448.715   0.15478664 
   87600    292.26093   -86.929794    148662.05   -47569.954    4013.5001   -51583.454   0.15073076 
   87800     291.1497    84.130383     148414.3   -47575.474      3998.24   -51573.714   0.14702533 
   88000    293.51051    97.054727    148407.28   -47527.589    4030.6601   -51558.249   0.14948496 
   88200    296.29621   -109.21736    148679.47   -47539.449     4068.915   -51608.364   0.14503351 
   88400    290.33528   -86.954614    148615.98   -47524.068    3987.0559   -51511.124   0.15387188 
   88600    289.68108    126.77415    148336.08   -47537.352     3978.072   -51515.424    0.1535226 
   88800    294.02789    41.543095    148430.71   -47529.038    4037.7651   -51566.803   0.15179257 
   89000     289.3625   -165.08199    148697.04   -47548.591    3973.6972   -51522.288   0.15586521 
   89200    295.32615    20.152785    148538.44   -47522.137    4055.5935   -51577.731   0.14953391 
   89400    293.18376    177.41951    148310.27   -47495.265    4026.1729   -51521.438    0.1569098 
   89600    292.60771   -12.383273    148575.95   -47517.948    4018.2623   -51536.211   0.15208866 
   89800    290.14649   -232.59325    148790.48   -47552.586    3984.4633   -51537.049   0.15137845 
   90000    289.25312    112.16908    148407.73   -47568.842    3972.1951   -51541.037   0.14467273 
   90200    295.55635    236.48564     148253.3   -47615.272    4058.7547   -51674.026   0.14050374 
   90400    291.01976    -145.7331    148731.44   -47635.246    3996.4557   -51631.702   0.14432229 
   90600     285.3295   -210.60024    148789.36    -47626.48    3918.3136   -51544.794   0.14870002 
   90800    291.65436    245.06146    148257.02   -47650.571    4005.1704   -51655.741   0.14547425 
   91000    285.47986    166.31915    148301.75   -47650.697    3920.3784   -51571.075   0.14715143 
   91200    288.53312    -282.8743    148870.44   -47664.672    3962.3076   -51626.979   0.14776899 
   91400    288.49304   -110.19991    148674.95   -47654.517    3961.7572   -51616.274    0.1436087 
   91600     289.6986    285.40905     148102.2   -47659.873    3978.3126   -51638.185   0.15045933 
   91800      286.359    78.622911    148429.16   -47636.972    3932.4513   -51569.423   0.14512147 
   92000    285.48535    -335.7104     148980.3   -47650.361    3920.4538   -51570.815   0.14555933 
   92200    287.16711    31.894916    148527.44   -47674.162    3943.5487   -51617.711   0.14405355 
   92400    293.79563    393.25731    148060.75    -47654.08    4034.5755   -51688.656   0.13915791 
   92600    287.51262   -44.819106    148602.67   -47710.934    3948.2934   -51659.227    0.1442014 
   92800    285.33849    -324.3303    148928.45   -47677.341     3918.437   -51595.778   0.14652004 
   93000    290.16339     185.4963     148315.2   -47606.793    3984.6954   -51591.488   0.14711082 
   93200    290.00902    328.78123    148161.68    -47606.74    3982.5755   -51589.315   0.14690291 
   93400    287.56135   -236.70957     148856.3   -47609.653    3948.9626   -51558.615   0.14689028 
   93600    287.34656    -269.7421    148876.93   -47592.262     3946.013   -51538.275   0.15017724 
   93800    294.28589    253.59049    148211.86   -47584.671     4041.308   -51625.979   0.14558559 
   94000    290.28107    209.65174    148292.98   -47584.904    3986.3114   -51571.216   0.14619876 
   94200    287.66152   -237.16195    148862.91   -47666.207    3950.3383   -51616.545    0.1424734 
   94400    286.72503   -153.73769    148652.52   -47651.619    3937.4778   -51589.096   0.14802899 
   94600    291.19018    275.30322    148153.84   -47648.115    3998.7959   -51646.911   0.14234148 
   94800    283.33807    20.590609     148441.8   -47701.659    3890.9661   -51592.625    0.1470233 
   95000    283.27115   -232.61341    148829.29   -47706.266    3890.0471   -51596.313   0.14203814 
   95200     288.0969    33.362683    148497.16   -47713.125    3956.3172   -51669.442   0.14231189 
   95400    285.37354     216.3484    148239.93   -47724.834    3918.9184   -51643.753   0.14420176 
   95600    291.13565   -31.575518    148586.86    -47688.06    3998.0471   -51686.107   0.13788003 
   95800    282.97721   -207.85478    148774.41   -47651.037    3886.0105   -51537.047   0.14816774 
   96000    287.43159     27.96509    148470.27   -47643.832    3947.1807   -51591.013   0.14578115 
   96200    284.31135    101.55247     148365.2   -47686.444    3904.3317   -51590.776   0.15107741 
   96400    288.83443   -97.715671    148614.42   -47680.216    3966.4453   -51646.661   0.14446281 
   96600    289.75359   -96.019534    148647.37   -47692.275    3979.0679   -51671.342   0.13993498 
   96800    283.17187    66.931378    148426.16   -47743.223    3888.6837   -51631.907   0.14045864 
   97000    286.10595    63.320905     148406.4   -47728.053    3928.9763   -51657.029   0.14080841 
   97200    288.37709   -57.840167     148576.8   -47714.788    3960.1648   -51674.953   0.14338453 
   97400    288.24098   -28.210682    148581.22    -47669.41    3958.2958   -51627.706   0.14257987 
   97600     290.3061    88.818697    148471.38   -47642.276    3986.6553   -51628.932   0.14375405 
   97800    286.88427   -42.906802    148513.67   -47636.881    3939.6646   -51576.545   0.14782118 
   98000    293.86359   -16.736441    148598.31   -47607.972    4035.5088    -51643.48    0.1448399 
   98200    284.35703   -44.810363    148548.15   -47618.338    3904.9591   -51523.297   0.15130565 
   98400    286.13534      61.6277    148474.47   -47547.841    3929.3799   -51477.221   0.14976905 
   98600    291.06618   -9.2539601    148523.77   -47595.111     3997.093   -51592.204   0.14262311 
   98800    294.63789   -16.340013    148579.21   -47557.266    4046.1419   -51603.408   0.14104403 
   99000    294.53073    34.448609    148535.42   -47558.793    4044.6704   -51603.463    0.1431106 
   99200    290.85094    48.291693    148489.81   -47623.928    3994.1372   -51618.065   0.14080699 
   99400    289.59051    11.339066    148543.35   -47717.265    3976.8282   -51694.093   0.14043196 
   99600    286.74158   -33.920156    148549.19   -47739.948    3937.7051   -51677.653   0.14384456 
   99800    287.10842    32.630269    148448.53   -47712.102    3942.7428   -51654.845    0.1471376 
  100000    286.25234    50.763027    148443.87   -47711.632    3930.9866   -51642.618   0.14401622 
  100200    289.44471     2.192125     148553.4   -47669.152    3974.8261   -51643.978   0.14318767 
  100400    285.06188   -49.086612    148574.93   -47666.324    3914.6385   -51580.962   0.14680275 
  100600    285.58144    59.715821    148471.42   -47616.185    3921.7733   -51537.958    0.1457752 
  100800     284.7735   -27.858611    148518.59   -47645.893    3910.6783   -51556.572   0.14697834 
  101000    289.05646   -41.671018    148606.33    -47628.51    3969.4944   -51598.005   0.13759937 
  101200    291.57264     23.90402    148546.26   -47607.355    4004.0481   -51611.403    0.1420532 
  101400    287.07464    56.638268    148456.27   -47613.972    3942.2788   -51556.251   0.14512234 
  101600    288.01604   -28.414603    148560.86   -47631.302    3955.2067   -51586.509   0.14636795 
  101800    289.24293   -87.783346    148624.23   -47597.149    3972.0551   -51569.204   0.14762376 
  102000    289.08557    48.237689    148484.01   -47598.581    3969.8941   -51568.475   0.14358915 
  102200    289.39865    22.526022    148454.28   -47590.101    3974.1935   -51564.294   0.14676731 
  102400    296.36353    45.498521    148599.05   -47533.083    4069.8394   -51602.922   0.13544215 
  102600    297.20732   -77.041331    148646.51   -47546.092    4081.4268   -51627.518   0.14855652 
  102800    291.61138    36.753324    148496.78    -47557.29    4004.5801    -51561.87   0.14205646 
  103000    291.33927    82.474596    148462.29   -47552.289    4000.8432   -51553.133   0.14100899 
  103200     291.4675   -102.26755    148648.84    -47533.27    4002.6042   -51535.874   0.14621168 
  103400    293.85897   -35.987725    148616.89   -47562.108    4035.4453   -51597.553   0.14671219 
  103600    289.37045     77.66064    148419.12   -47564.633    3973.8064   -51538.439   0.14812071 
  103800    291.92317    52.945434    148488.69   -47570.275    4008.8618   -51579.137   0.14713344 
  104000    292.18331   -67.533884     148684.3   -47578.289    4012.4341   -51590.723   0.14981296 
  104200    283.07289   -52.593124    148570.83   -47591.304    3887.3244   -51478.628    0.1510659 
  104400    292.16074    126.91705     148389.9   -47609.034    4012.1242   -51621.158    0.1422596 
  104600    287.70111   -1.8208431    148558.94   -47604.267    3950.8819   -51555.149   0.14689057 
  104800    287.03909   -130.24362    148691.95   -47594.688    3941.7907   -51536.479    0.1542638 
  105000    291.78695    45.438274    148455.34   -47623.801    4006.9912   -51630.792   0.14266786 
  105200    294.19083    180.97487    148335.25   -47624.717    4040.0027    -51664.72   0.13834848 
  105400    289.90728   -54.128789    148639.57   -47616.666    3981.1784   -51597.845    0.1449115 
  105600    287.72311   -150.08991    148750.98   -47614.589    3951.1841   -51565.773   0.14646518 
  105800    289.02274     72.60209    148421.94   -47632.027    3969.0313   -51601.058   0.14774356 
  106000      294.086    163.21348    148375.04   -47612.369     4038.563   -51650.932   0.14215785 
  106200    292.87291   -148.71256    148751.86   -47589.084    4021.9041   -51610.988   0.14704406 
  106400     293.2015   -101.54757    148730.83   -47601.094    4026.4165    -51627.51   0.14260481 
  106600    292.25133    156.22369    148349.55   -47602.851    4013.3682   -51616.219   0.14410413 
  106800    291.64891    113.25923    148437.48   -47596.944    4005.0954   -51602.039   0.14203692 
  107000    294.60364   -160.36087     148832.8   -47554.055    4045.6716   -51599.727   0.14261675 
  107200    292.98965    -84.99392    148674.47   -47541.997    4023.5073   -51565.505   0.14663652 
  107400    287.63729    191.18221    148302.53   -47548.755    3950.0055   -51498.761   0.14616861 
  107600    292.45531   -15.046742    148559.11   -47527.983    4016.1694   -51544.152   0.14814537 
  107800    288.96178   -282.31894    148865.24   -47547.988    3968.1942   -51516.182   0.14923315 
  108000    291.96744    9.3357598    148464.65   -47524.855    4009.4697   -51534.325   0.15294131 
  108200    291.30642    264.86491    148218.89   -47558.738    4000.3922    -51559.13   0.14662997 
  108400    291.95064   -110.48516    148696.47   -47555.797     4009.239   -51565.036   0.15135288 
  108600    291.39328   -289.53728    148880.47   -47527.125     4001.585    -51528.71   0.15180485 
  108800    293.18778    170.44806    148360.16   -47548.906    4026.2281   -51575.134   0.14232483 
  109000     287.0192    195.75656    148257.09   -47587.757    3941.5175   -51529.275   0.14693215 
  109200     290.2751   -200.95771    148812.97   -47589.614    3986.2295   -51575.843   0.14798501 
  109400    291.53996   -214.22044    148813.48   -47573.709    4003.5993   -51577.308   0.15048429 
  109600    291.35816    257.08807    148233.04   -47534.026    4001.1027   -51535.128   0.14368348 
  109800    290.51605    195.72312    148355.32   -47587.406    3989.5384   -51576.944   0.14266632 
  110000    290.73423   -332.76598    148957.67   -47524.866    3992.5345     -51517.4   0.14674406 
  110200    292.08738   -95.536937    148714.84   -47512.467    4011.1168   -51523.584   0.14909965 
  110400    289.82534    255.09338    148157.02   -47563.161    3980.0531   -51543.214   0.14842147 
  110600    288.66027    37.812395    148478.65    -47636.39    3964.0537   -51600.444   0.14534329 
  110800    289.83432   -310.24536    148959.43   -47631.541    3980.1764   -51611.717    0.1430087 
  111000    292.94786    29.472817    148557.46   -47633.714    4022.9334   -51656.648   0.13547317 
  111200    290.82738    279.01242    148149.08   -47621.196    3993.8137   -51615.009   0.14547446 
  111400    285.38364   -80.970545    148622.55   -47675.472    3919.0571   -51594.529   0.14534675 
  111600    284.49151   -301.36745    148918.72     -47726.3    3906.8058   -51633.106   0.14413811 
  111800    286.41229    142.64585    148358.49   -47758.957    3933.1831    -51692.14   0.13874601 
  112000    282.75185    258.67796    148137.32   -47750.329    3882.9158   -51633.245   0.14380393 
  112200    286.29618   -144.95807    148714.65   -47709.462    3931.5886   -51641.051   0.14936529 
  112400    287.22435   -256.80399    148834.22    -47676.29    3944.3347   -51620.625   0.14727714 
  112600    287.60081    247.20034    148236.75   -47650.998    3949.5046   -51600.502   0.14690773 
  112800    287.59676    226.97939    148270.28   -47668.514     3949.449   -51617.963   0.14393174 
  113000    284.56008   -316.82688    148881.21   -47646.864    3907.7474   -51554.612   0.14813721 
  113200     288.7504   -133.55286    148712.49   -47680.961    3965.2914   -51646.253   0.14116616 
  113400    283.54721    298.31689    148147.67   -47660.004    3893.8381   -51553.842   0.14810377 
  113600    287.64456    113.65501    148437.19   -47666.376    3950.1053   -51616.482   0.14427646 
  113800    288.90698   -317.96588    148943.61    -47648.56    3967.4417   -51616.001    0.1467766 
  114000    290.90848   0.98281661    148566.04   -47634.073    3994.9274       -51629   0.14018612 
  114200    292.37542    319.95865    148152.81   -47645.755    4015.0723   -51660.828   0.14397787 
  114400    290.84313   -40.864172    148583.16   -47589.382      3994.03   -51583.412   0.15245522 
  114600    286.90712   -278.25222    148904.42   -47560.977    3939.9784   -51500.955   0.14602952 
  114800    290.10733    67.341989    148467.39   -47547.344    3983.9255    -51531.27   0.14769116 
  115000    289.51166    229.19777    148293.55   -47577.561    3975.7455   -51553.307     0.147358 
  115200    289.74338   -141.55572    148735.43   -47592.994    3978.9276   -51571.922    0.1474281 
  115400    289.65939   -182.40948    148783.54   -47604.723    3977.7742   -51582.497   0.14052658 
  115600    292.03974    186.80633     148360.2    -47587.52    4010.4626   -51597.982    0.1395616 
  115800    286.37053    84.970903    148395.04   -47604.844    3932.6096   -51537.454   0.15001758 
  116000    292.11657   -147.53109    148756.95   -47590.885    4011.5177   -51602.403   0.14619891 
  116200    293.61536   -71.209102    148673.57    -47608.58    4032.0999    -51640.68   0.14377046 
  116400    290.71684    136.62787    148377.65   -47649.217    3992.2957   -51641.513   0.14306494 
  116600    289.64074    68.287643    148480.17    -47661.77     3977.518   -51639.288   0.14569747 
  116800    288.03113   -147.23071     148708.8   -47617.991    3955.4139   -51573.405    0.1481388 
  117000    289.69706   -25.055534    148556.37   -47624.522    3978.2915   -51602.814   0.14558413 
  117200    287.07387    167.03799    148339.19   -47613.358    3942.2682   -51555.626   0.14657035 
  117400    288.99154   -56.100288    148521.07   -47639.954    3968.6028   -51608.557   0.14868426 
  117600    294.03749   -125.58512     148680.8   -47620.584    4037.8968   -51658.481   0.14528647 
  117800    291.76269     12.47999    148520.29    -47579.46    4006.6579   -51586.118   0.14841291 
  118000    290.66933    82.784402    148428.67   -47571.077    3991.6432    -51562.72   0.15070319 
  118200    292.69882    -14.80733     148567.2   -47604.696    4019.5134    -51624.21   0.14453536 
  118400    285.50464   -64.376085    148588.32   -47653.239    3920.7187   -51573.958   0.14523321 
  118600    286.49736    39.647348    148456.61   -47681.579    3934.3513    -51615.93   0.14723641 
  118800    281.78718    21.900169    148445.38   -47729.502    3869.6683   -51599.171   0.14892968 
  119000     283.5347   -17.849335    148504.64   -47728.869    3893.6664   -51622.535   0.14829166 
  119200    281.40801   -26.408989    148524.13   -47729.751    3864.4614   -51594.212   0.14815054 
  119400    284.02717    45.205368     148464.4   -47755.397    3900.4292   -51655.826   0.14156408 
  119600    283.17298    25.077835    148446.98   -47695.358    3888.6989   -51584.057   0.14803097 
  119800    287.24669   -33.136232    148564.52   -47691.736    3944.6416   -51636.377   0.14366295 
  120000    289.45092   -64.497015    148558.82    -47709.61    3974.9113   -51684.521    0.1498007 
  120200    289.31646    109.24073    148390.95   -47682.824    3973.0649   -51655.889   0.15098183 
  120400    286.42134    20.964023    148456.32   -47729.587    3933.3073   -51662.894   0.14340172 
  120600    282.40074   -114.92892    148629.88    -47722.36    3878.0942   -51600.454   0.14636858 
  120800    290.16057    15.639466    148519.14     -47713.9    3984.6567   -51698.556   0.14364937 
  121000    280.04472     66.42054    148380.76   -47698.623    3845.7399   -51544.363   0.15263775 
  121200    286.08085   -8.3704269    148546.68   -47697.883    3928.6316   -51626.514   0.14396705 
  121400    285.59963   -102.25961    148656.85   -47696.503    3922.0231   -51618.526   0.14607645 
  121600    287.16394    64.012339    148410.64   -47686.328    3943.5052   -51629.833   0.15037362 
  121800    289.27457    147.76088    148328.33   -47685.289    3972.4896   -51657.778   0.14226629 
  122000    286.65394   -132.09214    148696.28   -47661.979    3936.5016    -51598.48   0.14598862 
  122200    292.62607   -115.65592    148731.46   -47630.407    4018.5144   -51648.921   0.14238301 
  122400    291.15044    231.31833     148309.7   -47584.919    3998.2501   -51583.169   0.14860361 
  122600    288.60548    129.99084    148414.44   -47507.702    3963.3012   -51471.004   0.14969331 
  122800     292.3313   -339.46041    148955.96   -47508.504    4014.4664    -51522.97   0.15160969 
  123000    288.59558   -113.23681    148746.05   -47554.895    3963.1654    -51518.06   0.14576323 
  123200     293.2648    342.46955    148186.32   -47578.609    4027.2858   -51605.895   0.14528545 
  123400    288.22992    42.138662    148505.65   -47662.721    3958.1439   -51620.865   0.14347307 
  123600    287.41628   -320.68611     148992.5   -47608.607    3946.9704   -51555.577    0.1482034 
  123800    287.35829    13.168162    148529.98   -47631.632    3946.1742   -51577.806   0.15204135 
  124000    290.28792    337.70854    148114.07    -47614.11    3986.4055   -51600.516   0.14727448 
  124200    289.51107   -93.114971    148666.02   -47599.805    3975.7374   -51575.542   0.14708008 
  124400    288.49679   -308.75629    148964.68   -47612.249    3961.8087   -51574.058   0.14936476 
  124600    289.00712     144.8231    148356.83   -47631.526    3968.8169   -51600.343    0.1537422 
  124800    290.69972    255.57659    148204.43   -47636.804    3992.0606   -51628.865    0.1450579 
  125000    289.37004   -193.75282    148817.42    -47645.14    3973.8006   -51618.941   0.13978598 
  125200    289.16509   -190.41001    148793.89   -47634.597    3970.9861   -51605.583   0.14688233 
  125400    284.23167    244.90561    148178.46   -47702.381    3903.2375   -51605.618   0.14859468 
  125600    289.98459    131.50324    148313.12   -47697.887    3982.2401   -51680.127   0.14657423 
  125800    288.40007   -235.37263    148898.48   -47687.756    3960.4805   -51648.236   0.14365827 
  126000    284.90526   -134.32307    148681.21   -47654.455    3912.4877   -51566.943   0.15097494 
  126200    290.10243     314.3735    148132.11   -47634.852    3983.8583   -51618.711   0.14325196 
  126400    289.33426    65.704953    148462.91   -47664.993    3973.3093   -51638.302   0.14461009 
  126600    284.49456   -273.44321    148906.12   -47688.234    3906.8476   -51595.082   0.15133982 
  126800    289.70613   -4.1810093    148518.72   -47660.262    3978.4161   -51638.678   0.14884052 
  127000    290.08137    270.65381    148203.94   -47676.964    3983.5691   -51660.533   0.14152944 
  127200    289.28494   -59.952121    148633.95   -47712.349     3972.632   -51684.981   0.13903287 
  127400     283.3841   -230.35541    148852.42   -47710.071    3891.5982    -51601.67    0.1472072 
  127600    289.57619    98.544869    148407.67   -47705.352    3976.6317   -51681.984   0.14545266 
  127800    290.71108    214.95661    148262.43   -47694.474    3992.2166   -51686.691    0.1418045 
  128000    290.49639   -116.08618    148683.53   -47692.517    3989.2684   -51681.785   0.14613734 
  128200    282.39258    -181.4519    148779.05   -47657.437     3877.982   -51535.419   0.15165182 
  128400    284.94459    133.36934    148406.37   -47684.572    3913.0278     -51597.6   0.14452481 
  128600    286.83964    112.35796    148367.24   -47717.498    3939.0517    -51656.55   0.14457408 
  128800    287.34584   -118.23915    148696.64   -47753.628    3946.0031   -51699.631   0.14202263 
  129000    284.63315   -118.98533    148675.47   -47786.465    3908.7509   -51695.216    0.1461026 
  129200    286.68177    135.43514    148369.16   -47745.201    3936.8837   -51682.084    0.1428147 
  129400    290.00962    59.835317    148444.25   -47744.989    3982.5838   -51727.573   0.13656866 
  129600    283.35641   -138.50442     148679.2   -47743.554    3891.2179   -51634.772   0.14893739 
  129800    286.50485    -63.46996    148573.75   -47756.581    3934.4542   -51691.036   0.14273637 
  130000    285.70532    113.44907    148393.68   -47765.089    3923.4746   -51688.564   0.13957399 
  130200    280.62944    25.518814    148500.03   -47783.536    3853.7696   -51637.305   0.14030812 
  130400    284.24815   -97.400362    148632.64    -47768.23    3903.4638   -51671.694   0.14224257 
  130600     285.5252    40.565387    148524.81   -47724.225     3921.001   -51645.226   0.14324949 
  130800    286.88571    78.057187     148441.3   -47746.118    3939.6843   -51685.803   0.13749416 
  131000    283.69246   -24.354668    148540.03   -47764.425    3895.8328   -51660.257    0.1417069 
  131200    284.31544   -32.355646    148587.29   -47737.199    3904.3879   -51641.587   0.14749074 
  131400    286.56701    31.164277    148504.04   -47739.281    3935.3077   -51674.588   0.13930799 
  131600    281.32504    47.493119    148489.71   -47732.218    3863.3219    -51595.54   0.14075228 
  131800      286.002   -24.735924    148599.56   -47704.805    3927.5487   -51632.354   0.13988083 
  132000    286.60191   -31.080455    148612.36   -47649.011    3935.7871   -51584.798   0.14283655 
  132200    286.51634    59.089155    148528.65    -47656.05     3934.612   -51590.662   0.14077591 
  132400    287.38758   -4.1124945    148544.45   -47659.886    3946.5764   -51606.463   0.14100771 
  132600    282.92789   -50.961245    148589.55   -47635.458    3885.3333   -51520.791   0.15050368 
  132800    285.98617    34.536212     148542.9   -47606.656    3927.3313   -51533.987   0.14978357 
  133000     297.0802     50.63087    148550.07   -47601.489    4079.6811    -51681.17   0.13975014 
  133200    291.39396   -20.635515       148589   -47549.082    4001.5943   -51550.677   0.15254225 
  133400    290.52351    10.714397    148579.37   -47534.206    3989.6408   -51523.847   0.14721271 
  133600    287.76454    11.755527    148551.41    -47547.37    3951.7529   -51499.123   0.14777008 
  133800    289.91797    1.3135995    148572.23   -47567.251    3981.3252   -51548.576   0.14417603 
  134000    291.89386    15.949392    148579.45   -47517.803    4008.4593   -51526.262   0.14872688 
  134200    295.82427    24.480188    148548.72   -47531.035     4062.434   -51593.469   0.14390695 
  134400    293.61132    61.173228    148536.62   -47528.897    4032.0444   -51560.941   0.14132969 
  134600     292.5757   -1.7607111    148576.61   -47545.095    4017.8227   -51562.918     0.146279 
  134800    289.51361   0.90261302    148591.42   -47588.228    3975.7723   -51564.001   0.15190558 
  135000    290.01626    22.395796    148544.86   -47643.384    3982.6749   -51626.059    0.1456781 
  135200    288.28561    49.712854    148507.72    -47653.22    3958.9087   -51612.129   0.14044599 
  135400    288.58588   -4.9456403    148548.89    -47674.15    3963.0321   -51637.182   0.14302442 
  135600    286.79248    -22.17957    148533.38   -47638.083     3938.404   -51576.487   0.14708162 
  135800    286.42031    13.426621     148470.9   -47709.193    3933.2933   -51642.487   0.14471449 
  136000     285.9482    18.079544    148475.69   -47740.158      3926.81   -51666.968   0.14093852 
  136200    281.89331   -58.389561    148541.78   -47750.801    3871.1257   -51621.927   0.14522306 
  136400    289.23051    41.156354    148505.75   -47704.218    3971.8846   -51676.103   0.13999517 
  136600    289.30993    59.553846     148448.1   -47648.067    3972.9753   -51621.043   0.14148763 
  136800    285.77522   -33.619423    148564.76    -47657.53    3924.4345   -51581.965   0.14810541 
  137000     287.1101   -101.68112    148626.49   -47661.914    3942.7659    -51604.68    0.1495299 
  137200    288.45499    71.917682    148453.64   -47693.915    3961.2347    -51655.15   0.14538887 
  137400    286.94321    104.68848    148392.74   -47651.406     3940.474    -51591.88   0.14312231 
  137600    288.82517    -85.65297     148609.2    -47644.65    3966.3181   -51610.968   0.14654723 
  137800    290.23457   -104.61818    148648.56   -47617.717    3985.6729    -51603.39    0.1479455 
  138000    293.42806    124.01177     148415.1   -47615.285    4029.5279   -51644.813   0.14236913 
  138200    290.29356    122.43746     148414.8    -47665.21     3986.483   -51651.693   0.14499873 
  138400    286.46505   -116.95017     148654.5   -47650.276    3933.9076   -51584.184   0.15080926 
  138600    288.28501    -64.74196    148563.94   -47663.003    3958.9005   -51621.904   0.14930715 
  138800    290.95498    157.87924    148319.15   -47613.812     3995.566   -51609.378   0.14452286 
  139000     289.1554    48.278651    148476.78   -47601.823    3970.8531   -51572.676   0.14995647 
  139200    286.01433   -162.36914    148721.83   -47602.118    3927.7181   -51529.837   0.15405315 
  139400    290.26954    4.5833456    148510.68    -47630.28    3986.1531   -51616.433   0.14860572 
  139600    292.00564    201.27736    148272.43   -47611.652    4009.9943   -51621.647   0.14584063 
  139800    285.91515   -18.148125    148586.09   -47572.411     3926.356   -51498.767   0.15106973 
  140000    291.86454   -240.76194    148845.58   -47539.658    4008.0566   -51547.714   0.15146187 
  140200    292.74977    80.511051    148453.28   -47582.337    4020.2131    -51602.55   0.14792976 
  140400    290.19454    216.80129    148238.08   -47607.089    3985.1232   -51592.212   0.14712652 
  140600     289.4162   -100.18164    148676.48    -47606.69    3974.4346   -51581.125   0.14964875 
  140800    291.41146   -188.84868    148816.19   -47598.689    4001.8347   -51600.524   0.14928868 
  141000    292.45792    216.68971    148301.25   -47636.165    4016.2053    -51652.37   0.14307261 
  141200    287.37732    204.13547     148280.2   -47588.335    3946.4355    -51534.77   0.15148838 
  141400    291.94507   -253.54429    148883.27    -47593.79    4009.1625   -51602.952   0.15118014 
  141600    285.35319   -168.72571    148759.06   -47575.702    3918.6388   -51494.341    0.1527231 
  141800    287.77205    331.38591    148123.56   -47629.646    3951.8561   -51581.503   0.14994511 
  142000    285.93504    143.41017    148381.02   -47646.559    3926.6292   -51573.188   0.14698477 
  142200    290.34112   -326.17031    148991.92   -47642.784    3987.1361    -51629.92   0.14697216 
  142400    288.95547   -43.708642    148630.31   -47645.943    3968.1075   -51614.051   0.14278522 
  142600    286.06953    352.11294       148091   -47636.536    3928.4761   -51565.012   0.14877064 
  142800    284.43502   -65.248077    148566.76   -47642.936      3906.03   -51548.966   0.15495701 
  143000    286.09326   -367.15771    149004.14   -47703.307     3928.802   -51632.109    0.1497815 
  143200     289.2613    114.30552    148420.88   -47672.221    3972.3074   -51644.529   0.14206655 
  143400    292.16692    336.42203    148142.15   -47637.017     4012.209   -51649.226   0.14741332 
  143600    290.79253   -173.32716    148782.46   -47627.197    3993.3351   -51620.532   0.15069218 
  143800    288.27349   -280.90427    148897.49   -47638.483    3958.7422   -51597.225   0.15036191 
  144000    291.50263    242.21933    148248.43   -47627.477    4003.0866   -51630.563   0.14289779 
  144200    286.34667    180.44653    148287.79   -47601.352    3932.2819   -51533.634   0.15437756 
  144400     285.8309   -301.66562    148902.49   -47603.381     3925.199   -51528.581   0.15036108 
  144600    289.94103   -130.39644    148736.93   -47576.732    3981.6418   -51558.374   0.14450853 
  144800    295.04238    271.30806    148207.74   -47546.738    4051.6966   -51598.434   0.14864836 
  145000    288.95998    57.556425    148454.63   -47591.354    3968.1695   -51559.524   0.15155622 
  145200      292.764   -261.78942    148852.82   -47621.088    4020.4085   -51641.497   0.15041568 
  145400    288.93294   -20.206383    148555.62   -47625.458    3967.7981   -51593.256   0.14731886 
  145600     290.8205    223.93379       148263   -47643.618    3993.7193   -51637.337    0.1485077 
  145800    291.95715   -45.395082     148596.2   -47659.539    4009.3284   -51668.867   0.14544737 
  146000    291.38548   -168.47617    148780.61    -47646.89    4001.4778   -51648.368   0.14460593 
  146200    286.32389    84.056702    148458.21   -47678.136    3931.9691   -51610.105   0.14567109 
  146400     290.8488    176.94844    148368.06   -47631.395    3994.1079   -51625.503   0.14327206 
  146600     292.0581   -85.804626    148724.02    -47595.65    4010.7148   -51606.365   0.14230846 
  146800    293.20256   -82.905903    148761.21   -47551.323    4026.4312   -51577.755   0.13923879 
  147000    288.52807    103.13204    148442.63   -47565.638    3962.2382   -51527.876   0.15131555 
  147200    286.28824    88.020738    148437.18   -47533.579    3931.4796   -51465.058     0.157437 
  147400    289.63394   -125.91115    148715.22   -47598.898    3977.4247   -51576.323   0.15261893 
  147600    289.15873   -79.882005    148629.57   -47611.434    3970.8988   -51582.332   0.14741465 
  147800    286.79321    96.165965    148350.76   -47652.366    3938.4142    -51590.78   0.14983775 
  148000    292.11152    53.822308    148429.06   -47617.657    4011.4483   -51629.105   0.15241778 
  148200    287.26411   -88.551456    148672.03    -47658.45    3944.8809   -51603.331    0.1439467 
  148400    284.74904   -53.464619    148559.36   -47707.888    3910.3424   -51618.231   0.14418004 
  148600    280.58862    116.71839    148355.93   -47675.756    3853.2089   -51528.965    0.1466591 
  148800    290.17131    23.521822    148531.49   -47680.271    3984.8042   -51665.075   0.14403983 
  149000    288.95338   -113.18365    148647.93   -47685.478    3968.0789   -51653.557   0.14290629 
  149200    289.36726     5.279113    148461.14   -47692.075    3973.7625   -51665.837   0.14876735 
  149400    285.63862    105.84565    148382.92   -47713.832    3922.5587    -51636.39   0.15302673 
  149600    285.92071    6.1707572    148574.65    -47713.67    3926.4324   -51640.102   0.14660115 
  149800    283.78441   -76.416243    148660.42   -47699.806    3897.0955   -51596.901   0.14286913 
  150000    287.55104    27.927909    148484.43    -47659.33    3948.8211   -51608.151   0.14414568 
  150200    287.35518    91.930684    148424.59   -47604.789    3946.1314    -51550.92   0.15188771 
  150400    292.59164   -6.3509445    148617.27   -47575.571    4018.0415   -51593.612   0.14259641 
  150600    290.46267   -83.976155    148626.87   -47625.585    3988.8053   -51614.391   0.14113736 
  150800    283.14653    43.232671    148395.75    -47588.33    3888.3358   -51476.665   0.15289518 
  151000    287.56356    58.769253     148436.7   -47628.501     3948.993   -51577.494   0.15093725 
  151200    287.62664   -83.279682    148669.58   -47615.551    3949.8593    -51565.41    0.1451222 
  151400    296.71466   -49.642706    148612.75   -47529.471    4074.6613   -51604.132   0.14884197 
  151600    289.75764    108.80286    148407.67   -47515.802    3979.1234   -51494.925   0.15637378 
  151800    292.76438     13.74751     148535.9    -47529.38    4020.4138   -51549.794   0.14897928 
  152000      290.326   -112.46892    148739.62   -47530.363    3986.9285   -51517.292   0.14447161 
  152200    291.15866    15.176644    148575.82   -47550.325    3998.3631   -51548.688   0.14528945 
  152400    290.73368    126.69697    148393.18   -47599.142     3992.527   -51591.669   0.14999811 
  152600    294.85601   -28.169692    148558.67   -47569.219    4049.1373   -51618.356   0.14858641 
  152800    291.42967   -135.36877     148738.6   -47501.397    4002.0847   -51503.482   0.14888236 
  153000    285.03278  -0.57357418     148537.1   -47569.347    3914.2388   -51483.586   0.15374601 
  153200     293.6145     171.5496    148342.77   -47511.638    4032.0881   -51543.726   0.15445244 
  153400    289.99338    19.056163    148587.18   -47564.649    3982.3607   -51547.009   0.14589186 
  153600    291.30625   -148.21191    148737.23   -47591.651    4000.3898   -51592.041   0.14923199 
  153800    288.11911    79.742109    148420.01   -47620.186    3956.6222   -51576.808   0.15437537 
  154000    289.99117    157.44172    148289.01   -47635.292    3982.3304   -51617.623   0.14901357 
  154200    287.88151   -92.090324    148645.91   -47581.407    3953.3593   -51534.766   0.14507295 
  154400    296.15481   -125.78801    148737.91   -47574.929    4066.9731   -51641.903   0.14632409 
  154600    285.60249    153.79324    148313.51   -47594.743    3922.0625   -51516.806   0.15512765 
  154800    291.12825    181.04245    148304.31   -47611.219    3997.9455   -51609.165   0.14916689 
  155000    297.00399   -173.03491    148808.05   -47599.717    4078.6346   -51678.351   0.14399801 
[...]
  163200    291.44579   -98.221778    148674.28   -47670.347    4002.3062   -51672.653   0.14560317 
  163400    291.59633   -14.231237    148621.49   -47704.696    4004.3734    -51709.07   0.14504689 
  163600    288.12255    105.86732    148445.31   -47654.647    3956.6694   -51611.316   0.14450091 
  163800    284.33925   -8.9420519       148544   -47714.272    3904.7149   -51618.987   0.14487921 
  164000    289.68829   -98.436679    148646.39   -47730.873     3978.171   -51709.044   0.14456528 
  164200    289.57418    23.921277    148511.91   -47728.397    3976.6041   -51705.001   0.14663253 
  164400    287.93044    48.223656    148456.48   -47670.662    3954.0312   -51624.693   0.14639711 
  164600    287.24246   -69.987865    148640.38   -47649.404    3944.5835   -51593.988    0.1446562 
  164800    289.99303   -46.283728    148690.81   -47688.541    3982.3559   -51670.897   0.14207807 
  165000    291.10572    88.537462    148517.26   -47664.523    3997.6361   -51662.159   0.14167051 
  165200    287.92112    72.307137    148480.03   -47661.428    3953.9032   -51615.332   0.14292319 
  165400    286.35792   -95.974902    148654.28    -47690.11    3932.4365   -51622.547   0.14671376 
  165600    291.20339    -17.46203    148626.64   -47628.997    3998.9774   -51627.974   0.14582413 
  165800    289.31455    77.092936    148463.37   -47654.146    3973.0386   -51627.185   0.14780652 
  166000    291.16358    53.766605    148525.66    -47613.35    3998.4306   -51611.781   0.14332443 
  166200    292.24806    -95.84956    148698.63   -47644.535    4013.3233   -51657.858   0.14960261 
  166400    290.39241   -68.304283    148577.25   -47640.047    3987.8404   -51627.887   0.15593414 
  166600    287.81022    136.41222    148373.71   -47634.353    3952.3802   -51586.733   0.14588956 
  166800    288.41595    27.677886    148518.13   -47693.846    3960.6986   -51654.544    0.1412582 
  167000    286.29768   -167.45339    148710.02   -47694.196    3931.6092   -51625.805   0.14914897 
  167200    289.62526    40.797689    148505.59   -47642.487    3977.3056   -51619.793   0.15005234 
  167400    287.04926    125.19535    148372.47   -47687.391    3941.9304   -51629.321   0.14298571 
  167600    289.72248   -38.022164    148612.39   -47670.246    3978.6406   -51648.887   0.14044969 
  167800     285.5926   -119.92308    148698.36   -47738.078    3921.9267   -51660.005   0.14820387 
  168000    288.35157    149.23544    148361.75   -47726.367    3959.8145   -51686.181    0.1466105 
  168200    289.69284    150.78828    148316.48   -47724.183    3978.2335   -51702.416   0.14422587 
  168400     285.5118   -141.14762    148683.57   -47679.301    3920.8171   -51600.119   0.15125045 
  168600    286.98698   -135.90723    148644.25   -47690.135    3941.0751    -51631.21   0.15541987 
  168800    285.32831    187.97955    148237.11    -47727.77    3918.2972   -51646.067   0.14999138 
  169000    284.16966    105.06416    148330.59   -47712.716     3902.386   -51615.102   0.14683902 
  169200    285.97736   -264.02898    148785.47   -47680.511    3927.2104   -51607.722    0.1509492 
  169400     288.5727   -47.723887    148587.97   -47706.613    3962.8512   -51669.464   0.14600518 
  169600      287.412    226.75381    148173.23   -47716.835    3946.9118   -51663.747    0.1460826 
  169800    286.73338     7.705409    148480.04   -47722.774    3937.5925   -51660.367   0.14727488 
  170000    289.06679   -248.30724    148836.47   -47760.266    3969.6362   -51729.903   0.15090805 
  170200    286.74163    55.134066    148461.12   -47769.638    3937.7058   -51707.344   0.14995945 
  170400     280.8559    259.30001    148170.22   -47739.302    3856.8794   -51596.182   0.14523451 
  170600    285.82848   -94.632773     148598.7   -47720.825    3925.1659   -51645.991   0.15106423 
  170800    280.50531   -222.80975    148821.96   -47744.254     3852.065   -51596.319   0.15243562 
  171000    281.81282    93.188947     148367.4   -47744.781    3870.0204   -51614.801    0.1496361 
  171200    286.16998    236.84375    148234.47   -47772.407    3929.8555   -51702.262   0.14041645 
  171400    283.15204   -148.39924    148740.33   -47768.375    3888.4114   -51656.786   0.14244391 
  171600    284.38406   -232.30088    148778.97   -47732.528    3905.3302   -51637.858   0.14660656 
  171800     288.1987    215.33227    148246.13   -47710.686    3957.7151   -51668.401   0.14374139 
  172000    284.21184    179.09115    148324.58   -47717.098    3902.9653   -51620.063   0.14255581 
  172200    288.29166    -266.9256    148838.11   -47724.291    3958.9917   -51683.282   0.15246607 
  172400    288.91014   -72.396173    148672.38   -47692.486     3967.485   -51659.971   0.14625346 
  172600     287.7439    223.11624    148212.62   -47677.232    3951.4696   -51628.702   0.14791185 
  172800     285.1668    26.406958    148475.73   -47685.874    3916.0793   -51601.953   0.15163057 
  173000    286.40023    -244.7302    148891.47   -47703.501    3933.0175   -51636.519   0.15142827 
  173200    291.23239    31.147365    148534.26   -47740.991    3999.3756   -51740.367   0.14284818 
  173400    283.69331    279.75633     148167.5   -47726.913    3895.8445   -51622.758   0.14231613 
  173600     285.2541   -42.838572    148622.83   -47678.864    3917.2781   -51596.142   0.14585334 
  173800    287.33235   -291.08722    148918.14   -47678.503     3945.818   -51624.321   0.14792415 
  174000    289.94595    125.33242    148428.08   -47642.435    3981.7094   -51624.144   0.14284057 
  174200     292.0309    223.12743    148280.51   -47637.536    4010.3412   -51647.877   0.14764769 
  174400    290.65492   -126.52492    148813.63   -47620.565    3991.4455    -51612.01   0.14946398 
  174600    291.11462   -193.81064    148859.95   -47632.926    3997.7583   -51630.684   0.15081585 
  174800    294.28481    197.73086    148345.93   -47597.327    4041.2932    -51638.62   0.14525082 
  175000     283.5724    150.79925    148430.98   -47645.076     3894.184    -51539.26   0.14737892 
  175200    293.15306    -214.0553    148900.52   -47643.023    4025.7514   -51668.775   0.14741657 
  175400    285.84389   -65.068738    148719.29    -47651.37    3925.3774   -51576.747   0.14342639 
  175600    288.56145    248.18553    148279.62   -47663.857    3962.6966   -51626.554   0.13808853 
  175800     284.5389    64.543447    148538.27   -47648.241    3907.4565   -51555.698   0.14281971 
  176000    292.05237   -215.28141    148913.85   -47635.941     4010.636   -51646.577   0.14425849 
  176200    291.24409    6.9333121    148619.09   -47585.797    3999.5362   -51585.333    0.1410293 
  176400    290.56868    207.31426    148371.23   -47625.219    3990.2611    -51615.48   0.14239876 
  176600    285.62331   -42.657965    148661.92   -47605.163    3922.3483   -51527.511   0.15256983 
  176800    289.34738   -129.89665    148810.03   -47612.636    3973.4895   -51586.126    0.1463149 
  177000    294.18361    72.165008    148533.14    -47629.28    4039.9035   -51669.184   0.14229483 
  177200    284.40438    118.99312    148426.54   -47641.829    3905.6093   -51547.438    0.1463726 
  177400     281.8166   -62.657225    148648.17   -47729.609    3870.0724   -51599.682   0.14752367 
  177600    292.72014   -50.303116    148676.42   -47696.523    4019.8062   -51716.329   0.13825783 
  177800    287.08676    69.337016    148489.59   -47674.437    3942.4453   -51616.882   0.13747978 
  178000    292.04492    49.324466    148467.41   -47633.682    4010.5337   -51644.216   0.14831141 
  178200     288.7915   -30.825846     148622.9   -47668.597    3965.8558   -51634.453   0.14631182 
  178400     292.6319    17.947513    148632.51   -47644.452    4018.5944   -51663.046   0.14007841 
  178600    293.08469    64.517655     148530.2   -47660.803    4024.8124   -51685.616   0.14536377 
  178800    286.67806    27.351006    148548.73   -47629.407    3936.8329    -51566.24    0.1512768 
  179000    289.13554   -35.957701    148638.06   -47604.719    3970.5804   -51575.299   0.15277138 
  179200    289.78432    14.396838    148584.31   -47628.573    3979.4898   -51608.063   0.14535832 
  179400    293.03356    114.89967    148484.36   -47601.858    4024.1103   -51625.968   0.14441447 
  179600    293.33328    1.7380206    148549.09   -47608.228    4028.2262   -51636.454   0.14934899 
  179800     285.3345   -66.985426    148644.77   -47635.603    3918.3823   -51553.985   0.14718423 
  180000    290.76847   -28.666567     148547.6    -47602.67    3993.0047   -51595.675   0.14531419 
  180200    288.32763    69.088172    148435.69     -47563.4    3959.4857   -51522.886   0.15309589 
  180400    288.22874    29.653764    148566.11   -47519.766    3958.1277   -51477.893   0.15336439 
  180600    287.76172    -97.27943    148676.64   -47608.326    3951.7142    -51560.04   0.14780455 
  180800     295.3702    69.081179    148502.09   -47572.835    4056.1984   -51629.034   0.14730594 
  181000    290.40562    69.284997    148424.68   -47613.991    3988.0219   -51602.013   0.15485422 
  181200    291.47562    2.5446264    148598.85   -47597.521    4002.7157   -51600.236   0.14985277 
  181400    287.86302   -61.689662    148647.61   -47635.066    3953.1054   -51588.171    0.1437194 
  181600     280.9799    79.012699    148445.34    -47654.96    3858.5823   -51513.543   0.15004906 
  181800    285.90564    65.319184    148428.46   -47627.526    3926.2255   -51553.752   0.15327624 
  182000    288.87046   -128.82935    148659.75   -47635.783    3966.9401   -51602.723    0.1501181 
  182200     286.4987   -88.552015    148612.82   -47650.125    3934.3698   -51584.495   0.14924517 
  182400    285.33345    102.80864    148347.38   -47650.724    3918.3678   -51569.092   0.15311304 
  182600    290.35295    57.427301    148439.65   -47614.633    3987.2986   -51601.932   0.15153245 
  182800    290.05383   -163.68814    148731.81   -47578.632    3983.1909   -51561.823   0.15339659 
  183000    289.25454    1.6630819    148570.53   -47579.313    3972.2145   -51551.527   0.15361663 
  183200    289.35282     154.8833    148346.03   -47562.421    3973.5642   -51535.985    0.1591175 
  183400    290.93954   -10.562187    148619.51   -47571.299     3995.354   -51566.653   0.14545917 
  183600    290.69636   -196.97184    148787.59   -47599.732    3992.0145   -51591.746   0.14459952 
  183800    287.76087    104.30444    148399.74   -47631.516    3951.7025   -51583.219    0.1494011 
  184000    289.67276      192.191    148272.34   -47643.941    3977.9578   -51621.899   0.15081583 
  184200    288.87123   -121.69302    148746.34   -47686.066    3966.9508   -51653.017   0.14137623 
  184400    285.31916   -190.82761     148794.6   -47694.798    3918.1715   -51612.969    0.1422813 
  184600    287.30223    245.65394    148238.37   -47702.974    3945.4042   -51648.378   0.14642983 
  184800     281.7098    155.74166    148301.11   -47691.521    3868.6058   -51560.127   0.15147899 
  185000    284.86072   -233.64459    148884.92   -47681.372    3911.8761   -51593.249   0.14432652 
  185200    283.27366   -145.51989     148689.4   -47738.406    3890.0815   -51628.487   0.15197677 
  185400    287.44787    323.32776    148097.11   -47716.145    3947.4042   -51663.549   0.15323852 
  185600    286.41623    77.110562    148449.13   -47720.874    3933.2372   -51654.111    0.1469585 
  185800    293.51099   -318.70285    149009.82   -47665.919    4030.6666   -51696.585   0.14287329 
  186000    288.31733     5.348607    148580.03    -47652.58    3959.3442   -51611.924   0.14582422 
  186200    289.30503    290.57517    148153.32   -47644.755    3972.9079   -51617.663   0.15308536 
  186400    293.27588   -63.549554    148655.57   -47596.204    4027.4379   -51623.642   0.14613304 
  186600     290.1865    -274.4226    148943.97   -47628.334    3985.0128   -51613.346   0.14724504 
  186800    283.55805    98.042423    148372.69   -47654.476     3893.987   -51548.463   0.15608471 
  187000    290.66852    267.55331     148195.1   -47626.255    3991.6321   -51617.887   0.15556842 
  187200    285.18645   -187.51601    148773.42   -47645.279    3916.3492   -51561.628   0.15646425 
  187400    288.74637   -194.78871    148839.07   -47631.207     3965.236   -51596.443   0.15391872 
  187600    284.04924    158.64202     148317.1   -47671.486    3900.7323   -51572.218   0.15769902 
  187800    291.36755    123.62295    148379.02   -47662.195    4001.2317   -51663.427   0.14991185 
  188000     285.5782   -197.94421    148848.95   -47633.825    3921.7289   -51555.554   0.14294793 
  188200    288.59568   -47.570018    148662.33   -47624.989    3963.1667   -51588.156    0.1465432 
  188400    289.92521     261.6459    148262.82   -47612.658    3981.4245   -51594.083   0.14779093 
  188600    292.70997    49.120107    148543.52   -47619.841    4019.6666   -51639.508   0.14543595 
  188800    289.93722   -231.65704    148861.23   -47632.681    3981.5896   -51614.271   0.14980872 
  189000    288.13834    24.566479    148526.12   -47624.879    3956.8862   -51581.766   0.15152607 
  189200    291.37907    208.41343     148284.6   -47628.888    4001.3898   -51630.278   0.15297448 
  189400     292.9876   -75.163157    148656.07   -47591.644    4023.4791   -51615.123   0.15225659 
  189600    288.33422   -211.43705    148797.57   -47604.812    3959.5762   -51564.388   0.16049835 
  189800    287.49925    124.83116    148366.97   -47643.912    3948.1099   -51592.022   0.15994579 
  190000    286.78549    187.10043    148288.08   -47674.928    3938.3081   -51613.236   0.14868952 
  190200    285.84619   -137.60807    148687.18   -47649.354    3925.4091   -51574.763   0.15362582 
  190400     288.6638   -97.607684    148685.18    -47646.97    3964.1022   -51611.072   0.14817575 
  190600    289.17254    173.93801    148324.17   -47591.219    3971.0885   -51562.308   0.15895067 
  190800    290.05844    66.001033    148417.73   -47623.987    3983.2542   -51607.241   0.15541081 
  191000    290.49986   -156.74811     148752.1   -47635.514     3989.316    -51624.83   0.15079876 
  191200    283.57637   -52.056573    148566.57   -47627.057    3894.2386   -51521.296   0.16017621 
  191400    286.21824    147.17809    148273.15   -47651.911    3930.5183   -51582.429   0.15553974 
  191600    288.25366    5.5198253    148553.62   -47607.082    3958.4699   -51565.552   0.15821655 
  191800    289.54865   -174.57903    148792.02   -47640.054    3976.2534   -51616.307   0.15347532 
  192000    287.83887    45.553042    148437.72   -47640.594    3952.7737   -51593.368   0.15415538 
  192200    286.78032    216.70769    148245.05   -47609.722    3938.2372   -51547.959   0.14841398 
  192400     289.2325   -112.14744    148657.74   -47618.341    3971.9119   -51590.253    0.1441519 
  192600    291.56899   -202.31874    148769.97   -47647.071    4003.9979   -51651.069   0.15211055 
  192800    286.35349    149.85398    148342.37   -47623.852    3932.3756   -51556.227   0.15312192 
  193000    284.80137    155.93636    148317.61    -47613.63     3911.061   -51524.691   0.14879235 
  193200    287.27117   -183.07024    148751.55   -47567.724    3944.9777   -51512.702    0.1527892 
  193400    292.93115   -78.973806    148695.71   -47570.355    4022.7039   -51593.059   0.15535164 
  193600    290.45733    202.12869    148266.23   -47582.708     3988.732    -51571.44   0.15329814 
  193800    290.79974    81.820991    148382.81   -47632.721    3993.4341   -51626.155   0.15205295 
  194000    284.80248   -187.97325    148781.91   -47656.618    3911.0763   -51567.695   0.14935209 
  194200    290.50906    -64.56931    148615.17   -47643.776    3989.4423   -51633.218   0.15229097 
  194400    287.45026    202.68422    148281.68   -47624.603    3947.4371    -51572.04   0.14792548 
  194600     286.6217   -17.704291    148510.77   -47649.712    3936.0588   -51585.771   0.14794219 
  194800    289.52051   -205.67869    148767.02   -47634.851     3975.867   -51610.718   0.15444671 
  195000    287.99686    83.465857       148470   -47617.504    3954.9433   -51572.447   0.15056151 
  195200    289.87508    188.84516    148308.38   -47603.676    3980.7362   -51584.412   0.15213337 
  195400     288.8816   -89.255835    148661.27   -47606.329    3967.0931   -51573.422    0.1498855 
  195600    287.22705    -167.1463    148779.45   -47610.787    3944.3719   -51555.159   0.15419188 
  195800    286.13174    57.705357    148428.62    -47656.18    3929.3304   -51585.511   0.15463913 
  196000    285.13089    137.12315    148370.21    -47626.84    3915.5861   -51542.427   0.14777036 
  196200    282.65352   -130.23288    148729.96   -47613.912    3881.5655   -51495.478   0.14934174 
  196400     288.2147    -124.6034    148704.96   -47614.863    3957.9348   -51572.797   0.14869218 
  196600    284.91648    145.41839    148356.22   -47680.606    3912.6418   -51593.247   0.14467413 
  196800    288.85971    94.366775    148445.25   -47672.214    3966.7926   -51639.006   0.13807765 
  197000    283.22228   -229.02344    148788.84    -47681.75     3889.376   -51571.126   0.15298161 
  197200    287.77559   -95.623259    148607.73   -47738.197    3951.9047   -51690.101   0.14927067 
  197400    281.78954     213.8656    148222.33   -47695.373    3869.7007   -51565.074   0.15173876 
  197600      293.298    99.744977    148522.03    -47610.53    4027.7418   -51638.272   0.14322024 
  197800    285.86445   -268.43157    148948.76   -47595.875    3925.6599   -51521.535   0.14993209 
  198000    285.87965     23.32458    148528.96   -47625.874    3925.8686   -51551.742   0.14896617 
  198200    291.24516    301.19735    148136.47    -47652.08     3999.551   -51651.631   0.14608698 
  198400    293.11458   -76.471968    148650.36   -47580.268    4025.2229   -51605.491   0.15156402 
  198600    290.10283   -311.44674    148951.83   -47568.229    3983.8638   -51552.092   0.15130143 
  198800    290.54954    170.15149    148345.33   -47601.472    3989.9983    -51591.47   0.14653658 
  199000    290.66242    304.15223    148166.17   -47607.727    3991.5484   -51599.276   0.14777438 
  199200     291.4962    -222.2927    148851.94   -47602.812    4002.9983   -51605.811   0.15480567 
  199400    290.18922   -222.54304    148896.89   -47613.047    3985.0502   -51598.097   0.15178816 
  199600    287.39722    308.41669    148168.44   -47635.331    3946.7088    -51582.04   0.15101052 
  199800    285.74756    223.31738    148265.82   -47614.045    3924.0547     -51538.1   0.15143466 
  200000    290.94317   -311.22372    149004.06   -47634.133    3995.4039   -51629.537   0.14581553 
Loop time of 111.087 on 6 procs for 200000 steps with 4608 atoms

Performance: 777.771 ns/day, 0.031 hours/ns, 1800.395 timesteps/s
98.0% CPU use with 6 MPI tasks x no OpenMP threads

MPI task timing breakdown:
Section |  min time  |  avg time  |  max time  |%varavg| %total
---------------------------------------------------------------
Pair    | 77.62      | 78.446     | 79.343     |   6.3 | 70.62
Neigh   | 12.417     | 12.589     | 12.869     |   5.4 | 11.33
Comm    | 9.1258     | 9.8701     | 10.844     |  21.0 |  8.89
Output  | 3.1135     | 3.1148     | 3.1203     |   0.1 |  2.80
Modify  | 5.6709     | 5.7985     | 5.8872     |   3.2 |  5.22
Other   |            | 1.269      |            |       |  1.14

Nlocal:        768.000 ave         786 max         744 min
Histogram: 1 0 0 1 0 1 0 1 1 1
Nghost:        1396.83 ave        1422 max        1380 min
Histogram: 1 2 0 0 1 0 1 0 0 1
Neighs:        0.00000 ave           0 max           0 min
Histogram: 6 0 0 0 0 0 0 0 0 0
FullNghs:      21853.7 ave       22330 max       21171 min
Histogram: 1 0 1 0 0 0 1 1 1 1

Total # of neighbors = 131122
Ave neighs/atom = 28.455295
Neighbor list builds = 12466
Dangerous builds = 0
write_data		data.${NAME}
write_data		data.ice_289K_1atm_ML
System init for write_data ...
Total wall time: 0:02:44
