
# Import phase coexistance setup
#
read_data           ../data.ice_water_1atm
Reading data file ...
  orthogonal box = (-0.037551654 -0.031298218 -0.031298218) to (113.76774 57.301808 57.301808)
  3 by 1 by 2 MPI processor grid
  reading atoms ...
  11553 atoms
  reading velocities ...
  11553 velocities
  read_data CPU = 0.032 seconds

# Define potential
#
pair_style 	    sw
pair_coeff	    * * ../ML.sw mW
Reading sw potential file ../ML.sw with DATE: 2019-02-27

# Reset velocity/set timestep
#
velocity	    all create ${TEMP} 120598 rot yes dist gaussian
velocity	    all create 287 120598 rot yes dist gaussian
timestep	    10.0

# Define output
#
compute	            1 all msd
compute             2 all orientorder/atom nnn NULL degrees 2 4 12
thermo              100
thermo_style        custom step temp press vol etotal ke pe c_1[4]

# Neighbor lists
#
neigh_modify        delay 0 every 1 check yes

# Set fixes
#
fix                 1 all momentum 10 linear 1 1 1 rescale
fix                 2 all nph iso ${PRES} ${PRES} ${PCOUPL}
fix                 2 all nph iso 0 ${PRES} ${PCOUPL}
fix                 2 all nph iso 0 0 ${PCOUPL}
fix                 2 all nph iso 0 0 10000.0
fix                 3 all temp/csvr ${TEMP} ${TEMP} ${TCOUPL} 837492
fix                 3 all temp/csvr 287 ${TEMP} ${TCOUPL} 837492
fix                 3 all temp/csvr 287 287 ${TCOUPL} 837492
fix                 3 all temp/csvr 287 287 5000.0 837492

# Run longer equilibration 0.5 ns
#
dump 1 all atom 1000 eq.${NAME}.dump
dump 1 all atom 1000 eq.Tmelt_287K_AUTO.dump
run 50000
Neighbor list info ...
  update every 1 steps, delay 0 steps, check yes
  max neighbors/atom: 2000, page size: 100000
  master list distance cutoff = 6.0032907
  ghost atom cutoff = 6.0032907
  binsize = 3.0016454, bins = 38 20 20
  2 neighbor lists, perpetual/occasional/extra = 1 1 0
  (1) pair sw, perpetual
      attributes: full, newton on
      pair build: full/bin/atomonly
      stencil: full/bin/3d
      bin: standard
  (2) compute orientorder/atom, occasional, copy from (1)
      attributes: full, newton on
      pair build: copy
      stencil: none
      bin: none
Per MPI rank memory allocation (min/avg/max) = 4.643 | 4.644 | 4.646 Mbytes
Step Temp Press Volume TotEng KinEng PotEng c_1[4] 
       0          287   -103.75023    374087.66   -103807.79    9882.6492   -113690.44            0 
     100    353.73725   -303.52993    371788.91   -104290.49    12180.701    -116471.2    3.2262353 
     200    349.53371   -12.741336    367733.69   -104798.58    12035.955   -116834.54    6.6669935 
     300    346.52926    7.6770506    365535.18   -105119.65    11932.499   -117052.15    10.161959 
     400    340.22221    142.40404    365008.12   -105618.36     11715.32   -117333.68    12.953305 
     500    334.41085   -60.861926    364805.65   -105980.66     11515.21   -117495.86    15.796349 
     600    328.66574   -36.729482    364457.91   -106342.43    11317.381   -117659.81    18.770819 
     700     326.0623   -93.756021    363768.03   -106624.36    11227.733   -117852.09    21.423238 
     800    320.91522     263.1302    363116.46   -106900.75    11050.497   -117951.24    24.062974 
     900    320.59813    55.936242    363277.12   -107096.82    11039.578    -118136.4    26.282665 
    1000    317.60255   -78.531679    363330.13   -107314.59    10936.427   -118251.02    28.418175 
    1100    310.42294    59.025676    362754.68    -107573.4    10689.202    -118262.6    30.583043 
    1200     309.5668   -125.99579    362006.19   -107794.68    10659.722    -118454.4    32.837678 
    1300    308.90853    132.27506    361188.87   -108012.17    10637.054   -118649.23    35.036837 
    1400    307.59679    81.719511    361395.73   -108161.18    10591.885   -118753.06    36.726737 
    1500    306.82615    52.473102    361423.11   -108311.63    10565.349   -118876.98    38.670387 
    1600    303.31983    179.27322    361536.51   -108452.65    10444.612   -118897.26    40.404192 
    1700    304.73528    66.278096    361711.05   -108566.43    10493.351   -119059.78    41.805312 
    1800    302.31598   -99.557171    361586.52   -108666.26    10410.045    -119076.3    43.591509 
    1900    302.17929   -2.9221957    361063.61    -108714.9    10405.338   -119120.23    45.254909 
    2000    300.07133    132.01735    360486.58   -108757.18    10332.751   -119089.93    47.348814 
    2100    297.66297    98.690684    360875.12   -108933.98    10249.821    -119183.8    48.815136 
    2200    297.20983   -35.038632    361600.69   -108982.48    10234.218   -119216.69    50.253885 
    2300    297.97233   -5.0698658    361785.12   -109013.79    10260.474   -119274.26    51.986282 
    2400    297.37548    66.129497    361321.93   -109047.81    10239.922   -119287.73    53.562717 
    2500    301.99909     10.79606     360775.1   -109054.57    10399.133    -119453.7    55.035454 
    2600    297.83169   -80.154248    360492.19   -109138.42    10255.631   -119394.06    56.511777 
    2700    296.04209    77.351189    360384.29   -109135.97    10194.007   -119329.98    58.168506 
    2800    297.62092    29.603235    361403.68   -109248.74    10248.373   -119497.11    59.578176 
    2900    291.35567   -414.04024    362285.86   -109375.69    10032.634   -119408.32    60.929591 
    3000    293.52772    82.478521    361283.22   -109411.13    10107.427   -119518.56    62.351608 
    3100    291.80281    9.6037851    360538.02   -109489.81    10048.031   -119537.84    63.799246 
    3200    293.65702    178.36227     360845.7   -109534.17    10111.879   -119646.05    65.373796 
    3300    292.72736   -200.40445    361121.44   -109522.13    10079.867      -119602    67.013763 
    3400    293.83268    5.1999477    360458.06   -109538.09    10117.928   -119656.02    69.010035 
    3500    291.23095    158.21155    360228.97   -109616.54    10028.339   -119644.88    70.593371 
    3600    293.61112   -40.003967    361265.86   -109641.44    10110.299   -119751.74    71.834401 
    3700    291.33784   -221.95566    361973.05   -109699.83     10032.02   -119731.85    73.533826 
    3800     291.1213    66.968652    361083.55   -109783.95    10024.563   -119808.52     74.81697 
    3900    291.88905    192.78456    360265.43   -109827.74        10051   -119878.74     76.13188 
    4000    290.37297    -85.29106    360625.97   -109828.65    9998.7951   -119827.45    77.616153 
    4100    290.80124   -15.320967    360792.57   -109841.77    10013.542   -119855.31    78.971457 
    4200    290.23521    187.66072    360465.56   -109830.79    9994.0514   -119824.84    80.485938 
    4300     293.5478    92.084957    360985.26   -109866.47    10108.118   -119974.59    81.741201 
    4400    291.72601   -110.74628     361511.2   -109904.75    10045.386   -119950.13    82.909816 
    4500    287.45828    17.885622     360764.4    -109799.4    9898.4299   -119697.83    84.078201 
    4600    290.49929    101.93717    360544.06   -109772.21    10003.145   -119775.35    85.064602 
    4700    290.01342   -97.853532    361151.57   -109701.98    9986.4142    -119688.4    86.734782 
    4800    295.25053     230.8468    360980.66   -109758.05     10166.75    -119924.8    87.771815 
    4900    294.37741   -183.81538     361367.4   -109776.02    10136.685   -119912.71    89.209849 
    5000    291.06873   -65.276962    361036.12   -109822.18    10022.753   -119844.94    90.546571 
    5100    290.53706    98.910891    359913.16   -109858.82    10004.445   -119863.26    92.017512 
    5200    291.86478     271.0502    359784.37   -109907.93    10050.165   -119958.09    93.266716 
    5300    290.34197   -118.29403    360573.31   -109874.72    9997.7278   -119872.45    94.520765 
    5400    288.13882   -22.086333    360648.55   -109908.85    9921.8637   -119830.72    96.054094 
    5500    288.90069    77.213347    360439.32   -109898.36    9948.0982   -119846.46     97.01432 
    5600    287.41462   -64.846533    361050.55   -110039.91    9896.9265   -119936.84     98.24752 
    5700    283.67722   -52.251946    361334.08   -110109.37    9768.2315    -119877.6     99.25288 
    5800    285.98801    61.394393    360458.37    -110091.1    9847.8019    -119938.9    100.59119 
    5900    289.54191    177.97526     359761.9   -110075.13    9970.1781   -120045.31    101.87203 
    6000    289.92292    102.87622    359840.81   -110106.04    9983.2978   -120089.34    103.32082 
    6100    289.65676   -21.915362    360423.58   -110057.04     9974.133   -120031.17    104.28107 
    6200     287.5992   -154.93559    360733.32   -110058.09    9903.2823   -119961.37    105.47581 
    6300    289.20136    211.48007    360374.57   -110009.19    9958.4515   -119967.64    106.73428 
    6400    289.83875   -19.399996    360794.07   -110056.11    9980.3997   -120036.51    108.08733 
    6500    288.98535   -210.26731    361730.76   -110002.33    9951.0132   -119953.35    109.49523 
    6600    289.38838   -123.29887    361235.09   -109995.95    9964.8913   -119960.84    110.34832 
    6700    288.36438    148.26584    360268.17   -110075.41    9929.6308   -120005.04    111.78893 
    6800    288.96854    68.620579    360621.82   -110082.27    9950.4347    -120032.7    112.84001 
    6900    290.50425    25.554813    361186.26   -110059.82    10003.316   -120063.14    114.11847 
    7000    293.09895    4.8887537    360976.76   -110033.86    10092.662   -120126.52    115.69219 
    7100    291.43143    227.13992    360429.81   -110038.18    10035.243   -120073.42    116.97261 
    7200    285.79093    50.939394    360605.33   -110156.69    9841.0156   -119997.71    118.13939 
    7300    293.99344   -121.77785    361069.43   -110086.93    10123.464   -120210.39    119.32682 
    7400    288.93071   -348.05827    361417.51   -110021.45    9949.1318   -119970.59    119.97086 
    7500    287.70747    118.09529    360998.47   -110071.64    9907.0103   -119978.65    120.93616 
    7600    293.08768   -10.731973    360643.35   -110055.06    10092.274   -120147.33    121.96191 
    7700    292.10666   -23.411782     360746.2   -110055.67    10058.493   -120114.17    123.31744 
    7800    290.21798    -155.4895    361232.21   -110070.98    9993.4583   -120064.43    124.48039 
    7900    288.88888    213.24783     361285.9   -110099.84    9947.6915   -120047.53    125.72444 
    8000    290.52944   -131.77594    361867.86   -110140.51    10004.183   -120144.69     126.7431 
    8100    286.95456    -89.37514    361615.28   -110166.12    9881.0844   -120047.21     127.5917 
    8200    288.12709    187.27487    360707.82   -110142.72    9921.4599   -120064.18     128.3098 
    8300     289.9071    212.17872    360811.49   -110135.09    9982.7533   -120117.85      129.415 
    8400    287.40176   -220.65743    361497.65   -110204.16    9896.4834   -120100.65     130.4421 
    8500    286.76667   -2.2637194    360805.89   -110189.67    9874.6147   -120064.29    131.61137 
    8600    286.09071    187.79943    359824.13   -110233.51    9851.3384   -120084.85    132.85991 
    8700    286.46913   -88.794621    360167.91   -110237.78    9864.3691   -120102.15    133.94109 
    8800    288.85772   -16.083418    361165.85   -110213.89    9946.6185   -120160.51    134.42059 
    8900    287.43972   -466.63895    361668.89   -110294.81    9897.7905    -120192.6    135.42387 
    9000    286.97576     255.8467    360754.15   -110264.36    9881.8146   -120146.17    136.12982 
    9100    286.41169   -44.822481    360618.69   -110334.38    9862.3912   -120196.77    137.19186 
    9200    288.75609    1.8290111    360460.11   -110311.86    9943.1189   -120254.97    138.35317 
    9300    287.67505     199.1585    360475.79   -110422.21     9905.894    -120328.1    139.63876 
    9400    286.72403    96.673709    361235.64   -110389.92    9873.1463   -120263.07    141.07301 
    9500     285.0274   -140.16615    361720.98   -110372.45    9814.7242   -120187.18    142.21355 
    9600    287.13628  -0.94003271    361229.19   -110347.31     9887.342   -120234.65    143.18089 
    9700    286.70989    41.055823    361202.27      -110389    9872.6595   -120261.66    144.44931 
    9800    285.69601   -112.98336    361624.78   -110398.24    9837.7473   -120235.98    145.45584 
    9900    286.64534   -47.679476    360788.61   -110402.59    9870.4369   -120273.02     145.9464 
   10000    290.38491     280.9102    359327.24   -110380.48    9999.2063   -120379.69     146.6725 
   10100    286.46207     140.5689    359766.45   -110351.35    9864.1258   -120215.48    147.94529 
   10200    285.42285   -2.8479556    360861.57    -110317.6     9828.341   -120145.94    148.75144 
   10300    286.98591    -135.5392    360921.87   -110283.12     9882.164   -120165.28    149.28471 
   10400    285.81262     125.5177     360180.1   -110368.79    9841.7625   -120210.55    149.94604 
   10500    287.89366    8.7595836    360434.02   -110332.32    9913.4219   -120245.75    151.15537 
   10600    285.98593   -50.072591    361005.25   -110313.37    9847.7303    -120161.1    152.06278 
   10700    286.32771    36.755874    360661.96   -110323.04    9859.4994   -120182.53    153.22398 
   10800    286.04365    181.15516    360083.51   -110311.99    9849.7178   -120161.71    154.30043 
   10900    288.40041    130.60565    360025.87   -110246.98    9930.8712   -120177.85     155.1526 
   11000    283.41535   -6.6582821     360536.4   -110296.41    9759.2144   -120055.62    156.41203 
   11100    288.58457   -76.823068    360742.78   -110301.26    9937.2128   -120238.47    157.90915 
   11200    286.75922   -43.709945       360756   -110294.98    9874.3579   -120169.34     159.1815 
   11300     286.2157    23.408351    360403.92    -110317.3    9855.6422   -120172.94    160.09675 
   11400    284.11737    41.924611    360136.61   -110351.85    9783.3877   -120135.24    161.28272 
   11500    284.93821    167.47479    359743.56   -110407.83    9811.6527   -120219.48    162.28802 
   11600    284.88602   -29.849598    360498.67   -110422.68    9809.8558   -120232.54    163.40745 
   11700     285.5588   -46.728807    361620.49   -110370.19    9833.0225   -120203.22    164.73371 
   11800    285.96066    -22.65917    361493.18   -110410.21    9846.8602   -120257.07    166.22082 
   11900    284.82758    162.76348    360397.75   -110426.56    9807.8432   -120234.41    166.93784 
   12000    286.84608     115.5816     360056.5   -110433.82    9877.3492   -120311.17    167.16237 
   12100     288.5742   -43.100212    360383.88   -110401.75    9936.8559   -120338.61    167.82297 
   12200    287.93165   -79.453209    360920.59   -110389.72    9914.7298   -120304.45    168.79531 
   12300    285.87045   -264.09455     361411.9    -110356.2    9843.7538   -120199.95    169.17273 
   12400    285.25986    -18.34513    361042.44   -110448.87    9822.7288    -120271.6    169.97435 
   12500    286.71411    166.66064    360426.75   -110384.07    9872.8047   -120256.87    170.58808 
   12600    287.82221   -151.11373    360821.33   -110391.14    9910.9613    -120302.1    171.73948 
   12700    286.63169   -269.17705     361012.4    -110382.1    9869.9667   -120252.07    172.54178 
   12800    286.63266    43.754097    360342.12    -110469.5    9869.9999    -120339.5    173.67756 
   12900    290.78839    78.926321     360349.8   -110449.08      10013.1   -120462.18    174.90729 
   13000    288.73156    157.08317    360626.55   -110437.59    9942.2742   -120379.87    175.86721 
   13100    290.42734    -48.35169    360968.81   -110401.28    10000.667   -120401.95    176.69208 
   13200    284.42177    12.456421     361141.4    -110453.3    9793.8695   -120247.17    177.95852 
   13300    284.72368    182.40557    361446.04   -110521.24    9804.2657    -120325.5     178.6816 
   13400    289.60602   -193.88648    362215.67   -110544.94    9972.3856   -120517.32    179.36406 
   13500    289.51832    86.762164    361990.99   -110539.25    9969.3659   -120508.61    180.75158 
   13600    287.83372    40.023902    361252.04   -110647.71    9911.3576   -120559.07    181.90718 
   13700     284.5884    107.46321    360691.16   -110654.01    9799.6072   -120453.62     182.5137 
   13800    286.58386   -120.81313    360842.37   -110704.35    9868.3196   -120572.67    183.33154 
   13900     287.3065    111.25077    360586.44    -110667.2    9893.2033   -120560.41    184.22002 
   14000    287.90885   -77.355376    361012.39   -110649.62    9913.9447   -120563.56    185.12341 
   14100    288.05953   -260.80995    361515.32   -110645.44    9919.1334   -120564.57    186.19589 
   14200    290.35496    7.5285135    361107.26   -110639.52    9998.1748   -120637.69    187.19077 
   14300    285.09511   -8.5954371    361034.54   -110580.07    9817.0556   -120397.13    187.95947 
   14400    289.71455   -88.235365    361389.14   -110563.38    9976.1227    -120539.5    188.82383 
   14500    290.26277    42.392507    361317.57   -110637.51    9995.0005   -120632.51    189.61488 
   14600    286.16189   -30.730147    360989.29    -110675.4    9853.7896   -120529.18    190.85799 
   14700     287.9695    90.070055    360864.22   -110659.37    9916.0332    -120575.4    192.56302 
   14800    284.96326   -23.460233    360656.57   -110743.65    9812.5154   -120556.16     193.7562 
   14900    287.77251    159.30277    360763.81   -110754.56    9909.2501   -120663.81    194.90677 
   15000    284.64103   -45.936703    361635.82   -110852.35    9801.4197   -120653.77    195.72153 
   15100    282.35639   -307.44627    361926.82   -110833.45    9722.7497    -120556.2    196.13757 
   15200    284.23438     32.58945    360861.65   -110839.74     9787.417   -120627.15    196.67216 
   15300    285.23241    44.384718    360347.83   -110822.14    9821.7834   -120643.92    197.15271 
   15400    285.73014   -93.536204    360945.23    -110782.5    9838.9225   -120621.42    197.85233 
   15500     289.3054   -248.65962    361249.55   -110796.05    9962.0342   -120758.09    199.03616 
   15600     285.6885   -77.227341    361170.55   -110815.92    9837.4884   -120653.41    200.47643 
   15700    285.28847   -186.49455    361016.14   -110791.59    9823.7139    -120615.3    201.41468 
   15800    283.69862     78.21439    360750.72   -110791.52    9768.9684   -120560.49    202.67392 
   15900     286.3173    255.11132    360987.11   -110810.95     9859.141   -120670.09    203.85114 
   16000    279.90906   -116.13642    361715.77   -110724.03    9638.4775    -120362.5    204.67626 
   16100    285.09491   -41.911649    361513.56   -110675.63    9817.0488   -120492.68    206.23978 
   16200    284.73655    5.3163232    361335.88   -110634.09     9804.709    -120438.8    207.44738 
   16300    287.57688   -128.77161    361097.07   -110625.13    9902.5136   -120527.64     208.1534 
   16400    288.97322    161.36075    361125.13   -110628.08    9950.5955   -120578.67    209.27556 
   16500    289.52407   -43.868657    361486.97   -110640.21    9969.5638   -120609.77    210.06129 
   16600    286.83617     19.93796    361412.55    -110573.5    9877.0078   -120450.51    210.59045 
   16700    289.49134   -208.89883    361624.96      -110583    9968.4366   -120551.44    211.45602 
   16800    285.83141    7.4128733    361535.52   -110627.78    9842.4095   -120470.18    212.02079 
   16900    288.05584     81.06523    361551.21   -110663.05    9919.0063   -120582.06     213.1155 
   17000    287.27188   -77.164456    361448.07   -110665.17    9892.0113   -120557.18    213.63186 
   17100    290.10353    101.85289    361155.17   -110660.92     9989.517   -120650.44    214.59041 
   17200    289.72796    70.600579    361417.63   -110530.16    9976.5846   -120506.75    215.68957 
   17300    293.08973   -38.122022     361689.9   -110501.77    10092.345   -120594.11    216.81975 
   17400    289.32513   -27.537742     361880.4   -110583.88    9962.7135   -120546.59    217.91478 
   17500    290.31575   -4.5072975     362258.7    -110630.5    9996.8248   -120627.33    218.80645 
   17600    291.25744    94.738692    362768.63   -110665.19    10029.251   -120694.44    220.08051 
   17700    293.54977   -72.364767    363013.44   -110600.68    10108.186   -120708.87    221.52243 
   17800    289.47936    37.055575    362698.69   -110575.25    9968.0242   -120543.27    222.12674 
   17900    292.37635    67.381034    361993.51   -110642.91     10067.78   -120710.69    222.88569 
   18000    289.99463     75.07239    361522.81   -110751.05    9985.7671   -120736.81    223.03739 
   18100    289.88013    89.801374    361407.12   -110844.51    9981.8245   -120826.33    223.07022 
   18200    289.28415   -195.95937    361891.37   -110827.34    9961.3022   -120788.64    224.30671 
   18300     289.0374    -102.7038    361873.13   -110760.38    9952.8055   -120713.18    224.92403 
   18400    289.83778   -113.13857    361648.56   -110757.07    9980.3663   -120737.43    225.82081 
   18500    289.17736    150.91448    361264.71   -110773.82    9957.6251   -120731.45     226.8055 
   18600    291.45312   -110.98066    361239.26   -110715.01    10035.989      -120751    228.12791 
   18700    288.54615   -76.862275    361124.91   -110770.51    9935.8899    -120706.4    228.78843 
   18800    291.36119    111.55618    360990.84   -110694.64    10032.824   -120727.47    229.84944 
   18900    292.99312    152.87423    361272.72   -110764.73    10089.018   -120853.75    230.43679 
   19000    288.71773   -173.00657    362244.93   -110786.72    9941.7981   -120728.52    231.02677 
   19100    289.60262     88.41217    362286.57   -110783.46    9972.2687   -120755.73    232.00585 
   19200    290.49477   -145.22656    362042.82   -110807.42    10002.989   -120810.41    233.25931 
   19300    289.57289   -119.24045    361622.66   -110821.15     9971.245    -120792.4     234.2779 
   19400    286.88787    51.597999    361356.54   -110869.24    9878.7882   -120748.03    235.40778 
   19500    288.55573   -33.406662    361615.52   -110966.58    9936.2197    -120902.8     236.6005 
   19600    285.52893   -87.745453     362105.4   -110886.13     9831.994   -120718.13    237.49851 
   19700    286.94255   -151.35934    361957.55   -110773.79    9880.6708   -120654.46    238.85563 
   19800    290.56316    210.23083    361183.22   -110827.68    10005.344   -120833.02    239.38219 
   19900    289.79552   -73.167745    361476.38   -110736.63    9978.9109   -120715.54    240.57745 
   20000    292.13676    10.171864    361617.85   -110700.31     10059.53   -120759.85    241.64877 
   20100    286.38555    16.754518    361478.31   -110767.22    9861.4909   -120628.71    242.90221 
   20200    286.73167    162.18823    361180.16   -110783.95    9873.4095   -120657.36     244.0376 
   20300    287.33327   -116.76294    361075.73      -110779     9894.125   -120673.13    245.13981 
   20400    290.23796    107.61435     361337.6   -110717.71    9994.1461   -120711.86    246.63984 
   20500    290.89396    1.0799944    362002.87    -110662.1    10016.735   -120678.84     247.7631 
   20600    289.23865   -28.105653     362024.5   -110622.63    9959.7356   -120582.37    248.71079 
   20700    289.23463   -6.9319881    361671.61    -110662.4    9959.5972      -120622    248.98686 
   20800    290.35299   -44.233972     361630.9   -110645.79    9998.1073    -120643.9    249.78321 
   20900    291.37419   -130.52774    362041.53   -110562.06    10033.272   -120595.34    250.78861 
   21000    288.67312    101.77683    362233.22   -110663.21    9940.2618   -120603.47    251.47497 
   21100    288.41345   -11.730503    362041.37   -110594.19    9931.3204   -120525.51    252.46694 
   21200    288.47226    -52.18646    361445.75   -110666.57    9933.3454   -120599.91    253.09532 
   21300    290.64481   -16.692166    361105.52   -110705.42    10008.156   -120713.57    254.19589 
   21400       287.41   -118.40878    361420.94   -110776.06    9896.7672   -120672.83    254.98687 
   21500    290.26181    79.941957    361612.46   -110736.48    9994.9675   -120731.44    256.99713 
   21600    287.85193   -87.457783    361768.02   -110796.91    9911.9849   -120708.89     257.9954 
   21700    285.65508   -38.216502    362073.91   -110780.01    9836.3377   -120616.34    258.80244 
   21800    285.66936   -132.44055    362278.12   -110802.27    9836.8294    -120639.1    260.45166 
   21900    287.82367    202.60277    361705.62   -110782.63    9911.0117   -120693.64     261.2422 
   22000    291.31156    64.239899    361713.68   -110748.98    10031.115   -120780.09    262.69335 
   22100    289.91865   -174.72185    361909.32   -110719.19    9983.1508   -120702.34    264.20033 
   22200    292.04127    197.22137    361488.48   -110697.64    10056.242   -120753.89    264.80394 
   22300     289.9194    315.56844    361441.47   -110751.16    9983.1767   -120734.34    265.48574 
   22400    288.48344   -349.39824    362652.15   -110799.62    9933.7305   -120733.35    266.74497 
   22500    291.61625   -154.44017    362537.49   -110690.42    10041.607   -120732.02    267.90307 
   22600    289.53844    285.44764    361488.69   -110768.31    9970.0587   -120738.37    269.41064 
   22700    288.87788    -75.06321    361926.21   -110768.35    9947.3128   -120715.67      269.949 
   22800    291.17596   -158.56401    362467.79   -110773.02    10026.445   -120799.46    270.65356 
   22900    291.27355    102.21421    362253.35   -110715.93    10029.806   -120745.73    271.39426 
   23000    289.29078    -44.64956    362047.12   -110814.01    9961.5305   -120775.54    272.39905 
   23100    289.87756    -130.6846     362172.2   -110856.03    9981.7361   -120837.76    272.73215 
   23200    287.71789   -14.162489    361563.03   -110813.53    9907.3694    -120720.9    273.41737 
   23300    291.36109    243.67896    361115.01   -110829.96    10032.821   -120862.78    273.80979 
   23400    287.30079    37.988359     361572.7   -110830.42    9893.0065   -120723.43    274.59125 
   23500     291.5542    65.318804    361895.99   -110893.25     10039.47   -120932.72    275.99758 
   23600    287.75825    6.0600182    361856.46   -110903.29    9908.7591   -120812.05    277.35102 
   23700    287.87275    38.196699     361820.3   -110973.03    9912.7016   -120885.73    277.79849 
   23800    289.80848   -143.98988    361810.78   -110948.13    9979.3574   -120927.49    278.28905 
   23900    288.80977    353.27099     361179.4   -110925.07    9944.9673   -120870.04    279.38792 
   24000    288.97531    61.489226    361544.56   -110964.58    9950.6677   -120915.25     279.9548 
   24100    289.92849   -263.61932    362008.62   -110965.73    9983.4896   -120949.22    280.72221 
   24200    286.00722    194.20472    361310.22   -110953.07    9848.4634   -120801.53    281.55388 
   24300    284.66922    31.842679    361414.52   -110905.14    9802.3902   -120707.53    282.92533 
   24400     290.3137   -105.60982    361813.24   -110983.31     9996.754   -120980.07    283.64782 
   24500     290.0042   -80.946339    361454.33    -110994.1    9986.0969    -120980.2    284.07114 
   24600    287.27775    33.244494    361325.28   -111067.17    9892.2133   -120959.38    284.56925 
   24700    286.85921   -144.14493       362132   -111081.98    9877.8011   -120959.78    285.74406 
   24800    288.53885   -177.68731    362807.74    -111096.1    9935.6384   -121031.74    286.85351 
   24900    287.44738   -30.839212    362419.24   -111137.01    9898.0544   -121035.07     287.3631 
   25000    288.05869   -66.079933    362090.42   -111111.68    9919.1044   -121030.78    287.52869 
   25100    287.96829   -169.44207    361861.67   -111123.05    9915.9915   -121039.04    287.84602 
   25200    288.47251    218.03863    361520.44   -111056.09     9933.354   -120989.45    288.39562 
   25300    291.71621   -24.830909    361727.75   -111006.41    10045.049   -121051.46    288.79334 
   25400    286.62961   -87.799054    361906.93   -111053.68    9869.8951   -120923.58    289.68096 
   25500    284.90526    79.507684    361742.32   -111107.99    9810.5184   -120918.51    290.01562 
   25600      289.406    238.16077    361824.02      -111134    9965.4982    -121099.5     291.0371 
   25700    288.73932   -174.15889    362176.32   -111087.73    9942.5414   -121030.27    291.61032 
   25800    287.72096   -5.3489811       361437   -111105.75    9907.4748   -121013.23    292.48212 
   25900    287.68409    209.66697    360648.84   -111140.36    9906.2053   -121046.57    292.91044 
   26000     289.1865    -76.52341    361542.82   -111211.96    9957.9397    -121169.9    293.88361 
   26100    287.88127   -175.60287    362777.28   -111224.82    9912.9951   -121137.82    295.01817 
   26200     289.9261   -219.69307    362659.81   -111145.04    9983.4075   -121128.45    295.98593 
   26300     289.0561   -55.370087    361510.72   -111118.48    9953.4495   -121071.93    297.02904 
   26400    287.47299    171.96479    360974.62   -111091.77    9898.9364    -120990.7     297.6482 
   26500    286.35108    54.817567    361602.43   -111095.65    9860.3041   -120955.95    299.35932 
   26600    287.81429   -194.90144    362424.24   -111143.28    9910.6887   -121053.97    300.79053 
   26700    289.65201    98.055571    362217.65    -111235.2    9973.9692   -121209.17    301.79987 
   26800    286.99965    32.202404     361868.4   -111273.22     9882.637   -121155.86    302.25087 
   26900    285.50432   -80.060207    361950.33   -111368.86    9831.1466      -121200    303.39149 
   27000     285.7124   -78.970816    362116.44   -111384.46    9838.3117   -121222.77    304.55029 
   27100    288.20738    66.204397    362263.76   -111442.44    9924.2243   -121366.67    305.92824 
   27200    289.50596   -67.695801    362570.41   -111347.46    9968.9402    -121316.4    306.70961 
   27300    287.69864   -5.0592748     362511.9   -111362.64    9906.7065   -121269.35    307.68472 
   27400    285.40463    84.675618    362551.42   -111322.53    9827.7136   -121150.24    308.77838 
   27500    287.88098   -69.525588    362193.81   -111258.29    9912.9851   -121171.27    309.76779 
   27600    287.71294    165.29908    361657.88   -111207.42    9907.1988   -121114.62    310.76269 
   27700    289.81401     24.73313    362232.93    -111270.5    9979.5476   -121250.05    311.88989 
   27800    286.56695   -48.456092    362635.69   -111287.75    9867.7374   -121155.49    313.14639 
   27900    288.38692   -27.278595    362694.21   -111185.02     9930.407   -121115.43    314.33826 
   28000    289.22165   -79.018123     362638.7   -111223.89    9959.1503   -121183.04    315.08904 
   28100    290.00367    44.445521    362574.09   -111214.97    9986.0785   -121201.05    315.57097 
   28200    290.98621   -58.276444    362962.75   -111283.27    10019.912   -121303.18    316.94302 
   28300    290.31216    139.50856    362814.35   -111244.14    9996.7011   -121240.84    317.64751 
   28400    286.04902   -29.307399    363220.93   -111284.16    9849.9029   -121134.07    318.91484 
   28500    289.48463   -123.86196    363451.36   -111232.66    9968.2056   -121200.87    319.78291 
   28600    290.88012    52.278914    362941.05   -111143.01    10016.258   -121159.26    320.48099 
   28700    293.43775    22.392258    362602.46   -111108.75    10104.329   -121213.08    321.60002 
   28800    289.94036    21.849015    362464.45      -111244    9983.8985    -121227.9    322.94487 
   28900    289.54056    235.35078    361895.64   -111261.02    9970.1315   -121231.15    323.68531 
   29000    289.73829    148.25999    362638.45   -111330.97    9976.9402   -121307.91    324.66721 
   29100    289.66724   -314.70817    363816.62   -111317.11    9974.4936    -121291.6    326.04684 
   29200    289.75488   -134.57064    363150.33   -111319.61    9977.5117   -121297.12    326.83839 
   29300    287.73291    129.96774    362007.38   -111336.97    9907.8865   -121244.86     326.6289 
   29400    290.46001    25.679404    361833.29    -111405.6    10001.792   -121407.39    327.51178 
   29500    288.00989   -75.484831    361945.31   -111413.51    9917.4242   -121330.93    328.41472 
   29600    288.80248    196.01529    361939.55   -111341.05    9944.7163   -121285.77    329.40988 
   29700    285.43059   -40.852088    362749.09    -111346.2    9828.6075   -121174.81    330.40579 
   29800    285.92146   -162.06619    363010.27   -111308.08    9845.5104   -121153.59     331.6985 
   29900    293.50506    178.81922     362522.7   -111261.28    10106.646   -121367.92    332.29621 
   30000     291.0154    58.116163    362763.54   -111303.41    10020.917   -121324.32     332.8377 
   30100    289.91068    9.9403072    362781.03   -111270.06    9982.8765   -121252.93    333.81427 
   30200    290.98034     121.6356    362487.96   -111276.13     10019.71   -121295.84    334.91437 
   30300    290.34346   -99.392587    363170.98   -111268.09    9997.7791   -121265.87    335.22715 
   30400    287.37434   -320.12867    363746.93    -111398.5    9895.5394   -121294.04    336.51028 
   30500    289.93551    127.32071    363119.06   -111382.25    9983.7314   -121365.98    337.29088 
   30600    289.14191   -46.423214    363013.52   -111419.51    9956.4042   -121375.91    337.63209 
   30700     286.5791    62.617501     363385.5   -111461.39    9868.1559   -121329.55    338.70539 
   30800     283.6084   -126.73159    363242.97   -111552.48    9765.8618   -121318.34    339.42832 
   30900    287.33002    190.23697    362635.17   -111590.29    9894.0131    -121484.3    340.64011 
   31000     288.6076    27.956398    362547.69   -111611.12    9938.0059   -121549.13    341.59564 
   31100    285.71989   -67.800153    362654.54   -111584.55    9838.5696   -121423.12    342.84054 
   31200    288.64946    63.119233    362500.49   -111539.47    9939.4474   -121478.92    343.83455 
   31300     291.0709    18.864297    362744.89   -111547.97    10022.828    -121570.8    345.08626 
   31400    288.40214   -31.512797    362520.73   -111620.25    9930.9308   -121551.18    345.73548 
   31500    289.63162    159.57903    362363.44   -111607.99    9973.2672   -121581.26    347.49439 
   31600    288.55563    105.34085    363099.63   -111654.87    9936.2162   -121591.09    348.35131 
   31700    290.10896   -183.05663    364344.25    -111607.7     9989.704    -121597.4    349.86526 
   31800    287.57208    -43.60202    364099.16   -111644.84    9902.3482   -121547.19    350.64777 
   31900    286.82851    69.625721    362945.04   -111703.66    9876.7439    -121580.4    350.51107 
   32000    287.61763    44.422654    362502.79   -111714.76    9903.9169   -121618.68    350.57191 
   32100    285.93717   -206.77252    362467.62   -111744.85    9846.0514    -121590.9    351.05057 
   32200    291.01103    182.04556    362106.36   -111722.69    10020.766   -121743.46      351.278 
   32300    289.34668    43.905185    362597.68   -111748.08    9963.4554   -121711.54    352.31503 
   32400    289.38115   -78.662688     363279.2    -111752.9    9964.6426   -121717.54    353.04817 
   32500    288.97456   -116.89721    363074.62   -111770.67    9950.6417   -121721.31    353.61663 
   32600     287.3196    183.20483    362439.64   -111720.18    9893.6543   -121613.84    354.32006 
   32700    288.24917    48.216585    362331.91    -111752.7    9925.6634   -121678.36    355.09387 
   32800    288.90303   -39.512172    362344.56   -111753.39    9948.1786   -121701.57     355.9216 
   32900    288.00884      24.4398    362115.29   -111767.17    9917.3877   -121684.56    357.10887 
   33000    288.34573    93.165778     362350.6   -111763.62    9928.9884   -121692.61       357.69 
   33100    284.58292   -144.54894     362768.8   -111798.84    9799.4186   -121598.26    359.11907 
   33200    289.23688    133.59415    363022.46   -111851.42    9959.6747   -121811.09    360.00886 
   33300    289.96522   -17.119521    363564.12    -111845.6    9984.7547   -121830.35    360.33011 
   33400    287.78238   -239.76745    363635.98   -111862.94    9909.5899   -121772.53    361.02658 
   33500    286.09433     49.04421    362679.08   -111866.01    9851.4632   -121717.47    360.92777 
   33600    285.53689    140.93474    362113.93   -111866.36    9832.2681   -121698.63    360.80879 
   33700    283.94541    69.489814    362356.87   -111829.94    9777.4666   -121607.41    360.87981 
   33800    285.56228   -87.010596    362885.53   -111811.23    9833.1421   -121644.37    362.42637 
   33900    286.21706   -130.55627    363147.12   -111858.94    9855.6892   -121714.63    363.73018 
   34000    283.37346    37.395624    363063.87   -111805.14    9757.7718   -121562.91    363.81869 
   34100    288.43563    60.882678    362944.21   -111848.81    9932.0842   -121780.89    364.48004 
   34200    283.96714   -35.778636    363231.81   -111875.51    9778.2147   -121653.73    365.41738 
   34300    286.69556   -164.83465    363175.93   -111792.17    9872.1659   -121664.34    366.20547 
   34400    286.74073    103.37563    362951.23   -111877.15    9873.7215   -121750.87    367.01065 
   34500     289.6259    34.089835    363234.57   -111878.38    9973.0701   -121851.45    367.55184 
   34600    282.55543   -31.817428     363659.8   -111955.53    9729.6034   -121685.13    368.23019 
   34700    286.73796   -53.071478     363491.3   -111897.66    9873.6262   -121771.28    368.67972 
   34800    287.00938    10.738803    363415.23    -111897.1    9882.9723   -121780.07    369.10388 
   34900    285.12174   -238.50537     363413.6   -111946.32    9817.9726    -121764.3    369.72454 
   35000     284.8347   -127.87576     363311.5   -111904.29    9808.0887   -121712.38    370.18258 
   35100    287.71842   -1.6000749    362944.86   -111927.71    9907.3874   -121835.09    370.53829 
   35200    287.72526    155.50236    362893.91    -111940.9    9907.6229   -121848.52    371.59194 
   35300    285.05478   -143.49014    363550.36   -111859.61    9815.6668   -121675.28    372.82552 
   35400    287.70335   -47.050711    363387.75   -111902.72    9906.8686   -121809.59    373.30765 
   35500    288.49033    166.31261    363201.03   -111855.88    9933.9676   -121789.85    373.79128 
   35600    289.33294    101.03872     363683.1   -111823.56    9962.9823   -121786.54    374.80484 
   35700    289.38782   -115.45047     364177.4   -111876.62    9964.8722   -121841.49    376.05766 
   35800    284.55791    -247.0495    364032.41   -111919.35    9798.5576   -121717.91    376.44105 
   35900    288.66716    131.48338    363152.13   -111892.02    9940.0569   -121832.08    376.60336 
   36000     290.3934    158.40299    362653.91   -111948.52    9999.4985   -121948.02     377.0877 
   36100    287.22342   -141.57811    362941.88   -111958.91    9890.3424   -121849.26     378.2559 
   36200    285.67679    165.34734    363114.25   -111960.74    9837.0854   -121797.82    378.55431 
   36300    287.73967    3.3229027    363562.31   -112018.02    9908.1194   -121926.13    380.24166 
   36400    288.27073   -263.88513    363911.48   -111998.87    9926.4059   -121925.28    381.53436 
   36500    288.75042   -15.025219    363275.61   -111973.02    9942.9237   -121915.95    381.99953 
   36600    289.69677    77.522135    362690.97   -111918.67    9975.5105   -121894.18    382.94043 
   36700    289.79847    -115.5775    363464.63   -111950.39    9979.0125   -121929.41    383.59023 
   36800    290.38789   -162.43834    364170.54   -111946.48    9999.3089   -121945.79    384.50936 
   36900     289.7235    53.372958    363703.91   -111971.92    9976.4312   -121948.35    385.12543 
   37000    286.60101    172.12317    363540.66   -112039.87    9868.9103   -121908.78    386.22206 
   37100    289.85069   -89.245354    364282.85   -112007.25    9980.8109   -121988.06    387.54941 
   37200    285.58457   -180.31592    364007.29   -112040.09      9833.91      -121874    388.18442 
   37300    289.50474    336.74588    362581.29   -112061.75    9968.8982   -122030.65    388.90356 
   37400    286.51342     94.43842    362697.43   -112055.58    9865.8943   -121921.47    389.20513 
   37500    289.53858    -205.9904    363603.88   -112050.54    9970.0633   -122020.61    390.54203 
   37600    284.69708   -121.04071    363639.62   -112061.63    9803.3497   -121864.98    391.83121 
   37700    290.31021    208.77965    363171.79   -112059.32    9996.6342   -122055.95    392.78795 
   37800    285.65946   -271.82556    364241.45   -112109.78    9836.4886   -121946.27     393.6452 
   37900    286.60644   -88.018346    364209.32    -112165.3    9869.0971    -122034.4    394.11925 
   38000    284.01227    254.59634    362914.78   -112191.27    9779.7687   -121971.04    393.99172 
   38100    285.19466     66.20179    362889.75   -112225.23    9820.4834   -122045.72    395.31369 
   38200    285.90471   -54.486867     363514.6   -112199.61    9844.9336   -122044.55    396.16114 
   38300    286.49103   -52.975342    363539.43   -112302.73    9865.1232   -122167.85    397.14803 
   38400    285.39822   -100.10995    363274.74   -112302.91     9827.493    -122130.4     398.1598 
   38500    284.50019    4.6107956    363182.26   -112289.52    9796.5699   -122086.09    398.48948 
   38600    286.73846   -40.690059    363564.84   -112349.31    9873.6433   -122222.96    399.34907 
   38700    286.88425   -77.920371    363857.97   -112296.25    9878.6634   -122174.91    400.73227 
   38800    285.93897   -198.92532    363678.32   -112261.16    9846.1134   -122107.28    400.70294 
   38900    286.82257    100.12584    363110.87   -112252.45    9876.5396   -122128.99    401.29067 
   39000     286.7255    12.796549     363374.7   -112263.31     9873.197   -122136.51    402.12769 
   39100    285.70682   -33.151098    363604.14   -112255.41    9838.1195   -122093.53    402.83409 
   39200    286.66458    59.052858    363666.84   -112197.95    9871.0993   -122069.05    403.61482 
   39300    286.21588    11.448243    363766.98   -112376.55    9855.6485    -122232.2     404.2929 
   39400    286.52825   -56.337827    364134.09   -112390.85    9866.4047   -122257.26    404.97897 
   39500    283.28595   -166.16703    364336.34   -112391.48    9754.7584   -122146.24    406.20683 
   39600    283.06711   -23.020655       363723    -112420.5    9747.2227   -122167.72    406.64144 
   39700    285.25141    155.67158    363041.37   -112460.72    9822.4376   -122283.15    406.47212 
   39800    282.22774    22.169576     363160.1   -112507.98    9718.3196    -122226.3    407.34104 
   39900    285.81077   -25.806145    363572.86   -112426.26    9841.6988   -122267.96     407.6596 
   40000    286.63402   -73.200735    363590.68   -112305.79    9870.0468   -122175.83    408.25861 
   40100     285.9924    119.29311    363080.84   -112285.77     9847.953   -122133.73    408.77655 
   40200    289.25037    46.594675    363058.79   -112240.21    9960.1391   -122200.35    408.61745 
   40300    288.39022   -76.072041    363875.35   -112171.74    9930.5206   -122102.26    409.69415 
   40400    289.14669    -184.8403    364383.79   -112171.11    9956.5691   -122127.68    411.14681 
   40500    285.89973    48.080012    363606.31   -112214.18    9844.7622   -122058.95    411.58027 
   40600    289.24701    19.131334    363125.12   -112243.82    9960.0233   -122203.84    411.61387 
   40700    284.86407   -37.571076    363478.81   -112240.51    9809.0998   -122049.61    412.43355 
   40800    287.15468    177.58128    363689.33   -112263.31    9887.9756   -122151.29    413.54503 
   40900    285.06363   -14.418644    363999.55   -112257.41    9815.9716   -122073.38    414.86089 
   41000    286.14166   -128.82577    363818.93      -112172    9853.0927    -122025.1    414.81658 
   41100     289.4125    183.12124    363112.73    -112171.6    9965.7218   -122137.32    415.48602 
   41200    287.18761    205.00573    362922.09    -112145.9    9889.1095   -122035.01    416.55279 
   41300    289.05957    1.5578115    363737.81   -112182.91    9953.5692   -122136.48    417.34868 
   41400    287.58596   -263.04801    364280.92      -112197    9902.8262   -122099.82    417.86592 
   41500    286.47131    127.96417    363722.73   -112264.39     9864.444   -122128.83    417.68528 
   41600    289.03761    92.141676    363405.24   -112297.59    9952.8128   -122250.41    418.66235 
   41700    286.15621   -148.45751    364086.22   -112307.02    9853.5939   -122160.62    419.74152 
   41800    285.47766   -145.78575    364166.23   -112272.95    9830.2286   -122103.18    420.05518 
   41900    286.68586    136.94606    363423.12   -112301.17    9871.8321      -122173    420.61101 
   42000    285.96493    55.681681    363604.64   -112331.34    9847.0072   -122178.35    421.11754 
   42100    285.23788    36.706882    364014.04   -112346.07    9821.9719   -122168.04    422.10016 
   42200    286.59023     45.36388    363855.35      -112272     9868.539   -122140.53     422.7117 
   42300    287.71153    12.783399    364103.37   -112308.19    9907.1502   -122215.34    423.93076 
   42400    289.07545   -111.37755    364682.01   -112281.73    9954.1159   -122235.84    424.59478 
   42500    293.45595    20.816589    364127.56   -112324.04    10104.955      -122429    424.97398 
   42600    285.76418    145.45823    363875.18   -112342.46    9840.0947   -122182.56    425.44213 
   42700    286.95803   -113.58908    365037.87   -112306.08    9881.2039   -122187.28    426.62185 
   42800    291.08368   -157.04205    365349.41   -112420.35    10023.268   -122443.61    426.85225 
   42900    287.95423   -51.905189    364522.98   -112454.57    9915.5075   -122370.08    427.86405 
   43000    287.56672    187.05517    364123.68   -112461.26    9902.1639   -122363.42     428.8391 
   43100    285.24929   -11.974708     364396.2   -112500.21    9822.3646   -122322.57    429.64124 
   43200     286.4635   -100.90003     364250.7   -112510.06    9864.1752   -122374.24    430.60159 
   43300    287.64784    59.273866     363764.1   -112529.67    9904.9572   -122434.63    430.54033 
   43400    285.50496     35.73376    363889.55    -112470.8    9831.1684   -122301.97    430.91353 
   43500    284.60919   -15.925446    364501.09   -112507.63    9800.3232   -122307.96    432.17988 
   43600    286.05574   -83.381826    364644.22   -112467.22    9850.1344   -122317.35    432.72155 
   43700    282.85664    115.93932    363979.75   -112470.73    9739.9756    -122210.7    432.46251 
   43800    288.57063    129.33139    363738.71   -112466.74    9936.7329   -122403.47    434.17142 
   43900    290.34558    18.828205    364159.86   -112357.08     9997.852   -122354.93    434.75218 
   44000    288.08178   -224.63801    363860.52   -112391.38    9919.8994   -122311.28    435.67766 
   44100    289.68741    142.08441    363238.79   -112396.72    9975.1884   -122371.91    436.65366 
   44200    290.27051    85.108274    363698.06   -112442.71    9995.2671   -122437.98    437.12189 
   44300    287.12782    -45.16168    364437.81   -112404.44    9887.0507   -122291.49    437.65937 
   44400     287.8134    133.08951    364416.62   -112443.74    9910.6579    -122354.4    438.45786 
   44500    288.42646      -17.179    364183.76   -112444.03    9931.7685    -122375.8    439.07674 
   44600    289.48314   -171.50419    364277.81   -112508.33    9968.1543   -122476.48    439.94812 
   44700    284.97609    64.357186     363570.1   -112489.99    9812.9572   -122302.95    440.17216 
   44800    286.59289    9.6863858    363113.41   -112378.07    9868.6305    -122246.7    440.96571 
   44900    287.29078    63.185508    363394.95    -112386.3     9892.662   -122278.96    441.64807 
   45000    290.95677   -77.943405    363716.28   -112393.15    10018.898   -122412.05    442.75989 
   45100     290.5137     46.72468    363700.12   -112368.77    10003.641   -122372.41    443.80108 
   45200    290.63095     14.03904    363756.78   -112334.17    10007.678   -122341.85    444.33286 
   45300    291.04472    139.18293    363787.91   -112316.81    10021.927   -122338.73    444.18569 
   45400    292.69646    87.561524     363957.5   -112314.59    10078.803   -122393.39    445.25652 
   45500    290.07393    92.842378    363743.89   -112402.72    9988.4978   -122391.22    446.04397 
   45600    290.69397   -169.73176    363960.21   -112383.59    10009.849   -122393.44    445.82617 
   45700    287.69628    76.517775    363928.09   -112419.58    9906.6252   -122326.21    446.53984 
   45800    290.93558   -11.677447     364163.5   -112440.06    10018.168   -122458.23    447.68455 
   45900    287.09696   -32.023494    364413.48   -112478.92    9885.9879    -122364.9    448.55732 
   46000     288.2944  -0.16388115    364015.69   -112537.17     9927.221   -122464.39    448.50543 
   46100    287.63177   -61.876434    363916.88   -112517.75    9904.4039   -122422.15    449.72149 
   46200    287.95545   -223.93821    364375.37   -112595.26    9915.5494   -122510.81    450.13482 
   46300    288.70865   -60.831435    364278.15   -112639.93    9941.4852   -122581.42    450.86715 
   46400    285.44709    152.74646    363658.05   -112679.14    9829.1758   -122508.31    451.66805 
   46500    288.58007    42.241726    363573.93   -112688.23    9937.0576   -122625.29    451.96523 
   46600    287.18286   -204.21814    364229.22   -112750.98    9888.9459   -122639.92    453.42574 
   46700    282.95898   -86.191446    364573.04   -112694.44    9743.4994   -122437.94    454.58438 
   46800    285.44192     -50.3652    364311.15   -112628.86    9828.9978   -122457.86    454.82369 
   46900     287.2169     -70.1651    363966.46   -112617.57    9890.1179   -122507.69    454.94502 
   47000    287.41624    81.824438    363901.98   -112600.48    9896.9822   -122497.46    455.41323 
   47100    284.43439   -24.935731    364010.52   -112657.17    9794.3041   -122451.48    456.05483 
   47200    288.12909    -52.25105    364145.55   -112684.69    9921.5285   -122606.21    456.33076 
   47300     285.7237    100.27449    364192.56   -112614.21    9838.7007   -122452.92    457.52613 
   47400    287.26368    -86.88574    364559.36   -112602.62    9891.7287   -122494.35    458.81412 
   47500    288.02537   -19.731599    364533.94   -112560.38    9917.9571   -122478.33    458.67598 
   47600    287.76046    21.878796    364073.99   -112621.71    9908.8352   -122530.54    459.15899 
   47700    287.26644    237.00124    363415.82   -112647.69    9891.8238   -122539.51    460.13188 
   47800    288.55463    39.825485    363683.75   -112642.87    9936.1819   -122579.06    460.54425 
   47900    289.96848   -67.428083    364287.41   -112596.69    9984.8669   -122581.56    461.12395 
   48000    288.61374   -1.5383531    364902.68   -112629.91     9938.217   -122568.13    461.82751 
   48100    290.36598   -13.633906    364928.99    -112571.6    9998.5545   -122570.16    462.57325 
   48200    290.76446   -87.240459    364527.59   -112551.22    10012.276    -122563.5    462.81259 
   48300    289.61829   -60.565172    364055.82   -112655.84    9972.8082   -122628.65    463.35836 
   48400    286.87049   -11.570078    363934.66   -112733.02    9878.1896   -122611.21    464.01432 
   48500    289.16599   -101.68489    364047.75   -112710.08    9957.2336   -122667.32    465.29897 
   48600    291.01448     67.66084       364108   -112690.79    10020.885   -122711.68    465.91193 
   48700    286.30056    23.659824    364586.68   -112709.32    9858.5646   -122567.89    466.85229 
   48800    292.78808    125.99963     364241.1    -112641.5    10081.958   -122723.46    466.88668 
   48900    287.19457   -81.576824    364130.26   -112681.34    9889.3489   -122570.69    468.65579 
   49000     287.8468   -38.439006    364381.76   -112613.89     9911.808    -122525.7    469.10008 
   49100     289.8774   -166.53901    364695.67   -112581.97    9981.7305    -122563.7    470.22552 
   49200    292.91705    62.355582    363828.41   -112523.18    10086.399   -122609.57    470.72625 
   49300    292.40945     149.2444    363466.38   -112475.63     10068.92   -122544.55    471.79474 
   49400    291.75792   -169.71315     364336.9   -112544.49    10046.485   -122590.97    472.41933 
   49500    288.32234   0.31943921    364575.53   -112662.79    9928.1829   -122590.97    474.23042 
   49600    290.87176    187.81431    364434.94   -112687.47    10015.971   -122703.44    475.50472 
   49700    287.85485   -116.44692    364951.08   -112786.66    9912.0855   -122698.74    476.89819 
   49800    286.89896    -124.2948    365234.87   -112762.94      9879.17   -122642.12    477.79029 
   49900    286.14312   -162.56365     365039.7   -112750.43    9853.1432   -122603.57    478.26375 
   50000    290.88669    72.473785    364542.01    -112713.5    10016.485   -122729.98    478.26242 
Loop time of 146.386 on 6 procs for 50000 steps with 11553 atoms

Performance: 295.110 ns/day, 0.081 hours/ns, 341.562 timesteps/s
99.4% CPU use with 6 MPI tasks x no OpenMP threads

MPI task timing breakdown:
Section |  min time  |  avg time  |  max time  |%varavg| %total
---------------------------------------------------------------
Pair    | 48.376     | 85.393     | 120.9      | 314.7 | 58.33
Neigh   | 14.195     | 16.665     | 18.508     |  41.5 | 11.38
Comm    | 3.3168     | 40.664     | 80.149     | 482.4 | 27.78
Output  | 0.07696    | 0.077643   | 0.080399   |   0.4 |  0.05
Modify  | 2.8999     | 2.9608     | 2.9926     |   2.0 |  2.02
Other   |            | 0.6267     |            |       |  0.43

Nlocal:        1925.50 ave        1987 max        1860 min
Histogram: 2 0 0 0 0 2 0 0 1 1
Nghost:        2472.33 ave        2496 max        2449 min
Histogram: 1 1 1 0 0 0 1 0 1 1
Neighs:        0.00000 ave           0 max           0 min
Histogram: 6 0 0 0 0 0 0 0 0 0
FullNghs:      54916.0 ave       56594 max       53124 min
Histogram: 2 0 0 0 1 0 1 0 0 2

Total # of neighbors = 329496
Ave neighs/atom = 28.520384
Neighbor list builds = 7034
Dangerous builds = 0

reset_timestep      0
undump              1

################################################
#######         Run Simulation         #########
################################################

log                 log.run_${NAME}
log                 log.run_Tmelt_287K_AUTO
