LAMMPS data file via write_data, version 29 Oct 2020, timestep = 200000

4608 atoms
1 atom types

0.11032295292595862 53.28967704707189 xlo xhi
-0.0011842804922572725 50.908304280489475 ylo yhi
-0.0011842804922572725 50.908304280489475 zlo zhi

Masses

1 18.015

Atoms # atomic

2632 1 1.3607707766614188 2.162049265020804 2.2688640544927163 0 1 2
3160 1 4.20698320663119 2.518275537440628 1.8447007401060012 0 1 1
2091 1 8.034851028634261 0.22459269965865758 1.2327845699740887 0 0 1
408 1 12.79899399735155 0.25791272456870434 1.7567387537325139 0 0 2
982 1 11.10720919507281 2.6844251538316164 2.1198951307923464 -2 0 0
3959 1 15.523139555223844 0.14236983608435505 0.7201853268872527 1 0 1
3620 1 6.309137334291333 5.77591008232973 2.1149389882571494 1 0 1
3419 1 4.076575350151154 5.147021173255149 0.8269192915786572 1 0 0
3347 1 8.308309854936438 3.1964310826352316 2.3223950844144485 0 1 1
3005 1 9.211524512638652 5.886166973547218 1.8264197018499955 1 0 0
4397 1 14.164494785763074 5.364245665203977 2.001148425446306 0 1 2
1645 1 16.569956173396285 5.212351285662661 0.49781313590422815 0 0 -1
2962 1 1.9116360048028143 6.673569251578735 1.3170842401431737 1 1 1
3164 1 6.031023549198414 8.072959533119228 0.6765239068284895 1 0 0
421 1 8.634398199408116 8.866158237639153 0.3884341664212397 0 0 1
343 1 12.639350038951584 7.863218046476755 1.3555003903107208 0 0 1
2929 1 2.358815328963898 11.895336039059615 1.8746237886576325 1 0 0
3441 1 0.540999138410249 11.68041284446414 0.10961856483327717 0 1 1
203 1 4.8844108530302845 10.57164481134141 1.9716795778646428 1 0 0
1359 1 8.783555821259949 11.109591564363823 2.09975943353372 0 1 0
1367 1 12.483998574131874 12.406433839129548 1.1333265297304318 0 0 2
936 1 13.869961803848243 10.124669586715978 0.04921785633560205 1 -1 0
1251 1 15.465399589622606 10.425870162157217 2.2161444045062955 0 0 1
3127 1 1.8804592724368843 14.402803036341115 3.1596626252171225 1 0 1
2842 1 2.612878059518436 15.276430553717306 0.4891561963560654 1 0 1
677 1 7.243434926709233 13.95897092266913 1.3434034771637289 -1 -1 1
3797 1 13.102738349570691 15.203312284952004 1.0773407261704586 1 0 0
272 1 16.55518273288587 13.139449470370685 2.37088923743832 0 1 0
3305 1 16.230042780323394 15.54789216929274 1.2010179726067258 0 -1 0
3139 1 0.4342914772842226 18.52803308865273 1.742292482676313 1 0 0
1310 1 4.703348869533034 16.85854291952245 2.499246885458039 0 0 0
3315 1 10.333885533003922 16.824601073953662 1.4734682199410696 0 -1 0
1236 1 7.556107844703425 17.879356209393674 1.7320161689842988 1 1 1
4216 1 16.537807006510953 17.94917620127222 2.7770623160986943 -1 0 2
4126 1 3.506894704497224 19.5836745428985 2.6547032272957116 0 1 0
318 1 5.745997099430479 21.326910294949748 2.540623493695074 0 1 1
1726 1 8.194198176819402 20.32179359160889 3.0206234064264983 0 0 0
981 1 8.468177028265362 21.78332214373319 0.1599209047221076 -1 0 0
1617 1 11.654155467144767 20.46527341090164 2.123055950887896 0 1 0
1616 1 14.840234921073332 19.279478247951513 1.0288459988716765 0 1 0
2156 1 2.943988905733833 24.1325251110187 0.8275833789350316 0 0 0
1937 1 2.2716848132184944 22.289207098172774 2.722431170044497 1 -1 -1
2470 1 10.001747760772307 22.493451377919627 2.7417648719797647 -1 0 0
3302 1 7.606102246864194 24.56256501660547 0.7256695835361251 1 -1 1
2790 1 0.9738841239980859 26.241534833462698 1.4148978507762808 0 -2 0
3377 1 5.270854694081269 25.55455319580347 2.078475967000184 0 -1 -1
2038 1 11.007781567901798 26.7233542294772 1.64457600852837 -1 1 1
4410 1 12.998325008856424 28.054109409415055 2.660732432750881 1 0 -1
886 1 14.924293881493721 25.691704543608495 1.6032447024530914 1 0 1
3112 1 17.31408162435092 25.454024897919634 3.121693954792339 0 0 1
2161 1 1.0956220820788207 29.09267079176297 0.7162789687803722 1 1 0
1745 1 2.8048946193894415 29.034045594466118 2.933814529010694 0 0 0
3608 1 5.489382322433972 30.722192687181497 2.859491210678164 0 -1 0
281 1 7.525320587242482 30.96899385666211 1.4734589798450808 0 0 -1
2931 1 9.128112439749918 28.78135976035437 2.5144967953101336 0 0 2
4025 1 12.367171609474479 31.791636141394815 1.9308742871479307 1 -1 1
2869 1 14.295777191764099 29.9177834756772 0.3733151158261089 0 0 0
1201 1 16.13228531232778 31.815778297289445 1.4883580528886755 1 1 1
1126 1 0.796057031826166 32.74943266360067 0.5200179182712732 0 0 1
3497 1 3.6239158132120606 32.659830599293755 0.6855080827241838 2 1 -2
2016 1 7.742027787168198 33.782457782335044 2.587657768874579 0 1 1
1499 1 9.986323003646248 33.01033390117301 1.082501720798539 0 -1 0
5 1 14.479683697784779 33.69847492584117 2.662779918779003 0 -1 0
3928 1 3.2402421731314908 35.35780830367251 0.16567663861428678 2 0 2
609 1 7.918300187089021 36.24523976200635 0.3749684397956466 1 -1 0
4310 1 11.348630741932 35.45909665422943 1.142046595406178 0 -1 0
51 1 17.129578070020088 35.298005247670616 0.09888896095888995 -1 0 1
4280 1 14.303578233577786 36.32476779772581 0.9312090333857701 0 0 0
572 1 6.112687504784544 40.12091576798349 1.1532497115358558 0 0 -1
383 1 3.7783351285587385 41.135324468938734 2.0456532132083 0 1 0
1229 1 7.492118301202685 38.25918021493088 2.690456722961179 -1 0 1
4545 1 10.400927989958065 38.189150802867346 1.48558912242369 1 0 1
2979 1 13.788184433158305 40.04599744851296 2.8301488833754953 0 0 1
3078 1 16.89627590235604 40.2856154712663 2.7899313689561906 0 0 1
1810 1 0.3234819377120663 42.85187002099809 1.5466491834521727 0 0 0
3142 1 3.852578685518578 43.740783702246034 2.8253045419385625 1 1 1
4028 1 10.026138638747465 42.641336181526924 1.6227732433672426 1 0 1
162 1 14.218663472038692 42.19577041865742 0.4947701752016999 0 0 0
3569 1 13.746478943989095 44.25950688520726 2.6012250847807015 0 0 0
4560 1 16.54144467383298 42.81207777015375 2.779585402740476 0 0 1
3408 1 1.7480030819012797 45.19601780335162 0.008591573577163558 0 -1 0
2045 1 3.8720199740693713 46.79346010915171 1.6479820138470858 0 0 0
1104 1 7.391448047383774 45.005028324518236 0.4039777688283531 -1 -1 1
3931 1 8.488950291984791 44.78657065326614 3.082626161955679 1 0 0
3416 1 12.594015219483026 47.01875460603199 2.552683244752555 1 1 1
1580 1 16.340176158155803 46.148450303702305 2.3774932090445313 0 0 0
1851 1 1.717101904005494 48.48646001719297 2.9649641029979708 1 0 1
2080 1 6.252260882620531 48.61992276391854 1.2311308463199473 0 0 1
898 1 10.77783647088067 48.87561428854529 1.223450702335936 0 1 2
2145 1 16.977116525008775 48.31547218967397 0.5206925451313529 1 0 0
4409 1 0.8982771771431161 0.5632799562323059 4.368375864124472 1 0 1
1991 1 5.099498685967534 1.6368588085984022 4.268370721721265 0 1 1
4175 1 8.23516835381174 1.8208948136766736 4.851254471161736 0 0 1
366 1 12.688950027469135 0.0940407336135901 4.560812389958998 0 1 -1
1858 1 10.94277941680721 1.4714478018799506 6.174208279355168 1 -1 0
3461 1 15.577498890699657 0.45848301525563384 3.7453719124887384 0 1 0
65 1 15.203668753856414 2.7404693032417202 5.074898431083794 0 0 0
4509 1 0.2526038954792786 6.040297007840846 5.082430967795926 1 1 1
2077 1 5.719415517179883 6.354105466570419 4.685050376179926 1 0 0
1526 1 4.305412427177403 3.931348492225767 5.9453713712138905 0 0 1
1578 1 10.700476890483127 5.986208750603087 4.217240404311586 0 0 1
3482 1 8.362629851858594 4.789250350819291 5.240010472183555 0 1 0
4079 1 12.838797375884782 3.7428678337968595 3.741692201448619 1 0 0
1780 1 2.7974376090541493 6.53160845688569 3.8279198627916577 1 1 0
974 1 3.493305061054819 7.4886179547471 6.35422869101394 0 1 1
2686 1 7.240288013738995 8.61639610018805 5.496936189424092 0 0 1
1299 1 11.576334067798264 8.649308420452837 3.9326634335288513 0 1 0
501 1 14.73491535741257 7.729928961579045 4.042091162653465 -1 0 0
2546 1 17.650156656827452 8.584908804565098 3.569137226843192 1 0 2
684 1 1.8514162559443939 9.60421844544666 3.5286289233915307 1 0 0
2271 1 2.5955517159565495 10.157222028229855 5.89338072675667 0 1 1
96 1 6.755467627368154 11.106945280108672 4.17669932109434 0 0 -1
1920 1 4.984730935705582 11.165371851675632 6.28285461104418 0 1 1
3157 1 11.274585626001084 11.628526432730855 3.4300851953443674 -1 -1 0
1077 1 14.056657947089672 11.127436203851419 4.540888648278225 -1 0 1
3794 1 2.397439901972496 13.854873313341065 5.9918149514958365 1 1 1
778 1 7.04302948550982 15.771106565526457 3.954133028956347 1 -1 0
1945 1 10.377444543869721 13.74215354534276 5.367425701729331 0 0 0
315 1 7.311493946746764 13.476595494872864 5.581170332806353 -1 0 0
4100 1 13.941193070660596 13.81770264069383 3.6614986258127775 0 0 0
2804 1 14.060832893762466 15.025712478721275 5.999873447330448 1 0 1
2298 1 3.2984356501875434 16.267504399653895 4.932142110529315 -1 0 0
3923 1 5.7411765688114915 17.16352524920823 6.219636002740947 0 0 2
2134 1 9.731719355351608 16.519527538976785 4.358938459174592 0 0 1
4215 1 12.050377717420188 18.744717557613477 4.5158192546146845 1 0 1
353 1 14.490703400522749 17.557354071999228 4.809892475420379 0 0 0
2955 1 2.9240301137068676 19.396404101977733 5.525710354274248 0 0 0
2645 1 0.9150728840920153 22.22402541106084 5.9069861678609445 1 1 1
1313 1 8.540828735195312 20.128034763513554 5.829544594646132 0 0 0
3760 1 13.914344726051523 20.598120260433614 6.25379740528101 0 0 0
4467 1 14.49389818575843 21.054279861246595 3.341406404696425 0 0 0
2923 1 17.562766902596117 21.618360099415803 3.394913031414693 0 0 1
54 1 4.725378515906793 23.364969520651652 4.266467881879478 0 0 1
1368 1 9.424234761183877 25.139141236863676 3.4786127367712956 0 0 1
1393 1 14.024072361891085 23.88486581237985 3.5058371174635834 0 1 0
1248 1 12.13081890595125 24.771136517456732 5.369516520391338 0 0 0
4309 1 16.68496680315848 23.52494203966319 5.289390015218355 0 -1 1
4042 1 0.5395489453398683 25.475340223663018 4.323102699309381 1 0 1
1282 1 1.314026489199742 28.022805911776985 5.087088065088711 -1 1 1
1069 1 5.483291683426992 27.736119692799015 3.7495507778587878 -1 0 0
4053 1 4.425063058408787 26.661243227959318 6.12487848780062 1 -1 0
2588 1 8.235856091166298 27.36053884939906 4.822740342625727 0 0 1
3221 1 13.50133321260857 27.321371165842915 5.621331491443155 1 0 1
1970 1 1.1062303117991108 31.05588717111164 5.883665297920321 0 -1 0
2528 1 2.8128297921584324 31.815619804176908 3.8837194028506037 0 -1 1
2558 1 5.88513765562451 31.253555544564964 5.445015181720323 1 0 -1
1701 1 10.441405939135645 31.16977653256134 4.151641962266803 0 -1 0
4448 1 8.143002755952539 29.70686514835511 6.2130052747070685 1 -2 1
4510 1 13.094237678898693 30.030446430576717 4.645049751565098 1 -1 1
1898 1 17.173566945622003 30.446179149523573 5.615097920384665 1 -1 0
157 1 0.16992353033731433 33.36476698678099 3.5783130549154567 1 0 -1
3324 1 1.544986500752747 34.43416491793032 6.354588416702874 1 0 2
2165 1 3.6599031595428513 34.41321277312902 4.650601814921106 1 0 -1
1887 1 9.694599911534835 33.8497095780975 4.483899619596427 -1 -2 1
3318 1 14.765866516193395 32.38898044493165 5.309685453808274 0 0 -1
1141 1 5.9727337744499405 35.85512040994794 3.3521616546344393 0 -1 1
1461 1 4.705625646789755 37.14576642906759 5.857745689326214 1 -1 0
4413 1 10.735724313826557 37.53048538933696 5.290767583919316 1 -1 1
3756 1 14.013881160123239 37.423002265546074 3.912478651658564 -1 -1 0
1686 1 11.919204705136604 35.45240736233933 4.046277604786787 0 0 0
205 1 15.546394917172648 35.34740522919468 5.451827795917624 0 -1 0
4103 1 16.80667760626964 37.978488797141296 5.769980971884261 1 -1 0
3880 1 3.1156547022540315 41.13925714759311 6.279502664078448 1 -1 0
4065 1 0.9659638429157259 38.76788982893507 3.7267017827845375 1 0 1
771 1 3.924459160791714 39.446249609528564 4.522995329749213 1 1 -1
2512 1 7.91469395568808 38.65601751586411 5.593612623840928 0 -1 0
3658 1 11.091103863699333 39.97758236297341 3.85814321439946 1 0 0
585 1 17.535461307673017 40.76252391482939 5.523341125977507 0 -1 1
568 1 2.3316197421561586 43.674801264210345 5.030952099189337 0 0 1
3744 1 6.2092742535522305 43.90503915277728 4.189935124172457 1 0 0
4575 1 9.977122786561013 42.428998944285084 4.648041919191535 1 0 0
2526 1 12.483507626136372 43.7698653587275 5.110584674352206 1 0 1
2032 1 10.042891908756403 46.84219342827171 3.7066594513453492 0 -1 1
1253 1 11.381134777047004 46.13379232093007 6.077606040555486 0 -1 2
4226 1 3.4051598370866945 50.648071816040144 5.639759999024366 0 -1 1
1865 1 3.8084053691205964 47.96601646681671 4.483580616450593 0 0 1
3853 1 6.599671659599574 49.904551862228345 3.9897342329550796 1 0 0
2264 1 6.593859125536324 48.1353453197182 6.223586199978482 0 -1 0
2358 1 9.738629403094288 49.833879960779115 3.741341422557094 1 0 1
4363 1 13.887861918663711 48.45522642398059 4.34093245289088 1 -1 1
2781 1 16.44634626793855 48.59306898804378 4.01828281880932 0 -1 0
107 1 0.7365692901294116 1.4739602405097287 6.953528270553727 0 1 0
3732 1 5.623926904334296 2.908456316272881 8.455380162709263 2 0 0
216 1 7.222251014100669 0.036322473839227286 7.063770706331344 -1 1 0
1418 1 13.356045271091109 1.2531924491668014 9.484064187650251 0 1 0
3294 1 11.148818608404307 2.45894802471739 9.18608547636432 1 2 1
908 1 14.59510187257978 2.927366924438886 7.77980625929783 0 0 0
1893 1 17.60066439961086 0.4385510353655692 7.369488575613235 1 1 0
3384 1 1.7834407061919835 4.288136874919266 6.751738046462697 0 0 0
854 1 8.003254887141226 5.6050012190025775 7.978169823953211 0 2 0
4431 1 12.07676909729566 4.004772710699463 6.544901486028638 0 1 2
2352 1 10.799295997352777 5.778457293331811 8.493013627486754 0 0 1
450 1 16.82517319916258 4.930988591035992 7.7570874447795655 -2 1 -1
613 1 2.3521547483686636 6.628549668526852 8.987155406766497 0 0 -1
2831 1 6.023025080658903 7.796857272086889 7.9955462833413735 1 0 0
3752 1 9.713042397012066 8.173508230364417 6.5481495181350375 0 2 -1
4446 1 10.571675371150544 9.027731260792368 9.27048660302557 1 0 1
2138 1 12.903290330199171 7.343981028663486 6.607527573429756 0 1 -1
2453 1 15.926627867600876 7.390400026430187 6.860954041000963 0 1 1
3555 1 0.7365559021165758 9.871624334449614 7.770937526007248 0 0 1
2359 1 5.978134247729292 10.52650392915652 9.147236697575607 1 0 0
4347 1 10.385417134913544 11.30430996835326 6.76027636652937 0 0 2
3328 1 9.126019683550506 12.235900654039385 9.403416890446993 0 1 1
2594 1 12.946221786877743 10.146940258415269 7.183023704079435 0 -1 0
1910 1 13.983742386807567 12.154565922084597 9.237168262073574 0 -1 1
4357 1 15.681241355637855 12.673675148366103 6.637669851386557 1 0 0
1255 1 16.961710275487814 9.88833906622319 7.861139891748291 0 1 1
2473 1 0.1643194531178067 15.51101569644489 9.174689306626595 0 0 0
993 1 4.0784843687208 13.975538131918663 8.061845356524715 1 0 0
4595 1 6.799354502107313 13.89885327089579 8.216286479333258 1 0 1
3840 1 11.487000276584366 15.717728899670332 7.060762639737684 0 -1 0
238 1 12.708773554641368 14.63331614246855 9.344138535110227 1 1 1
2569 1 15.52339413399832 15.26015212928074 8.73453727010743 0 1 0
2299 1 1.6919766445706732 17.86975453391061 7.656911022147985 1 0 1
1266 1 4.209723479796249 16.888704589686306 8.828617999755378 1 -1 -1
987 1 9.487895168895623 17.64293610803407 7.204513016781599 0 0 0
3196 1 15.675726751523896 18.28971349497914 7.461375409191662 -1 -1 0
1561 1 0.21560319656954063 22.104505930753447 9.41869218536893 0 0 0
3309 1 2.3250261231824756 20.762038566349815 8.424814387662233 0 0 0
1080 1 6.791958535416496 20.114618808524472 9.37090195826963 0 0 0
1049 1 5.44483397701404 19.917175250373713 6.845757730321713 1 0 0
412 1 8.326339580330755 22.192668229858814 7.8198768840600135 0 1 0
899 1 11.490058885414419 19.87495949043684 7.64546660265591 0 0 0
3753 1 16.682930240733878 21.472299669686613 7.251442872770959 0 0 0
2369 1 2.334497692903164 24.55700424120853 6.4287564392413445 0 -1 1
3676 1 3.242942361322027 25.255115114995824 9.238357567907993 1 -2 0
941 1 5.951553232732529 23.229032942373784 6.677603036932784 0 0 2
736 1 4.166347971576266 22.68378698087398 9.150271498087625 0 0 0
3936 1 13.217289441305331 23.133902867838625 7.49927125386732 -1 -1 1
2682 1 10.758358240481153 22.84378935445085 9.04754637644617 1 1 0
4427 1 15.148548880644084 24.945785889260254 8.397767066985665 1 1 -1
132 1 2.6015643822292307 28.29014271477111 7.727418117554124 0 0 0
75 1 6.986219113489825 25.803186339735294 7.399083437930134 0 -1 0
3260 1 9.922144359576018 25.809889470308118 7.12413819113995 0 0 0
4279 1 11.715642469867527 27.732290003505465 7.915231489554731 0 -1 0
2616 1 16.108335976009243 26.550990760146497 6.6869523083304 0 1 1
4570 1 17.19896529425755 27.680426449806443 9.244729992061155 1 -1 0
1977 1 3.6137579602351035 30.99970405374509 7.232314980656294 0 0 0
3183 1 5.4675348763433105 29.40071818055311 9.513988273930936 1 -1 1
1774 1 8.610231222193407 29.03006188018925 9.170154958639058 0 0 0
4407 1 11.87518971991194 31.145525122899535 7.258445049572997 0 -1 1
3710 1 14.083928269573637 30.47566075023912 9.025145436370508 0 1 -1
2235 1 16.766036652248992 30.37410160116336 8.249651046488474 0 1 0
1609 1 1.6437981929440708 32.73201198594228 8.796996089996505 0 -1 0
3276 1 5.887863182511197 34.171046678098534 6.488193482472841 0 0 1
1107 1 5.226309670347387 33.29490724524345 9.016742254652938 0 -1 1
1646 1 9.054181652731037 34.12087849509258 7.047956794238369 1 1 0
3508 1 9.789698597578955 31.859135371132762 9.167558498624897 0 0 0
4525 1 12.907031855331478 33.88920609450261 7.055509603610341 2 -1 1
588 1 16.77431902587352 34.783276909426974 7.900455229521228 0 1 -1
2381 1 14.70086792837316 33.81711075172963 9.37351652213229 1 0 -1
105 1 2.776409638831596 35.46040095707612 9.319882946590806 0 1 -1
2650 1 0.8086128535373396 36.9421541779203 7.585436647228724 -1 0 1
2094 1 4.410706045750332 37.53758504721209 8.569365312495908 1 0 0
1293 1 7.234486644232454 36.68466197126645 7.596329492174861 0 0 1
3012 1 11.472656293284551 37.790103414086545 7.894998710762336 1 0 -1
1574 1 16.862486031625483 37.404311988759034 9.195984938833995 1 0 1
2008 1 0.278394575005267 40.05421559706396 6.430679747684892 -2 0 -1
1930 1 2.295623313718713 39.44536905710328 8.823990133183395 0 0 0
697 1 4.236501344517855 41.297444433019734 9.22360005316693 0 1 1
695 1 10.67579374573281 40.60342931962758 8.46038422441921 1 -1 0
1075 1 13.553536223591104 38.94354780975951 6.775022501451632 1 1 2
2607 1 14.726536081268044 39.08639325839907 9.415230967896655 0 -1 1
3075 1 3.0552593913012434 44.118619460140565 8.368495464837673 1 0 0
4526 1 0.544239855623815 42.64800298016007 7.8385600556421045 1 1 1
1795 1 6.6929813026620355 42.3629557801612 9.123174284954603 1 0 0
1329 1 8.316400982843719 41.494944936638944 6.962800738641692 0 1 0
2440 1 13.3877108575703 41.870445217429236 7.1522202121737495 1 1 1
4425 1 12.401934446036606 43.04646823103279 9.44051251085572 1 -1 1
206 1 16.180720647216592 42.47019205202557 7.523198055002296 0 0 1
125 1 2.8492694689601183 46.21682195731208 6.483067675852494 0 -1 0
155 1 0.8639835659362408 47.68202528440834 8.043639741756861 0 -1 0
3581 1 5.558402129907063 45.53474662915244 6.649185070660311 1 0 0
1424 1 6.456734849213013 45.296300610045776 9.451519288233468 1 1 1
2930 1 10.92806200471442 45.08077932728658 8.651786222272024 1 -1 1
4292 1 17.33322665654021 44.821440302039434 8.780724233093585 1 0 1
4056 1 15.420893543412559 47.511733527818166 8.471477814248441 0 0 0
1855 1 2.3155475781358597 50.406200768049246 8.362772148789094 0 -1 0
3388 1 5.0139881000816935 49.622194446907656 8.838633784932549 0 -2 2
323 1 7.644046476093801 48.06541125165252 8.930930833788059 -1 0 1
1785 1 9.60350091066044 50.72643949118168 8.68762299600253 1 -1 0
4590 1 13.127360840103352 48.089717125504336 7.163916171439145 0 0 0
3140 1 11.904676740145373 49.671507673096784 8.843643244629414 0 -1 0
423 1 17.493905636951492 47.98311294810874 6.543498756521089 1 1 0
2194 1 14.62874535876624 50.66888818569076 6.83794689909925 0 0 2
2608 1 3.3204891703120154 0.5065661552532346 11.868816724439732 1 0 0
1528 1 1.9301732257864606 2.107057100046821 9.804450416566228 0 1 1
2185 1 5.73908465171399 0.5881459386969617 10.562995660902082 0 0 -1
1775 1 8.596630081524221 1.398085369953689 10.783016197964095 1 1 0
2762 1 10.825751846168034 3.0170692823800187 12.08264481718036 0 1 2
2283 1 14.783726008400242 1.334027073363553 11.77445948546718 0 1 0
2153 1 1.1783243564165486 4.703437199942774 12.081035823943305 -1 1 1
657 1 3.7118426449503716 4.419026847557452 10.149106574025712 0 1 -1
956 1 5.834834556385764 6.123102815278642 12.28484315701372 0 1 -1
243 1 7.298082776970082 4.312953098819752 10.262938480873347 0 0 1
260 1 11.878145542174947 5.282562145259232 10.892690831234729 0 1 -1
4438 1 14.642183833664687 5.616031304773777 10.417126495605247 1 0 1
1357 1 16.77979788056209 3.737478646495044 10.827889269851783 -1 1 1
3516 1 4.484627058617338 8.095602427342966 10.537240960763429 1 0 0
391 1 14.936359317331473 8.13509601000608 9.823512581433466 0 0 1
4185 1 17.81855209574098 8.539870450897762 10.822356216899262 1 1 0
1289 1 1.0174682741289702 11.38852146358995 10.441838100893516 0 0 0
3137 1 3.9472498480206237 11.643940577502546 10.859620474008299 1 2 0
4003 1 8.410772352336405 9.779452482881315 10.888611932308422 0 0 1
4014 1 12.986989322709032 10.029343742696 10.627592024647331 0 0 2
2714 1 16.421211194775513 12.414233002052844 10.07084804102263 -1 0 1
3807 1 3.319824863732987 14.52461888447436 11.09505816996183 1 0 1
4225 1 5.738174668469477 15.51485240898993 11.894528460470045 2 -1 0
3803 1 8.214962543329657 15.628913190102088 10.379546887208138 0 -1 0
4356 1 10.254592731027605 14.052682421441197 11.388796115970221 1 0 1
2291 1 17.72416374517727 14.68044944223807 12.661691332777675 0 0 0
1082 1 1.4693124027254811 16.99927566180287 11.503173664526447 -1 1 1
196 1 5.5233150942085265 18.24145237596115 10.907618434366531 0 1 0
3811 1 8.846089686215878 18.366767551904832 9.9166248540967 -1 0 0
2157 1 13.264692617038824 18.693333168819223 9.637186430459897 1 -1 -1
823 1 13.52934883134845 16.574965482834717 11.526971147352706 -1 0 0
3200 1 10.972526904206362 18.97987392463902 11.381864267922943 1 -1 0
904 1 16.519338616212885 16.756799796572 11.315545180685616 -1 1 0
3745 1 2.8536984575647213 19.37400704546024 10.915588975056448 2 0 1
2581 1 6.119654054135218 22.155928506799356 11.206488663932964 0 1 1
2727 1 10.622898763849228 21.622384881767033 11.243894756562735 1 1 1
1128 1 14.15545078415156 21.39321571877163 9.805247314149742 -1 -1 0
3706 1 16.76823212436105 21.168275835907323 10.553081528673356 1 1 0
3025 1 1.437270331256902 24.941649015349082 11.37988752965344 0 1 1
3251 1 9.91702095901744 25.11043429693675 10.093463338923314 1 -1 0
3342 1 13.170786478238883 22.45216526733769 12.11801263321977 2 -1 0
3567 1 17.72499504377456 23.809215137612185 10.253362056191062 1 0 0
3495 1 4.871474927896064 26.932179873436592 11.038500583268185 2 0 -1
942 1 7.7975844454728795 26.62199922092539 10.18893413472985 0 -1 0
3980 1 11.818096115598504 26.332730201593563 11.396557993027535 1 0 0
680 1 14.056839046166795 27.242598003450365 9.615096542556996 0 0 0
4219 1 17.790662455612384 28.343302056715114 12.27721595280038 0 1 0
1748 1 0.5041869274189188 29.99588385944288 10.400041170181687 1 0 1
3439 1 3.433400847859696 30.916731808342334 10.51006213585757 2 0 -1
2698 1 7.248074989446772 31.38847378981979 10.45921203145334 0 0 0
1843 1 10.871123655731886 29.087195107528565 11.1044924563246 1 -1 -1
1861 1 12.062438854011678 31.56750225514262 10.875516466978228 0 -1 -1
1070 1 14.919471911935542 29.099691011990423 11.645150069237923 -1 -2 0
2064 1 7.125439059457378 34.65629748258321 11.092757070009688 0 0 -1
3916 1 9.762073227262627 34.42707395143262 10.358833498131553 0 1 1
3394 1 14.527421518821065 32.85050109072834 12.453042886107673 1 0 0
3646 1 16.9417909062897 34.09804448455483 11.320990724096033 0 -1 -1
827 1 2.2962060001477456 36.099087286985934 11.989316278207605 1 -1 1
3912 1 5.041702700767061 36.46266013843879 12.631059906795988 0 0 1
74 1 8.11588310490386 37.3983369859757 10.424214080887904 0 -1 -1
3897 1 12.419776986199237 35.632987641619266 9.978871166995983 1 0 0
4327 1 1.3028086440990287 38.492586635364475 11.3503699387482 1 0 0
4207 1 5.55144315410609 38.61078891889535 11.036609955968371 1 -1 0
1040 1 7.055626742524706 41.305415353054045 11.77502921177985 0 1 1
2538 1 10.372376797270833 38.99966314847748 10.699357206341237 1 0 1
1636 1 13.00794689417036 38.2796009544722 11.370512479972742 0 -1 -1
3857 1 16.24963651585804 41.2155410967475 9.87311920942081 1 0 1
3976 1 2.992841518062352 41.65147470055635 11.670966005668278 0 0 1
3467 1 9.833790323449056 41.89011285154116 11.225871006748571 0 0 0
784 1 14.808453277974618 42.9134241542865 11.58388869610545 0 -1 0
1078 1 0.7026581920051994 47.08046996301036 11.018874341104052 0 -2 0
1781 1 2.2487630773819878 44.62902141957852 10.943416077723318 1 -1 0
77 1 4.618181506470075 45.8971136799433 11.623554105966162 1 0 -1
2649 1 8.79922316811126 44.77851861109731 10.743687097724427 1 0 1
4322 1 11.062472577211414 47.54205279423654 10.212236029492296 1 -1 2
3776 1 13.45818475740978 46.948127175181426 11.854871465041775 1 0 1
2542 1 14.403266415422738 45.13542907659472 10.143904262960056 0 0 1
3777 1 3.2291967917419884 48.54893296582267 11.551521201782005 0 1 0
1133 1 7.747942491646058 49.5286071233878 11.728760629668635 -1 0 0
3755 1 17.515641917314337 50.06103683767057 12.338473505665114 0 0 0
3597 1 16.282977348152663 49.71817764679059 9.688314861414712 0 0 0
2242 1 2.6475229425288083 2.035167467989405 15.035822641145558 0 2 0
2578 1 6.334028013889043 2.3082823089971307 14.848664425190801 0 0 1
591 1 4.241725392730489 2.819377405340816 13.147602038044631 0 1 -1
3969 1 9.091929579123414 0.6656780235956561 13.622586002571744 0 1 0
1595 1 13.128703525762838 2.751574661217788 13.540062470298912 0 0 0
3454 1 13.087920629112698 0.7772772792869693 15.7069572775658 1 1 0
1326 1 16.9943087573398 1.55629252007815 13.641099038302915 0 0 1
1116 1 0.547120382253961 3.961593326337749 15.043036072305705 -1 0 0
763 1 4.077043913541493 5.60061809835826 14.022734453017831 1 -1 -1
2757 1 8.82264142117691 3.5912153193001832 14.358363987889346 1 1 1
3964 1 12.026507699933088 5.532741268898254 14.496908305254085 0 1 1
1036 1 14.933026253588217 5.353736325875492 13.119175012939783 -1 1 0
2886 1 16.65432543853595 4.846258335142198 15.39527679755571 0 1 1
862 1 0.37408013239094373 7.086599185999709 15.365845514412102 0 -1 0
2635 1 1.9918614117437863 7.143727896343872 13.189736092413078 1 1 1
560 1 10.647864463321532 7.116504210952186 12.732035703719054 0 2 0
2377 1 7.602566295507061 7.414256898874215 13.844660328766182 1 1 0
3525 1 15.431362599215145 8.174384506012242 13.593267050932731 0 -1 0
848 1 3.61129986528958 9.696873846642784 13.085219526903225 1 0 0
641 1 1.049281006444441 11.875787558401553 13.325438512065482 0 1 0
4479 1 3.6400483925821185 12.062023383732296 15.343862374111534 2 1 -1
1662 1 6.618818700155142 10.020184124349607 13.409242076004382 0 1 0
146 1 9.368271945741109 11.741039707229588 12.912009862427231 1 1 1
1691 1 14.054230935381081 10.385376593659016 13.436603894153174 0 1 1
2337 1 11.133639918279863 9.592209257321663 13.90169946390864 1 1 1
2544 1 16.28435776625988 12.028565339034305 12.792949114824621 0 -1 0
93 1 1.798943460738247 14.401616832172678 14.855758502749907 -1 -1 -1
2521 1 5.307294916179311 12.858955279002426 13.292513947241485 0 0 -1
1268 1 7.712522259809035 13.21186606421298 14.789941923383687 -1 0 0
4426 1 10.546175368689767 14.96471404820201 13.747898647905588 0 0 0
4286 1 11.009559938902195 12.932710690410405 15.891971225210748 1 1 1
2693 1 15.199834081002674 13.803709071438103 14.761007719521917 2 1 1
358 1 0.4449290238382881 16.846372563090398 14.391815888332975 0 1 0
3924 1 2.2861968642863477 18.466627146032778 15.805902033966579 0 0 0
3796 1 5.023580840281194 18.738605784210677 15.3337073643078 0 1 1
1688 1 4.69035361108527 16.323965011784228 14.588263602824329 1 0 1
254 1 7.305857721106746 18.16869241867153 13.277200633716008 0 0 0
3061 1 10.280110160395235 17.873074599619752 14.065626233385961 1 0 -1
3505 1 7.776044231848353 15.95700415516732 15.181112738299133 0 0 0
195 1 13.34277377507959 16.12956952933963 14.377815888055204 0 1 -1
1672 1 16.356409239192786 18.31634043558233 13.758556147870426 1 2 0
45 1 1.839509249151666 20.32446185584389 13.585500751195596 0 0 0
548 1 5.029169899794022 20.922553513393595 13.840298172716754 0 0 1
2394 1 8.37696227550917 20.816639707812815 13.104811258863649 1 1 0
4063 1 13.556596898832575 19.354782478550288 13.557250914466978 0 -1 0
2221 1 11.031090212324813 20.90042674931543 14.811303140110363 0 0 -1
1330 1 15.673525585650795 21.582415294441496 13.085517591613497 -1 0 1
687 1 15.866514742142902 20.995984022565985 15.824606763963976 0 0 0
866 1 3.3553118505374755 23.037297947627824 13.011917540447262 0 0 0
876 1 1.3295527745091011 22.98123128847435 15.33980044774992 0 0 1
2175 1 6.919681622482878 22.826902992912714 15.062966306287304 1 0 -1
2407 1 5.814975721038061 24.815694840640745 12.812945579245428 1 0 0
1520 1 9.040724202178158 24.09827809843318 12.89069364547916 0 0 2
2184 1 10.70185568342849 23.903402016307574 14.980723232577871 0 0 0
1130 1 13.132656946402594 24.550381075663665 13.625390709046421 0 0 0
2068 1 17.387063637978642 25.165846430753117 15.507465045706896 0 0 0
2027 1 14.99220679787805 23.824444381827927 15.531216716940062 1 0 1
2373 1 0.6265754496921545 26.93372930127077 13.417104717000067 1 -1 0
368 1 3.2839617022739542 28.05022884512112 13.252836523790538 0 0 1
4314 1 5.0589151768370755 26.559282802328553 15.053692007816407 0 0 0
636 1 9.565518715500803 28.308139798231633 15.454718243941468 0 -1 1
3772 1 12.405412196514469 28.558447921175578 15.583274472405881 0 1 0
1093 1 3.9776288454933972 30.731254451758204 13.116481433437423 -1 -1 0
3232 1 5.156252603637812 29.423700249229817 15.770647953180612 1 -1 0
4211 1 6.6362096652667955 31.159493097798197 13.30283241906645 1 -1 0
3587 1 8.701635458282718 28.97081811092768 12.981645479400928 0 0 0
4166 1 7.927750091608255 30.450115432068262 15.859169468388512 1 0 0
4036 1 10.81823187204724 31.34497555845308 15.310623505450355 1 1 1