LAMMPS data file via write_data, version 29 Oct 2020, timestep = 100000

8541 atoms
1 atom types

-0.29430563844230306 104.48906103571463 xlo xhi
-0.15118860782020604 51.05949288830995 ylo yhi
-0.15118860782020604 51.05949288830995 zlo zhi

Masses

1 18.015

Atoms # atomic

93 1 1.3661627952986302 1.0582826473248164 2.297793298580312 0 1 0
903 1 20.38464789265993 4.238548134805322 24.967784985406748 0 1 0
750 1 9.163787875792194 2.123965228970813 0.7489731659212413 0 1 0
95 1 7.623604574243213 0.4396584587588239 2.2952467348973173 0 1 0
97 1 14.355440559225638 0.8396707558637793 2.1482547934788494 0 1 0
2110 1 15.884210260571571 2.2294620124224673 0.46226855304081615 0 1 0
780 1 21.95886759293902 2.3632986895682784 0.8456615543373637 0 1 0
842 1 28.174239371893517 2.645296252906305 0.8942881355156289 0 1 0
847 1 26.855795556704006 0.5888093955343313 2.262107923646601 0 1 0
8299 1 -0.047912355419231084 41.588495601290504 9.723534207829038 2 0 -3
849 1 33.44091926212722 0.6813701689514274 2.39374213717531 0 1 0
678 1 2.909776599266441 2.9676055498161573 0.756098560324416 0 1 0
102 1 10.828890660276203 3.907245775995314 2.1753147397084662 0 1 0
553 1 12.916832959838718 5.507360724975034 0.674471782191578 0 0 0
104 1 17.336030879403193 3.9514362399002687 2.277991424117588 0 1 0
850 1 23.394076306427326 4.286935068416356 2.3511401120197957 0 1 0
851 1 30.49819004738301 3.761917327573868 1.976151513387928 0 1 0
1 1 0.9850877707803456 7.5949409897305244 2.1457606977890338 0 0 0
766 1 6.184260383929299 5.748217165347613 0.716152245385484 0 0 0
2 1 8.100345941578935 7.080975513162514 1.9476355184353165 0 0 0
3 1 14.662930354231824 6.997965505054288 2.0719971596585816 0 0 0
752 1 18.798140987409884 5.726449867065674 0.8842394497987127 0 0 0
772 1 20.52547800825157 7.101247655488702 2.377204193231739 0 0 0
599 1 1.4051227531581938 49.040987747214075 24.900219608201496 0 0 0
2768 1 25.194810506864247 5.695510454633185 0.5867752129805966 0 0 0
774 1 26.73692309635713 7.1543770682479435 2.204400057951605 0 0 0
2283 1 31.468720204712692 6.030685414909399 0.5078676336521163 0 0 0
776 1 33.46306095208542 7.409071771993831 2.328977370726378 0 0 0
46 1 -0.253840298883824 8.739323971408501 22.94406431347654 0 0 0
685 1 2.9123140956972393 8.911226004942625 0.7587590536777323 0 0 0
6 1 4.757452303025156 10.454655287038234 2.291084055354789 0 0 0
256 1 6.220848437266105 11.648528681542974 0.6735789297478042 0 0 0
2157 1 9.45663451384105 8.87203662427197 0.38377029043890454 0 0 0
8 1 10.928078211230668 10.142963844618452 2.182001218804053 0 0 0
768 1 15.797169236333787 9.015601015901039 0.8365294038598498 0 0 0
11 1 17.403671677770514 10.44940754707326 2.205827422451132 0 0 0
1382 1 21.758312651299264 8.724527683560519 0.8119942140966565 0 0 0
777 1 23.61637289108778 10.289275836950155 2.3460684765078694 0 0 0
2767 1 28.186195809360786 8.877354997968 0.5062569293918396 0 0 0
778 1 29.732237584114653 10.204959551484801 2.3662580042308843 0 0 0
1286 1 20.476398969707773 48.923631371797 25.01477697814589 0 0 0
84 1 12.33218607686632 12.045465072615071 0.6777267755648768 0 0 0
17 1 14.220395525232743 13.631126088428653 2.3630947641685336 0 0 0
1386 1 18.669817317768004 11.853670150496313 0.2920945461102067 0 0 0
781 1 20.108798113450614 13.140548612618392 1.9520036111728465 0 0 0
1383 1 24.847029222713033 12.212463130706016 0.7108218769806934 0 0 0
783 1 26.727100809391516 13.48395310890038 2.074226281116664 0 0 0
1010 1 31.42220269970869 12.023717686618948 1.0569417587131609 0 0 0
1430 1 3.2772446602658603 15.212664632300925 0.5854476296999508 0 0 0
21 1 4.5771943960296895 17.01653581640732 1.9425024936978468 0 0 0
2150 1 9.102696185688613 15.146650412990825 0.4755085851613542 0 0 0
23 1 11.076778064769089 16.76707100011941 2.0739439394364614 0 0 0
2095 1 15.579120838111777 15.203013305412371 0.33413699919629936 0 0 0
59 1 13.91388093646706 3.9775364638086135 24.897441415173617 0 1 0
25 1 16.902740084008105 16.714601684451157 1.9507357367453784 0 0 0
1384 1 21.80229748224748 15.288046174870017 0.7467561515335929 0 0 0
787 1 23.25764960576882 16.797110745963007 2.2095894581015276 0 0 0
2187 1 28.3151600845508 15.046208062623686 0.48177303179960673 0 0 0
788 1 29.985809636855574 16.716832423760355 1.9447904731148435 0 0 0
27 1 1.5111581179691398 20.001511430239674 2.186641950709139 0 0 0
636 1 17.179493179014248 45.3752752933155 24.897413202466556 0 0 0
2147 1 6.133970415378745 18.668333593474312 0.6203133480969469 0 0 0
28 1 7.60682563601418 20.003902692632142 2.2971571872451295 0 0 0
762 1 12.360793172232768 18.73783460337375 0.815999514688584 0 0 0
29 1 14.114926520501674 20.0934801897155 2.2568420334788284 0 0 0
1388 1 18.86473102505404 18.35485413101936 0.4129178205117615 0 0 0
791 1 20.55128575459647 20.026800918886487 1.9451733848401722 0 0 0
2386 1 24.870424744074114 18.37779335396712 0.4674996920315133 0 0 0
793 1 26.71174318183846 19.928969347577624 1.9797730056566811 0 0 0
2763 1 31.5188115762601 18.418998428032964 0.17447068845989755 0 0 0
795 1 33.090660829456894 19.80543619482344 2.1014175367288104 0 0 0
2133 1 3.0405176005742613 21.639468361489044 0.5633232483974238 0 0 0
31 1 4.0616276742620325 23.313875773520035 2.450532065100235 0 0 0
2153 1 8.999597265532103 21.53244006422833 0.4139718307776187 0 0 0
34 1 10.725097364963057 22.90149745573256 2.418284201839918 0 0 0
2111 1 15.722183130677951 21.483791527063506 0.4029135158159294 0 0 0
37 1 17.15293415148375 23.410440787124024 2.029625020303654 0 0 0
2206 1 22.41065519751314 21.68730497537956 0.6018576100362076 0 0 0
797 1 24.05939026949941 23.02950938203635 2.2734000977062605 0 0 0
2765 1 28.54880894948002 21.677834321128017 0.45478892642896407 0 0 0
798 1 30.035974159380658 23.24897767262547 2.0685257957267367 0 0 0
38 1 1.297154497850915 26.497282916760685 1.9540593618296151 0 0 0
7 1 6.041426517025414 24.593954019319785 0.9005297356248128 0 0 0
42 1 7.4692214886925905 26.352833150996315 2.155259306608752 0 0 0
2159 1 12.1527829889509 24.352285624796618 0.11702732391168774 0 0 0
44 1 13.744231875050307 26.1293839690307 1.9006515038715461 0 0 0
1370 1 18.96005302336778 25.019219785770236 0.7634386797342297 0 0 0
799 1 20.609031683721536 26.514827605599873 2.3074350536765977 0 0 0
831 1 25.494466092110923 24.82662067691472 0.9232823953424116 0 0 0
800 1 27.42221818909049 26.63258013908841 2.0976714801726475 0 0 0
2217 1 31.633480459944337 24.91773847132111 0.5062145592678016 0 0 0
803 1 33.33973367444275 26.299861644724515 1.9893071882203257 0 0 0
1456 1 3.2361896798931236 27.801499598152198 0.6300782691335574 0 0 0
348 1 9.199095274654912 28.066998766401863 0.8543860231155123 0 0 0
1981 1 15.489675924393618 28.29800644893848 0.4877441681044171 0 0 0
51 1 17.213839706210628 29.742717601263433 2.0134189091333594 0 0 0
2181 1 22.119143879597043 27.724063645538823 0.4608392564798388 0 0 0
806 1 24.05409792232625 29.270538429100252 1.9610556129886705 0 0 0
931 1 29.020507396888206 28.392602044521475 0.7407174380026205 0 0 0
52 1 1.4713403445176796 32.362216967481345 2.1703901972511632 0 0 0
394 1 6.489383069285824 31.26319034150768 0.8212972922144777 0 0 0
769 1 12.35897523122836 30.959204769794017 0.9870286065400726 0 0 0
1376 1 19.033305427497343 31.309572366695214 0.6612915861290154 0 0 0
1069 1 25.691379879808764 31.221003832799713 0.8321857068492523 0 0 0
105 1 -0.2791293887030608 5.804537019260371 19.940837613138985 0 0 0
840 1 32.088955115979886 31.127205208770075 0.8181723006023202 0 0 0
680 1 2.862406030181044 34.645729182190834 0.7048718564206027 0 0 0
728 1 11.203355683089296 39.17258103414585 25.020423182602823 0 0 0
2154 1 9.264999914470522 34.56299769356106 0.5297629179909029 0 0 0
1986 1 15.504163925232929 34.731293857214 0.5942854869356792 0 0 0
57 1 14.120406490096325 32.7926133370663 2.1562382617109175 0 0 0
809 1 20.472405073027193 32.904901090125435 2.2465665666147605 0 0 0
1378 1 22.265956182675605 34.34853803404894 0.696972526754874 0 0 0
7982 1 -0.07914922386428991 49.16113737572286 8.922285577167903 1 1 1
1057 1 28.588698654989056 34.14793763821524 0.7369371730799407 0 0 0
2125 1 -0.0033213655357371974 37.91958941628094 0.46818435832722116 0 0 0
60 1 4.571480389901358 36.14932035453239 2.399538750975911 0 0 0
1798 1 6.107905571726178 37.559559188868505 0.4440757770264686 0 0 0
745 1 12.372308784544387 37.82931696057764 0.7275681932031232 0 0 0
63 1 10.755855617229969 36.41517826438273 2.19128482920173 0 0 0
757 1 18.399440771604432 37.66924385270762 0.8605745810225796 0 0 0
65 1 17.288583363569415 35.84017613897299 2.25235466847311 0 0 0
821 1 25.109407229488568 37.67465057291885 0.9215776691874409 0 0 0
815 1 30.03675979407985 36.07826175820851 2.0423969696222466 0 0 0
947 1 31.90334448982162 37.515527601261155 0.7251223721320814 0 0 0
67 1 1.3724858493415877 39.348314005696324 2.178268191755272 0 0 0
2146 1 3.229536379986006 40.749228417004105 0.4395451210373651 0 0 0
761 1 9.063524984030751 40.99588199834449 0.9246175568347703 0 0 0
70 1 7.452597114935544 39.21991389227428 2.2283662727761477 0 0 0
765 1 15.512190753058347 40.9705672024061 0.7773354718427216 0 0 0
71 1 14.08991064738914 39.3936936272283 2.247809763446326 0 0 0
820 1 20.04097889883103 39.29732422817527 2.3204546107685737 0 0 0
836 1 21.992115163890936 40.874159089410995 0.8700063429675384 0 0 0
822 1 26.778635961346684 39.239802588624826 2.4512595660384506 0 0 0
2766 1 28.603901730451554 40.622577510238585 0.4752952976560959 0 0 0
824 1 33.72493630441011 39.04712631493376 2.288085451917101 0 0 0
2083 1 -0.21575360035022018 44.43827329673125 0.2730477561810123 0 0 0
2164 1 5.829019653894441 44.06979841388514 0.28583961557121357 0 0 0
72 1 4.421814804190262 42.57557891964832 2.2008973051951672 0 0 0
330 1 14.317994653012011 48.83253473888196 24.980206439222226 0 0 0
75 1 11.009449162785257 42.70344281117245 2.3765048699820723 0 0 0
1723 1 12.502620472580515 44.03556866112915 0.5911522245117988 0 0 0
78 1 17.496674682181293 42.40946780679123 2.2694764642376124 0 0 0
786 1 18.908969438553626 44.02358337318721 0.6948297970831516 0 0 0
825 1 23.641335131069674 42.58442862255329 2.2899893266597595 0 0 0
1375 1 25.557523431394113 43.97230908413135 0.7503087795004099 0 0 0
829 1 30.09977937680453 42.124429730014256 2.2945955599025893 0 0 0
1377 1 31.885960396660614 43.739214898452175 0.7409046736220254 0 0 0
2162 1 2.823210509535334 47.11458288527973 0.44365284100866964 0 0 0
80 1 1.0919703166264485 45.64038057939729 2.2887878603096348 0 0 0
2148 1 8.972284421223913 47.222661214697325 0.6114909029779722 0 0 0
81 1 7.7667805215856855 45.3928426264729 2.2690871627907647 0 0 0
1205 1 26.663371783278375 48.88061173155194 24.767519890459386 0 0 0
83 1 14.129823547886897 45.737325508390754 2.243912018892665 0 0 0
741 1 16.18257223172065 47.356129947652065 0.9684286308933436 0 0 0
832 1 20.69029817234537 45.78711708494302 2.195558227669874 0 0 0
2764 1 22.213925289626832 47.43697917934011 0.5178457867427366 0 0 0
835 1 27.10027702439503 45.53171062437903 2.1599268414482506 0 0 0
1381 1 28.63453508603987 47.18974198799201 0.6879938680764457 0 0 0
838 1 33.46152093290644 45.252603687385104 2.334926166256292 0 0 0
1955 1 0.1684970511749584 50.65248149801869 0.62342951446502 0 0 0
86 1 4.188193709571071 48.76501421391933 1.9801756595558846 0 0 0
770 1 6.131544644689577 50.23514199226405 0.6751988534624769 0 0 0
88 1 10.68661681518194 48.85926108992099 2.274691012540268 0 0 0
744 1 12.61797458059402 50.53068775394584 1.0414314212535496 0 0 0
7124 1 -0.1635839835582346 16.61135583418066 16.34763528914394 1 0 -1
1225 1 19.19354832837856 50.4965660237786 0.6529524118797845 0 0 0
839 1 24.181616259307884 48.993833234597005 2.0746087318308373 0 0 0
2194 1 25.211487527589625 50.52366636241112 0.5441326148087547 0 0 0
841 1 30.23233091862447 48.667654004270446 2.4321723301118023 0 0 0
886 1 31.93411706111319 50.356842610352345 0.8667781136896449 0 0 0
1334 1 23.408417526959475 13.433874993173353 25.03295185467713 0 0 0
5 1 -0.014361528813214286 2.49675885030162 4.382207976673901 0 1 0
190 1 4.719972411407517 0.7377699909998314 5.15963389145925 0 1 0
96 1 6.3874391506815895 2.564195506880247 3.659743992759479 0 1 0
192 1 11.322685955549844 0.8642884532501642 5.369171131662939 0 1 0
199 1 12.676081503098787 2.6608358011403896 3.724082121812441 0 1 0
194 1 17.207259160582428 0.9935564423587404 5.4524709263012845 0 1 0
845 1 20.88509968165113 0.777896466630775 2.4962725506100574 0 1 0
538 1 18.87174645589025 2.3573778180030676 3.906770793143024 0 1 0
848 1 25.150507470385296 2.392481524609206 3.6919180602222545 0 1 0
930 1 30.37162252560083 0.6517580528980539 5.441772822701154 0 1 0
853 1 32.10105190640271 2.4070756838183835 3.759211692942774 0 1 0
98 1 4.44650659825281 4.766994526853656 2.5841475502019717 0 1 0
198 1 7.9005306216524005 4.04000072795047 5.521278742930554 0 1 0
100 1 9.504272700493377 5.635727202209873 4.0117871826088125 0 0 0
200 1 14.05357520244578 4.131782766661189 5.524777227135564 0 1 0
115 1 15.769470547228941 5.427328570017354 4.003916302734075 0 0 0
932 1 20.365368949772964 3.821339932966463 5.5985131362281315 0 1 0
855 1 22.03703083277774 5.579214607826722 4.211194713390692 0 0 0
934 1 26.855154070837933 4.108305772685222 5.293003307549201 0 1 0
858 1 28.624902280518832 5.583628905866192 3.4862695082969015 0 0 0
935 1 33.489048516486 4.077740265337335 5.558437640656488 0 1 0
99 1 2.4884176547859203 6.021268175472526 4.285622800287386 0 0 0
1183 1 32.96163901244142 48.50313557968528 24.431659955324037 0 0 0
108 1 4.611843857770223 7.226337873846006 5.541112558502812 0 0 0
107 1 6.263647482112641 8.621433023892303 3.8659424027247287 0 0 0
110 1 11.133980667899756 7.4958600241706455 5.280816940036723 0 0 0
737 1 18.81820520152182 8.622069136659078 4.0638512547800625 0 0 0
857 1 30.11842126705551 6.936203414542763 5.423946181641283 0 0 0
863 1 31.520992788956697 8.63698614265966 3.856072981168235 0 0 0
116 1 1.6043277355369874 10.617313789879345 5.492837536689759 0 0 0
118 1 7.85923835787033 10.318840626120576 5.331742103323697 0 0 0
112 1 12.900196871087909 8.868677867251241 3.4065101591666345 0 0 0
119 1 14.461587289263292 10.242092716881466 5.192246675013475 0 0 0
859 1 20.170588328479766 10.379298026546413 5.52313849046443 0 0 0
861 1 25.146038065796798 8.73159734221614 4.122688059653955 0 0 0
862 1 27.020142913170265 10.317668802302162 5.264852929197211 0 0 0
864 1 33.45164980546922 10.41150454740421 5.315000215468572 0 0 0
13 1 1.7242998445482054 13.89913145566703 2.481282838316195 0 0 0
117 1 3.183573414455805 12.004642479885105 3.862026015809345 0 0 0
122 1 4.6480851774205165 13.844285918090888 5.461260788732145 0 0 0
15 1 7.817969164282232 13.360819590885416 2.510283222035468 0 0 0
124 1 9.506014104945107 11.788249065233723 3.7930010696770466 0 0 0
125 1 11.00073734126051 13.304374660726285 5.598732559429499 0 0 0
120 1 15.857407626243564 12.136370715433335 3.7469722280763538 0 0 0
127 1 17.32939191853326 13.927238549706834 5.3932531683340565 0 0 0
866 1 21.914472620604204 11.81244326930038 3.7193717473813805 0 0 0
867 1 23.56584784313234 13.118787178491868 5.522475497655564 0 0 0
779 1 28.095732487621763 11.986224528757628 3.6665945647821996 0 0 0
868 1 29.950203475688422 13.562656233999627 5.262062575872482 0 0 0
784 1 33.23842194745642 13.567988277811404 2.4944998630488877 0 0 0
128 1 1.4554893137409737 16.882450439977607 5.524156963881618 0 0 0
707 1 17.410851857133 26.608336049155564 24.980869715370165 0 0 0
14 1 6.227978015098445 15.370226846593475 3.603070479132066 0 0 0
130 1 7.715203959439453 16.983875098878944 5.020673397411151 0 0 0
22 1 12.463482487487772 15.181289583234717 3.824952694244804 0 0 0
131 1 14.254866269712043 16.850393790149106 5.2078508061124005 0 0 0
818 1 19.025623075979798 15.05721418494668 3.5665613159272596 0 0 0
871 1 20.438485412369243 16.75033059520983 5.097151216591587 0 0 0
782 1 24.84348995418614 14.859722197591813 3.580569535781726 0 0 0
873 1 26.910330499837507 16.66308641330115 4.8378239574533195 0 0 0
869 1 31.568179385080864 15.424605840064675 3.819065825961656 0 0 0
875 1 33.25580851933647 17.03606325460908 5.505012345283144 0 0 0
19 1 3.229507217082675 18.34037841526154 3.8418253641532063 0 0 0
132 1 4.505375474133263 19.775920818152816 5.514882224694249 0 0 0
129 1 9.668049082577234 18.481124024059852 3.7330990146481087 0 0 0
133 1 11.194486069948008 20.281324213501573 5.561049129377868 0 0 0
26 1 15.762907566081601 18.429727814283435 3.3852299694777894 0 0 0
135 1 17.1689212798543 19.985347262359628 5.279341974591014 0 0 0
792 1 22.12316583995353 18.60268006386748 3.7094250389674692 0 0 0
877 1 23.859441368629838 20.132556824351298 5.337661280353137 0 0 0
789 1 28.345938405956094 18.338408187364465 3.452740514647389 0 0 0
878 1 29.77120244440395 19.871865587529253 5.390466393268603 0 0 0
136 1 1.0844774201121432 23.309673137985126 5.496536951503322 0 0 0
137 1 5.887732201545884 21.74217697117087 3.9113857331772177 0 0 0
33 1 12.72489736517588 21.7151728932582 3.9087323186071323 0 0 0
139 1 13.943308013710935 23.452804961386388 5.452183819629605 0 0 0
732 1 18.68147818956986 21.75438601828898 3.572358814311385 0 0 0
879 1 20.42046606008231 23.401150070604828 5.181570293160801 0 0 0
880 1 25.691831188992836 21.30027402463176 3.9299708592184253 0 0 0
881 1 27.330760829027014 23.02326081754267 5.524565992442628 0 0 0
794 1 31.462132269498582 21.489444524860627 3.6731466427084123 0 0 0
884 1 32.89767810040964 23.18506561865925 5.596026929813398 0 0 0
39 1 2.7438120490726754 25.058561976760704 3.8320496413574565 0 0 0
141 1 4.312472602299824 26.44029837491424 5.445266571746419 0 0 0
41 1 9.268931825690679 24.74789626212477 3.9032985242472273 0 0 0
144 1 10.845420637941988 26.34415634564674 5.406898189532898 0 0 0
36 1 15.537441956412732 25.111251983933897 3.688645166728764 0 0 0
146 1 17.659624953307862 26.346698969339347 5.494099827751677 0 0 0
887 1 22.262269932122845 24.769163121747816 3.663163557431178 0 0 0
888 1 23.814507291488173 26.21573455788078 5.188329721092378 0 0 0
802 1 28.615843137410824 24.89542989474044 3.785919003370903 0 0 0
890 1 30.094407653213942 26.373217401317874 5.564978073413867 0 0 0
804 1 34.578600466427694 24.897693905246385 4.112202029148117 0 0 0
411 1 -0.2334049910485292 27.95048666965037 3.686252796476371 0 0 0
148 1 1.402183044869764 29.46576896870071 5.228251722612605 0 0 0
47 1 5.134279255929748 29.53422098063441 2.5459706462620377 0 0 0
40 1 6.372700146960887 27.945347445230627 4.321312026783668 0 0 0
149 1 7.871811539013368 29.757099360242538 5.575181371255033 0 0 0
49 1 10.846080827892255 29.653373827040394 2.639447597151367 0 0 0
43 1 12.496417001883378 27.96691397714834 3.97174917300552 0 0 0
152 1 13.864631508457293 29.67066725694076 5.538586011487041 0 0 0
1339 1 18.95220492688729 27.973948989642174 3.853355840258053 0 0 0
892 1 20.55421181954308 29.5773910699458 5.199798618783807 0 0 0
801 1 25.574223193198062 27.758414385973204 3.5700508598949874 0 0 0
895 1 26.598663482720948 29.497136616180214 5.475648916198808 0 0 0
807 1 30.39889908419796 29.30132883216013 2.6129181864620614 0 0 0
896 1 32.006449048120025 27.61547492325891 3.8362058610790193 0 0 0
897 1 33.5477470180485 29.56392268606946 5.120172682016533 0 0 0
153 1 3.191642658025347 30.86104288652758 3.9415054478187237 0 0 0
53 1 9.176586068907614 31.543886904738553 3.880606440430718 0 0 0
50 1 15.336733854836265 31.222905278688298 3.762204012403517 0 0 0
157 1 16.8485904945519 32.78450448957575 5.3481122050321055 0 0 0
899 1 22.630967259480634 31.22056078287842 3.507124558603082 0 0 0
810 1 27.166390702233137 32.68415018946574 2.65014895735569 0 0 0
808 1 28.61967948918648 30.82144205733546 4.0870773715159245 0 0 0
811 1 33.70015295219801 32.75591382910048 2.5022957484576787 0 0 0
285 1 0.03360170892716563 34.515802588414076 3.75669711406266 0 0 0
54 1 5.613600859323388 34.67206402664468 4.192890751564252 0 0 0
55 1 7.604317974074405 33.35249157578809 2.546568461659219 0 0 0
156 1 10.919289861527082 33.300171608649705 5.485979064660565 0 0 0
58 1 12.491813857739299 34.37014756320363 3.5108116014376956 0 0 0
698 1 18.63033597614937 34.04154969698946 4.04394857542173 0 0 0
900 1 23.71365637488912 32.935488409038356 5.509854249053426 0 0 0
905 1 25.377320484580757 34.485297056212744 4.051566510269548 0 0 0
817 1 31.65846596734081 34.09037212085873 3.857516230494511 0 0 0
910 1 33.34433224523507 35.68618774006495 5.308173101660842 0 0 0
159 1 1.3740029699939065 36.435930907927286 5.528300449239403 0 0 0
68 1 3.120097104584884 37.97883571249835 3.8283645195724407 0 0 0
62 1 9.216994801554877 37.853919167938585 4.090371063394399 0 0 0
167 1 15.595916180621144 37.402187705556145 3.8231514244846014 0 0 0
814 1 21.69773039582166 37.477407552075206 3.7419564746048795 0 0 0
904 1 19.979733766183813 36.126272659249864 5.280303166092318 0 0 0
813 1 23.58748433470767 35.93958966232779 2.4976461008964326 0 0 0
823 1 28.19118853234589 37.39135709090739 3.855308726495651 0 0 0
913 1 30.13838954191738 38.674478478745655 5.341995268178679 0 0 0
69 1 6.129423993389763 40.89775618235694 3.7265472254324568 0 0 0
166 1 11.109090137132178 39.603339471112804 5.578346810595097 0 0 0
77 1 12.615509983966074 41.00921847575172 3.8999814289341215 0 0 0
743 1 18.40301840940099 40.67931682657243 3.9399810882393016 0 0 0
168 1 16.81868807435986 39.06253083887245 5.622208823251137 0 0 0
912 1 23.388698965508727 39.18719782558843 5.37053596915414 0 0 0
826 1 25.20087015879272 40.91803720142373 3.83008604865341 0 0 0
917 1 31.614888637526818 40.56133260484259 3.819190406899287 0 0 0
918 1 33.7134128475802 41.74159755036604 5.358665682694923 0 0 0
73 1 2.900717845415912 44.086421668737984 3.888593973452431 0 0 0
170 1 1.2573744322845632 42.47975362858803 5.352404855858518 0 0 0
171 1 7.549373922002916 43.05109240961569 5.226624176175392 0 0 0
76 1 9.53684509307061 44.376988122127344 4.073004365522679 0 0 0
172 1 14.064131063615285 42.75636019611093 5.470134570557759 0 0 0
173 1 15.814474540007048 44.031162679897804 3.7627277978798905 0 0 0
919 1 21.683774996463427 44.39543588172711 4.089652889906601 0 0 0
914 1 20.224111932512404 42.53428543903159 5.434192223636418 0 0 0
837 1 28.391114682095697 43.8746290441253 3.9424815575619734 0 0 0
291 1 -0.22547362529230036 47.29581050074523 3.921963706263919 0 0 0
82 1 5.896053425770434 47.09752391104412 3.7385635319248145 0 0 0
175 1 4.4097546184720064 45.64019647169751 5.423894197142173 0 0 0
179 1 11.010936502345341 45.933485964178445 5.652478175500002 0 0 0
186 1 12.566576134473037 47.52180373293655 4.046881287502822 0 0 0
180 1 17.09214054635624 45.64202334642671 5.580012376479968 0 0 0
775 1 19.089428174158634 46.82097039384857 3.9483966832664645 0 0 0
920 1 23.679085426344955 45.74061391847832 5.369898219953773 0 0 0
834 1 25.556654087920204 47.28669150898715 3.5321905848423687 0 0 0
921 1 30.405504162745007 45.41063139430344 5.281633523120669 0 0 0
924 1 31.84991035539285 46.85894252644306 3.789723173792552 0 0 0
181 1 1.3323969765828994 48.78754414944693 5.329390061948029 0 0 0
183 1 2.9512285410817927 50.562942073283835 3.7026890787457405 0 0 0
184 1 7.80069839011486 48.34757344227491 5.263131386003995 0 0 0
89 1 9.414235717072431 50.26147298317122 4.194794423095056 0 0 0
193 1 15.751413867921755 50.55050296620112 3.8128802839085782 0 0 0
91 1 17.84126349860964 48.922539537246536 2.6539793015886697 0 0 0
922 1 20.534395321081877 49.0224286427615 5.640978887796584 0 0 0
927 1 22.45986031462134 50.40758999797066 4.095978232587978 0 0 0
923 1 27.14161358661426 48.849044943283815 5.673629067432105 0 0 0
929 1 28.71718222341817 50.35042653879161 4.05488054225546 0 0 0
926 1 33.92188931489375 48.61985367844109 5.290175527951549 0 0 0
280 1 1.0818645980690809 0.6214280110932726 8.642871015423621 0 1 0
197 1 3.2036440174232403 2.037290743018154 7.168918025205998 0 1 0
282 1 7.963408660848062 0.9029665705095755 8.702401363148947 0 1 0
191 1 9.561705852433006 2.626327767318247 7.13904735213027 0 1 0
284 1 14.103476775105982 1.3474282499020669 8.721012561726823 0 1 0
1009 1 20.528724824036683 1.066005788238929 8.643472171002104 0 1 0
928 1 24.007579949776957 0.7616446653498736 5.715074190822149 0 1 0
1014 1 22.270985849449037 2.3299893303700587 6.901454736958291 0 1 0
1011 1 27.432779578117646 0.8773834620803109 8.622795570744309 0 1 0
1012 1 33.9471955235555 0.862180145568407 8.648986693078358 0 1 0
195 1 1.3619006608960504 4.188455849062786 5.97481143135837 0 1 0
286 1 4.801397757944553 3.962016861209836 8.520334409711865 0 1 0
288 1 10.912035635209474 4.335897767622477 8.651544684979086 0 1 0
289 1 15.823499740184353 2.6828284431839093 7.034072180074106 0 1 0
677 1 18.650989563116923 5.661377442177022 7.268917097046607 0 0 0
290 1 17.150496853536335 4.269658945415663 8.831390984546488 0 1 0
1015 1 23.859926267007047 3.9203490759077333 8.662761358211116 0 1 0
1017 1 28.72992799695942 3.0337661891066015 6.8387363888908625 0 1 0
941 1 31.74765828064782 5.449801345691957 7.4298107121681 0 0 0
30 1 -0.11989479395695873 5.876000530643312 7.563428908181756 0 0 0
109 1 6.430756090555756 5.873089728483586 7.06935251420138 0 0 0
113 1 12.549491094464967 5.872783613366362 7.091750977062709 0 0 0
114 1 17.163517632132866 7.1825382114509075 5.912365404580771 0 0 0
856 1 23.459089588046982 7.26859909742773 6.006289742541847 0 0 0
933 1 25.313383918556127 5.716939965772159 7.073364797704658 0 0 0
940 1 26.850224851682587 7.221421145525536 8.634699374890529 0 0 0
939 1 28.337976867067198 8.672506443003945 6.933653838961285 0 0 0
942 1 33.26342186867028 7.493269251227479 8.573509979091323 0 0 0
106 1 3.1332479788484457 9.11991947527052 7.3212625218381016 0 0 0
206 1 4.712216495567244 11.0846984103001 8.523040130558442 0 0 0
111 1 9.289515316349611 8.82712107399616 7.057487061895963 0 0 0
210 1 10.845035950173155 10.061326562204137 8.541910652928134 0 0 0
204 1 15.899684404950069 9.032865742280846 7.395079461826669 0 0 0
938 1 21.437643337518754 8.696824866650212 7.283081517561111 0 0 0
943 1 23.195584991624624 10.240841513866485 8.830794170627533 0 0 0
944 1 25.637704998183736 11.663721311099797 7.336743734957551 0 0 0
945 1 29.950901590720065 10.244073648262496 8.544509432822027 0 0 0
61 1 -0.21485525311931974 12.072481542400201 7.073600789201356 0 0 0
213 1 1.4526119381797962 13.678221797436262 8.783921594891732 0 0 0
121 1 6.284603808426075 12.236064285554152 6.904576165282698 0 0 0
214 1 8.065460455731323 13.630518783466595 8.6515536838322 0 0 0
209 1 12.54966442991738 11.762307717975549 7.054848547664245 0 0 0
216 1 13.741550787616834 13.542865446748875 8.518675713723656 0 0 0
759 1 18.69012497405586 12.162201367316786 7.046170884583646 0 0 0
949 1 20.52213102959629 13.761904587684288 8.386777607224477 0 0 0
951 1 27.112096919340168 13.732336341204476 8.441569295020816 0 0 0
946 1 31.560401077623222 11.757896399997543 6.8388321798963 0 0 0
952 1 33.09605296490534 13.55660781997598 8.391350516544962 0 0 0
218 1 3.1296558070331426 15.473567994940037 7.1939613056331355 0 0 0
123 1 9.339699104002836 15.340461422899484 6.730605715488153 0 0 0
221 1 10.795084420975822 16.81961918122229 8.391681170216158 0 0 0
126 1 15.296023137820178 14.998373065487693 7.02351737795099 0 0 0
224 1 17.054388216206878 16.334952277651418 8.478265791174648 0 0 0
950 1 22.25657074433568 15.181532834479825 6.808118173319034 0 0 0
954 1 23.880289437205214 16.962079065945634 8.341057068042211 0 0 0
874 1 28.56363396626013 15.401265729786092 6.503662483233534 0 0 0
955 1 30.028732663816985 16.931070775917433 8.427524437722386 0 0 0
225 1 1.4242758907671147 20.28943654164634 8.501016427934479 0 0 0
226 1 6.241430336950468 18.355908329331662 6.994816895463869 0 0 0
227 1 7.694006667496346 19.850298025818567 8.565115088701008 0 0 0
134 1 12.699976536282279 18.30638786637137 6.8310563533194015 0 0 0
229 1 14.338204049488452 19.766633967115194 8.403380630917592 0 0 0
656 1 18.78968736225697 18.398843583483202 7.0536386172784455 0 0 0
958 1 20.592006152634244 20.1858239446787 8.649554706696899 0 0 0
872 1 25.586600819305865 18.457874263595166 6.556857829604751 0 0 0
959 1 26.636193998370842 19.98503519083933 8.784517301461376 0 0 0
962 1 31.464865680225323 18.565711446991642 7.154584478778269 0 0 0
230 1 3.1166306299516298 21.704947557518476 6.690390895540097 0 0 0
232 1 4.530516073347658 23.19509817502542 8.500512124704969 0 0 0
138 1 7.675027797731977 23.34325711816313 5.686505204349609 0 0 0
233 1 9.350437757038632 21.487111437455876 7.14782131140613 0 0 0
234 1 10.909319601983523 23.315760131354995 8.637468465527986 0 0 0
140 1 15.425812404329605 21.47750443340087 6.850699881869078 0 0 0
235 1 17.062661596722535 23.04170559602585 8.457195286966067 0 0 0
957 1 22.189649499614085 21.754513316283703 6.66509375759581 0 0 0
966 1 23.70260713467423 23.412307328667907 8.248311599729 0 0 0
882 1 28.430372050872744 21.702194983332948 7.464705878383482 0 0 0
967 1 29.94445020228476 23.57131070277327 8.627816126830366 0 0 0
885 1 34.36401627190713 21.88614127104872 7.157196572072123 0 0 0
237 1 1.2781552915778798 26.553491215931817 8.693232697335983 0 0 0
142 1 5.8635999118954585 25.03301097474998 7.259866598192645 0 0 0
145 1 12.530267526113773 24.914097495262578 6.949955817780831 0 0 0
239 1 14.109838758428571 26.67932288537499 8.409422214537377 0 0 0
1371 1 19.29407059139787 24.755474867727333 7.188665760758453 0 0 0
968 1 20.93739321526137 26.668105161650836 8.777751254070864 0 0 0
965 1 25.542150411121472 24.822296535765226 6.91032566754276 0 0 0
969 1 27.022951986924927 26.447239637305152 8.489394869561112 0 0 0
883 1 31.680194055587837 25.147373591144063 6.974429357469016 0 0 0
971 1 33.66309353946072 26.55879505319627 8.71751033542844 0 0 0
147 1 2.729276257837553 28.0498595499971 7.043573675695927 0 0 0
241 1 4.435080973580074 29.640596400519694 8.637586516818905 0 0 0
143 1 8.885480282381705 27.75752533189746 6.974711315646194 0 0 0
240 1 15.953829118449601 28.307835388555016 6.9382736835825565 0 0 0
243 1 17.410795478986905 29.7431374918474 8.558461187499082 0 0 0