LAMMPS data file via write_data, version 29 Oct 2020, timestep = 200000

4608 atoms
1 atom types

-0.01837484818538826 57.288884848185866 xlo xhi
-0.016333198385844128 50.923453198383974 ylo yhi
-0.016333198385844128 50.923453198383974 zlo zhi

Masses

1 18.015

Atoms # atomic

5 1 1.2866149871853032 1.919163118406587 1.4792154508507194 0 0 0
13 1 8.364399294100982 1.4079045390233873 1.2821337355339961 0 0 0
21 1 14.892420604600819 1.3253317189506906 1.405840402459396 0 0 0
457 1 0.16469780736066544 19.299991254854785 12.582614111249434 0 0 0
170 1 0.29242947790147905 47.78880220458824 3.703884053698615 0 0 0
8 1 5.03911164231219 4.763816185082457 1.6237734352431055 0 0 0
81 1 6.31632356128819 18.82864760453184 0.2405427349864679 0 0 0
16 1 11.177238772567021 4.453766325076437 1.5152651042511132 0 0 0
602 1 0.07625356749615164 9.393263017824886 21.894216122050203 0 0 0
649 1 -0.0005325393806614974 19.270606708163545 18.92626090116878 0 0 0
24 1 17.618727291358397 4.758596083340484 1.538965822654278 0 0 0
362 1 0.1184041416004705 47.75137980306289 9.764659178619722 0 0 0
29 1 2.021933859614794 8.190151363181517 1.8129705000465932 0 0 0
34 1 6.501892550325475 9.653498949726554 2.928850032352619 0 0 0
37 1 8.083509707944327 7.654674620480464 1.8418181477174298 0 0 0
865 1 0.6097944249839552 25.20583136267584 25.35607705011002 0 0 0
45 1 14.4522164696612 7.923557497312433 1.695404885929593 0 0 0
386 1 0.424675756065512 3.368937323357619 15.964435659983176 0 0 0
51 1 3.5192137705109836 12.608007648813386 3.1663474692464653 0 0 0
762 1 12.779286333668216 47.909497317210146 22.22447819803348 0 0 0
32 1 4.859803097955645 11.291137319433986 1.2770277448482192 0 0 0
42 1 12.704556549434514 9.465556760490562 3.149563662471117 0 0 0
40 1 11.325155469972827 11.04298635716872 1.4077769291484912 0 0 0
481 1 -0.01337546648348561 25.251335746249485 12.762058696919668 0 0 0
48 1 17.12043394935257 10.990793381156166 1.285217625952432 0 0 0
67 1 15.986604576722605 12.69688647218749 2.7121568212796547 0 0 0
53 1 1.8099146845804233 14.260391990027113 1.519881394856671 0 0 0
61 1 7.873478207329077 14.262770658379257 1.6298145818268068 0 0 0
69 1 14.34730293755371 14.351876378494913 1.5897117555066207 0 0 0
193 1 0.1874520238215319 0.2092757870123428 6.868350478580732 0 0 0
56 1 4.346951706635585 17.555311134896513 1.7823816816423748 0 0 0
50 1 0.009294690364509157 15.868382532477426 2.9624973091213174 0 0 0
66 1 12.964594635823174 15.965028128192285 3.2329020454667834 0 0 0
64 1 10.975326963630803 17.145104686151384 1.7503036579034759 0 0 0
194 1 0.26092880993548656 3.361180400217704 9.661898772530554 0 0 0
91 1 15.762326424678673 19.343221120776967 3.013974024539693 0 0 0
72 1 17.369310322063587 17.65136757044407 1.3636914240561637 0 0 0
77 1 1.59703815533332 20.721952257409882 1.28852374653121 0 0 0
75 1 3.036076608715011 19.29080861557343 3.1566232321585947 0 0 0
82 1 6.6458524754851 22.162390277925955 3.6433088239403726 0 0 0
83 1 9.526830597829655 18.981779081161147 3.2274968692210817 0 0 0
85 1 7.736598778487412 20.578263263880032 1.4886640334357686 0 0 0
90 1 12.737317607930295 22.18384322559193 3.2955870095856277 0 0 0
93 1 13.97856062613654 20.35599091963914 1.2353971712395824 0 0 0
241 1 0.026049509652874947 12.829288941169994 6.3171388733446525 0 0 0
578 1 0.05421196843362708 3.0575189889025074 22.16798083476044 0 0 0
80 1 5.413953964216594 23.742895707892306 1.8773176173196282 0 0 0
289 1 0.21037833759376667 25.385872477129542 6.299021149826649 0 0 0
88 1 11.095673244083109 23.861421013112764 1.9703022540230826 0 0 0
115 1 15.562675390589712 25.42268622809414 3.0871454585275804 0 0 0
96 1 17.429895106074014 23.95029424131303 1.347570665459062 0 0 0
101 1 1.7703066190252095 26.555997514636335 1.5037152343587628 0 0 0
107 1 9.434971197583435 25.741977343207196 3.2049242975908188 0 0 0
106 1 5.8907511289896375 28.853679323823883 3.5155639038539097 0 0 0
109 1 7.870983752468876 27.541056652892095 1.877912284207874 0 0 0
849 1 6.357448310957773 19.028546515306978 25.361767412706747 0 0 0
117 1 14.352754045843422 26.984127119674124 1.4896378326832003 0 0 0
114 1 12.732738707122826 28.553352961006752 2.8370770536294287 0 0 0
766 1 14.147316198423146 49.261781020443586 24.111070103482948 0 0 0
104 1 4.854119185729588 30.323155399575437 1.7316569335305299 0 0 0
217 1 0.09299169202335501 6.373121849985665 6.381102132788372 0 0 0
131 1 9.475167109935178 32.018776618305644 3.4135841551703927 0 0 0
112 1 11.005923221697188 30.587613118055373 1.5244998207447824 0 0 0
506 1 0.016352802012796985 35.2226919128349 15.525746070139421 0 0 0
120 1 17.504245111709608 30.015639350978308 1.5852480240620115 0 0 0
554 1 0.31027267137273157 47.87135198644814 15.991358993817396 0 0 0
125 1 1.6719727598973686 33.50530094069975 1.5115517379023158 0 0 0
123 1 3.4103798872330757 32.14303526606415 3.1529575187703487 0 0 0
130 1 6.403857582164418 35.046582684693725 3.0516764648241703 0 0 0
133 1 7.720061960164437 33.37757707095739 1.5613859678268986 0 0 0
141 1 14.322418815307401 33.550441561805556 1.5807270556447057 0 0 0
128 1 4.70524184236402 36.71556884861589 1.5340616708004908 0 0 0
147 1 3.192156030763535 38.21845445628012 3.2128697627469474 0 0 0
25 1 -0.007243476901454361 6.6453784683780395 0.4467987252428212 0 0 0
136 1 11.258181168489548 36.84275932057232 1.7087443648631213 0 0 0
155 1 9.793332848901615 38.50749058603733 3.396308922324122 0 0 0
138 1 12.855783364114481 35.15745794066634 3.224197244022615 0 0 0
144 1 17.71124047771307 36.55033259160641 1.6022796446248229 0 0 0
553 1 0.011067972666431558 44.23448711108886 13.004232013594612 0 0 0
149 1 1.3929346157235083 39.76422914602983 1.6214893335483664 0 0 0
157 1 8.03259065999521 39.51799489893462 1.601892393509459 0 0 0
154 1 6.171716105137933 41.213698154476376 3.0636294851469237 0 0 0
165 1 14.362121506903637 39.86066349606865 1.5768498393072594 0 0 0
41 1 12.573951636395078 6.346247667590188 0.018913209202996877 0 0 0
337 1 0.07464179780251537 38.570596374439354 6.324549478144737 0 0 0
152 1 4.4728511577861445 42.87240630171687 1.3145024977944928 0 0 0
266 1 0.08662204367370441 22.473216697309088 9.612214855399472 0 0 0
160 1 10.9370490790015 42.96615680857268 1.6074667295148777 0 0 0
179 1 9.67136921856144 44.3609836855181 3.5174575493357794 0 0 0
921 1 6.673825674584748 37.86413519996729 25.2995532074723 0 0 0
168 1 18.054014451433908 43.02910198789078 1.9847574244673587 0 0 0
809 1 12.682488875593465 6.497240808203884 25.210727095741028 0 0 0
173 1 1.665683007424201 46.35790201082108 1.6304473429601165 0 0 0
385 1 0.45769897263287695 0.13374229478423194 12.858087106222785 0 0 0
181 1 7.890168776081078 45.742535924503414 1.6279141912400608 0 0 0
178 1 6.660513853432441 47.855883693157814 2.985225064113957 0 0 0
189 1 14.586550263231501 46.1404414805699 1.481696410909805 0 0 0
176 1 4.72980359238465 50.04708125206609 1.915293455314578 0 0 0
3 1 2.7820272977041456 0.3537783520902308 3.607807561560492 0 0 0
11 1 9.760932005040923 50.911238581139244 3.3354141513769475 0 -1 0
722 1 0.18643615904368716 41.55629775241963 22.394029510958198 0 0 0
184 1 11.078573611762927 49.19186053193958 1.5086138407732403 0 0 0
409 1 0.006147557201756693 6.915094311545472 12.940210579452444 0 0 0
192 1 17.551442736153437 49.235818258339876 1.6107497588451287 0 0 0
577 1 0.02905606843219033 0.13818865183819184 19.180571200488988 0 0 0
196 1 3.4234614999095063 3.4361100139723226 6.627459507686342 0 0 0
10 1 6.5373741572901904 2.9402489365414515 3.190337490835621 0 0 0
7 1 4.894270071698822 1.5525013211168006 4.856685043569563 0 0 0
201 1 6.703602656382725 0.20638031514684 6.376876232139003 0 0 0
15 1 11.382056804686766 1.8206039816447104 4.5977603216107825 0 0 0
204 1 9.5473056816102 3.1448536913088208 6.365073271500277 0 0 0
18 1 13.13897089346152 3.186191617788609 2.733324934792018 0 0 0
209 1 12.79011217568332 0.20607581224288904 6.399156729224238 0 0 0
23 1 17.379838062795173 1.5089323379949595 5.225982615743475 0 0 0
19 1 15.99313299267806 50.7039375200796 3.32758472499196 0 -1 0
6 1 1.902593606591875 4.925618015902629 4.808664271363631 0 0 0
27 1 3.4735218870144204 6.305640074829007 3.1864417303186308 0 0 0
14 1 8.124561549455306 4.628716817972768 4.648417277815143 0 0 0
22 1 14.692137951276388 4.552373116232563 4.50965652877688 0 0 0
43 1 16.080606934298885 6.436674538506737 3.071993895297022 0 0 0
225 1 6.558220113115312 6.535843053430817 6.212967709281044 0 0 0
31 1 4.930320519528676 8.135594680087092 4.777253828370127 0 0 0
228 1 9.59722516677695 9.62389029131099 6.039913508032988 0 0 0
35 1 9.762664238054374 6.090386337357649 3.1177803172266065 0 0 0
39 1 11.249515229434255 7.598526968308606 4.914001577774301 0 0 0
236 1 15.522179084328144 9.283603607462837 6.331282495373361 0 0 0
47 1 17.544838740637292 8.218110425850854 4.709604383072566 0 0 0
30 1 1.7545390707244521 11.157758129206716 4.839818748820233 0 0 0
59 1 9.923845827579822 12.748011994026735 3.058193747792495 0 0 0
38 1 7.9812857356488776 11.258648615802977 4.338986874556063 0 0 0
46 1 14.486505667391164 11.125870311837797 4.525178477743854 0 0 0
55 1 4.788362424105541 14.035989493912496 4.8305928568156045 0 0 0
63 1 11.442243543497838 14.538731085910822 4.876516614692362 0 0 0
257 1 12.93980505722691 12.5741961176313 6.139835103426158 0 0 0
71 1 17.385213251174914 14.244312953818337 4.596293124351902 0 0 0
54 1 1.3854811819774224 17.551130633343245 4.8123442025038115 0 0 0
58 1 6.163438706227651 15.991889983979267 3.235541485323249 0 0 0
62 1 7.941321169357453 17.584537737085732 5.001311951323633 0 0 0
70 1 14.176588292352418 17.69350862570429 4.76822466485645 0 0 0
260 1 15.651284790916515 15.728611394595795 6.159375175587294 0 0 0
79 1 4.596475512028997 20.665267835519114 4.761343847978137 0 0 0
273 1 6.139433513882064 19.265392182787366 6.566386937379593 0 0 0
276 1 9.145398575189772 21.975557365568317 6.282733479501917 0 0 0
87 1 11.095016531148874 20.569632156580184 4.723177540165697 0 0 0
281 1 12.770989851920236 19.147104983813268 6.258108361186736 0 0 0
95 1 17.87333254016673 20.572161389060593 4.809919914329054 0 0 0
268 1 3.0216173729962885 22.266351949765557 6.3512331628015914 0 0 0
78 1 1.701513549482736 23.674804211531008 4.545471948927552 0 0 0
86 1 8.137068511543347 23.96460025601715 4.890574426423184 0 0 0
297 1 6.3524602876260285 25.397411689546992 6.327185681766576 0 0 0
305 1 12.335468814851897 25.298199117925922 6.175455526883041 0 0 0
94 1 14.098326151917176 23.878623363866037 4.85417180309518 0 0 0
99 1 3.4815486323741247 25.062729653220885 3.265502568744423 0 0 0
103 1 4.5650279280382575 26.892299816321295 5.033323199390544 0 0 0
300 1 9.630913670209377 28.799186788741334 6.36971261498685 0 0 0
111 1 11.168496708383103 27.489012238838868 4.801841920785246 0 0 0
119 1 17.06656954903325 26.97606097897274 4.664701163261242 0 0 0
758 1 7.69404992955162 49.2117690586114 23.989974825607362 0 0 0
102 1 1.6734818903445343 30.60825646384201 4.843940411722444 0 0 0
321 1 6.470524313391112 32.04487089916841 6.6778032448325595 0 0 0
110 1 7.935386287727203 30.48817360338949 5.048611905317224 0 0 0
329 1 12.586327643059219 31.992800433157278 6.468515124949419 0 0 0
118 1 13.829638072595179 30.193352111974512 5.033135548134056 0 0 0
697 1 0.30345990765371766 32.04044772012392 19.016373553179886 0 0 0
127 1 4.870630480358838 33.58269174289136 5.0260023475360525 0 0 0
135 1 11.357297364645122 33.75898326587246 4.8937231943732495 0 0 0
139 1 15.820492683235369 31.569424285802373 3.147771879441489 0 0 0
143 1 17.036824615639304 33.221022905417826 4.937354199376124 0 0 0
290 1 0.07563174948865026 28.716653477941403 9.32803377143558 0 0 0
126 1 1.5574675990674933 36.620248239720866 4.66897120602382 0 0 0
134 1 7.8163290737243605 37.188577956117626 4.543852974273793 0 0 0
142 1 14.296775004626811 36.895398006013345 4.786080874732087 0 0 0
163 1 16.037899963347595 38.16348649944296 3.0876664853879263 0 0 0
772 1 2.694386908965158 2.840790147762597 25.260108468258046 0 0 0
151 1 4.693245173913366 39.764046007967885 4.740084035059978 0 0 0
340 1 3.166178952423271 41.32298437081169 6.503949394760609 0 0 0
345 1 5.9247481380317 38.20356161449113 6.4986769506232 0 0 0
348 1 9.501153132781294 41.223555861201284 6.578438434659117 0 0 0
159 1 11.25966067469226 40.05579083541686 4.967464132309797 0 0 0
167 1 17.30883689805026 39.76586326111632 4.89537998823769 0 0 0
150 1 1.6320950228310458 42.894817579043846 4.646077623913661 0 0 0
754 1 6.247482072972679 47.586835450576594 22.439655338491477 0 0 0
171 1 3.2424007022192147 44.66086503118413 3.02794397161611 0 0 0
158 1 8.066329893602731 42.45716406149499 4.580167911920579 0 0 0
369 1 6.760948855951794 44.51620245541868 6.251012545604097 0 0 0
162 1 12.80710723407046 41.635743425789016 3.3703234264756925 0 0 0
166 1 14.246212289771448 43.04733021760891 5.11817565754505 0 0 0
750 1 1.2116274072204205 49.19787337013046 23.868127916771318 0 0 0
721 1 0.06584200919409966 38.23577069175587 18.954652926381037 0 0 0
175 1 5.001829145690613 46.039077395515626 4.477215506665795 0 0 0
372 1 9.818062674335017 47.91768872219928 6.446204008914845 0 0 0
183 1 11.569768239957536 46.16492952415979 4.685649179039611 0 0 0
187 1 15.975171412315836 44.64849143702873 3.137554833785859 0 0 0
191 1 17.423349218144157 46.2935166987553 4.768510259425969 0 0 0
174 1 1.6614433203651746 49.471589558536984 5.288099758613787 0 0 0
767 1 17.5678032958565 46.19114179641009 24.24806857895756 0 0 0
364 1 3.4934867843243564 47.331753973703776 6.475917362394344 0 0 0
182 1 8.165636339656345 49.32391630462732 4.8369556865689045 0 0 0
186 1 12.91603587179204 47.95201501288037 3.0492243441425693 0 0 0
190 1 14.286274737913166 49.41521495573012 4.8404357453394455 0 0 0
197 1 1.9102190467127775 1.6637817739550067 8.403142002226062 0 0 0
205 1 8.09905725291494 1.7742124272335889 8.232384022043139 0 0 0
213 1 14.124591357677646 1.9167745300435388 8.337837964109323 0 0 0
212 1 16.1226610542902 3.349514766066872 6.700887676686152 0 0 0
211 1 15.967384387046568 0.13181060594018768 9.958821277305587 0 0 0
200 1 4.994114077859683 5.390541066100219 7.822907725477536 0 0 0
202 1 6.533484934083715 3.7100152652122573 9.23102806612137 0 0 0
227 1 9.98469475795145 6.551153945463087 9.231473564299174 0 0 0
233 1 12.790284598231072 6.06458161515049 6.362448653507217 0 0 0
208 1 11.094633869411451 4.372559000976617 7.841678862643168 0 0 0
216 1 17.529789855620518 5.124725182034564 8.300467467430538 0 0 0
219 1 3.201504073594727 6.512412333864221 9.553370374112623 0 0 0
221 1 1.7516768494103971 7.970405167789518 8.082415207834366 0 0 0
229 1 8.329697539316134 7.922953390837881 7.9507444376184235 0 0 0
226 1 6.691573146441126 9.722437226152648 9.715163073230316 0 0 0
237 1 13.97589365916091 7.835761697131926 7.8185662946764465 0 0 0
235 1 15.821562386959146 6.597667672086819 9.655305837691257 0 0 0
220 1 3.4198882469521443 9.756295832209382 6.500828747610432 0 0 0
224 1 5.015545251992633 11.328307893274662 8.289208500060921 0 0 0
251 1 9.620152544528448 12.81919673086055 9.294929013203697 0 0 0
232 1 11.044945419467627 11.095257783256313 7.692240592146974 0 0 0
234 1 12.609380646753674 9.53113183237469 9.411458788427927 0 0 0
259 1 16.050084514467805 12.37042918231924 9.242119359780792 0 0 0
240 1 17.271283397745734 10.613143470348378 7.778369198689494 0 0 0
245 1 1.7234900391943988 14.54680068893312 7.801000014883062 0 0 0
249 1 6.515274022959439 12.623455771628752 6.302733169450284 0 0 0
253 1 7.9602000832852235 14.10997497983267 7.864761087830568 0 0 0
258 1 12.665540210574393 15.819124485297603 9.277108726323151 0 0 0
261 1 14.569404532859929 14.026751553847859 7.70387843540847 0 0 0
244 1 3.4069316694494796 15.95485664613206 5.999910487102518 0 0 0
250 1 6.471316428556278 15.930365583328614 9.327209846884875 0 0 0
248 1 4.813370615560517 17.437159101272954 7.800498367663012 0 0 0
252 1 9.607907262648858 15.738167801533175 6.454931758460508 0 0 0
256 1 11.158578959112024 17.557185568401003 7.936733401801535 0 0 0
264 1 17.279513204925845 17.284574393539767 7.757409666309272 0 0 0
755 1 9.854895675687846 44.86113062118214 22.395715906481676 0 0 0
269 1 1.578139012002949 20.777864524856344 7.992203940649812 0 0 0
277 1 7.562441365475021 20.790051123630604 8.28868485875256 0 0 0
285 1 14.342241971150745 20.90303347781908 7.709888199876024 0 0 0
284 1 16.17652060433148 22.52296910937857 6.246487753175497 0 0 0
272 1 4.718438142943302 23.848710881345006 7.936850831353137 0 0 0
280 1 10.458588742919288 23.505136402348068 8.1876377417896 0 0 0
288 1 17.62581357371801 23.95071192046235 7.85814223066797 0 0 0
293 1 1.6525963032498783 27.11575407642709 7.69161839958389 0 0 0
301 1 8.000825003858049 27.30589740150035 7.940514467610798 0 0 0
299 1 9.133802276497763 25.513068051238562 9.665692622024103 0 0 0
309 1 13.864618874119065 26.7057449435195 7.893602390911505 0 0 0
308 1 15.351040463464749 28.343790849182017 6.4169769147912215 0 0 0
307 1 15.703760150339898 25.373805504609592 9.471712429667392 0 0 0
292 1 3.470209607717193 29.05725561915553 6.321761128369248 0 0 0
296 1 4.774379202138334 30.482439864930573 8.144177498983728 0 0 0
323 1 9.658994891149163 32.24153112433854 9.547017993751952 0 0 0
304 1 11.291495461667681 30.588511105943038 8.115692098385823 0 0 0
306 1 12.61167918338319 28.7117066679767 9.48285965977001 0 0 0
312 1 17.224162496293708 29.85965445856503 7.636731017060046 0 0 0
33 1 6.494800521774108 5.9514018177091685 0.014787208804074782 0 0 0
317 1 1.4132149613202587 33.511235148352675 8.048536731408111 0 0 0
316 1 3.0455163435360375 35.269417780001234 6.340082935410528 0 0 0
322 1 6.541367779632511 34.98706856211002 9.65753674550717 0 0 0
325 1 8.084234657185009 33.60318038918928 7.98160954699988 0 0 0
324 1 9.235787549728505 35.47234567166877 6.213537635993076 0 0 0
333 1 14.142789143880918 33.58994794148443 8.005796632525438 0 0 0
331 1 15.867699228143701 31.25883400428137 9.89490249943346 0 0 0
320 1 4.631133327585808 36.53114456591615 8.28807621591496 0 0 0
328 1 11.140506966643057 36.925336470068345 8.007233863498973 0 0 0
330 1 12.798011585037658 35.57572027910715 9.415786602417157 0 0 0
332 1 15.506349056431688 34.936459931943325 6.27568754772754 0 0 0
336 1 17.26958275350246 36.4110946576385 7.490245033815462 0 0 0
341 1 1.5298474547420957 39.97301298113666 8.285699996429683 0 0 0
339 1 3.2601756362692806 38.29274524247023 9.821525905196228 0 0 0
349 1 7.546986125120914 39.77210850596798 7.95874173801952 0 0 0
353 1 12.92107515745299 38.53849807877428 6.48675275816435 0 0 0
357 1 14.652613881152087 40.00110566711404 8.339986556929512 0 0 0
759 1 11.36867455760663 46.421989939188805 24.0525201144381 0 0 0
344 1 5.024676260419457 43.01964337041892 7.475100354577626 0 0 0
371 1 10.049183458094786 44.73186526111526 9.854690744509698 0 0 0
352 1 11.318240182148783 42.90039265071718 8.33378396138777 0 0 0
356 1 16.04813843741679 41.50142272311699 6.6342870014089375 0 0 0
360 1 17.40194131362772 43.163550437824284 8.063994604159465 0 0 0
365 1 1.3828821208599067 45.92334815283097 7.942107498138548 0 0 0
363 1 3.170848956643055 44.234961113934894 9.4628252890844 0 0 0
373 1 8.228183219669805 46.2034039357387 8.001324317936614 0 0 0
377 1 12.614381515908235 44.7574970153102 6.657222360524249 0 0 0
381 1 14.33591349442564 46.64552477294962 8.019837497088016 0 0 0
98 1 0.340140108104745 28.69824086625341 3.0816675633168265 0 0 0
368 1 5.082825650113765 49.24634315479049 7.820216254825686 0 0 0
203 1 9.55288531978611 0.025563033709071245 9.64100620191661 0 0 0
376 1 11.161280687831402 49.61825494611859 7.9507354861590125 0 0 0
380 1 16.046877630587538 47.9738918264806 6.341781708618259 0 0 0
384 1 17.366885860611294 49.55236498329882 8.129634590897465 0 0 0
146 1 0.08242924353113779 41.410940430043986 3.2460637474977148 0 0 0
199 1 5.255311508426807 1.7964064001982822 11.07645778958441 0 0 0
207 1 11.167118409388667 1.5198615822719 11.386972803066268 0 0 0
215 1 17.56892494279174 1.7670235047239309 11.299005128024774 0 0 0
751 1 4.661427702915939 46.30355262786869 24.09681928385658 0 0 0
198 1 1.6730922485871653 5.116761350955685 11.291999067656612 0 0 0
206 1 8.263038305475735 5.1771928410871615 11.033544084555968 0 0 0
210 1 12.415224698271198 3.2610058902680366 9.859976768157818 0 0 0
214 1 14.217384561761103 4.945866061176593 11.209375022677705 0 0 0
425 1 12.830641807755416 6.399520776273253 13.102953007987301 0 0 0
412 1 2.9891559038450155 9.763312209169897 12.511686413813191 0 0 0
223 1 5.000525333977446 8.131729429002332 11.293495508081206 0 0 0
417 1 6.7621452091146494 6.746689784545692 12.60903691704809 0 0 0
231 1 11.324975521653831 8.137025150767474 11.201687371077494 0 0 0
420 1 10.00059045264687 9.826873529014911 12.78368392490931 0 0 0
239 1 17.368233748307564 8.44019003972268 10.809395848522 0 0 0
222 1 1.3834351069635145 11.231972887410361 11.031555670354553 0 0 0
230 1 8.179899244369098 11.427249279994893 11.11456634021727 0 0 0
238 1 14.210133222881312 11.020958632940236 10.751611466417 0 0 0
428 1 15.731955695780655 9.47693484564684 12.592365562854281 0 0 0
243 1 3.0570574344184447 12.842674480404689 9.646773215216001 0 0 0
247 1 4.56617620393365 14.732081940673785 11.064211201012467 0 0 0
441 1 6.052757136481602 12.940455970629532 12.554259861350417 0 0 0
255 1 11.102330899713367 14.175523507028272 11.011911146489844 0 0 0
449 1 12.838839160854073 12.53647143014145 12.52248450649756 0 0 0
625 1 0.10399052175698387 13.13129314225322 19.047487862884733 0 0 0
263 1 17.242178708596903 13.910203018430739 10.967742152207201 0 0 0
452 1 15.736316459208819 16.033836266396378 12.357872673866153 0 0 0
246 1 1.8506521306133612 18.05215687786488 10.796914465912268 0 0 0
436 1 3.0147818810899056 16.5451020052007 12.575391721072792 0 0 0
254 1 7.599532580755535 17.71378481476779 11.09609918767457 0 0 0
262 1 13.850574058866155 17.67734118451503 10.994364435361643 0 0 0
267 1 3.4341049726913697 19.36275463119256 9.414473480069777 0 0 0
271 1 4.654441997535536 20.83931785991626 11.256290763499313 0 0 0
275 1 9.685171591111416 18.940833822541208 9.624140088394503 0 0 0
473 1 12.363398597166489 19.114485396919864 12.788144872818345 0 0 0
279 1 10.653419586691957 20.722579054664983 11.217724152482031 0 0 0
283 1 15.717560072570961 18.66727637830342 9.18714611803507 0 0 0
287 1 17.227080277036983 20.194103192860133 10.751693769484826 0 0 0
742 1 14.549301573024147 42.93957121695908 24.19339922975002 0 0 0
270 1 1.6618760812312223 23.885398486953065 11.150820351694604 0 0 0
274 1 6.196360477530083 22.58920086007541 9.742901062754084 0 0 0
278 1 7.676646271221397 24.091363788661248 11.299717418629008 0 0 0
468 1 9.247969314398032 22.39266231665363 12.796174531178464 0 0 0
282 1 12.485932133840617 22.144015910306205 9.151071300256206 0 0 0
286 1 14.10234905332671 23.500845404735134 10.90839861638028 0 0 0
476 1 15.795167356525358 21.730214751300416 12.611542560420789 0 0 0
291 1 3.0884994024572063 25.67583352348921 9.71575269827226 0 0 0
295 1 4.812245769699629 27.258267072889517 11.19203610287023 0 0 0
298 1 6.516191309393904 28.77919425432626 9.570810740639459 0 0 0
303 1 11.160529098669814 27.078449208107788 11.037119534813073 0 0 0
497 1 12.690887203993968 25.395388041546383 12.724316659057257 0 0 0
311 1 17.260884040850925 26.81616142470041 11.29246842057477 0 0 0
315 1 3.101183317935613 31.9882889254174 9.615406200964154 0 0 0
294 1 1.4141403124573535 30.342786349150153 11.255227345935745 0 0 0
302 1 7.8542885964923554 30.516430515014694 10.98385446856861 0 0 0
310 1 14.002633048571212 30.360426672133723 11.332765744013251 0 0 0
84 1 9.45736185430653 22.283400899219593 0.1946420471379194 0 0 0
319 1 4.87179490941415 33.52366220095811 11.24512611685267 0 0 0
327 1 11.463449078481927 33.948996115900506 11.118672628006268 0 0 0
335 1 17.46402439671301 33.54807817356406 11.218534532841433 0 0 0
738 1 13.258942762560023 41.21685726621127 22.56201291760284 0 0 0
1993 1 18.85988432415631 18.833891542326963 12.378046183305148 0 0 0
318 1 1.4963666527149178 36.74503061206141 11.299121925568922 0 0 0
326 1 8.29849840028938 36.89066060229307 10.93988401436833 0 0 0
334 1 14.409259577834598 36.88034316374817 11.09862515528853 0 0 0
524 1 16.04808112066019 35.073385921892566 12.870645722320784 0 0 0
343 1 5.182088755027585 39.79465385628826 11.21176849415679 0 0 0
347 1 9.722285528904365 38.6324738176752 9.33760679748232 0 0 0
351 1 11.446461650412882 40.16712494970488 11.255258243185676 0 0 0
355 1 16.121407063013088 38.26092879273146 9.45742094894452 0 0 0
359 1 17.464950455680594 39.743697043872594 11.436935165429741 0 0 0
342 1 1.6224723157301304 42.75801022655527 11.05001909503494 0 0 0
532 1 3.1126360580913492 41.011979207973056 12.534591539799898 0 0 0
346 1 6.4851532399861505 41.61569741283544 9.388667470265762 0 0 0
350 1 8.014572045019019 43.25114820072888 11.028926933310991 0 0 0
354 1 13.078027270882684 41.5666861163569 9.490666208691335 0 0 0
358 1 14.496113677172097 43.03269326205928 11.329147030682384 0 0 0
556 1 3.007051492324064 47.585394471297484 12.686425473842526 0 0 0
367 1 4.644138174961705 46.27229095929328 11.096554625561224 0 0 0
375 1 11.443428552458132 46.359807642790564 11.463228186707031 0 0 0
379 1 15.72442242654078 44.64559813608915 9.355929487127973 0 0 0
383 1 17.47814300275519 45.978889631562424 10.947425883683037 0 0 0
366 1 1.702450687434606 49.48692836486954 11.134092827020272 0 0 0
195 1 3.892652387071384 50.69023473443658 9.608556414532337 0 -1 0
393 1 6.639810900396541 50.762067537450754 12.865760279479552 0 -1 0
370 1 6.521030037447895 47.93958040741043 9.65060202600702 0 0 0
374 1 8.305015880751858 49.359806973687526 11.412732050448025 0 0 0
378 1 12.627344241036553 48.18449635179283 9.871536520860985 0 0 0
564 1 9.678219208922016 47.89720055092423 13.212224470955322 0 0 0
382 1 14.207868792724895 49.664750618212864 11.337062439377497 0 0 0
730 1 6.343955338086049 41.460788864090944 22.331864318176706 0 0 0
388 1 3.5004128712583817 3.4655945096989766 12.676382452375396 0 0 0
389 1 2.0325795034619283 1.9858007787257832 14.463496384151336 0 0 0
397 1 8.093527584986074 1.4039759220276584 14.653860814061085 0 0 0
394 1 6.395747564609551 3.5179654865969505 15.968243426426948 0 0 0
396 1 9.246188000474868 3.2587506050887973 12.794741859635298 0 0 0
404 1 16.089432245600513 3.1931431005658286 12.757746840979559 0 0 0
405 1 14.484685162944562 1.801062263686075 14.593220888715258 0 0 0
392 1 5.179677672710652 5.094937220967686 14.231744885769059 0 0 0
400 1 10.874984734738156 4.877507284268907 14.367356940061851 0 0 0
408 1 17.37929371494988 4.901244051176059 14.274457728516266 0 0 0
817 1 0.2267353404491459 12.743023290258318 25.17963324655027 0 0 0
105 1 6.761920864950529 25.46275912194824 0.1617275843479336 0 0 0
413 1 1.7117172589732226 8.657229096356573 14.579114179759102 0 0 0
421 1 8.179986251989572 8.350016107343919 14.31229265147589 0 0 0
419 1 9.640862266816956 6.83600703367259 16.033856760908908 0 0 0
418 1 6.053865651988652 9.796292010286532 15.44187094859163 0 0 0
429 1 14.362743086853268 7.972682878352066 14.520353706559826 0 0 0
1945 1 18.852338498016227 6.756268816015657 12.62146358716398 0 0 0
416 1 4.515274305405586 11.391969895677873 13.923369234464047 0 0 0
424 1 11.417180755087145 11.187563416745402 14.485422561640547 0 0 0
426 1 12.779970172695164 9.399282029660826 15.914531705389749 0 0 0
432 1 17.279599334094176 11.218627806876468 14.223764842878037 0 0 0
437 1 1.5505804819819793 14.636573426394348 14.012886149262073 0 0 0
435 1 3.1208933595945267 13.293350601300881 15.600605557488661 0 0 0
445 1 7.8323602427608305 14.709504012953916 13.95565481856921 0 0 0
443 1 9.350553061182696 12.980352830213329 15.582058195322546 0 0 0
453 1 14.445221452000212 14.261176465907896 14.050973270082343 0 0 0
451 1 16.269080685118077 13.075592412490764 16.148023131293286 0 0 0
74 1 0.07453964982347355 22.167502435640323 3.011594254161594 0 0 0
442 1 6.340330267943582 16.03338809505491 15.84189754117624 0 0 0
440 1 4.445342974763452 17.20539593371114 14.670008281932434 0 0 0
444 1 9.574932344260244 15.909620319333557 12.249738723504011 0 0 0
448 1 10.813566543705937 17.18980125855671 14.136489593347996 0 0 0
475 1 15.733175526179043 18.946246293326546 15.643848759488606 0 0 0
456 1 17.3543653144829 17.389541266073845 13.908042512996754 0 0 0
1874 1 18.756420209718065 41.60808134699013 9.675881849831235 0 0 0
461 1 1.243034218541714 20.793321874756415 14.381350891895766 0 0 0
465 1 6.016558135633832 18.955022452755944 12.994277143531153 0 0 0
459 1 2.818092989688887 19.227117873879813 15.982763121325222 0 0 0
469 1 7.5354469348104 20.630902319942827 14.47158775103097 0 0 0
467 1 9.36671191204508 18.824066465342295 15.815995458128008 0 0 0
477 1 14.134773552026017 20.622660166757978 14.224731064869724 0 0 0
734 1 8.166180529067399 43.33146140361557 23.75970228618106 0 0 0
460 1 2.87503373249717 22.41722700637969 12.81920590435404 0 0 0
464 1 4.637630658245476 24.14933213675456 14.345895347375704 0 0 0
472 1 10.88211296929319 23.999504027995187 14.346755679668558 0 0 0
474 1 12.507859996127403 22.33711623995588 15.928680476021292 0 0 0
480 1 17.542074245528802 23.656238398194926 14.191909696443707 0 0 0
485 1 1.730086835905283 27.24718381998149 14.37468320591261 0 0 0
484 1 3.2082532169160722 28.98082176201772 12.860310764982263 0 0 0
489 1 6.498577504836985 25.77313717453435 13.050730507726254 0 0 0
493 1 7.750067033451256 27.441232929127175 14.534654168694585 0 0 0
501 1 14.453578153282674 26.974610132237924 14.127161659766484 0 0 0
498 1 12.94301740775191 28.853613558830173 15.631270642503093 0 0 0
488 1 4.684626644631056 30.707922980221063 14.61924197477576 0 0 0
492 1 9.495819703766227 28.97901040653888 12.571767157811735 0 0 0
496 1 11.015558526858326 30.471567096053903 14.314838848079717 0 0 0
500 1 16.05755557742017 28.638421463713055 12.93127727427252 0 0 0
504 1 17.489417939710012 30.55794297221302 14.357203616768766 0 0 0
509 1 1.5208705655255852 33.43213638262367 14.160751651476577 0 0 0