

read_data data.ice_${TEMP}K_${PRES}atm_ML group ice
read_data data.ice_290K_${PRES}atm_ML group ice
read_data data.ice_290K_1atm_ML group ice
Reading data file ...
  orthogonal box = (-0.018374848 -0.016333198 -0.016333198) to (57.288885 50.923453 50.923453)
  3 by 1 by 2 MPI processor grid
  reading atoms ...
  4608 atoms
  reading velocities ...
  4608 velocities
  read_data CPU = 0.015 seconds
read_data data.liq_${TEMP}K_${PRES}atm_ML add append shift ${X_HI} ${YZ_LO} ${YZ_LO} group water
read_data data.liq_290K_${PRES}atm_ML add append shift ${X_HI} ${YZ_LO} ${YZ_LO} group water
read_data data.liq_290K_1atm_ML add append shift ${X_HI} ${YZ_LO} ${YZ_LO} group water
read_data data.liq_290K_1atm_ML add append shift 50.923453198384 ${YZ_LO} ${YZ_LO} group water
read_data data.liq_290K_1atm_ML add append shift 50.923453198384 0.0163331983858441 ${YZ_LO} group water
read_data data.liq_290K_1atm_ML add append shift 50.923453198384 0.0163331983858441 0.0163331983858441 group water
Reading data file ...
  orthogonal box = (-0.018374848 -0.016333198 -0.016333198) to (104.21313 50.924637 50.924637)
  3 by 1 by 2 MPI processor grid
  reading atoms ...
  4608 atoms
  reading velocities ...
  4608 velocities
  read_data CPU = 0.011 seconds

write_data data.icewater_test
System init for write_data ...
WARNING: Communication cutoff is 0.0. No ghost atoms will be generated. Atoms may get lost. (../comm_brick.cpp:167)

# Define potential
#
pair_style sw
pair_coeff * * /data/emrosky-sim/Freezing_Simulations/Melting/MLmW_fancy/ML_mW.sw mW
Reading sw potential file /data/emrosky-sim/Freezing_Simulations/Melting/MLmW_fancy/ML_mW.sw with DATE: 2019-02-27

# Delete water and ice atoms that are overlapping
#
delete_atoms overlap 2.5 water ice
System init for delete_atoms ...
Neighbor list info ...
  update every 1 steps, delay 10 steps, check yes
  max neighbors/atom: 2000, page size: 100000
  master list distance cutoff = 6.0032907
  ghost atom cutoff = 6.0032907
  binsize = 3.0016454, bins = 35 17 17
  2 neighbor lists, perpetual/occasional/extra = 1 1 0
  (1) command delete_atoms, occasional, copy from (2)
      attributes: full, newton on
      pair build: copy
      stencil: none
      bin: none
  (2) pair sw, perpetual
      attributes: full, newton on
      pair build: full/bin/atomonly
      stencil: full/bin/3d
      bin: standard
Deleted 675 atoms, new total = 8541

# set timestep
#
timestep 10.0

# Define output
#
compute 1 all msd
thermo 50
thermo_style custom step temp press vol etotal ke pe c_1[4]

# Neighbor lists
#
neigh_modify delay 0 every 1 check yes

# Set fixes
#
fix 1 all momentum 10 linear 1 1 1 rescale
fix 2 all nph iso ${PRES} ${PRES} ${PCOUPL}
fix 2 all nph iso 1 ${PRES} ${PCOUPL}
fix 2 all nph iso 1 1 ${PCOUPL}
fix 2 all nph iso 1 1 10000.0
fix 3 all temp/csvr ${TEMP} ${TEMP} ${TCOUPL} 837492
fix 3 all temp/csvr 290 ${TEMP} ${TCOUPL} 837492
fix 3 all temp/csvr 290 290 ${TCOUPL} 837492
fix 3 all temp/csvr 290 290 5000.0 837492


# Fix ice atoms in place
#
velocity ice set 0.0 0.0 0.0
fix 4 ice setforce 0.0 0.0 0.0

# Run 1.0 ns equilibration of water
#
dump 1 all atom 1000 eq.all.${NAME}.dump
dump 1 all atom 1000 eq.all.coexist_290K_1atm_ML.dump
run 100000
Neighbor list info ...
  update every 1 steps, delay 0 steps, check yes
  max neighbors/atom: 2000, page size: 100000
  master list distance cutoff = 6.0032907
  ghost atom cutoff = 6.0032907
  binsize = 3.0016454, bins = 35 17 17
  1 neighbor lists, perpetual/occasional/extra = 1 0 0
  (1) pair sw, perpetual
      attributes: full, newton on
      pair build: full/bin/atomonly
      stencil: full/bin/3d
      bin: standard
Per MPI rank memory allocation (min/avg/max) = 4.590 | 4.598 | 4.602 Mbytes
Step Temp Press Volume TotEng KinEng PotEng c_1[4] 
       0    134.35946   -326.54183    270478.93   -84421.645    3420.2702   -87841.915            0 
      50    162.14232   -332.86563    269796.61    -84099.84    4127.5141   -88227.354   0.84963741 
     100    168.05279    118.20576     268367.2   -83746.875    4277.9715   -88024.847    1.7596124 
     150    176.20738    589.12804    267546.38   -83403.989    4485.5559   -87889.544    2.7475949 
     200    177.29453    331.84762    268195.09   -83179.995    4513.2304   -87693.225    3.7809901 
     250    182.51297   -88.072446    269408.21   -82896.341    4646.0717   -87542.412    5.0463013 
     300    187.93489    -81.78475    269868.41   -82563.567    4784.0928    -87347.66    6.3239093 
     350    190.63317     119.5594    269669.99    -82358.79    4852.7803    -87211.57    7.7043052 
     400    196.71519    9.8319288    269513.26    -82147.72    5007.6051   -87155.325    9.1920776 
     450    199.85495    140.23704     269570.5   -81889.889    5087.5311    -86977.42    10.672114 
     500    203.31689    213.78344    270080.96   -81701.247    5175.6586   -86876.906    12.210277 
     550     207.3965   -39.198873    270637.45   -81507.336    5279.5097   -86786.846    13.765534 
     600    209.02918   -39.065201    270635.49   -81317.811    5321.0714   -86638.883    15.382321 
     650    215.69392    69.700379    270354.04   -81128.497    5490.7298   -86619.227    17.130842 
     700    222.18601    176.85967    270224.86   -80945.453    5655.9933   -86601.446    18.883224 
     750    223.72515     145.6806    270460.25   -80790.601    5695.1737   -86485.775    20.920726 
     800    223.00658    328.63077    270931.62   -80607.659    5676.8817   -86284.541    22.712377 
     850    224.09809   -240.30827       271564   -80416.344    5704.6674   -86121.011      24.7837 
     900    227.15283    11.577946    271610.67   -80253.441    5782.4292    -86035.87    26.931828 
     950     236.1573   -37.191573    271577.49   -80100.041    6011.6481   -86111.689    29.136675 
    1000    237.57232    41.541059    271610.65   -79965.189     6047.669   -86012.858    31.307216 
    1050    234.47211    20.354034    271744.91   -79843.552    5968.7496   -85812.301    33.708924 
    1100    240.56847    250.85537    271768.26   -79745.948    6123.9394   -85869.887    35.926954 
    1150    243.07015   -74.991639    271733.07   -79629.364    6187.6225   -85816.986    38.116827 
    1200    244.12562    282.67907    271799.48   -79540.129    6214.4907    -85754.62    40.538486 
    1250    243.68431   -33.264494    272264.59   -79430.383    6203.2566   -85633.639    43.112562 
    1300    246.51864   -56.083946    272543.37   -79348.298    6275.4076   -85623.705    45.673509 
    1350    247.13189   -306.06784    272413.21   -79257.069    6291.0186   -85548.088     47.91841 
    1400    254.39205    39.045866     271856.3   -79132.847    6475.8339   -85608.681     50.20968 
    1450      253.453    192.74568     271604.9   -79030.052    6451.9295   -85481.981    52.729855 
    1500     253.0638    412.50572    272277.48   -78955.233    6442.0219   -85397.255    55.480969 
    1550    255.34066   -255.33861    273531.03   -78872.965     6499.982   -85372.947    58.645501 
    1600    248.81316   -197.90967    273893.88   -78779.076    6333.8172   -85112.893    61.408139 
    1650    251.58159    -46.22756    273376.37    -78714.35    6404.2906   -85118.641     64.00144 
    1700     258.1411    102.33016    272610.04   -78616.599    6571.2703   -85187.869    66.400284 
    1750    264.81834    231.69947    272524.34   -78562.185    6741.2468   -85303.432    68.996623 
    1800    257.41867    237.54307    272962.91   -78464.173      6552.88   -85017.053    71.928327 
    1850     264.2226    38.555247    273371.53    -78383.55    6726.0816   -85109.631    75.016681 
    1900    267.77428    10.081195    273597.63    -78294.45    6816.4937   -85110.943    78.380726 
    1950    271.75932   -152.50253       273370   -78223.714    6917.9373   -85141.651    81.589755 
    2000    276.13941    129.16343    273118.32   -78144.003    7029.4372    -85173.44    84.499211 
    2050    268.70821    242.15107    273129.56   -78130.346    6840.2678   -84970.613    87.648707 
    2100    271.89096    86.638404    273284.29   -78105.751    6921.2884    -85027.04    90.800044 
    2150    278.84606    66.008825    273173.61   -78050.656    7098.3382   -85148.995     93.30768 
    2200    275.37219    162.58249    273409.87   -77981.954     7009.907   -84991.861    95.976471 
    2250    272.94209   -146.81125    273926.74   -77944.823     6948.046   -84892.869    99.458295 
    2300    274.93382   -305.43786    274309.42     -77854.7    6998.7478   -84853.448    102.11539 
    2350    272.73357    195.33109    273965.37   -77761.148     6942.738   -84703.886    105.05499 
    2400    273.32344    488.32399    273490.01    -77731.94    6957.7538   -84689.693    107.49797 
    2450    280.45084    56.385606    273343.14   -77687.468    7139.1895   -84826.657    110.17159 
    2500    279.55963   -254.47085    274047.09   -77619.121    7116.5029   -84735.624     113.7349 
    2550    280.05455   -99.792727    274573.13     -77588.1    7129.1017   -84717.202    116.91584 
    2600    283.60592   -141.94193    274504.85   -77560.992    7219.5057   -84780.497     119.7964 
    2650    282.48338    12.182671    273987.75   -77486.772    7190.9303   -84677.703    122.08489 
    2700     281.2054     272.3321    273605.26   -77457.541    7158.3978   -84615.939    125.20204 
    2750    277.57265    393.20384    273891.57   -77471.822     7065.922   -84537.744    128.26947 
    2800    279.74265   -83.866107    274575.33   -77453.872    7121.1618   -84575.033    132.17701 
    2850    277.00281   -161.30214    274864.43   -77458.694    7051.4161    -84510.11    134.88156 
    2900     280.3666   -5.8307963    274361.02   -77472.517    7137.0453   -84609.562    137.19076 
    2950    279.68536    111.45013    273675.96   -77459.815    7119.7035   -84579.518    140.02976 
    3000     285.7456    355.44038    273547.02   -77417.599    7273.9738   -84691.573     142.9643 
    3050    286.84055   -174.01931    274216.74   -77420.993     7301.847    -84722.84    146.14273 
    3100    282.85299    5.1101944    274768.98    -77407.44    7200.3389   -84607.779     148.9002 
    3150    287.48223   -105.12576    274996.52   -77413.756    7318.1816   -84731.938    151.42576 
    3200    285.05307   -268.16963    274756.64   -77370.921    7256.3446   -84627.265    154.21315 
    3250    284.31174    389.78025    274233.87   -77344.173    7237.4731   -84581.646    157.28926 
    3300    283.51819    82.376603    274152.43   -77296.811    7217.2724   -84514.083    160.26638 
    3350    287.99816    92.582511    274243.86   -77201.353     7331.315   -84532.669    163.32425 
    3400    287.29492    -93.45809    274488.55   -77255.962    7313.4133   -84569.376    165.88085 
    3450    289.97643   -318.31143    274628.32   -77276.226    7381.6741     -84657.9    168.58719 
    3500     290.7525    184.57926    274521.14   -77267.848    7401.4299   -84669.278     171.8726 
    3550    288.54572   -87.642495    274576.19   -77221.347    7345.2538   -84566.601    174.71994 
    3600     290.1728   -127.62259    274488.77   -77235.731     7386.673   -84622.404    177.39942 
    3650    283.70099    55.357991     274547.4   -77238.965    7221.9259   -84460.891     180.9913 
    3700    287.45061   -69.674427    274582.67   -77236.747    7317.3765   -84554.124    183.64151 
    3750    286.72839   -10.134179    274366.54    -77260.28    7298.9917   -84559.272    185.62987 
    3800    285.09108   -5.2905796    274104.03   -77261.169    7257.3121   -84518.481    189.43264 
    3850    287.26245     85.77673    274010.98   -77244.803    7312.5868    -84557.39    191.75888 
    3900    283.87856    236.27081    273998.17   -77256.458    7226.4461   -84482.905    194.48823 
    3950    288.09019    285.81661    274206.13   -77217.065    7333.6579   -84550.723    196.87901 
    4000    289.29005   -22.688401    274756.98   -77228.201    7364.2017   -84592.402    200.87176 
    4050    284.38153   -2.9476108     275066.3   -77216.745    7239.2497   -84455.994    204.57892 
    4100    283.18532     -266.714    274968.56   -77205.466    7208.7989   -84414.265    206.98937 
    4150    287.67192   -34.641244    274420.77   -77161.213    7323.0102   -84484.223    209.60781 
    4200    287.45228    479.13951    273865.81   -77156.716    7317.4191   -84474.136     211.8302 
    4250    289.93214    101.41533    274190.46   -77134.766    7380.5468   -84515.312    215.31357 
    4300    288.44171   -85.868328    274689.42   -77150.838    7342.6061   -84493.444    218.39801 
    4350    285.58102    215.80652    274802.38    -77161.62    7269.7842   -84431.404    221.63851 
    4400    286.17775   -136.95659    274645.39   -77151.775    7284.9745   -84436.749    225.01184 
    4450    289.30103    28.094031    274324.83   -77089.729    7364.4811    -84454.21    228.47799 
    4500    288.03411    71.675044    274270.09   -77038.994    7332.2301   -84371.224     231.9487 
    4550     291.8837    153.50921    274426.81   -76993.961    7430.2258   -84424.187    234.86142 
    4600    292.19624    59.129274    274724.51   -76992.926    7438.1818   -84431.107    238.06356 
    4650    292.29374   -83.844865    275030.22   -76922.272    7440.6638   -84362.936    241.95923 
    4700     288.9874   -99.174039    274954.09   -76901.761    7356.4973   -84258.258     244.5217 
    4750    291.20261    159.74463    274653.69    -76921.36    7412.8879   -84334.247    246.76678 
    4800    294.76562    2.4376332    274713.59   -76929.484    7503.5883   -84433.072    250.18682 
    4850     294.0195   -52.986785    274783.01   -76938.908     7484.595   -84423.503    253.00065 
    4900    296.55888   -15.317377    274591.14   -76936.741    7549.2378   -84485.978    256.24214 
    4950     291.8131   -17.482308     274465.4   -76942.883    7428.4287   -84371.311    259.95251 
    5000    289.12042    66.416082    274522.14   -76963.026    7359.8836    -84322.91    262.85306 
    5050     287.2853    18.108787    274598.42   -76974.169    7313.1684   -84287.338     265.8684 
    5100    291.49067    158.82548    274666.09   -76988.966    7420.2208   -84409.187    269.36109 
    5150    287.56128   -213.20667    275078.45   -77014.871    7320.1938   -84335.064    272.63197 
    5200    288.80873   -363.80504    275246.75   -77018.369    7351.9491   -84370.318    275.78808 
    5250    287.75035   -116.79519    274782.92   -76999.981    7325.0069   -84324.988    279.06476 
    5300    289.30034    309.18199    274050.17   -76991.439    7364.4635   -84355.902    281.39353 
    5350    293.32315    283.53956    274043.47   -76960.854    7466.8687   -84427.723     284.6569 
    5400    286.83239    71.156939    274743.86   -77013.349     7301.639   -84314.988    288.11825 
    5450    292.78199   -120.06199    275301.67   -76999.542    7453.0928   -84452.635      291.809 
    5500    288.92765    96.827093    275175.19   -76997.311    7354.9763   -84352.288    295.46354 
    5550    287.41659   -302.42174    274688.59   -77039.395    7316.5105   -84355.905    298.13972 
    5600    289.12505     117.3551     274249.8   -77100.869    7360.0013    -84460.87    300.40494 
    5650    285.37645   -212.69265     274368.6   -77184.648    7264.5765   -84449.224    304.20927 
    5700    289.07139    30.887297    274601.44     -77152.7    7358.6354   -84511.335    307.71406 
    5750    286.04263   -117.75675     274922.8    -77133.11     7281.535   -84414.645    310.72239 
    5800    289.40147     -318.172    275075.37   -77130.326    7367.0379   -84497.364    312.70806 
    5850    291.02045   -150.58677    274714.39   -77063.572    7408.2509   -84471.823     314.5722 
    5900    287.60983   -2.9797193    274190.66   -77092.808    7321.4297   -84414.237    316.61481 
    5950    290.74145    96.343567    273943.53   -77114.463    7401.1487   -84515.612    319.50279 
    6000     290.8709    84.013372    274266.91   -77114.031    7404.4438   -84518.475    322.96917 
    6050    294.52951   -32.587062    274704.82   -77066.203    7497.5779   -84563.781    326.11781 
    6100    289.26871   -31.301955     275022.2   -77069.456    7363.6584   -84433.114    328.81268 
    6150    284.44493     187.5201    274877.51   -77049.694    7240.8635   -84290.557    331.26521 
    6200    293.72732   -110.55116    274756.88   -77075.501    7477.1572   -84552.658    334.52532 
    6250     290.7278    59.185288     274500.4   -77054.884    7400.8012   -84455.685    337.33939 
    6300    291.76457    86.649973    274236.76   -77017.568    7427.1932   -84444.761    339.80602 
    6350    291.84775    285.23835    274301.24   -77000.888    7429.3107   -84430.199    342.06425 
    6400    290.40311    25.741125    274544.52   -77060.126    7392.5358   -84452.662    345.20629 
    6450    290.91408    157.71054    274730.76   -77066.646    7405.5432   -84472.189    348.10101 
    6500    290.31701   -306.87139    274932.18   -77014.034     7390.344   -84404.378    351.86542 
    6550    292.27223    117.04084    274768.98   -76997.974    7440.1164   -84438.091    354.48384 
    6600    290.78417    75.265194    274637.19    -77007.86    7402.2361   -84410.096     356.9131 
    6650     289.5469    204.47423    274651.44   -77055.841    7370.7399   -84426.581    358.86847 
    6700    288.13705   -78.530826    275027.29   -77068.403    7334.8507   -84403.254    361.59137 
    6750    291.75085   -253.99886    275001.37   -77094.437     7426.844   -84521.281     364.0986 
    6800    293.91841    37.401763    274523.46   -77062.891    7482.0216   -84544.912     365.9229 
    6850    287.90922     241.6056    274212.73   -77065.461     7329.051   -84394.512    367.52137 
    6900    290.17608    293.38477    274408.76     -77028.6    7386.7564   -84415.356     369.6265 
    6950    287.23959   -162.38822    275060.12   -77023.745    7312.0048    -84335.75    373.26614 
    7000    291.84094   -188.03292    275348.62    -76999.41    7429.1374   -84428.547    375.87183 
    7050    294.94197   -249.67575     275054.2   -76980.311    7508.0776   -84488.389    378.71633 
    7100    292.68566    252.46545    274309.75   -76983.602    7450.6406   -84434.242    380.83426 
    7150    287.94386    248.27315    273998.59   -77036.391    7329.9329   -84366.324    383.19111 
    7200    288.46827    128.61158    274106.34   -77083.028    7343.2824    -84426.31    387.06504 
    7250    290.24236   -79.376517     274666.2    -77033.62    7388.4436   -84422.064    390.51207 
    7300    293.37127   -297.19024    275351.89    -77016.34    7468.0935   -84484.434    393.95207 
    7350     289.5192   -73.298492    275477.89   -77001.132    7370.0349   -84371.167    397.33184 
    7400    292.49494    213.81823    275046.01   -76960.241    7445.7857   -84406.026    399.75708 
    7450    295.29106    73.826045    274671.22   -76928.425    7516.9641   -84445.389    401.57601 
    7500    289.00351    80.904115    274599.37   -76989.974    7356.9074   -84346.882    403.61808 
    7550    286.03763   -51.543776    274613.07   -77018.931    7281.4075   -84300.338     406.2034 
    7600    289.93748   -13.690052    274614.88   -76958.321    7380.6827   -84339.004    408.44964 
    7650    296.01986    183.08805     274701.7   -76980.788    7535.5164   -84516.305    410.72544 
    7700    292.21303   -268.33828    274957.87   -76965.785    7438.6094   -84404.395    413.65383 
    7750    291.24689    175.69746    274878.95   -76932.913    7414.0152   -84346.928    416.08106 
    7800    291.22652   -389.89945    274840.41   -76969.266    7413.4966   -84382.763    416.76124 
    7850    291.40007    31.181228    274706.99    -76942.99    7417.9146   -84360.904    418.69907 
    7900    291.92413   -239.01831    274709.13   -76987.183     7431.255   -84418.438      422.532 
    7950      291.615     190.1158    274547.92    -77029.28    7423.3857   -84452.666    425.32768 
    8000    293.76088   -257.35436    274592.94   -77016.838    7478.0115    -84494.85    428.18571 
    8050    293.70188   -127.29493    274836.79   -77003.703    7476.5098   -84480.213     430.9265 
    8100    286.44142   -75.633797    274945.53   -77037.623    7291.6867    -84329.31    434.13892 
    8150    293.51529   -22.351331     274587.3   -76981.417    7471.7597   -84453.177    437.15661 
    8200    291.48929    355.77608    274248.86   -77011.091    7420.1857   -84431.276    439.37371 
    8250    286.15189    192.42452    274564.86   -77009.477    7284.3163   -84293.793    442.30511 
    8300    289.69069    43.987515    274976.57   -76988.136    7374.4003   -84362.536    445.44698 
    8350    291.88982   -236.98806    275187.61    -77049.75    7430.3816   -84480.132     448.2389 
    8400    292.03363   -25.233343    274960.48   -77052.939    7434.0425   -84486.981    450.63673 
    8450    288.52898     232.9731    274344.69   -77049.415    7344.8277   -84394.242    452.50892 
    8500    291.38512    66.644266    274247.92    -77034.35    7417.5339   -84451.883    455.08983 
    8550     291.3404   -84.839959    274709.19   -77065.282    7416.3956   -84481.677     458.8372 
    8600      290.713    -64.72477    274987.12   -77057.409    7400.4243   -84457.834    461.78068 
    8650    288.94813    -220.5491    274845.98   -77046.901    7355.4978   -84402.399    465.44924 
    8700    288.62904    148.17274    274695.83   -77045.796    7347.3747   -84393.171    469.38498 
    8750    290.40184   -2.0047083    274413.86   -77010.777    7392.5034    -84403.28    471.98312 
    8800    288.82971   -79.788525    274414.52   -77034.438    7352.4832   -84386.921    474.32584 
    8850    288.41091     34.33707    274584.35   -77075.064    7341.8222   -84416.886    478.52275 
    8900    289.67325   -41.346182    274929.37   -77099.302    7373.9564   -84473.259    481.98355 
    8950    296.13025    -498.6053    275319.74   -77079.436    7538.3265   -84617.763      485.139 
    9000     293.0147   -249.56957    274962.85   -77066.895    7459.0167   -84525.911    487.31131 
    9050     294.1186    255.36071    274144.33   -77069.941    7487.1176   -84557.058    489.25723 
    9100    287.38907   -20.501362    274052.64   -77124.628    7315.8101   -84440.438    491.51162 
    9150    289.31823   -6.2477523    274456.62    -77086.65     7364.919   -84451.569    494.94158 
    9200    292.88151    -160.2669    274875.98   -77098.561    7455.6261   -84554.187    498.73302 
    9250    284.91594   -478.89052    275112.77   -77129.737    7252.8537   -84382.591    501.70135 
    9300    283.72345   -106.75658    274838.51   -77173.207    7222.4976   -84395.704    504.63274 
    9350     285.5701    32.461749     274321.6   -77149.888    7269.5062   -84419.394    506.83357 
    9400    290.96838    207.99269     274178.8    -77145.55    7406.9253   -84552.475    510.00791 
    9450     289.8972    357.21803    274745.86   -77093.806    7379.6573   -84473.464     513.1674 
    9500    287.95312    -293.4006     275384.9   -77112.227    7330.1684   -84442.396    516.65064 
    9550    288.51601   -73.341807    275179.04   -77092.937    7344.4975   -84437.434    519.33265 
    9600    291.34461    171.31008    274548.98   -77069.891    7416.5028   -84486.394    521.55538 
    9650    295.66698    107.46132    274235.93   -77109.546    7526.5334   -84636.079     523.8859 
    9700    288.42979   -2.3193904     274408.5   -77101.262    7342.3027   -84443.564    526.39726 
    9750    285.37017   -81.816084     274799.8   -77109.495    7264.4166   -84373.911    528.76376 
    9800    287.83566    33.027344    274901.18   -77115.312    7327.1786    -84442.49    531.73463 
    9850     286.6026   -8.4210991    274665.68   -77107.224    7295.7895   -84403.013    534.12243 
    9900    287.74361    116.18616    274431.56   -77109.697    7324.8354   -84434.532    537.20656 
    9950    287.27879   -130.71692    274593.41   -77085.957    7313.0027   -84398.959    539.96262 
   10000    287.75214   -79.719931    274955.85   -77082.205    7325.0523   -84407.258    542.94274 
   10050    291.04844   -81.208819    275076.03   -77086.737    7408.9634     -84495.7    545.91596 
   10100    294.68979   -236.91739    274741.33   -77057.712    7501.6581    -84559.37    548.55263 
   10150    292.86165    257.48948    274315.52   -77043.064    7455.1206   -84498.184    549.85168 
   10200     291.5432    160.50875    274119.63   -77032.265    7421.5582   -84453.823    552.53952 
   10250    290.15729    18.546532    274476.65   -77038.085    7386.2782   -84424.363    555.88349 
   10300    289.41709    100.95586    274836.54   -77011.259    7367.4355   -84378.695    558.97102 
   10350    290.10243   -66.038167    275052.36   -77010.991    7384.8816   -84395.872    562.16679 
   10400    291.46806   -84.822216    274714.81   -77075.251    7419.6452   -84494.896    565.13172 
   10450    290.19923    192.69409    274352.32   -77048.842    7387.3458   -84436.188    567.31081 
   10500    292.72145    372.10649    274236.55   -77054.729    7451.5518   -84506.281    570.00664 
   10550    291.20319   -184.04661    274770.34   -77042.024    7412.9027   -84454.926    572.97134 
   10600    286.61434   -162.24524    275087.33   -77037.971    7296.0885   -84334.059    575.81366 
   10650    288.77471    135.20382    274692.36   -77023.248     7351.083   -84374.331    577.94845 
   10700    291.69142   -29.708926    274312.25   -77053.682    7425.3311   -84479.013     581.1501 
   10750     290.7109     75.51587    274095.68   -77029.967    7400.3709   -84430.338    582.95974 
   10800    292.98194   -29.436108     274349.1   -77051.587    7458.1828    -84509.77    587.32861 
   10850    292.23519    59.404992    274897.92   -76996.501    7439.1734   -84435.675    590.93266 
   10900    290.88438     53.69231    275519.83    -76991.77    7404.7871   -84396.557    595.67222 
   10950    291.20018   -102.46449    275454.89   -76996.974    7412.8261     -84409.8    599.48357 
   11000    288.40791   -51.450504    274682.28   -77032.839    7341.7457   -84374.584    601.48308 
   11050    291.06995    541.73877    274150.23   -77057.881    7409.5111   -84467.392    603.78558 
   11100    291.18922    89.896079    274383.47   -77044.997    7412.5471   -84457.544    607.60391 
   11150     291.6202   -117.80917    274727.23   -77055.916    7423.5182   -84479.434    611.77514 
   11200    294.49634   -97.961083    274898.59   -77044.182    7496.7336   -84540.915    614.83084 
   11250    290.61009   -90.459703    274638.65   -77073.057    7397.8046   -84470.862    616.40601 
   11300    291.01424    33.230286    274432.27   -77066.938    7408.0929   -84475.031    618.08986 
   11350    293.83647   -174.51211    274787.81   -77098.401    7479.9359   -84578.337    621.26593 
   11400    287.62098   -114.52575    274812.86     -77100.5    7321.7135   -84422.213    625.12715 
   11450     290.0121    8.4362902    274681.08   -77156.252    7382.5821   -84538.834    629.19606 
   11500    286.92033   -35.168478    274549.15   -77148.458    7303.8777   -84452.336    631.13005 
   11550    286.67355   -40.821205    274206.05   -77169.406    7297.5958   -84467.002    632.91836 
   11600    286.08958    139.12783    273980.53   -77150.515    7282.7301   -84433.246    635.48601 
   11650     289.5427    14.118439    274141.05   -77140.748     7370.633   -84511.381    639.31744 
   11700    293.35471   -159.83482    274736.49   -77104.919    7467.6721   -84572.591     642.8507 
   11750    286.78657   -185.08473    275402.51   -77119.884    7300.4727   -84420.357    646.31805 
   11800    287.82609   -221.47319    275401.47   -77131.789    7326.9349   -84458.724    648.80071 
   11850    289.68013   -158.51721    274588.01   -77062.817    7374.1314   -84436.949    651.18687 
   11900    293.01495    528.43522    273594.01   -77145.926    7459.0231   -84604.949    653.99386 
   11950    287.55376    433.23639    273690.65   -77138.891    7320.0025   -84458.894    656.74488 
   12000    294.25805   -205.71976    274433.81   -77149.197    7490.6675   -84639.865    660.35916 
   12050    292.24155   -247.93897    274992.96   -77142.318    7439.3353   -84581.654    663.93563 
   12100     286.6709   -33.998091    275137.45   -77110.149    7297.5282   -84407.677    666.98828 
   12150    287.49294    -160.6607    274931.39   -77098.639    7318.4541   -84417.093    668.26968 
   12200     290.1197    62.574981    274565.92   -77084.354    7385.3212   -84469.675    669.94943 
   12250    293.53984    229.25982    274213.56   -77061.691    7472.3848   -84534.076     670.5169 
   12300    289.24988    72.311175    274172.75    -77066.15    7363.1791   -84429.329    672.33722 
   12350    291.79229   -44.928734    274711.11   -77099.066    7427.8989   -84526.965    676.15477 
   12400    288.70544   -299.97628    275180.54   -77142.321    7349.3196   -84491.641    679.76781 
   12450    288.54658   -89.662599    274982.78   -77109.044    7345.2757    -84454.32    683.34296 
   12500    289.33045    -44.87811     274688.5   -77078.106      7365.23   -84443.336    685.53092 
   12550    291.74591    64.631333    274330.61   -77133.787    7426.7184   -84560.506    688.62611 
   12600    292.08485   -27.717195    274376.19    -77078.18    7435.3463   -84513.526    691.91848 
   12650    293.93168   -230.06072    274686.11   -77097.718    7482.3595   -84580.077    695.65731 
   12700    288.02263   -131.18677    274940.65   -77069.805    7331.9379   -84401.743    698.99605 
   12750     290.6667   -285.26295    274568.18   -77123.552    7399.2459   -84522.798     702.2113 
   12800    294.50567     244.6979    273882.21   -77147.461    7496.9711   -84644.432     703.8028 
   12850    290.21588    459.09314    273733.39   -77139.292    7387.7696   -84527.061    704.73035 
   12900    290.14382    -180.7361    274555.64   -77116.654    7385.9352   -84502.589    708.29952 
   12950    291.84026   -210.82833     275203.1   -77127.851    7429.1202   -84556.971    712.87138 
   13000    289.26835    11.016677    275229.99   -77101.827    7363.6493   -84465.476    715.32888 
   13050    292.04706   -238.04655     274960.6   -77085.199    7434.3843   -84519.583    717.35688 
   13100    293.16984   -1.8145484    274442.67   -77066.697    7462.9659   -84529.663    718.53509 
   13150    287.42308   -125.06354    274097.34   -77084.304    7316.6757    -84400.98    721.01169 
   13200    292.08162    98.979908    273967.96   -77104.949    7435.2642   -84540.213     722.5793 
   13250    293.06862    97.398364    274061.24    -77160.82    7460.3894    -84621.21    724.37359 
   13300    292.82943   -86.729533    274708.97   -77162.892    7454.3004   -84617.193    728.98806 
   13350    284.47143   -97.466017    275095.11   -77132.427    7241.5382   -84373.965    732.75722 
   13400    286.26777   -83.891135    274648.96   -77163.528     7287.266   -84450.794    732.92203 
   13450    287.71179   -3.5460088     274059.5   -77192.769    7324.0252   -84516.794    733.81363 
   13500    289.40111   -99.235702    274027.13   -77157.326    7367.0287   -84524.354    736.37993 
   13550    284.18918   -7.9006514     274408.7   -77234.323    7234.3532   -84468.676    739.33126 
   13600    292.70978   -277.57797    274665.46   -77236.771    7451.2546   -84688.026    743.02614 
   13650     283.7178   -93.053887    274812.93   -77241.722    7222.3537   -84464.076    745.56232 
   13700    290.65457    82.861593    274789.92   -77242.244    7398.9371   -84641.181    747.41068 
   13750    285.28785    -39.98827    274699.24   -77222.354    7262.3211   -84484.675    750.42764 
   13800    282.66478    251.51976    274347.18   -77263.923    7195.5478   -84459.471    752.06009 
   13850    286.44413   -346.27565    274058.06    -77253.35    7291.7555   -84545.105    754.12321 
   13900    287.61454    242.04042    273661.26   -77221.601    7321.5497   -84543.151    755.65359 
   13950     285.0212     221.7314    273876.92   -77239.334    7255.5333   -84494.868    758.16384 
   14000     283.3215    93.376627    274620.97   -77188.373    7212.2655   -84400.639    762.81063 
   14050    282.01232   -248.44352    275215.87   -77170.672    7178.9388   -84349.611    766.55202 
   14100      289.743    159.76687    275198.03   -77168.693     7375.732   -84544.425    769.07554 
   14150    287.95734    -95.80854    274749.21   -77164.511     7330.276   -84494.787    771.66699 
   14200    287.13274     316.4989    274114.09   -77157.131    7309.2848   -84466.416    774.27663 
   14250    293.79248    244.31171    273955.76   -77083.866    7478.8159   -84562.682    777.39793 
   14300    285.38387   -21.307517    274522.12   -77105.392    7264.7654   -84370.157    780.76117 
   14350    287.71581   -176.26057    275001.36   -77105.116    7324.1275   -84429.243    784.93251 
   14400    292.43041     80.73151    275146.56   -77080.758    7444.1431   -84524.901     789.0992 
   14450    292.29167    58.609155    274799.04   -77130.548    7440.6111   -84571.159    790.29573 
   14500    288.86658     377.5699    274539.82   -77139.846    7353.4217   -84493.268    792.13607 
   14550    289.29853    209.59348    274356.55   -77186.295    7364.4175   -84550.712    794.39108 
   14600    287.18192    78.779045    274433.56   -77174.901    7310.5367   -84485.437     797.8881 
   14650    288.79199   -198.76805    274554.74   -77178.898    7351.5229    -84530.42    801.41321 
   14700    288.44607    79.561689     274348.1   -77140.622    7342.7171   -84483.339    803.55332 
   14750    283.71946    84.768568    274590.88   -77152.797    7222.3959   -84375.193    806.45888 
   14800    290.20628   -166.30227    275097.96   -77205.087    7387.5253   -84592.613    811.48717 
   14850    288.35491   -124.49153    275128.11   -77212.593    7340.3966   -84552.989    815.28465 
   14900    286.52157   -9.1347041    274474.84   -77214.847    7293.7268   -84508.573    816.42579 
   14950    286.20424    406.81936    273875.77   -77290.523    7285.6488   -84576.172    817.67193 
   15000    287.58028   -121.23221    274156.03   -77285.769    7320.6775   -84606.447    820.89053 
   15050    285.32947    91.632854    274635.82   -77282.341    7263.3807   -84545.722    825.04769 
   15100    285.10953    45.464661    274642.54   -77257.381    7257.7819   -84515.163    826.93779 
   15150    289.17296    55.774464    274316.66   -77265.586    7361.2209   -84626.806    829.19016 
   15200    284.88847   -55.730771    274224.08   -77251.565    7252.1546   -84503.719    831.30348 
   15250    286.12244   -196.23841    274235.05   -77257.936    7283.5665   -84541.502    834.64585 
   15300    287.88848    96.105653    274417.53   -77217.787    7328.5231   -84546.311    837.42358 
   15350    287.14174   -267.34085    274706.11   -77217.283    7309.5139   -84526.797    841.32187 
   15400     288.4866    218.35872    274901.49   -77177.695    7343.7488   -84521.444    844.88147 
   15450    288.62107   -283.73955    275122.22   -77184.396    7347.1719   -84531.567    847.23375 
   15500    290.50731   -212.37712    274888.26   -77164.842    7395.1883    -84560.03    848.29315 
   15550    285.25341    39.801486    274460.96   -77169.979    7261.4444   -84431.423    850.23782 
   15600    288.26564    6.5082392    274538.25   -77165.821    7338.1242   -84503.945    853.58665 
   15650    283.43526    82.142128    274701.66   -77173.024    7215.1615   -84388.186    857.05945 
   15700    292.59216   -285.34671    274562.63   -77148.738    7448.2605   -84596.999    859.11543 
   15750    290.19666   -98.722461    274443.99   -77153.775    7387.2805   -84541.055    861.41033 
   15800    286.05167    181.08213    274245.68   -77146.079    7281.7649   -84427.844    864.33002 
   15850    287.31917   -104.65634    274293.98   -77126.452    7314.0307   -84440.482    867.66064 
   15900    287.93506   -164.15547    274817.86   -77131.492    7329.7087   -84461.201    873.43395 
   15950    289.72359   -77.733724    275237.17    -77109.03    7375.2379   -84484.268     877.3508 
   16000    286.63834   -433.02461    275276.86   -77073.191    7296.6994    -84369.89    880.56251 
   16050    291.11376    123.87536    274599.37   -77038.164    7410.6262   -84448.791    882.23816 
   16100    294.45106   -18.857622    274277.58   -77034.835    7495.5808   -84530.416    884.06399 
   16150    289.85283    165.43569     274255.2   -77028.738    7378.5277   -84407.265    885.96202 
   16200     290.7732    130.49267     274450.2   -76981.698    7401.9569   -84383.655    889.84421 
   16250    291.23824   -193.82703    274702.78   -76966.894    7413.7951    -84380.69    892.83513 
   16300     291.1506   -153.39618    274910.29   -76986.072     7411.564   -84397.636    896.47171 
   16350    292.33634   -161.17015     274808.6   -77006.174    7441.7483   -84447.922    898.22825 
   16400     288.6418   -148.87835    274653.59   -76989.192    7347.6998   -84336.892    901.12924 
   16450    288.50336    162.26696    274627.85   -77023.635    7344.1756    -84367.81    904.04577 
   16500    289.03462    247.21957    274690.79   -76996.653    7357.6993   -84354.352    907.84725 
   16550    292.15489   -115.52361       274900   -76960.819    7437.1293   -84397.948    910.31867 
   16600    290.61926    70.671856    275089.96   -76938.451    7398.0381    -84336.49    912.25137 
   16650    294.28289   -163.14364    275184.56   -76890.241       7491.3   -84381.541    913.60553 
   16700    287.99078    22.829849    274941.44   -76966.882    7331.1273    -84298.01    916.08042 
   16750    288.47501    333.43393    274609.33   -76984.457    7343.4538   -84327.911    918.65262 
   16800    289.58338    94.474784    274456.13   -77002.694    7371.6686   -84374.362    921.11734 
   16850    292.54909   -54.459457    274450.77   -77042.268     7447.164   -84489.432    923.38542 
   16900     290.7516    29.018715    274484.05     -77037.1    7401.4069   -84438.507    925.70513 
   16950    287.10254    40.489714    274787.62   -76997.901     7308.516   -84306.417    929.56654 
   17000    293.76979   -7.4658677    274856.42   -77032.184    7478.2383   -84510.422    932.44041 
   17050    292.85248     154.3882    274751.98   -77003.356    7454.8871   -84458.243    935.11886 
   17100    296.12131   -163.06907    274790.79   -77006.932    7538.0989   -84545.031    937.26048 
   17150    293.46701    255.04497    274497.43   -76954.818    7470.5308   -84425.349    938.90437 
   17200    289.32834    261.82534    274609.02   -76914.206    7365.1763   -84279.382    943.37379 
   17250    296.05115   -219.26145    275099.35   -76921.086     7536.313   -84457.399    945.72436 
   17300    293.04065   -162.65574    275414.46   -76873.897    7459.6773   -84333.574    948.11957 
   17350    289.49022   -136.28966    275170.24   -76908.329    7369.2973   -84277.626    949.69899 
   17400    293.67061    339.27193    274579.67   -76931.867    7475.7135    -84407.58     949.8305 
   17450    293.09211   -38.519579    274429.68   -76896.563    7460.9872    -84357.55    952.22106 
   17500    292.51034    273.34937    274461.77   -76947.095    7446.1777   -84393.273    954.60705 
   17550    290.34523    132.80724    274738.52   -76997.871    7391.0624   -84388.933    959.25044 
   17600    290.74894    253.83563    274902.32   -76970.732    7401.3392   -84372.071    962.15628 
   17650    294.01969   -160.13352    275082.69   -76932.305    7484.5999   -84416.905    964.22722 
   17700    295.33958   -21.060951    275025.27   -76913.833     7518.199   -84432.032    964.94814 
   17750    295.04303   -111.56842    275018.58   -76905.022    7510.6502   -84415.673    966.53975 
   17800    289.08058    208.27803    274838.69   -76900.604    7358.8692   -84259.473    968.90263 
   17850    295.27892    140.65438    274731.18   -76926.912    7516.6551   -84443.567    972.15756 
   17900    293.04119   -73.129591    274693.02   -76956.494    7459.6912   -84416.185    973.66074 
   17950    291.71451   -151.14325    274837.78   -76973.845     7425.919   -84399.764     977.4716 
   18000    289.78378      68.6817    274995.62    -77029.26      7376.77    -84406.03     981.6785 
   18050    291.20413    91.367015    274788.15   -77068.174    7412.9266   -84481.101    982.95335 
   18100    284.85275   -47.941316    274639.69   -77099.491    7251.2452   -84350.736    985.71009 
   18150    291.53811    14.144974    274521.59    -77134.64    7421.4284   -84556.068    987.47063 
   18200    289.68677    323.24882    274558.15    -77079.79    7374.3006    -84454.09     989.4946 
   18250    291.79899   -107.00744    274835.86   -77027.205    7428.0695   -84455.275    992.27362 
   18300    291.21147   -116.70497    274916.27   -77014.317    7413.1135   -84427.431    993.62934 
   18350    292.15735   -5.8889141    275062.89   -77007.692    7437.1919   -84444.883    995.93055 
   18400    288.54698    -218.8397    274888.15   -77014.023    7345.2858   -84359.309    997.21075 
   18450    293.64374    -207.8954     274604.1   -77039.986    7475.0296   -84515.015    998.57978 
   18500    291.93591    45.461085    274556.95    -77005.21    7431.5549   -84436.765    999.94774 
   18550    292.08037   -307.05543    275035.76   -76978.016    7435.2323   -84413.248    1003.6191 
   18600    294.64704    43.257832    274797.26   -76955.547    7500.5697   -84456.117    1005.8145 
   18650    290.57592   -82.030374    274277.73   -76970.105    7396.9349    -84367.04    1009.3239 
   18700    294.00423    251.20361    273904.81   -76991.467    7484.2062   -84475.674    1012.5935 
   18750    300.47601    173.04125    274315.83     -76927.2    7648.9526   -84576.152    1017.8218 
   18800    287.34251    361.21475    275090.89   -76934.751    7314.6248   -84249.376    1022.7778 
   18850     290.4068   -425.92585     275721.2   -76960.204    7392.6296   -84352.834    1027.7917 
   18900    292.20153   -214.47424     275305.3   -76973.079    7438.3165   -84411.395    1029.2829 
   18950     286.9486    272.11551    274297.52    -77001.19    7304.5973   -84305.787    1030.6069 
   19000    291.65795    202.62845    273861.18   -76977.892    7424.4791   -84402.371    1032.1074 
   19050    294.29685   -29.944405    274342.82   -76957.276    7491.6552   -84448.931    1035.2231 
   19100    296.48443   -174.17485    275193.14   -77005.197    7547.3427   -84552.539    1039.3826 
   19150    288.23767   -100.44902    275546.68   -76967.814    7337.4122   -84305.226    1042.4835 
   19200    293.14177     28.16502     275018.5   -76981.578    7462.2515    -84443.83    1044.5049 
   19250    294.05124   -97.945225    274529.35   -76974.071    7485.4029   -84459.474    1046.1308 
   19300    287.95616    567.70936    274217.68   -76994.799    7330.2459   -84325.045    1048.5328 
   19350    291.49057   -62.775463    274668.85   -77022.741    7420.2184    -84442.96    1052.0579 
   19400    292.04792   -100.86879    275218.15   -77033.973    7434.4061   -84468.379    1056.3322 
   19450    285.16463   -216.13327    275343.94   -77046.908    7259.1845   -84306.093    1060.1249 
   19500    291.35399   -310.06224    275026.53   -77106.927    7416.7415   -84523.668    1060.5541 
   19550    287.79605    73.336869    274250.33   -77036.378    7326.1701   -84362.548     1059.414 
   19600    289.72535    438.05505     273745.1   -77022.596    7375.2825   -84397.879    1060.3362 
   19650    292.31643     387.9887    274037.69   -76985.187    7441.2415   -84426.428    1063.2498 
   19700    289.16149    69.083241    274995.71    -76933.96     7360.929   -84294.889    1070.4484 
   19750     291.8173   -465.03013    275434.72   -76954.111    7428.5355   -84382.646    1073.6994 
   19800    291.90922   -130.24546    274742.13    -76974.17    7430.8754   -84405.045    1074.3008 
   19850    290.54311     271.8422    274039.44   -76944.149    7396.0997   -84340.249    1075.4932 
   19900    291.15344    190.13051     274089.6   -76888.821    7411.6363   -84300.457    1078.4093 
   19950    297.52344   -358.60238    275163.94    -76905.29    7573.7918   -84479.082    1083.6054 
   20000    292.17173   -143.11753    275686.93   -76876.341     7437.558   -84313.899    1086.2764 
   20050    291.44187   -27.107172    275285.72   -76912.766    7418.9786   -84331.745    1089.1818 
   20100     289.0342    50.774102    274602.86   -76938.189    7357.6886   -84295.878    1090.9846 
   20150     293.7667    194.54147    274207.17   -76970.171    7478.1597   -84448.331     1092.594 
   20200    296.92288   -82.876345    274731.46   -76971.115    7558.5037   -84529.619    1096.2709 
   20250    293.73234   -219.04774    275381.58   -76991.811    7477.2851   -84469.096    1101.0701 
   20300    295.98753   -117.20847    275488.24   -76971.911    7534.6934   -84506.604    1103.7279 
   20350    291.59903   -22.573056    274904.45   -76972.036    7422.9794   -84395.015    1103.5395 
   20400    294.01177    357.35869    274127.13   -76944.256    7484.3983   -84428.654    1102.2463 
   20450    297.26136    408.92902    274216.95   -76908.409    7567.1201   -84475.529    1106.5934 
   20500    292.54984   -11.758063    274904.08   -76908.214    7447.1831   -84355.397    1110.9814 
   20550    291.99936    172.71893    275340.41   -76900.167      7433.17   -84333.337    1114.6557 
   20600     290.4179   -157.83969    275502.81   -76887.947    7392.9124   -84280.859    1117.8429 
   20650    296.20484   -65.925793    275200.52   -76837.593    7540.2253   -84377.818    1119.8332 
   20700     293.6095     164.9644    274941.75   -76920.348    7474.1581   -84394.507     1122.895 
   20750    296.38593   -40.034635     274819.8   -76918.524    7544.8352   -84463.359    1126.4547 
   20800    291.55843    34.065528    274945.08   -76900.591    7421.9457   -84322.537    1130.3823 
   20850    296.85827   -31.435741    274898.95   -76902.332    7556.8591   -84459.191    1133.5347 
   20900    291.00514     157.1406    274699.35   -76822.576    7407.8612   -84230.438     1135.294 
   20950     294.6638   -35.599271    274805.84   -76891.993    7500.9965   -84392.989    1138.4254 
   21000    295.87912   -25.610104    274868.94   -76916.325    7531.9338   -84448.259    1140.8615 
   21050    295.10399     76.22906    274886.42   -76880.625    7512.2019   -84392.827    1144.5758 
   21100    291.97544    81.712577    275123.08   -76862.065    7432.5612   -84294.626    1149.3498 
   21150    294.57391   -43.952308    275331.52   -76896.607    7498.7082   -84395.315    1151.7844 
   21200    294.32242   -215.97588    275423.12   -76915.732    7492.3061   -84408.038    1154.9678 
   21250    294.55001   -196.99434    275044.47   -76956.232    7498.0998   -84454.332    1155.0871 
   21300    289.29756    108.88243    274603.25   -76947.311    7364.3929   -84311.704     1156.714 
   21350    295.21896   -175.64061     274523.2   -77024.418    7515.1287   -84539.546    1157.4701 
   21400    288.64221    327.96881    274377.09   -77011.419    7347.7101   -84359.129    1160.3987 
   21450    288.91236   -49.078815    274802.75   -76998.064     7354.587   -84352.651    1164.4089 
   21500    290.74095   -319.63929    275498.97   -76959.839    7401.1358   -84360.975    1169.0918 
   21550    288.52021   -261.65328    275505.35   -76963.614    7344.6046   -84308.218    1169.6528 
   21600    289.01457     -54.3979    275027.33   -77007.936     7357.189   -84365.125    1168.8053 
   21650    290.10841    91.841459    274383.58   -77018.313    7385.0339   -84403.347     1169.431 
   21700    293.17929    192.75025    273992.37   -76996.752    7463.2066   -84459.959    1171.2628 
   21750     291.7137    180.91265    274063.32   -77008.654    7425.8984   -84434.552     1173.943 
   21800    286.01398    170.14612    274517.98    -77014.19    7280.8057   -84294.996    1177.0942 
   21850    288.23228    94.256155     274828.5   -77012.522    7337.2748   -84349.797    1181.5717 
   21900     287.6238   -17.589622    274869.35   -76992.853    7321.7853   -84314.638     1186.944 
   21950    294.28496   -263.23646    274569.16   -77008.381    7491.3527   -84499.734    1188.0139 
   22000    294.93674    183.26751    274186.35   -76963.785    7507.9444   -84471.729    1190.8521 
   22050    291.46856    162.05542    274388.86   -76949.668    7419.6579   -84369.325    1193.3488 
   22100    291.20729   -107.60814    274876.51   -76936.406    7413.0072   -84349.413    1197.5846 
   22150    291.70159    47.421925    275135.49   -76926.278    7425.5899   -84351.868    1200.1567 
   22200    295.26865   -120.09511    275259.24   -76912.535    7516.3936   -84428.928    1203.2898 
   22250     292.5735   -7.7478086    275017.03   -76924.514    7447.7856   -84372.299    1204.5743 
   22300    294.88743    92.288009    274422.77   -76956.676    7506.6893   -84463.366    1205.8633 
   22350    293.16366    344.10861    274386.55   -76965.444    7462.8087   -84428.253    1210.9836 
   22400    288.18962   -232.52247    275007.49   -76980.493    7336.1889   -84316.682    1216.3048 
   22450    292.05553   -66.503409    275116.99   -76955.356    7434.5999   -84389.956    1220.3418 
   22500    290.46589     24.28702    274926.51    -76875.33    7394.1338   -84269.464    1221.3658 
   22550    292.80385    142.65141       274611   -76909.443    7453.6492   -84363.093    1222.2479 
   22600    293.78817   -80.216918    274433.33   -76942.637    7478.7062   -84421.343    1222.7983 
   22650    290.38464    239.92404    274450.02    -76925.73    7392.0656   -84317.796     1224.897 
   22700    293.19322    120.09647     274856.9   -76946.215    7463.5611   -84409.776     1227.923 
   22750    292.56471   -30.228235    275252.89   -76916.351    7447.5616   -84363.913    1231.1709 
   22800     284.6446   -53.198603     275169.2   -76930.064    7245.9465   -84176.011    1232.7597 
   22850      293.435    69.579853     274773.1   -76925.141    7469.7159   -84394.857    1236.1807 
   22900     291.1261      396.109       274458    -76877.77    7410.9404    -84288.71    1238.7427 
   22950    296.20036    -29.42085    274634.55   -76888.991    7540.1113   -84429.102    1242.8695 
   23000     298.9767    -67.66743    274676.47    -76958.82    7610.7862   -84569.606    1245.6516 
   23050    290.40876    -39.62157    274627.28   -76945.803    7392.6797   -84338.483    1247.7024 
   23100    292.04982    -71.33698    274649.27   -76996.488    7434.4546   -84430.942     1249.481 
   23150    291.84224    64.931104    274568.24   -76993.313    7429.1704   -84422.483    1251.4326 
   23200    294.00802   -148.67428    274446.32   -76953.546    7484.3028   -84437.849    1253.3152 
   23250    296.85813   -105.57249    274558.91   -76946.019    7556.8556   -84502.875    1255.7404 
   23300    293.05375    158.30915    274710.78     -76955.5    7460.0107   -84415.511    1258.4779 
   23350    291.64374   -206.54557    274904.06   -76969.088    7424.1175   -84393.205    1259.6821 
   23400    293.12937   -170.29895    274773.14   -76957.659    7461.9358   -84419.595    1261.8986 
   23450    291.63051   -366.43981    274528.32   -76982.964    7423.7806   -84406.745    1263.7671 
   23500    289.89848    318.19367    274325.18   -77006.785    7379.6899   -84386.475    1263.7205 
   23550    295.71796    64.939461    274689.67   -77008.748    7527.8313   -84536.579    1267.2298 
   23600    294.01695   -228.88866    275049.44   -77018.253    7484.5301   -84502.783    1271.1621 
   23650    296.62246   -105.48869    274850.46   -77054.689    7550.8562   -84605.545    1273.1304 
   23700    291.39458    146.94088    274411.98   -77074.885    7417.7747    -84492.66    1274.0566 
   23750    291.27671    341.67606    274011.62   -77064.972    7414.7743   -84479.746    1276.3225 
   23800    291.19896     24.27624    274296.92   -77042.851    7412.7951   -84455.646    1279.0006 
   23850    294.51521   -37.609209    274764.23    -77007.81    7497.2138   -84505.024     1283.212 
   23900     289.3253   -141.87748    275168.38    -77025.72    7365.0989   -84390.819    1287.4387 
   23950    291.26069   -130.91252    275265.11   -77066.084    7414.3665    -84480.45    1288.8667 
   24000    296.05895   -264.99894    274718.29   -77048.173    7536.5115   -84584.685    1291.5714 
   24050      296.339    360.80048    274084.85   -77041.098    7543.6405   -84584.739     1292.114 
   24100    291.92398     174.8118    274127.83   -77045.383    7431.2513   -84476.634    1293.8276 
   24150    290.59663    32.508398    274485.22   -77018.494    7397.4621   -84415.956      1297.84 
   24200    287.35887    20.050107    274999.96   -77025.566    7315.0414   -84340.607    1303.4181 
   24250    292.44482   -52.696249    275327.84   -76954.357    7444.5098   -84398.866    1308.5106 
   24300    290.78843   -136.36785    275211.57   -76984.053    7402.3447   -84386.398    1311.1449 
   24350    293.05304    66.419612    274793.37   -77018.661    7459.9928   -84478.654    1312.4033 
   24400    290.10803   -81.850024    274604.02   -77030.438    7385.0243   -84415.462    1313.9311 
   24450    295.82489    67.834893    274440.03   -77046.185    7530.5532   -84576.738    1316.5338 
   24500    290.91919    212.58994    274691.35   -77048.857    7405.6731    -84454.53    1319.1451 
   24550    292.87805   -49.656027    274794.12   -77075.001    7455.5383   -84530.539    1321.4833 
   24600    285.63748    260.46172     274522.1   -77092.107    7271.2214   -84363.328    1322.6134 
   24650    293.29954    225.61727     274564.7   -77089.655    7466.2676   -84555.922    1324.9958 
   24700    291.19887   -129.22946    274720.64   -77093.751    7412.7927   -84506.543    1327.6937 
   24750    290.31312   -50.171986    274484.28   -77078.918    7390.2451   -84469.163    1327.3301 
   24800    285.41674     189.8948    274198.32   -77094.997    7265.6023     -84360.6     1328.431 
   24850     290.2794   -105.97577    274496.49   -77087.312    7389.3866   -84476.698    1332.0538 
   24900     290.2543   -180.07679    275028.51   -77125.442    7388.7478    -84514.19    1335.8464 
   24950    288.97932   -168.57973    275033.47   -77122.748    7356.2915    -84479.04    1338.3599 
   25000    286.35188    360.94468    274746.42   -77087.686    7289.4072   -84377.094    1340.4996 
   25050    291.44043    481.25258    274570.04   -77076.904    7418.9419   -84495.846    1346.2377 
   25100    289.87145   -80.039832    274927.46   -77093.054    7379.0017   -84472.056    1350.9507 
   25150    287.98762   -47.090497    274796.53   -77068.924    7331.0467   -84399.971    1354.6842 
   25200    293.13645     53.73004    274519.28   -77029.453     7462.116   -84491.569    1356.2741 
   25250    290.40995     104.0839    274518.22   -77019.565    7392.7099   -84412.275    1360.3156 
   25300    292.83913    -124.1127    274730.81   -76985.684    7454.5473   -84440.232    1364.1658 
   25350    288.52974    247.86793    274893.01   -76992.025    7344.8471   -84336.872    1367.3484 
   25400    285.78958   -70.666264    274950.16   -77013.889    7275.0933   -84288.982    1367.9778 
   25450    293.76642    198.81828    274548.39   -77035.896    7478.1525   -84514.049    1370.2449 
   25500    291.78984    180.33596    274306.06   -77053.601    7427.8364   -84481.437    1374.1823 
   25550    291.61099 -0.098621552    274481.82       -77060    7423.2836   -84483.283    1379.2154 
   25600    290.99403    36.919199    274637.15   -77065.982    7407.5784    -84473.56    1381.3195 
   25650    288.10868   -64.259389    274524.73    -77048.75    7334.1285   -84382.878    1385.4782 
   25700    297.31499    115.82947     274173.5   -77025.983    7568.4853   -84594.468    1386.3951 
   25750    293.57569    335.14712    274323.83   -77047.901    7473.2974   -84521.198    1388.6457 
   25800    293.08068   -45.922841     274843.3   -77028.333    7460.6962    -84489.03    1393.5714 
   25850    284.50564    49.927276    275157.62   -77023.101    7242.4091    -84265.51    1394.6225 
   25900    290.44671   -395.92579    274924.77   -77059.614    7393.6458    -84453.26    1395.9729 
   25950    286.92759    220.90301       274194   -77081.552    7304.0625   -84385.615    1397.9394 
   26000    292.37214    80.908847    273998.73   -77113.879    7442.6596   -84556.538    1399.4239 
   26050    291.64944   -62.782884    274427.74   -77116.767    7424.2624    -84541.03    1401.2548 
   26100     288.4322   -53.602652    275012.93   -77141.079     7342.364   -84483.443    1407.7836 
   26150    291.33275    69.486403    275317.06   -77077.864    7416.2009   -84494.064    1413.1762 
   26200    290.77708   -364.70938     275342.1   -77065.865    7402.0556    -84467.92    1416.8678 
   26250    286.30339    170.39786    274962.31   -77029.569    7288.1728   -84317.742    1418.4009 
   26300     292.7383    157.74098    274456.68   -77031.321    7451.9807   -84483.302    1418.4204 
   26350    295.10498    282.30408    274160.19   -76982.692     7512.227   -84494.919    1419.4811 
   26400    295.97401    23.626572    274288.87   -76985.082    7534.3493   -84519.431     1422.102 
   26450    289.47974   -54.299891    274751.48   -77028.829    7369.0304   -84397.859    1426.6768 
   26500    290.84232   -157.45445    275014.32   -77000.571    7403.7164   -84404.288    1431.4969 
   26550    292.12163    105.17965     274695.6   -77040.777    7436.2825    -84477.06    1431.7644 
   26600    294.20101   -44.248553    274373.12   -77030.346    7489.2155   -84519.561    1431.5321 
   26650    287.56406    56.167043    274293.43   -77053.025    7320.2646    -84373.29    1432.8151 
   26700    285.01349   -124.93252    274527.09   -77102.437    7255.3369   -84357.774    1438.7371 
   26750    287.54142   -64.635629    274920.64   -77137.286    7319.6883   -84456.975    1442.4819 
   26800    285.09609   -152.53785    275178.07   -77137.046    7257.4397   -84394.486    1447.2273 
   26850    287.68324   -247.11826    275029.29   -77178.524    7323.2984   -84501.823    1451.0797 
   26900    286.97083     62.58607    274549.42   -77203.982    7305.1633   -84509.145    1452.5006 
   26950    291.11748   -80.049693    274304.53   -77199.318     7410.721   -84610.039    1453.5125 
   27000    286.97236   -139.38128    274297.51   -77213.664    7305.2022   -84518.866    1455.0501 
   27050    291.21586    79.267233    274243.78   -77206.365    7413.2253   -84619.591    1455.9104 
   27100    286.39206    88.127813    274419.85   -77244.429      7290.43   -84534.859    1458.0804 
   27150    292.98312   -195.56809    274714.07   -77153.771    7458.2128   -84611.984    1458.8603 
   27200    287.77523   -1.1717596    274665.78   -77149.524    7325.6401   -84475.164    1458.9106 
   27250    290.26863   -327.09681    274586.88   -77152.755    7389.1125   -84541.867    1461.0833 
   27300     292.8883   -44.226556    274349.77   -77139.665    7455.7992   -84595.464    1462.3669 
   27350    286.23735   -85.610945    274371.06   -77140.265    7286.4917   -84426.756    1463.8199 
   27400     291.0441   -100.12785    274534.79   -77106.372    7408.8528   -84515.225    1467.1836 
   27450    285.85304    39.609705    274635.46   -77062.467    7276.7087   -84339.176    1468.1526 
   27500    291.95051   -235.62371    274591.17   -77028.619    7431.9266   -84460.545    1470.8886 
   27550    292.86302    84.978841    274596.38   -77016.324    7455.1554   -84471.479    1475.0438 
   27600    287.58391   -64.888143    274674.39   -76993.686      7320.77   -84314.457     1476.711 
   27650    291.66826   -186.26489    274635.13   -77027.864    7424.7415   -84452.605    1478.5298 
   27700    288.87655   -169.31572    274549.67   -77029.826    7353.6754   -84383.501    1479.2191 
   27750    291.83943    63.927551    274625.18   -76990.928    7429.0988   -84420.027    1481.8228 
   27800    289.25356   -223.11898    274985.43   -77043.693    7363.2728   -84406.966      1486.69 
   27850    292.39927   -55.147462    274928.48    -77011.35    7443.3502     -84454.7     1490.589 
   27900    290.52733   -74.630058    274868.18   -76938.307    7395.6978   -84334.005    1492.5543 
   27950    290.01302   -36.832563    275052.28   -76946.452    7382.6055   -84329.058    1496.1432 
   28000    294.49395    -280.5902    275231.48   -76949.662    7496.6728   -84446.335    1498.8332 
   28050    293.02618    -184.4391    275306.19   -76928.013    7459.3091   -84387.322    1500.6205 
   28100    291.37979    89.163446    275037.87   -76929.143    7417.3982   -84346.542    1500.9398 
   28150    290.05114    235.32247    274356.39   -76956.826     7383.576   -84340.402    1502.9317 
   28200    289.71728   -160.67412    274087.63   -76992.411    7375.0772   -84367.488    1504.3341 
   28250    300.52075    38.084687    274172.05   -76943.113    7650.0917   -84593.205    1507.6626 
   28300    292.30442   -120.57239    275083.24   -76955.385    7440.9358    -84396.32     1513.608 
   28350    294.77129    -610.0231    275801.97   -76985.566    7503.7326   -84489.299    1518.2257 
   28400    288.42374   -118.04013    275447.44   -76972.115    7342.1487   -84314.264    1518.8588 
   28450     294.9887   -19.400576    274547.58   -76976.597    7509.2672   -84485.864    1517.7822 
   28500    294.25736   -9.2566455    274169.41   -76930.058    7490.6499   -84420.708    1519.0002 
   28550    291.64843    120.93297    274328.84   -76892.514    7424.2369   -84316.751    1522.5695 
   28600    296.04624   -78.160382    274994.23   -76856.235    7536.1881   -84392.423    1528.5387 
   28650    295.13523   -415.91095    275315.91   -76870.052    7512.9972   -84383.049    1531.9186 
   28700    295.39482    335.48527    274703.05   -76822.477    7519.6053   -84342.083    1531.8187 
   28750    295.58961    159.60276    274385.21   -76860.393    7524.5639   -84384.956    1533.3779 
   28800    298.93239    158.77285    274621.92   -76947.422    7609.6581    -84557.08    1536.4942 
   28850    289.80829    188.63164     274877.4   -76948.029     7377.394   -84325.423    1536.4916 
   28900    290.22983   -260.18004    275267.63   -76952.823    7388.1247   -84340.948    1538.9604 
   28950     291.3007     100.3229    275095.13   -76967.414     7415.385   -84382.799    1540.2677 
   29000    289.54364    197.83615    274788.39   -76994.358    7370.6571   -84365.015    1539.9078 
   29050    291.58441   -50.100381    274695.73   -77005.145    7422.6071   -84427.752    1543.7761 
   29100    290.70133    156.42678    274587.16   -76988.663    7400.1273   -84388.791    1547.2328 
   29150    286.80369     19.86872    274725.58   -76998.803    7300.9086   -84299.711    1549.6063 
   29200    288.73993    20.906039    274850.22   -76991.866    7350.1977   -84342.064    1551.9764 
   29250    292.09414   -95.633098    274915.48    -76943.35    7435.5828   -84378.933    1553.9573 
   29300    295.07635    212.78677       274823   -76990.581    7511.4982   -84502.079    1554.9602 
   29350    291.76796    75.767029    274777.56    -77013.99    7427.2797    -84441.27    1555.3249 
   29400    293.03795   -141.30671    274779.66   -77036.467    7459.6087   -84496.076    1556.4564 
   29450    289.19166    37.852529    274729.56   -77037.403    7361.6971     -84399.1    1559.4892 
   29500    287.32282   -40.828096    274819.57   -77052.647    7314.1236   -84366.771    1561.9457 
   29550     289.7441    31.192454    274769.65    -77016.95    7375.7601    -84392.71    1564.6357 
   29600    288.95347   -239.03287    274867.61   -76978.626    7355.6335   -84334.259    1566.7294 
   29650    296.23665   -73.930966    274738.38   -76971.216     7541.035   -84512.251    1568.0356 
   29700    288.06146    131.86294    274635.69   -76997.994    7332.9263   -84330.921    1569.3661 
   29750    292.10443    172.87467    274800.08   -76981.326    7435.8448    -84417.17    1572.4885 
   29800    286.72114    60.632703    275028.85   -76946.784    7298.8071   -84245.591    1576.0688 
   29850    290.84879    89.004413    274781.86   -76944.331    7403.8811   -84348.212    1577.7757 
   29900    296.94763   -95.925051    274475.15   -76906.674    7559.1339   -84465.808    1577.6281 
   29950    293.99787    285.99816    274629.18    -76901.85    7484.0445   -84385.894    1580.1466 
   30000    293.82075   -185.55344    275089.77   -76932.564    7479.5356     -84412.1    1585.5736 
   30050    290.19558   -166.33608     275178.2   -76960.271    7387.2528   -84347.524    1587.5755 
   30100    291.49987     160.4349    274808.13    -76916.46    7420.4552   -84336.916    1588.0867 
   30150    297.17317    107.96808    274551.69   -76926.152    7564.8752   -84491.027    1589.3493 
   30200    288.12967    64.085151     274676.1   -76923.814    7334.6629   -84258.477    1592.2973 
   30250    293.35974   -89.504779    275173.88   -76932.615    7467.8001   -84400.415    1596.2958 
   30300     292.1606    20.203817    275571.87   -76909.937    7437.2748   -84347.212    1598.6338 
   30350    287.06947   -133.14186    275437.27   -76921.461    7307.6742   -84229.135    1599.5462 
   30400    294.88442    130.43349    274639.32   -76999.507    7506.6125   -84506.119    1598.7004 
   30450    292.35646    345.49308    274109.89   -77028.359    7442.2606    -84470.62    1598.0604 
   30500    294.80264    156.08871    274294.18    -76978.35    7504.5308    -84482.88    1601.9009 
   30550    286.61522    11.646039    274814.96   -76969.699    7296.1108    -84265.81    1606.3655 
   30600    289.67029    17.447153    275014.15   -76998.267     7373.881   -84372.148    1610.6473 
   30650    293.72863   -181.74758    274880.16   -77023.637    7477.1906   -84500.828    1612.4598 
   30700    287.80531    91.115292    274627.95   -77012.872    7326.4058   -84339.277    1612.9217 
   30750    289.59931    32.162083    274426.72    -77046.82    7372.0742   -84418.894    1613.6621 
   30800    288.93931    1.9474265    274652.39   -77092.975    7355.2731   -84448.249    1615.7275 
   30850    285.09268    -437.8487    275170.72    -77113.13    7257.3529   -84370.482    1621.0979 
   30900    285.34916   -62.171306    275161.51   -77088.234    7263.8818   -84352.116     1624.934 
   30950    288.33131    42.030975    274554.46   -77090.298    7339.7959   -84430.094    1625.0188 
   31000    287.90815    458.85574     274060.3   -77099.294    7329.0239   -84428.318    1624.6329 
   31050     293.2513    147.19334    274217.62   -77093.425    7465.0396   -84558.464     1628.846 
   31100    289.08175   -228.22366     274772.6    -77063.66     7358.899   -84422.559    1634.0403 
   31150    290.46751   -329.72189    275100.18   -77031.383    7394.1751   -84425.558    1637.1525 
   31200    291.07635    3.8337032    274895.84   -77016.685    7409.6737   -84426.359     1638.144 
   31250    292.94764   -166.60897    274381.64   -77022.849    7457.3097   -84480.158    1638.2009 
   31300    289.01013    346.09629    273965.14   -77021.425    7357.0759   -84378.501    1636.2976 
   31350    291.23425    136.31293     274038.4   -77046.415    7413.6934   -84460.109    1637.4531 
   31400    291.43687   -84.664758    274436.43   -77075.371    7418.8512   -84494.222    1641.7477 
   31450    285.01522    23.750335    274790.35   -77059.074    7255.3811   -84314.455    1644.8772 
   31500    290.59148   -268.41249    275031.27   -77055.134     7397.331   -84452.465    1646.2407 
   31550    284.02029    49.152573     275069.6   -77062.218     7230.054   -84292.272    1647.4483 
   31600    290.20991   -167.71161    274863.18     -77082.3    7387.6177   -84469.918    1650.1082 
   31650    291.03643   -17.405631    274325.87   -77023.548    7408.6578   -84432.206    1651.9615 
   31700    289.99867    226.03306    273952.26   -77038.727    7382.2404   -84420.967    1653.0071 
   31750    291.08357    21.605253    274226.34   -77036.019    7409.8576   -84445.877    1657.4455 
   31800     291.9392    143.04174    274848.16   -77046.295    7431.6385   -84477.933    1664.9119 
   31850    286.30627   -225.02099    275550.78   -77074.791    7288.2463   -84363.037    1670.6044 
   31900    290.02964   -236.03779    275319.95   -77101.992    7383.0287   -84485.021    1673.8066 
   31950    293.53641     220.1045    274323.94   -77073.627    7472.2973   -84545.924     1673.798 
   32000    288.89014    106.09633    273837.44   -77099.745    7354.0213   -84453.766    1674.3069 
   32050    288.89589    90.291571     274158.3    -77112.75    7354.1678   -84466.917    1675.7499 
   32100    285.45298   -284.98141    274913.64   -77091.619    7266.5247   -84358.143    1681.7199 
   32150    283.63578    38.493208    275027.08   -77124.829    7220.2658   -84345.094    1683.7433 
   32200    284.89969    320.28918    274647.77   -77094.373      7252.44   -84346.813    1682.7695 
   32250    292.63733   -186.14126       274590   -77077.975    7449.4104   -84527.386    1682.5358 
   32300    289.15013   -70.362014    274536.91   -77101.957    7360.6399   -84462.597    1685.0837 
   32350    289.70709   -37.532534    274533.63   -77094.792    7374.8177    -84469.61     1689.397 
   32400    286.66925    93.822789    274529.55   -77091.392    7297.4862   -84388.879    1692.0314 
   32450    292.79732   -183.90215    274442.88   -77139.238    7453.4831   -84592.721    1691.9639 
   32500    293.32412    84.523139    274201.74   -77117.621    7466.8933   -84584.514    1692.6319 
   32550    289.63628    96.789953    274420.49   -77134.084    7373.0153   -84507.099    1696.5607 
   32600    290.13876   -67.623144    274755.61   -77077.687    7385.8066   -84463.494    1700.3069 
   32650    289.54993    114.35551     274672.1   -77073.836    7370.8171   -84444.653     1702.919 
   32700    290.75259    30.574515    274379.79   -77081.357    7401.4323   -84482.789    1707.2324 
   32750    292.73077    125.93009    274125.67   -77062.193     7451.789   -84513.982    1710.1395 
   32800    292.33383    161.17398    274248.77   -77088.131    7441.6845   -84529.816    1713.3981 
   32850    289.98916    -193.1074     274746.2   -77076.276    7381.9982   -84458.274     1718.223 
   32900    290.92991    -343.0828     274870.3   -77092.337     7405.946   -84498.283    1721.0889 
   32950    291.52766   -263.19366    274727.07   -77134.988    7421.1625    -84556.15    1720.8497 
   33000    291.89723    265.06035    274554.65    -77084.97    7430.5702    -84515.54    1721.9785 
   33050    284.28556     200.7803    274455.47   -77079.229    7236.8067   -84316.035    1723.3452 
   33100    290.53802    136.20983    274437.77   -77094.992    7395.9701   -84490.962    1724.6118 
   33150    296.69783   -280.02686    274571.95   -77111.242    7552.7749   -84664.017    1724.7923 
   33200    292.82888    129.82889     274481.1   -77145.645    7454.2864   -84599.932    1725.4879 
   33250    285.92618   -15.046933       274756   -77148.981    7278.5704   -84427.551    1728.4045 
   33300    287.50814   -217.21031    274972.79   -77131.941    7318.8412   -84450.782    1730.2695 
   33350    288.75847     93.00886    274575.36   -77165.203    7350.6697   -84515.873    1733.0029 
   33400    292.97952   -320.79249    274214.13    -77130.39    7458.1213   -84588.511     1734.306 
   33450    294.81256    326.70063    274142.16    -77116.35    7504.7833   -84621.133    1736.7978 
   33500    289.81509    108.37491    274637.37   -77138.071    7377.5672   -84515.638    1742.0414 
   33550    293.23574   -236.70167    275337.06   -77118.628    7464.6437   -84583.272     1747.605 
   33600    286.95861     -348.957    275648.25   -77128.225    7304.8522   -84433.077    1752.3578 
   33650    288.44312    212.05449    274800.93   -77127.094    7342.6421   -84469.736    1749.6152 
   33700    292.83461    250.06473    273726.55   -77093.715    7454.4322   -84548.148    1746.3257 
   33750    287.48246    428.67706    273649.58   -77067.409    7318.1875   -84385.597    1746.2263 
   33800     290.3776    -49.88243    274609.39   -77083.638    7391.8865   -84475.525    1751.3794 
   33850    287.59277   -258.16342    275294.83   -77084.582    7320.9954   -84405.577    1755.9108 
   33900    286.96256   -251.80268    275149.29   -77100.519    7304.9528   -84405.472    1758.7351 
   33950    291.98881    131.30809     274208.7   -77116.892    7432.9016   -84549.794    1755.7205 
   34000    289.18388    567.66238    273631.19   -77074.765    7361.4989   -84436.264    1755.2005 
   34050    287.34727    184.44797    274374.62   -77101.823    7314.7459   -84416.569    1760.5004 
   34100    286.53274    70.384874    275174.65   -77118.281    7294.0111   -84412.292    1766.4176 
   34150    291.94585   -122.87793    275343.22   -77126.521    7431.8081   -84558.329    1768.8426 
   34200    286.37122   -186.50608    274987.27   -77131.155    7289.8994   -84421.055    1770.3662 
   34250    288.60485    286.48593    274275.12   -77121.863    7346.7592   -84468.622    1768.1326 
   34300    294.89504   -103.87457    274047.51   -77078.682     7506.883   -84585.565    1768.3313 
   34350    292.34357    209.80066    274429.72   -77102.522    7441.9324   -84544.455    1772.5468 
   34400    284.89887   -135.50041    275311.66   -77142.421    7252.4192    -84394.84    1780.3651 
   34450    287.97176   -294.21755    275577.47   -77095.088     7330.643   -84425.731    1784.1287 
   34500    284.49358    246.44456    274686.95    -77136.34     7242.102   -84378.442    1782.0455 
   34550    287.71804    227.99526    273657.08   -77183.417    7324.1844   -84507.601    1777.3145 
   34600    291.49374   -85.321686    273574.95   -77222.947     7420.299   -84643.246    1779.8112 
   34650    288.13239    182.74224    274110.58   -77194.905    7334.7322   -84529.638    1783.6825 
   34700    287.15582    146.94248    274816.32   -77170.837    7309.8724   -84480.709    1790.3442 
   34750    286.04821   -392.36825    275092.34   -77182.643    7281.6769    -84464.32    1795.8416 
   34800    293.10584   -121.96947    274581.47   -77147.174    7461.3368   -84608.511    1795.0308 
   34850    288.09497    329.76783    274069.05   -77178.674    7333.7794   -84512.453    1792.6142 
   34900    282.81537    364.59007    274088.67   -77179.617    7199.3813   -84378.998    1794.2563 
   34950    287.30734     125.6116    274710.35   -77139.947    7313.7294   -84453.676    1800.0702 
   35000    288.17231   -140.18943     275273.6   -77135.323    7335.7482   -84471.071    1804.5493 
   35050    286.47043   -338.65911    275148.49   -77114.916    7292.4249   -84407.341    1807.1455 
   35100    287.59772   -112.72332    274294.48   -77147.775    7321.1214   -84468.896    1806.5577 
   35150    289.50405    101.00306    273442.55   -77163.693    7369.6492   -84533.342     1804.385 
   35200    294.26305    170.44187    273540.01   -77165.952    7490.7949   -84656.747    1805.9086 
   35250    292.84389   -149.58483    274466.86    -77118.71    7454.6685   -84573.378    1813.3524 
   35300    290.04956    140.36768    274975.27   -77084.931    7383.5357   -84468.467    1817.3036 
   35350    288.89563   -312.71583    275392.32   -77064.117    7354.1611   -84418.279    1822.2513 
   35400    286.83991   -14.055072    275302.29    -77104.47    7301.8307     -84406.3    1824.8469 
   35450    288.54082     20.01572    274768.35   -77088.414    7345.1292   -84433.543    1825.8729 
   35500    292.66791    424.77162    274303.32   -77058.074    7450.1888   -84508.262    1826.1896 
   35550    289.14334     58.21647    274526.01     -77102.3     7360.467   -84462.767    1829.0789 
   35600    289.37009    204.75246       274998   -77017.042     7366.239   -84383.281    1835.2086 
   35650    290.82993   -260.73608    275442.14   -77008.924    7403.4011   -84412.325    1840.1157 
   35700    283.70206    29.405014    275076.81   -77047.497    7221.9531    -84269.45     1840.841 
   35750    289.66505   -203.30058    274582.06   -77052.816    7373.7477   -84426.564    1841.9391 
   35800    291.25642    44.515531     273988.8   -77065.569    7414.2579   -84479.827    1842.2557 
   35850    295.75131   -9.1968884    273986.83   -77040.907    7528.6803   -84569.587    1847.4491 
   35900     288.6882   -35.943643    274770.17   -77041.994    7348.8807   -84390.874    1851.8471 
   35950    289.53077   -117.16009     275492.8   -77053.125    7370.3294   -84423.454    1858.5638 
   36000    285.47354    -64.89631     275258.3   -77073.706    7267.0481   -84340.754     1858.959 
   36050    287.40106    283.58549    274585.04    -77105.02    7316.1152   -84421.135     1857.003 
   36100    287.78632    344.11282    274285.03   -77075.291    7325.9224   -84401.214    1857.5677 
   36150    287.86877    96.563979     274609.6   -77072.537    7328.0213   -84400.559    1863.1623 
   36200    288.73036   -184.57212    274977.04   -77077.125    7349.9539   -84427.079    1868.0983 
   36250    288.19696   -133.93028    274685.84   -77058.904    7336.3759    -84395.28     1868.342 
   36300     283.2142    282.57075    274286.97   -77102.879    7209.5341   -84312.413    1869.2176 
   36350    294.95218    85.014892       274249   -77037.182    7508.3373   -84545.519    1871.8702 
   36400    294.58962   -163.01961    274610.92   -77090.742    7499.1081    -84589.85    1873.8704 
   36450    289.32856      27.0606    275042.36   -77062.514    7365.1819   -84427.696    1878.5973 
   36500    289.52504   -268.52252    275079.48   -77060.243    7370.1836   -84430.427    1880.7763 
   36550    291.56458    168.31059    274561.69   -77026.234    7422.1024   -84448.336    1880.8801 
   36600    292.82313     277.4228    274164.18   -77006.647    7454.1402   -84460.787    1881.2564 
   36650    290.88343    208.88286    274328.75   -77030.119     7404.763   -84434.882    1884.6705 
   36700    291.44226   -127.10652    274681.98   -77021.665    7418.9886   -84440.653    1888.5149 
   36750    296.82773    77.307041    274701.05   -77059.849    7556.0815   -84615.931    1889.8024 
   36800    291.58845   -229.32514    275058.76   -77021.715    7422.7098   -84444.424    1893.7724 
   36850    290.16025   -517.29509    275034.34   -77029.061    7386.3536   -84415.415    1894.0778 
   36900    287.11207    222.73897    274579.92   -77032.876    7308.7586   -84341.635    1892.9123 
   36950     290.9355    43.805002     274527.2   -77070.652    7406.0883   -84476.741    1894.6194 
   37000    287.74772   -131.87184    274718.11   -77098.105    7324.9398   -84423.044    1898.2701 
   37050    285.83002   -298.40535    274709.08   -77106.804    7276.1227   -84382.926    1898.6132 
   37100    288.07867    357.51275    274250.74   -77060.329    7333.3647   -84393.693    1899.2406 
   37150    292.47844    248.68441    274211.19   -77075.546    7445.3656   -84520.912    1899.7888 
   37200     292.8669   -117.67589     274779.6    -77098.72    7455.2543   -84553.974    1904.0879 
   37250    286.94333   -250.29518    275153.47   -77095.755    7304.4631   -84400.218     1905.798 
   37300    292.71188    -25.53947    274949.32   -77118.509    7451.3081   -84569.818    1909.7337 
   37350    290.21031   -67.139559    274785.27   -77109.983    7387.6279   -84497.611    1912.0682 
   37400    292.69324    25.406148    274470.86   -77099.122    7450.8337   -84549.956    1914.3381 
   37450    292.36289   -90.826922    274117.41   -77098.279    7442.4241   -84540.703    1914.3186 
   37500    286.02413     157.5128    274116.81   -77095.532    7281.0638   -84376.596    1917.6957 
   37550    285.90157    1.7140706    274731.41    -77083.68    7277.9441   -84361.624    1922.0423 
   37600    289.75188   -56.301074    275205.49   -77095.326    7375.9579   -84471.284     1926.073 
   37650    282.45749   -67.832028    275109.83   -77086.691    7190.2712   -84276.963     1927.919 
[...]
   90850    291.11702    276.70877    275062.08   -76872.212    7410.7093   -84282.922    4498.6631 
   90900    295.27558    15.998059    274789.57   -76878.176      7516.57   -84394.746    4501.5048 
   90950     290.3572   -23.084161    274403.29   -76909.755    7391.3671   -84301.122    4500.8109 
   91000    291.25074    38.750531     274156.6    -76884.62    7414.1131   -84298.733    4500.4625 
   91050    295.37519    120.42068    274466.92   -76922.271    7519.1056   -84441.377    4504.6721 
   91100    294.41566   -70.559619    275380.76   -76878.578    7494.6798   -84373.257     4515.624 
   91150    289.26363   -279.34592     276062.4   -76891.871     7363.529     -84255.4    4524.2775 
   91200    292.17803    -186.7354    275726.26   -76912.543    7437.7184   -84350.262    4521.3556 
   91250     290.6075    47.892529    274745.86   -76919.995    7397.7387   -84317.734    4512.4697 
   91300    296.49992    310.38785    274059.83   -76917.525    7547.7369   -84465.262    4504.4893 
   91350    293.35166   -86.603731    274369.72   -76926.792    7467.5945   -84394.387    4508.6282 
   91400    291.79579   -162.00604    274997.07   -76959.747    7427.9881   -84387.735    4516.0439 
   91450    290.21593   -154.50987     275251.1   -76983.682     7387.771   -84371.453    4519.2908 
   91500    294.24105    47.579278     274892.9   -76993.622    7490.2347   -84483.857    4518.4852 
   91550    287.74912    61.265852    274524.12   -76980.974    7324.9755    -84305.95    4515.0405 
   91600    290.36973    59.095127    274466.11   -77006.598    7391.6862   -84398.284    4514.7764 
   91650    291.90451     171.1309    274674.44   -77069.827    7430.7557   -84500.583    4520.7862 
   91700    288.98666   -11.501056    274832.77   -77081.289    7356.4784   -84437.768    4522.5514 
   91750    287.47022   -60.490058    274981.69   -77035.848    7317.8758   -84353.724    4527.1061 
   91800    289.66144   -289.23696    274828.32   -77039.622    7373.6557   -84413.278    4528.3888 
   91850    288.22077   -102.11255    274580.87   -77071.094    7336.9818   -84408.076    4526.1648 
   91900    289.78845    92.378349    274262.41   -77051.247     7376.889   -84428.136    4525.8928 
   91950    287.67936    340.36757    274254.08   -77106.967    7323.1997   -84430.167    4528.3212 
   92000    289.40452    26.126246    274687.33   -77074.195    7367.1156    -84441.31    4534.0341 
   92050    291.79757   -121.14106    274828.85   -77126.079    7428.0333   -84554.113    4537.0905 
   92100    290.60557   -106.09383    274855.53   -77062.494    7397.6896   -84460.183    4542.2689 
   92150    287.15913    200.40208     274532.4   -77056.653    7309.9568    -84366.61    4538.4898 
   92200     289.6998   -132.17949    274427.89   -77044.686    7374.6322   -84419.319    4541.3197 
   92250    286.15418   -14.148111    274653.56    -77025.66    7284.3744   -84310.034    4545.0688 
   92300    288.21067   -56.974384    274956.29   -77037.043    7336.7247   -84373.768    4550.1657 
   92350    289.84849   -255.02556    274790.27   -77045.657    7378.4173   -84424.074    4549.7372 
   92400    288.87794    63.113272    274457.85   -77053.285    7353.7108   -84406.996     4546.823 
   92450    292.71706    84.509365    274227.69   -77047.649    7451.4399   -84499.089    4545.0004 
   92500    290.63542   -109.51854    274558.56   -77067.913    7398.4496   -84466.363    4548.4052 
   92550    289.48535   -369.24458    274933.12   -77070.667    7369.1732    -84439.84     4557.954 
   92600    287.88944    116.41729    274728.13   -77101.984    7328.5476   -84430.532    4558.2513 
   92650    293.43725   -117.25889     274391.8   -77094.667    7469.7732    -84564.44      4554.95 
   92700    292.29475    163.34314    274152.48    -77091.19    7440.6897    -84531.88    4553.9127 
   92750    287.96377    104.46807    274279.88   -77151.619    7330.4395   -84482.059    4559.5506 
   92800    289.44876    29.352171    274422.25   -77150.902    7368.2417   -84519.144    4564.6791 
   92850    285.10029   -184.95279    274586.06   -77118.362    7257.5466   -84375.909    4568.7593 
   92900    289.94158   -183.74136    274670.54   -77129.257    7380.7871   -84510.044    4571.4124 
   92950    291.93334    145.34129    274625.79   -77121.059    7431.4895   -84552.548    4573.7767 
   93000     290.6917   -256.52917    274766.49   -77087.878    7399.8821    -84487.76    4577.6598 
   93050    291.30625     204.0482    274937.35   -77064.636    7415.5263   -84480.162    4579.9567 
   93100    287.81258    92.026729    275140.43   -77024.398     7326.591   -84350.989    4583.3562 
   93150    292.99238   -398.42453    275188.53   -77047.642    7458.4486    -84506.09    4582.2185 
   93200    296.14477    -176.7677    274670.78   -77027.886    7538.6961   -84566.582    4579.8558 
   93250    293.28508    195.82402    274161.29   -76996.395    7465.8995   -84462.295    4578.7098 
   93300    288.37988    261.01205    274465.97   -77015.869    7341.0322   -84356.901     4582.504 
   93350    293.22928   -55.597482    274974.85   -77061.126    7464.4792   -84525.605    4590.9352 
   93400    289.99595   -191.20558     275165.7    -77071.62    7382.1711   -84453.792    4596.7189 
   93450    291.40899   -66.448302    274828.78   -77066.406    7418.1417   -84484.548    4596.1257 
   93500    292.20575    162.40491    274618.66   -77056.416     7438.424    -84494.84    4598.4703 
   93550    291.60068   -68.548982    274653.82     -77050.1    7423.0214   -84473.121    4602.2762 
   93600    288.97135   -12.342532    274543.85    -77014.73    7356.0886   -84370.819    4606.4261 
   93650     294.8035   -194.52672    274448.47   -77024.708    7504.5527    -84529.26    4608.0174 
   93700    291.21923     143.2123    274389.15   -77023.772    7413.3112   -84437.083    4609.2592 
   93750    294.42078    273.83002    274628.67   -77013.396      7494.81   -84508.206    4615.8404 
   93800    293.79713   -241.75964    275006.83   -77004.341    7478.9343   -84483.275    4623.8844 
   93850    294.81535   -91.451419    274858.31   -77006.448    7504.8544   -84511.302     4623.972 
   93900    292.53022   -5.2009227    274570.51   -76990.104    7446.6838   -84436.788    4625.8693 
   93950    291.87983    -141.7269     274532.7   -76989.256    7430.1274   -84419.383    4630.2231 
   94000    289.87216    161.66526    274497.47   -76977.219    7379.0199   -84356.239    4634.7838 
   94050    290.77637    8.9991825    274655.38   -76942.118    7402.0377   -84344.156    4641.1802 
   94100    291.15914   -126.59774    274903.11   -76962.282    7411.7814   -84374.063     4644.186 
   94150    296.61264   -292.36206    275175.97   -76954.348    7550.6064   -84504.955    4649.5027 
   94200      291.257    18.766079     274846.7   -76947.999    7414.2724   -84362.272     4651.804 
   94250    293.24359   -32.350096    274374.14   -76924.011    7464.8434   -84388.854    4649.8829 
   94300    292.00245    538.14656    274319.54   -76905.671    7433.2487   -84338.919    4652.6512 
   94350    288.92511    277.02914    274778.75   -76921.308    7354.9117   -84276.219     4662.556 
   94400    290.54839   -159.04655    275223.56   -76942.025    7396.2341   -84338.259    4671.5651 
   94450    291.36641     -181.318    275422.59   -76937.722    7417.0577    -84354.78    4676.3688 
   94500    289.14672   -89.886851    275255.77   -76905.484    7360.5531   -84266.038    4674.9469 
   94550     292.4058    159.09793    274695.25   -76945.423    7443.5165    -84388.94    4668.5725 
   94600    291.95948     205.5414     274300.9   -76928.806     7432.155   -84360.961    4663.5125 
   94650    296.25089   -21.966798    274443.74   -76908.003    7541.3976     -84449.4    4666.3357 
   94700    290.48244    181.61803     274883.8   -76857.239    7394.5552   -84251.794    4672.1193 
   94750    292.19804    93.235094    275252.46   -76906.297    7438.2278   -84344.525    4676.6431 
   94800    290.45057   -191.72272    275416.52   -76912.075     7393.744   -84305.819     4682.258 
   94850    294.44137    113.20916    274973.15   -76925.528    7495.3341   -84420.862    4681.1154 
   94900    296.79927    12.079077     274572.6   -76924.116    7555.3572   -84479.473    4681.0186 
   94950    294.33839   -228.45359    274452.68   -76968.045    7492.7126   -84460.757    4680.8608 
   95000    291.58547    428.68608    274453.76    -76986.44    7422.6342   -84409.075     4681.819 
   95050    296.76414   -152.64453    274799.53   -76953.141    7554.4629   -84507.604      4687.68 
   95100    294.08342   -190.54595    274868.59   -76973.684    7486.2222   -84459.906    4692.6846 
   95150    290.88388    197.44229    274824.79   -76982.574    7404.7743   -84387.349    4692.9898 
   95200    289.54888    315.14266    274757.19   -76984.362    7370.7905   -84355.152    4696.5621 
   95250    291.99782    205.69941    274784.36   -76977.913     7433.131   -84411.044    4697.8977 
   95300    287.50913   -263.49766    274975.01    -77008.97    7318.8663   -84327.836    4701.4023 
   95350    288.62251    135.76565    274594.52   -77031.007    7347.2087   -84378.216    4699.9802 
   95400    295.66045    173.98188     274249.8   -76988.231    7526.3673   -84514.598    4697.1667 
   95450     293.0923       339.15    274291.74   -77001.655     7460.992   -84462.647    4701.5867 
   95500     293.2488     -174.075    274745.71   -77002.968    7464.9761   -84467.944     4714.227 
   95550    291.90052   -113.25491    275275.91   -77010.563    7430.6541   -84441.217    4723.3226 
   95600    293.97243   -86.011388     275468.6   -77008.373    7483.3968    -84491.77     4726.977 
   95650    291.58147   -51.204593    274984.04    -77040.74    7422.5324   -84463.272    4724.0595 
   95700    292.90875    266.47876    274434.33   -77020.181    7456.3197   -84476.501     4719.165 
   95750    297.00978    125.64818    274490.19   -77020.892    7560.7159   -84581.608    4723.6825 
   95800    291.20832    42.313279    274685.36   -77051.991    7413.0333   -84465.025    4732.2934 
   95850    290.81765   -43.763501       274684   -77037.559    7403.0883   -84440.648     4736.901 
   95900    290.26133    -12.13139    274556.43   -77040.472    7388.9265   -84429.399    4737.9526 
   95950    291.50188    176.82202    274466.72   -77035.728    7420.5063   -84456.234    4741.7536 
   96000    292.11388    -7.806681    274547.48    -77042.37    7436.0852   -84478.455    4746.3894 
   96050    289.42242      359.084     274530.5   -77024.056    7367.5713   -84391.627    4749.4027 
   96100    293.06925   -110.83628    274914.27    -76958.32    7460.4053   -84418.725    4755.6376 
   96150    290.38381   -149.04851    275268.89   -76987.831    7392.0444   -84379.875    4760.4415 
   96200    289.80765    77.040364    275312.77   -76938.121    7377.3778   -84315.499    4762.2291 
   96250    295.77569   -309.01435    275288.11   -76936.089    7529.3008    -84465.39    4763.8292 
   96300    290.00907    112.30233    274882.26   -76919.381    7382.5051   -84301.886    4761.0323 
   96350    296.08398   -28.107939    274454.82   -76934.999    7537.1488   -84472.147    4757.0103 
   96400    291.14931    109.83006    274406.03   -76967.379    7411.5311    -84378.91     4757.756 
   96450     293.6824   -45.979973    274731.36   -76940.665    7476.0138   -84416.679    4762.3335 
   96500    289.41103   -184.22308    274957.83   -76924.798    7367.2814   -84292.079    4766.7192 
   96550    288.98966   -202.61184       274933   -76908.249    7356.5548   -84264.804    4767.2051 
   96600    295.08325    -51.95731    274841.98   -76910.333    7511.6739   -84422.007    4769.4982 
   96650    298.22593    203.17896     274510.1   -76962.641    7591.6745   -84554.315    4765.1431 
   96700    294.38599    338.20373    274299.98   -76975.028    7493.9245   -84468.953    4767.1103 
   96750    293.01633   -290.29424    274630.77   -76960.878    7459.0582   -84419.936    4774.3839 
   96800    286.06882   -50.002026    275113.85   -76962.721    7282.2015   -84244.922    4779.7656 
   96850    291.34389    179.33056    275129.43   -76998.654    7416.4843   -84415.139    4777.1881 
   96900    292.42217   -137.90559    274983.84   -76962.392    7443.9331   -84406.325    4775.1892 
   96950    290.09194    12.758344    274557.38   -76962.787    7384.6147   -84347.402    4771.7129 
   97000    296.18266    181.23273    274175.87   -76985.926    7539.6608   -84525.587    4770.7688 
   97050    299.56679   -58.105879     274616.8   -76962.594    7625.8074   -84588.402    4776.6857 
   97100    287.27634   -25.379399    275311.21   -76993.445    7312.9404   -84306.385    4788.3278 
   97150    291.94363   -99.591826    275244.68   -77002.892    7431.7515   -84434.643    4790.0461 
   97200    290.95668   -80.053767    274998.95   -76987.541    7406.6275   -84394.169    4791.6201 
   97250    295.14141    60.786068    274520.77   -77005.024    7513.1544   -84518.179    4786.8449 
   97300    290.38586     196.9917    274044.18   -77025.809    7392.0968   -84417.906    4784.1443 
   97350     296.0515    373.68077    274066.97   -77063.248    7536.3218   -84599.569    4785.1834 
   97400    288.96568   -39.516622    274652.72   -77076.091    7355.9445   -84432.036    4794.2457 
   97450    289.76877    48.469462    275140.07   -77098.736     7376.388   -84475.124    4803.1456 
   97500    290.70099    36.742661    275006.47   -77100.812    7400.1187   -84500.931     4804.873 
   97550    288.23469   -86.613927    274694.57   -77068.547    7337.3362   -84405.884    4801.4983 
   97600    291.37765    86.040004    274331.91   -77045.622    7417.3438   -84462.966    4801.0646 
   97650    294.14613    261.27613    274302.28   -77025.691    7487.8187    -84513.51    4802.5477 
   97700    281.82002    278.03103    274725.18    -77030.94    7174.0437   -84204.983    4809.3765 
   97750    286.45709    26.694731    274920.58   -77013.435    7292.0855    -84305.52    4813.7977 
   97800    291.15232     79.04262    274574.24   -77067.803    7411.6077   -84479.411    4813.6901 
   97850    288.92942    263.94814    274312.42   -77096.118    7355.0215    -84451.14    4814.9355 
   97900    286.44268    174.78947    274680.04   -77137.187    7291.7185   -84428.906    4819.9504 
   97950    289.55411   -338.78726    275223.09   -77108.216    7370.9235    -84479.14    4830.5667 
   98000    285.82972   -48.250258    274914.31   -77116.132     7276.115   -84392.247    4828.8823 
   98050    287.59117   -11.752813    274397.88   -77113.312    7320.9547   -84434.267    4826.3182 
   98100    288.84166    42.344869    274211.63   -77127.531    7352.7874   -84480.319    4827.1495 
   98150    287.90344   -61.582125    274576.52   -77136.442    7328.9038   -84465.345    4831.7217 
   98200    292.60682     -3.98022    274831.26   -77151.219    7448.6337   -84599.853    4835.4106 
   98250    289.10589   -201.30022    274853.43   -77136.348    7359.5136   -84495.862    4834.5358 
   98300    285.69355   -329.63774    274764.34   -77177.834    7272.6487   -84450.483    4836.3555 
   98350    284.64592    71.203848    274331.93   -77180.671      7245.98   -84426.651    4829.8043 
   98400    287.21625    19.737645    274358.01   -77148.404    7311.4107   -84459.815    4829.3647 
   98450    292.11751    188.61875    274706.85   -77115.649    7436.1777   -84551.826    4834.9598 
   98500    288.32499    61.786384    275164.37   -77121.642    7339.6349   -84461.277    4839.7393 
   98550    291.40269    170.65572    274959.19    -77158.01    7417.9812   -84575.991    4840.8087 
   98600    287.60686    69.885636    274596.82   -77163.355    7321.3542   -84484.709    4839.9259 
   98650    288.16758    109.22569    274331.57   -77164.218    7335.6279   -84499.846    4840.3469 
   98700    289.81541    73.415612    274402.66   -77148.833    7377.5753   -84526.408    4843.4324 
   98750    285.25199    260.34517    274513.22   -77133.238    7261.4083   -84394.646    4844.0826 
   98800    290.83225   -4.4301097    274815.25   -77134.703      7403.46   -84538.163    4847.3263 
   98850    285.07855   -297.96048    275174.21   -77104.818     7256.993   -84361.811    4849.4325 
   98900    290.14744    89.250131    274803.76   -77118.245    7386.0275   -84504.272    4845.9665 
   98950    291.48287   -45.807668       274305   -77101.458    7420.0222    -84521.48    4840.8896 
   99000    292.58238    160.40668    274025.34   -77091.913    7448.0115   -84539.924    4840.7843 
   99050    290.34845    241.92951    274525.84    -77095.81    7391.1444   -84486.955    4849.2545 
   99100    288.61544   -431.30875    275287.63   -77096.491    7347.0286    -84443.52    4856.7005 
   99150    289.91533   -259.36062    275311.42   -77092.407    7380.1188   -84472.526     4858.508 
   99200    289.22161   -39.292326    274718.85   -77113.853    7362.4594   -84476.313    4851.1688 
   99250    286.56676    172.55395    274065.42   -77128.347    7294.8772   -84423.224    4848.1626 
   99300    286.48685    154.82593    274121.76   -77171.146    7292.8429   -84463.989    4849.7995 
   99350      287.546    218.18163    274472.13    -77180.08    7319.8049   -84499.885    4853.4403 
   99400    290.68612   -167.77412    274767.01   -77167.021      7399.74   -84566.761    4860.9611 
   99450      291.347    125.96957    274620.42   -77171.547    7416.5636   -84588.111    4864.0042 
   99500    287.55706    250.31527    274227.65   -77185.521    7320.0865   -84505.608    4858.2371 
   99550    284.52294    110.62652    274190.46   -77139.834    7242.8494   -84382.683    4857.9137 
   99600    289.16427    238.49235    274532.93   -77138.287    7360.9998   -84499.286    4865.4705 
   99650    287.32425    -39.42447     274933.8   -77137.254    7314.1599   -84451.414    4871.5378 
   99700    287.25328     164.8708    274989.45   -77126.646    7312.3534   -84438.999    4874.1696 
   99750    288.58795    167.93175    274716.22   -77134.308    7346.3289   -84480.637     4873.446 
   99800     288.4601   -141.40692    274550.04    -77130.25    7343.0744   -84473.324    4873.5489 
   99850     293.0099    -76.18176     274270.3   -77121.663    7458.8947   -84580.558    4876.1922 
   99900    289.75265    257.82263    274067.45   -77145.916    7375.9776   -84521.894    4879.6843 
   99950    288.41364    149.19753    274440.13   -77125.367    7341.8917   -84467.259    4888.7336 
  100000     295.5879     101.2387    274797.93   -77089.524    7524.5205   -84614.044    4893.7172 
Loop time of 252.878 on 6 procs for 100000 steps with 8541 atoms

Performance: 341.666 ns/day, 0.070 hours/ns, 395.447 timesteps/s
99.4% CPU use with 6 MPI tasks x no OpenMP threads

MPI task timing breakdown:
Section |  min time  |  avg time  |  max time  |%varavg| %total
---------------------------------------------------------------
Pair    | 71.567     | 130.29     | 199.68     | 461.2 | 51.52
Neigh   | 30.576     | 35.9       | 39.703     |  63.8 | 14.20
Comm    | 7.3263     | 80.52      | 144.56     | 625.9 | 31.84
Output  | 0.13474    | 0.13695    | 0.14446    |   0.9 |  0.05
Modify  | 5.005      | 5.0584     | 5.1526     |   2.0 |  2.00
Other   |            | 0.9712     |            |       |  0.38

Nlocal:        1423.50 ave        1445 max        1393 min
Histogram: 2 0 0 0 0 1 0 0 0 3
Nghost:        2085.33 ave        2105 max        2070 min
Histogram: 2 1 0 0 0 1 0 0 0 2
Neighs:        0.00000 ave           0 max           0 min
Histogram: 6 0 0 0 0 0 0 0 0 0
FullNghs:      39914.3 ave       40720 max       39526 min
Histogram: 2 0 1 1 1 0 0 0 0 1

Total # of neighbors = 239486
Ave neighs/atom = 28.039574
Neighbor list builds = 20657
Dangerous builds = 0

# Create data file for import to other simulations
#
write_data data.${NAME}
write_data data.coexist_290K_1atm_ML
System init for write_data ...

Total wall time: 0:04:12
