
# Create simulation box of size 50 x 50 x 50 Angstrom
#
lattice	            sc 1
Lattice spacing in x,y,z = 1.0000000 1.0000000 1.0000000
region 	            all block 0 ${X} ${YZ_LO} ${YZ_HI} ${YZ_LO} ${YZ_HI} units box
region 	            all block 0 53.4 ${YZ_LO} ${YZ_HI} ${YZ_LO} ${YZ_HI} units box
region 	            all block 0 53.4 -0.016333198385844128.0 ${YZ_HI} ${YZ_LO} ${YZ_HI} units box
region 	            all block 0 53.4 -0.016333198385844128.0 50.923453198383974.0 ${YZ_LO} ${YZ_HI} units box
region 	            all block 0 53.4 -0.016333198385844128.0 50.923453198383974.0 -0.016333198385844128.0 ${YZ_HI} units box
region 	            all block 0 53.4 -0.016333198385844128.0 50.923453198383974.0 -0.016333198385844128.0 50.923453198383974.0 units box
create_box          1 all
Created orthogonal box = (0.0000000 -0.016333198 -0.016333198) to (53.400000 50.923453 50.923453)
  3 by 1 by 2 MPI processor grid

# fill box with 4175 randomly distributed atoms
#
create_atoms        1 random 4608 63782 all
Created 4608 atoms
  create_atoms CPU = 0.001 seconds
mass                1 18.015

# Define potential
#
pair_style          sw
pair_coeff          * * /data/emrosky-sim/Freezing_Simulations/Melting/MLmW_fancy/ML_mW.sw mW
Reading sw potential file /data/emrosky-sim/Freezing_Simulations/Melting/MLmW_fancy/ML_mW.sw with DATE: 2019-02-27

# Run minimization
#
minimize            1.0e-8 1.0e-8 10000 1000
WARNING: Using 'neigh_modify every 1 delay 0 check yes' setting during minimization (../min.cpp:187)
Neighbor list info ...
  update every 1 steps, delay 0 steps, check yes
  max neighbors/atom: 2000, page size: 100000
  master list distance cutoff = 6.0032907
  ghost atom cutoff = 6.0032907
  binsize = 3.0016454, bins = 18 17 17
  1 neighbor lists, perpetual/occasional/extra = 1 0 0
  (1) pair sw, perpetual
      attributes: full, newton on
      pair build: full/bin/atomonly
      stencil: full/bin/3d
      bin: standard
Per MPI rank memory allocation (min/avg/max) = 4.234 | 4.248 | 4.253 Mbytes
Step Temp E_pair E_mol TotEng Press 
       0            0    7251086.1            0    7251086.1    4973800.4 
     642            0    -49788.98            0    -49788.98   -310.95007 
Loop time of 1.23101 on 6 procs for 642 steps with 4608 atoms

99.4% CPU use with 6 MPI tasks x no OpenMP threads

Minimization stats:
  Stopping criterion = max force evaluations
  Energy initial, next-to-last, final = 
       7251086.0630474  -49788.5669203674  -49788.9798466646
  Force two-norm initial, final = 1.6667811e+08 4.8604118
  Force max component initial, final = 88631033.0 1.1006050
  Final line search alpha, max atom move = 0.048177018 0.053023868
  Iterations, force evaluations = 642 1000

MPI task timing breakdown:
Section |  min time  |  avg time  |  max time  |%varavg| %total
---------------------------------------------------------------
Pair    | 0.9629     | 1.0654     | 1.1347     |   5.7 | 86.55
Neigh   | 0.025106   | 0.026119   | 0.027434   |   0.5 |  2.12
Comm    | 0.047984   | 0.11836    | 0.22113    |  17.3 |  9.61
Output  | 0          | 0          | 0          |   0.0 |  0.00
Modify  | 0          | 0          | 0          |   0.0 |  0.00
Other   |            | 0.02112    |            |       |  1.72

Nlocal:        768.000 ave         778 max         758 min
Histogram: 1 1 0 1 0 0 0 1 1 1
Nghost:        1570.33 ave        1598 max        1550 min
Histogram: 1 0 1 2 0 1 0 0 0 1
Neighs:        0.00000 ave           0 max           0 min
Histogram: 6 0 0 0 0 0 0 0 0 0
FullNghs:      21938.3 ave       22548 max       21281 min
Histogram: 1 0 1 1 0 0 0 2 0 1

Total # of neighbors = 131630
Ave neighs/atom = 28.565538
Neighbor list builds = 25
Dangerous builds = 0

# Add velocity/set timestep
#
velocity            all create ${TEMP} 120598 rot yes dist gaussian
velocity            all create 290 120598 rot yes dist gaussian
timestep            5.0

# Define output
#
compute	            1 all msd
thermo	            100
thermo_style        custom step temp press vol etotal ke pe c_1[4] density

# Neighbor lists
#
neigh_modify        delay 0 every 1 check yes

# Set fixes
#
fix                 1 all momentum 10 linear 1 1 1 rescale
fix                 2 all nve
fix                 3 all temp/csvr ${TEMP} ${TEMP} 500.0 928347
fix                 3 all temp/csvr 290 ${TEMP} 500.0 928347
fix                 3 all temp/csvr 290 290 500.0 928347
fix                 4 all press/berendsen iso ${PRES} ${PRES} 1000.0 modulus 20000
fix                 4 all press/berendsen iso 1 ${PRES} 1000.0 modulus 20000
fix                 4 all press/berendsen iso 1 1 1000.0 modulus 20000

# Run 0.5 ns equilibration
#
dump                1 all custom 1000 eq.${NAME}.dump id type x y z vx vy vz
dump                1 all custom 1000 eq.liq_290K_1atm_ML.dump id type x y z vx vy vz
run                 100000
Per MPI rank memory allocation (min/avg/max) = 3.485 | 3.499 | 3.503 Mbytes
Step Temp Press Volume TotEng KinEng PotEng c_1[4] Density 
     642          290    1002.8457    138565.62   -45806.528    3982.4517    -49788.98 1.2089306e-35   0.99481036 
     700    177.95806   -105.61776       139034   -44766.622    2443.8254   -47210.447    0.3235084   0.99145904 
     800    216.71262     61.91823    139147.11   -43552.669    2976.0259   -46528.695    0.8656178   0.99065308 
     900    245.78859   -7.0949732    139145.47   -42840.389    3375.3144   -46215.704    1.4528513   0.99066479 
    1000    259.63393   -3.9945337    138964.09    -42338.36    3565.4468   -45903.806    2.2511185   0.99195784 
    1100    269.92449   -272.24961    139049.74   -41961.156    3706.7629   -45667.919    3.0815331   0.99134682 
    1200    279.76626    222.01563    138995.82   -41668.422    3841.9158   -45510.338    3.9935212   0.99173135 
    1300    277.82701   -75.140556     138783.3   -41508.405     3815.285    -45323.69    4.8915534      0.99325 
    1400    284.60787   -68.517054     138424.3   -41345.301    3908.4037   -45253.705    5.7754558   0.99582601 
    1500    286.71603   -59.894592    138632.32   -41264.158    3937.3543   -45201.512    6.8255229   0.99433177 
    1600    286.88119   -70.493811    138351.49   -41248.307    3939.6223   -45187.929    7.9495821   0.99635004 
    1700    285.16956   -99.508174    138264.35   -41223.626    3916.1172   -45139.744    9.0678074   0.99697798 
    1800    287.72237    47.493141    138459.71   -41189.698    3951.1739   -45140.872    10.317931   0.99557132 
    1900    293.20989    114.85203    138352.99   -41109.941    4026.5317   -45136.473    11.510412   0.99633927 
    2000    294.88903   -112.88743    138212.18   -41140.519    4049.5907    -45190.11    12.700141   0.99735433 
    2100    286.27164   -60.362576    138189.87    -41250.79    3931.2516   -45182.041    13.971651   0.99751533 
    2200    290.62089    69.021759    138138.52   -41164.235    3990.9781   -45155.213    15.260784   0.99788615 
    2300    287.23152   -29.318339    138172.62   -41140.269    3944.4332   -45084.702    16.518597    0.9976399 
    2400    289.33374    123.69729    137811.32   -41153.528    3973.3022    -45126.83     17.71391    1.0002554 
    2500    288.49731    47.100233    137898.51   -41085.841    3961.8158   -45047.657    18.924637   0.99962299 
    2600    293.28023   -77.476225    137926.14   -41009.685    4027.4977   -45037.183    20.332522   0.99942268 
    2700    291.88433    35.563059    137847.94   -41109.532    4008.3284    -45117.86    21.501129    0.9999897 
    2800    291.50265   -156.53591    137932.99   -41144.066     4003.087   -45147.153    22.624026   0.99937308 
    2900    290.56917    272.11591    137890.61   -41071.548    3990.2678   -45061.815    23.540101    0.9996802 
    3000    291.33062   -159.24187    137897.83   -41050.387    4000.7245   -45051.112    24.764266   0.99962786 
    3100    293.43873    -96.27692    137872.57   -41001.221    4029.6743   -45030.895    25.806775     0.999811 
    3200    293.54054    26.229321    137842.14   -40995.161    4031.0724   -45026.234    26.978848    1.0000318 
    3300    292.01126   -55.966907    137744.97   -41052.691    4010.0715   -45062.763    28.112229    1.0007372 
    3400    289.98084    181.42582    137789.84   -41066.518    3982.1885   -45048.707    29.391362    1.0004114 
    3500    296.35048   -167.09867    137898.28   -40970.812    4069.6602   -45040.473    30.598869   0.99962461 
    3600    289.68934   -33.486752    137984.96   -41060.452    3978.1855   -45038.638    31.763616    0.9989967 
    3700    296.74588    95.441653     138172.8   -41064.685    4075.0901   -45139.775    32.806495   0.99763859 
    3800     286.3934    183.18561    138110.67   -41115.294    3932.9236   -45048.217    33.970846   0.99808738 
    3900    283.22087    48.199449    138130.93   -41240.959    3889.3567   -45130.315    35.286016   0.99794095 
    4000    285.78003   -3.7240208     137956.2   -41202.072    3924.5005   -45126.573    36.591033   0.99920491 
    4100    284.51754   -25.591567    137998.15    -41145.55    3907.1633   -45052.713    37.596182   0.99890122 
    4200    295.36744   -169.13034    137828.64   -41138.643    4056.1605   -45194.803     38.57101    1.0001297 
    4300    284.29264    2.2656428    137531.44   -41195.439    3904.0748   -45099.514    39.596979    1.0022909 
    4400    292.87467    76.759884    137673.82    -41135.62    4021.9283   -45157.548    40.878414    1.0012544 
    4500    293.16272    188.40412    137957.81   -41085.158     4025.884   -45111.042    42.202274   0.99919328 
    4600    292.99562    138.92111    138280.41    -41157.42    4023.5893   -45181.009    43.303344   0.99686221 
    4700    285.70097   -76.542645    138388.89   -41225.213    3923.4148   -45148.628    44.154575   0.99608079 
    4800    285.79889    39.803909    138315.98   -41148.897    3924.7595   -45073.657    45.225148   0.99660587 
    4900    285.83028   -58.495135    138173.64   -41215.611    3925.1906   -45140.802    46.505731   0.99763254 
    5000    290.64714    209.76713    138242.19   -41087.303    3991.3386   -45078.642    47.719278   0.99713785 
    5100    288.73212   -65.967055    138141.88    -41158.54    3965.0404    -45123.58    48.578271   0.99786187 
    5200    287.70138   -64.520267    137917.23   -41239.067    3950.8856   -45189.953    49.873098   0.99948726 
    5300    291.54239   -218.96602     138191.6    -41176.33    4003.6326   -45179.963    51.067026   0.99750284 
    5400    296.70009   -178.85408    138422.35    -41089.56    4074.4612   -45164.021    52.245984   0.99584002 
    5500    292.11497    293.91914    138473.22   -41078.172    4011.4956   -45089.667    53.655079   0.99547418 
    5600     298.2127    -14.91677    138218.12   -41044.575    4095.2333   -45139.808    55.022432   0.99731146 
    5700    292.80306    38.661624    138166.37    -41074.12     4020.945   -45095.065    56.192262   0.99768505 
    5800    293.16112    73.011002    138442.52   -41013.891     4025.862   -45039.753    56.918996   0.99569495 
    5900    290.37817    26.854549    138006.63   -41191.839    3987.6449   -45179.484    57.804842   0.99883984 
    6000    283.98187    347.28939     138293.5   -41209.126    3899.8072   -45108.933     59.15369   0.99676788 
    6100    289.30787    182.72691    138157.47   -41149.529     3972.947   -45122.476    60.227135   0.99774929 
    6200    289.06341    76.078436    138405.09    -41234.99    3969.5898    -45204.58     61.15032    0.9959642 
    6300    290.08314    52.949679    138641.62   -41160.077    3983.5934    -45143.67    62.506564   0.99426505 
    6400    289.87558   -203.56567    138710.08    -41146.39    3980.7431   -45127.133    63.926908   0.99377433 
    6500    291.18086   -78.193176    138552.83   -41142.331    3998.6679   -45140.999    65.212937   0.99490223 
    6600    288.07073   -61.978858    138598.29   -41197.035    3955.9578   -45152.993    66.282437   0.99457589 
    6700    282.50688   -529.29645    138252.76    -41248.55    3879.5517   -45128.102    67.267421   0.99706159 
    6800     285.6509   -30.758145    138065.77   -41228.654    3922.7273   -45151.381    68.422643   0.99841193 
    6900    290.75855    297.90752     138265.4   -41143.629    3992.8685   -45136.498    69.455542   0.99697045 
    7000    288.53125    81.672976    138484.64   -41099.425    3962.2819   -45061.707    70.512947   0.99539207 
    7100    291.49309   -78.326154    138722.42   -41181.637    4002.9557   -45184.593     71.84947   0.99368596 
    7200     285.9777    222.50145    138795.16   -41261.451     3927.215   -45188.666    72.762877   0.99316516 
    7300    287.58976    45.292618    138822.19   -41228.757    3949.3528    -45178.11    73.930209   0.99297179 
    7400    288.81076    49.740806    138833.67   -41250.779    3966.1203   -45216.899     75.08074   0.99288966 
    7500    289.48435   -1.8535544    138894.91   -41175.323    3975.3704   -45150.694    76.350848   0.99245188 
    7600    283.43626    4.8408621    138455.98   -41154.136    3892.3144    -45046.45    77.111186   0.99559818 
    7700    287.19085   -57.773533    138327.88   -41199.436    3943.8747   -45143.311     78.11352   0.99652016 
    7800     287.6241   -204.02861    138065.44   -41206.246    3949.8243   -45156.071    78.867633   0.99841438 
    7900     283.7769   -134.21363    138055.69   -41318.488    3896.9923   -45215.481    79.827895   0.99848483 
    8000    291.23761     32.53047    137956.73   -41212.391    3999.4473   -45211.838    80.704072   0.99920114 
    8100    291.71475    44.818921    138007.83   -41110.456    4005.9996   -45116.455    81.483714   0.99883112 
    8200    289.60999   -61.469737     137814.6   -41178.488    3977.0958   -45155.583    82.151991    1.0002316 
    8300    291.35236    54.174436    138082.94   -41126.657    4001.0231    -45127.68    83.076303   0.99828782 
    8400    281.90609   -5.3159011    138040.97   -41166.689    3871.3013    -45037.99    83.957905   0.99859137 
    8500    285.64432    113.20042    137983.44   -41178.438    3922.6369   -45101.075    85.332298   0.99900767 
    8600    291.99134    10.482083    138044.26   -41087.533    4009.7978   -45097.331    86.540425   0.99856754 
    8700    292.67169    101.80517    137947.28   -41089.536    4019.1409   -45108.677    87.590712   0.99926955 
    8800     292.8849    278.02873     138097.5    -41077.56    4022.0689   -45099.629    88.751383   0.99818255 
    8900    291.53956   -85.310096    138186.29   -41090.708    4003.5938   -45094.302    90.112594   0.99754122 
    9000    292.22588   -87.671379    138293.63   -41002.167    4013.0188   -45015.186    91.385302   0.99676694 
    9100    290.12565   -280.63169    138223.56   -41061.277    3984.1772   -45045.455    92.380877   0.99727222 
    9200    289.62431    75.512095    137974.13   -41108.555    3977.2924   -45085.847    93.618237   0.99907513 
    9300    292.08775   -36.106509    138266.89   -41065.178    4011.1219     -45076.3    94.623764   0.99695972 
    9400    286.83079   -161.58217    138147.65   -41093.949    3938.9302   -45032.879    95.939243    0.9978202 
    9500    290.83324    249.51603    138064.74   -41137.625    3993.8941   -45131.519    97.505455   0.99841941 
    9600    292.47967   -127.78161    137824.18   -41174.733     4016.504   -45191.237    98.945989    1.0001621 
    9700    288.31127    10.361445    137778.31   -41163.269     3959.261    -45122.53    99.847767    1.0004951 
    9800    286.62138    124.12501    137846.88   -41064.854    3936.0544   -45000.908     101.0806   0.99999739 
    9900    291.61979   -100.70355    138215.11    -41132.11    4004.6956   -45136.806     102.5875   0.99733318 
   10000    291.65123   -10.686216    138186.16   -41216.822    4005.1274   -45221.949    103.96057   0.99754215 
   10100    287.14176    -75.69954    138148.68   -41214.119    3943.2005    -45157.32    105.11465   0.99781275 
   10200    285.61162   -91.350415     138373.4   -41239.847    3922.1878   -45162.035    105.69294    0.9961923 
   10300    288.48092    134.85372    138333.21   -41143.129    3961.5908    -45104.72    106.72028   0.99648175 
   10400     290.9854    203.00993    138513.23   -41046.008    3995.9837   -45041.991    107.92495   0.99518667 
   10500    292.02917    202.73311    138537.57   -41080.069    4010.3175   -45090.386    108.89049   0.99501177 
   10600    298.33794   -95.486288    138305.45   -41084.507    4096.9532    -45181.46    110.17682   0.99668176 
   10700     295.7218   -79.557673    138104.71    -41124.71    4061.0268   -45185.737    111.53324   0.99813042 
   10800    294.65651     73.53778    138235.52   -41031.787    4046.3976   -45078.184    113.06499   0.99718591 
   10900    291.96342   -195.27186    138267.04   -41005.272    4009.4145   -45014.686     114.1324   0.99695862 
   11000    294.42593   -63.383867    137842.66   -40992.878    4043.2311   -45036.109    115.66278     1.000028 
   11100     293.7643    40.308334    137829.18   -41093.993    4034.1452   -45128.138    117.21109    1.0001258 
   11200    295.87092    156.41251     137929.9   -41058.768    4063.0745   -45121.842    118.38255    0.9993955 
   11300    288.67656    117.00473    137825.69   -41121.064    3964.2774   -45085.341    119.85682    1.0001511 
   11400    284.86371    77.418603    137946.34   -41161.942    3911.9171   -45073.859    121.19675   0.99927637 
   11500    287.67146    74.671863    137840.02   -41275.559    3950.4747   -45226.034    122.14764    1.0000471 
   11600    283.95924    79.076439    137932.12   -41279.445    3899.4963   -45178.941    123.22712   0.99937937 
   11700     288.5016    102.23241    137924.43   -41205.472    3961.8747   -45167.347    124.33708   0.99943507 
   11800    282.89763    139.76883    138050.44   -41199.587    3884.9177   -45084.505    125.58634    0.9985228 
   11900    283.44748    100.88435    138112.54   -41247.685    3892.4686   -45140.153    126.73954   0.99807387 
   12000    291.70376    409.98031    138281.48    -41221.13    4005.8487   -45226.979    127.94168   0.99685454 
   12100     294.7034   -75.440053    138192.92   -41123.154    4047.0415   -45170.195    129.10504   0.99749331 
   12200    297.38809    107.68027    138333.93   -41033.692    4083.9093   -45117.602    129.99889   0.99647655 
   12300    298.48821   -186.66834    138403.58   -40990.924    4099.0168   -45089.941    131.09795   0.99597507 
   12400    291.85697   -84.336737    138341.91   -40970.842    4007.9527   -44978.795     132.4513   0.99641908 
   12500    293.13816    87.358446    138258.06   -41029.763    4025.5467    -45055.31    133.64142   0.99702337 
   12600     293.4516    26.521666     138411.5   -41017.206     4029.851   -45047.057    134.91493    0.9959181 
   12700     288.0386   -143.62933    138288.35   -41052.389    3955.5166   -45007.906    135.78613   0.99680495 
   12800    288.09802   -167.60167    138501.35   -41080.403    3956.3325   -45036.735      136.837   0.99527204 
   12900    289.24616    61.122299    138440.65   -41143.658    3972.0995   -45115.757    138.04353   0.99570842 
   13000    289.67289   -55.575514    138584.55   -41135.168    3977.9596   -45113.128    139.36875    0.9946745 
   13100    290.63074   -16.874461    138224.05   -41108.246    3991.1133   -45099.359    140.17691   0.99726866 
   13200    292.94778   -20.614936    138630.47   -41002.095    4022.9323   -45025.027    141.75803   0.99434499 
   13300    293.09812    157.11957    138529.61   -41002.748    4024.9969   -45027.745    143.58249   0.99506896 
   13400    292.95423   -48.623374    138459.35   -41061.033    4023.0209   -45084.053    145.01099   0.99557392 
   13500     290.7244   -13.439746     138336.2   -41115.133    3992.3996   -45107.533    146.01492   0.99646018 
   13600    286.43635    66.297755    138277.76   -41185.278    3933.5134   -45118.792    147.19473   0.99688133 
   13700    286.20504   -153.28177    138270.27   -41188.304     3930.337   -45118.641    148.20166   0.99693535 
   13800    288.19669     72.43491    138126.24   -41253.194    3957.6875   -45210.881    149.10119   0.99797489 
   13900    287.46146   -108.96441    138417.03   -41194.622     3947.591   -45142.213    150.62797   0.99587828 
   14000    285.83811    170.99257    138143.83   -41273.729    3925.2981   -45199.027      151.715   0.99784777 
   14100     290.1197    -96.11399    138095.35   -41165.475    3984.0955   -45149.571    152.56469   0.99819812 
   14200    287.13484   -9.1290544     137872.1   -41164.618    3943.1056   -45107.724    153.52615   0.99981446 
   14300    284.47924   -115.00132    137844.43   -41228.431    3906.6373   -45135.069    154.69095    1.0000151 
   14400    291.31161    243.89605    137819.65   -41153.823    4000.4635   -45154.287    155.97323    1.0001949 
   14500    288.78635   -137.04774       137997   -41194.077    3965.7852   -45159.862    157.24127   0.99890949 
   14600     292.7734   -45.464521    137887.61   -41062.661    4020.5376   -45083.198    158.40954   0.99970195 
   14700     291.2475    36.931344    137873.29   -41136.759    3999.5831   -45136.342    159.96087   0.99980585 
   14800     293.7751   -53.481845     138327.3   -41138.551    4034.2935   -45172.845    161.28204   0.99652429 
   14900    290.84431   -151.18301    138310.41   -41098.962    3994.0462   -45093.008    162.82293   0.99664601 
   15000    293.45151    75.352213    138296.54   -41197.359    4029.8498   -45227.209    163.80621   0.99674593 
   15100    289.88263    172.05701    138421.07   -41196.975    3980.8398   -45177.815    165.06693   0.99584922 
   15200    288.63842    2.0295477    138446.61   -41230.458    3963.7536   -45194.212     165.9666   0.99566552 
   15300    290.27856   -81.746065    138583.11   -41154.523     3986.277     -45140.8    167.56332    0.9946848 
   15400    290.04865     31.63168    138642.07   -41060.849    3983.1198   -45043.969    168.63261   0.99426182 
   15500    288.72808   -136.43659    138284.98   -41129.179    3964.9849   -45094.164    169.31569    0.9968293 
   15600    292.10626    92.284126    137998.73   -41172.638     4011.376   -45184.014    170.17235   0.99889699 
   15700    287.44398   -130.01244    137871.91    -41178.28    3947.3508   -45125.631     170.7618   0.99981585 
   15800    291.73352    104.30696     137629.6   -41144.912    4006.2574   -45151.169    171.55232    1.0015761 
   15900    290.41899     243.7658    137742.71   -41161.404    3988.2055    -45149.61    172.78526    1.0007537 
   16000    285.22133     174.2418     138244.6   -41213.353    3916.8281   -45130.181     174.2053   0.99712041 
   16100    288.00786    133.94357    138245.15   -41176.572    3955.0944   -45131.666     174.8798   0.99711646 
   16200    293.14115   -172.00697    138390.28   -41025.319    4025.5878   -45050.907    176.15298   0.99607081 
   16300    294.20844    150.15584    138237.29   -40981.725    4040.2444   -45021.969    176.83547    0.9971732 
   16400     294.6008   -141.06383    138557.29   -40953.905    4045.6326   -44999.538     178.0721   0.99487021 
   16500    293.52614   -331.41813    138208.24   -40986.665    4030.8747    -45017.54    179.54213   0.99738276 
   16600    291.35019   -48.967337    138078.38   -41031.262    4000.9933   -45032.256     181.0003   0.99832081 
   16700     295.1237    21.413084    138126.71   -41105.596    4052.8134   -45158.409    182.17659   0.99797149 
   16800     293.3193   -116.14082    138190.42    -41041.17    4028.0342   -45069.204    183.37599   0.99751142 
   16900    287.04816    118.55859    137884.02   -41142.698    3941.9152   -45084.613    184.37506   0.99972798 
   17000    290.30272   -174.40243    137850.79   -41123.846    3986.6088   -45110.455    185.94266   0.99996897 
   17100    294.18321    379.39501    138271.25   -41075.607    4039.8979   -45115.505    187.01965   0.99692828 
   17200    293.74288   -68.867217    138668.13   -41033.222    4033.8511   -45067.073    188.56397   0.99407495 
   17300    290.21196    155.15668    138667.68    -41087.34    3985.3625   -45072.703      189.641   0.99407819 
   17400    287.50073   -74.690696    138619.58   -41119.997    3948.1302   -45068.127    190.15042   0.99442315 
   17500    295.09397   -181.66381    138604.34    -41138.34     4052.405   -45190.745    190.99097   0.99453245 
   17600    297.84301   -185.87118       138677   -41167.108    4090.1564   -45257.264    192.04513   0.99401136 
   17700    286.60561    132.12713    138495.36   -41156.681    3935.8379   -45092.519    193.37871   0.99531507 
   17800     287.6804    173.10779    138619.06   -41209.931    3950.5975   -45160.529     194.8915   0.99442683 
   17900    291.74279    -25.19453    138643.56   -41214.523    4006.3846   -45220.908    196.24537    0.9942511 
   18000    285.93682    291.55124    138495.46   -41307.083    3926.6537   -45233.736    197.07919   0.99531433 
   18100     291.5872   -189.64189    138574.37   -41261.321     4004.248   -45265.569     198.5705   0.99474757 
   18200    288.96793    74.441895    138552.68   -41201.295    3968.2786   -45169.574    200.09355   0.99490328 
   18300    287.78972   -168.38474     138452.7   -41222.412    3952.0988   -45174.511    201.06006   0.99562172 
   18400    288.97461   -17.925188    138322.47   -41256.777    3968.3704   -45225.147    202.26526   0.99655908 
   18500    293.84014   -140.06875    138194.12   -41185.433    4035.1867   -45220.619    203.23545   0.99748468 
   18600    289.52632    6.5848452    138336.37   -41175.789    3975.9468   -45151.736    204.63165   0.99645898 
   18700    288.08389    47.620573    138374.65   -41077.787    3956.1385   -45033.925     206.3494    0.9961833 
   18800    288.32609   -178.27206    137831.33   -41163.099    3959.4646   -45122.563    207.00755    1.0001102 
   18900    289.21042   -87.320112    138092.12   -41165.248    3971.6087   -45136.857    208.81227   0.99822144 
   19000    285.91434   -33.447579    138347.13   -41140.706    3926.3449   -45067.051    210.71338   0.99638151 
   19100    291.00112   -69.319583    137970.11   -41185.369    3996.1996   -45181.569    210.90939   0.99910424 
   19200    286.94171    49.321836    137888.84   -41166.766    3940.4535    -45107.22     212.3786    0.9996931 
   19300    295.44348    342.93861    138101.68   -41129.418    4057.2048   -45186.623    214.33262   0.99815238 
   19400    285.72041   -140.62597    138138.05   -41220.798    3923.6819    -45144.48    215.87602   0.99788955 
   19500    295.47809   -138.27855    138051.56   -41165.631      4057.68   -45223.311    216.71043   0.99851473 
   19600    284.67319    28.429295    137676.34   -41116.208    3909.3008   -45025.509    217.20635     1.001236 
   19700    291.93286   -104.70333    137637.39    -41065.44    4008.9949   -45074.434    218.43568    1.0015194 
   19800    287.60655    65.653099    137608.65   -41086.057    3949.5833    -45035.64    219.63429    1.0017286 
   19900    293.53115   -50.380721    137762.77   -40993.007    4030.9434    -45023.95    220.48634    1.0006079 
   20000    293.45537   -122.02116    138020.98   -40997.186    4029.9028   -45027.089    222.20512   0.99873593 
   20100    291.84609    151.98169    138111.51   -40996.409    4007.8032   -45004.212    223.87027   0.99808133 
   20200    295.53165  -0.50098841     138454.5   -40959.386    4058.4156   -45017.802    225.54894   0.99560878 
   20300    295.26149    28.869673    138595.38   -40963.517    4054.7055   -45018.223     227.0396   0.99459678 
   20400    288.94151    121.63049    138686.38   -41037.932    3967.9159   -45005.848    228.75696   0.99394415 
   20500    289.53587   -64.689006    138422.51   -41009.333     3976.078   -44985.411    230.03187   0.99583885 
   20600     292.8188    42.903348    138496.73   -41062.678    4021.1611   -45083.839    231.44642    0.9953052 
   20700    283.42737    24.531429    138312.66   -41179.281    3892.1924   -45071.473    232.72892   0.99662978 
   20800    288.09674    35.241577    138039.48   -41218.581     3956.315   -45174.896    233.15727   0.99860209 
   20900    291.00414    10.768095    138270.74   -41133.497    3996.2411   -45129.738    235.18582   0.99693195 
   21000    293.29948    296.01744     138312.9    -41087.26    4027.7621   -45115.022    235.78616   0.99662808 
   21100    283.49051    510.92761     138422.9    -41159.39    3893.0594   -45052.449    236.91609   0.99583605 
   21200    287.08156    26.452769    138594.34   -41194.494    3942.3738   -45136.868    237.89353   0.99460424 
   21300    286.99467   -112.13612    138504.88   -41213.165    3941.1807   -45154.346     238.4055   0.99524661 
   21400    296.28524    96.144923    138597.38   -41118.718    4068.7642   -45187.483    239.88307    0.9945824 
   21500    290.53677     191.9113    138561.12   -41128.366     3989.823   -45118.189    240.62895   0.99484271 
   21600    286.91512   -58.620348     138511.6   -41147.776    3940.0883   -45087.864    241.66458   0.99519837 
   21700    289.05152    128.65932    138353.65   -41071.425    3969.4266   -45040.852    242.81704    0.9963345 
   21800    296.85655    52.825599    138066.74   -41017.637    4076.6099   -45094.247    244.11921   0.99840492 
   21900    293.03914   -257.06764    138298.91   -41013.161     4024.187   -45037.348    246.03112   0.99672885 
   22000    292.71921   -73.283164    138343.52   -41065.191    4019.7935   -45084.984    246.91739   0.99640744 
   22100    294.36444   -165.37731     138396.4   -41035.493    4042.3867    -45077.88    248.64311   0.99602675 
   22200    289.45449    400.08008    138510.23   -40985.894    3974.9604   -44960.855     250.1916   0.99520821 
   22300    292.91388   -43.819934    138392.12   -41044.227    4022.4668   -45066.694    251.40936   0.99605757 
   22400    288.74386    -125.8381    138390.81   -41138.479    3965.2016   -45103.681    252.99258   0.99606699 
   22500    290.96948    2.4326311    138245.22   -41195.839    3995.7651   -45191.604    254.08622   0.99711596 
   22600    288.02876    -194.9084    138389.54   -41202.067    3955.3815   -45157.448    255.44826   0.99607614 
   22700    290.00446   -226.36441    138285.85     -41115.1    3982.5129   -45097.613    256.66548   0.99682301 
   22800     282.8185   -298.39969    137580.51   -41249.545    3883.8311   -45133.376    257.11433    1.0019334 
   22900    290.12373    154.51207    137763.76   -41207.568    3984.1508   -45191.719    258.64765    1.0006007 
   23000    293.26542   -224.27125    137687.69   -41099.773    4027.2944   -45127.068    260.37636    1.0011535 
   23100    291.15947    206.77721    138023.29    -41146.09    3998.3742   -45144.464    262.65508   0.99871926 
   23200    291.60781    5.2854352    138554.62    -41138.98    4004.5311   -45143.511    264.42219   0.99488934 
   23300    288.83576    116.15983    138681.23   -41239.268    3966.4636   -45205.732     266.1151   0.99398109 
   23400    286.14716     58.40153     138461.9   -41156.398    3929.5422    -45085.94    266.78533   0.99555556 
   23500      289.101   -94.947423    138132.96   -41153.761     3970.106   -45123.867    267.04762   0.99792634 
   23600    287.50328   -134.80362    137889.08    -41253.62    3948.1653   -45201.785    267.73849   0.99969133 
   23700    286.93664    21.033386    137966.49   -41250.415    3940.3838   -45190.799    268.89149   0.99913041 
   23800    292.70725   -105.00922     138241.1    -41164.41    4019.6292   -45184.039    270.11941   0.99714571 
   23900    289.45905   -64.380881    138123.42   -41115.959     3975.023   -45090.982     271.2906   0.99799526 
   24000    293.47581    22.892554    138085.26   -41087.945    4030.1835   -45118.128    271.48297   0.99827103 
   24100    292.71232    97.104789    138086.87   -41066.304    4019.6988   -45086.003    272.88063   0.99825939 
   24200     291.3027    59.480038    138244.81    -40965.81    4000.3412   -44966.151     274.4519   0.99711891 
   24300    288.95087    169.11049    137965.42   -41035.101    3968.0444   -45003.146    275.10887   0.99913819 
   24400    289.58259   -18.307033    138328.99   -41008.511    3976.7195    -44985.23    277.01481   0.99651216 
   24500    291.61753   -16.062584    138349.17   -41073.805    4004.6645    -45078.47     278.4826   0.99636679 
   24600    290.65499   -61.612741    138289.18   -41062.298    3991.4464   -45053.744    279.47754   0.99679897 
   24700    290.89697    -91.44601    138260.79   -41084.611    3994.7694   -45079.381    281.10973    0.9970037 
   24800    288.52164     185.2249     138428.1   -41086.295    3962.1499   -45048.445    282.19893   0.99579863 
   24900    288.14518   -192.49688    138348.58   -41101.823    3956.9801   -45058.803    283.64287   0.99637106 
   25000     285.8154   -3.6356731    138312.07   -41153.048    3924.9862   -45078.034    285.23432   0.99663407 
   25100    289.23079   -63.924278       137970   -41166.182    3971.8884   -45138.071    286.57052   0.99910502 
   25200    286.74178     9.952558    138331.94   -41189.179    3937.7078   -45126.887      288.209   0.99649089 
   25300    291.60401     101.7909    138628.68   -41228.276    4004.4789   -45232.755    289.92362   0.99435789 
   25400    288.62357   -136.05448    138354.31   -41182.681    3963.5497   -45146.231    291.00736   0.99632974 
   25500     289.1459   -113.14814    138324.36   -41227.036    3970.7226   -45197.759    291.81027   0.99654547 
   25600    287.94723   -184.88857    138020.26   -41241.602    3954.2618   -45195.864    292.31618   0.99874115 
   25700    288.90566   -198.31175    138111.09   -41257.641    3967.4235   -45225.065    293.71091   0.99808433 
   25800    279.80397    60.948547    137929.13   -41363.419    3842.4338   -45205.853    294.38843   0.99940106 
   25900    281.42607    30.318734    138078.38   -41336.408    3864.7093   -45201.117    295.60729   0.99832081 
   26000    290.41614   -10.321008     138291.9   -41238.061    3988.1663   -45226.228    297.00467   0.99677938 
   26100     290.8535   -222.39345    138164.02   -41222.182    3994.1724   -45216.355    298.06788   0.99770201 
   26200    294.96008   -83.670778    137871.62   -41077.268    4050.5664   -45127.834    299.70748   0.99981791 
   26300    286.54194      37.9952    137835.54   -41155.586    3934.9635    -45090.55    300.87583    1.0000796 
   26400    289.25351    16.139128    137899.48   -41095.529    3972.2004   -45067.729    302.49336   0.99961595 
   26500    296.07825   -90.069498     137891.7   -41005.566    4065.9218   -45071.488    304.04085   0.99967233 
   26600    292.82021   -23.897216    138136.77   -41139.191    4021.1805   -45160.371    305.53746   0.99789877 
   26700     292.0355   -106.22816     138133.6   -41079.469    4010.4043   -45089.873    307.00724   0.99792173 
   26800    289.61584    37.401455    138142.77   -41127.961    3977.1762   -45105.137    307.76367   0.99785543 
   26900    284.17588    58.455296    137926.22   -41231.068    3902.4714   -45133.539    308.41125   0.99942211 
   27000    289.12887    9.7199642    138018.31   -41277.616    3970.4888   -45248.104     309.4451    0.9987553 
   27100    286.68878   -222.44344    137910.34   -41194.832      3936.98   -45131.812    310.35444   0.99953723 
   27200    293.69235    104.02852    138277.51    -41128.82    4033.1571   -45161.977    312.23012   0.99688312 
   27300    293.43538    84.552171    138206.65    -41057.42    4029.6283   -45087.048    313.57864   0.99739423 
   27400    284.78575    113.16305       138282   -41126.545    3910.8465   -45037.391    315.10219   0.99685075 
   27500    294.31549   -93.050461    138186.05   -41144.941    4041.7145   -45186.655    316.29317   0.99754295 
   27600    293.31298   -78.849775     138058.4   -41056.418    4027.9474   -45084.365    317.48927   0.99846524 
   27700    291.05841    54.926635    137783.56   -41095.472    3996.9864   -45092.458    318.12062    1.0004569 
   27800    289.23527   -71.686886    137521.18   -41110.115    3971.9499   -45082.065    319.42097    1.0023657 
   27900    294.39331   -175.02633    137671.07   -40996.291    4042.7832   -45039.074    322.04173    1.0012744 
   28000    292.27066      326.015     137894.2   -40959.719    4013.6337   -44973.352     323.4384   0.99965423 
   28100    286.94552   -132.43644     137832.4    -41047.31    3940.5058   -44987.815    325.17763    1.0001024 
   28200    289.77546   -71.134406    137724.88   -41166.601    3979.3681   -45145.969    326.46676    1.0008832 
   28300    291.41243   -3.6433832    138142.59   -41123.979     4001.848   -45125.827    328.14738   0.99785674 
   28400    289.34502   -55.159858    138035.31   -41034.638    3973.4571   -45008.095     329.0507   0.99863228 
   28500    289.87839   -1.0310877    138081.75   -41144.825    3980.7816   -45125.607    330.87178   0.99829641 
   28600    287.92446   -141.47553    138149.56   -41216.093    3953.9491   -45170.042    332.13184   0.99780644 
   28700    287.81671   -6.0242379    137881.87   -41221.002    3952.4694   -45173.472    333.34989   0.99974357 
   28800    291.95818     -83.6188    137889.83   -41183.297    4009.3426    -45192.64    334.01906    0.9996859 
   28900    290.56407   -56.560295    137796.56   -41218.268    3990.1978   -45208.466    335.02024    1.0003625 
   29000    285.34142    331.80524    137717.87   -41189.306    3918.4772   -45107.784    336.43814    1.0009342 
   29100    288.10596    250.90096     137962.2   -41134.972    3956.4416   -45091.413    337.96012   0.99916145 
   29200    286.25057    36.507424    137878.38   -41184.802    3930.9622   -45115.764    339.47807   0.99976892 
   29300    292.02779    28.247087    137979.88    -41117.94    4010.2984   -45128.238    340.97962   0.99903343 
   29400    290.60204   -170.67903    137872.38   -41195.493    3990.7192   -45186.212    342.15889   0.99981244 
   29500    287.37031    -89.86714     138155.4   -41168.771    3946.3392   -45115.111    344.30529   0.99776426 
   29600    286.82849   -67.890686    137946.63   -41163.046    3938.8986   -45101.945    345.40461   0.99927424 
   29700    290.93858    63.222788    137832.64   -41129.846    3995.3408   -45125.187    346.59365    1.0001007 
   29800    292.42251   -13.525591    138091.69   -41025.936     4015.719   -45041.655    349.15092   0.99822457 
   29900    292.74758   -161.51179    138190.43   -41016.967    4020.1831    -45037.15    350.48767    0.9975113 
   30000    291.49892   -210.95916    138072.98   -41023.299    4003.0357   -45026.335    351.35618   0.99835981 
   30100    295.45489    82.238359    137922.72   -41041.924    4057.3614   -45099.285    352.72598   0.99944751 
   30200    295.01492    -35.37388    137936.73   -41029.481    4051.3195   -45080.801     354.3874   0.99934599 
   30300    289.86401   -70.640526    137826.38   -41111.928    3980.5842   -45092.512    355.07777    1.0001461 
   30400    288.85087    25.116356    137845.99   -41207.223    3966.6712   -45173.894    356.55103    1.0000038 
   30500    289.54079    50.324099    138201.39    -41185.66    3976.1456   -45161.806    357.49433   0.99743217 
   30600    281.65323    104.55164    138104.52   -41255.928    3867.8289   -45123.757    358.34754   0.99813182 
   30700    289.05689    132.48564    138427.45    -41130.12    3969.5002   -45099.621    360.45016   0.99580334 
   30800    291.67942   -249.14503    138309.29    -41112.29    4005.5145   -45117.804    361.69816   0.99665409 
   30900    289.92238   -140.29488    137984.67   -41183.497    3981.3857   -45164.883    362.92959   0.99899878 
   31000    289.79342   -239.09198    137714.34   -41168.788    3979.6148   -45148.403    363.37928    1.0009598 
   31100    287.02101   -12.887222    137638.52    -41308.39    3941.5425   -45249.932    364.41727    1.0015112 
   31200    286.56046    35.922934    137662.54   -41266.633    3935.2179   -45201.851    365.37587    1.0013365 
   31300    286.47115   -46.058996    137836.27   -41250.444    3933.9914   -45184.435    367.05133    1.0000743 
   31400    286.87267   -105.58496    137929.32   -41207.907    3939.5054   -45147.413    368.01106    0.9993997 
   31500    291.79744    88.205524    138029.08   -41077.438    4007.1352   -45084.574    370.18553   0.99867733 
   31600    288.45857   -20.551917    137750.13   -41149.316    3961.2839     -45110.6    371.26922    1.0006997 
   31700     289.6047   -349.44798    137985.59   -41160.418    3977.0232   -45137.441     372.8514   0.99899209 
   31800    290.69902    186.59844    137836.38   -41170.428     3992.051   -45162.479     374.1023    1.0000736 
   31900    296.48785   -42.478345    138211.74   -41055.682    4071.5467   -45127.229    377.48099   0.99735751 
   32000    289.20407   -145.81541    138030.99   -41068.586    3971.5214   -45040.107    378.76066   0.99866356 
   32100    286.69971   -74.223137    137921.99   -41075.716    3937.1302   -45012.846     380.6047   0.99945281 
   32200    291.61783   -56.719681     137899.9   -41106.612    4004.6686   -45111.281    381.40134   0.99961288 
   32300    294.43158   -8.3640578    138243.19   -41073.963    4043.3087   -45117.272    382.95399    0.9971306 
   32400    289.94259   -359.33636    138150.54   -41029.939    3981.6633   -45011.602     383.8952   0.99779936 
   32500      289.385    10.433886    138096.13   -41120.199    3974.0062   -45094.205    384.62783   0.99819248 
   32600    287.94022    119.08601    138294.51   -41169.841    3954.1656   -45124.007    386.70322    0.9967606 
   32700    289.75709    36.708459    138312.81    -41115.15    3979.1158   -45094.266    387.49997    0.9966287 
   32800    289.39249    63.070647    138397.17   -41200.569     3974.109   -45174.678     388.8374   0.99602124 
   32900     287.8112    43.260791    138142.74   -41275.843    3952.3937   -45228.237    389.04365   0.99785566 
   33000    289.61058   -276.32455    137821.67   -41247.663    3977.1039   -45224.767     389.6724    1.0001803 
   33100    294.34514    116.02081    137557.74   -41179.469    4042.1217   -45221.591     390.0653    1.0020993 
   33200    287.78254    307.30562    137653.27   -41128.302    3952.0002   -45080.302    390.66688    1.0014039 
   33300    287.31085   -343.56578    137749.01   -41163.451    3945.5226   -45108.974    392.20484    1.0007079 
   33400    292.28063    188.96979    137839.15   -41129.791    4013.7706   -45143.561    394.29285    1.0000534 
   33500    293.34937   -286.09358    137878.72   -41085.399    4028.4471   -45113.846    396.65552   0.99976641 
   33600    290.08078     258.6932    137988.36    -41076.55    3983.5609   -45060.111    397.78183   0.99897208 
   33700    291.09542    16.591652    138069.92   -41077.325    3997.4945   -45074.819    399.57684   0.99838198 
   33800    287.58037    12.655198    137942.31    -41060.81    3949.2239   -45010.034     399.9522   0.99930558 
   33900    294.82016   -146.24866    137848.01   -41062.234     4048.645   -45110.879    401.31268   0.99998915 
   34000    284.79014   -41.496999    137874.36   -41165.253    3910.9067    -45076.16    401.62434   0.99979806 
   34100     284.8559    92.421537    137942.67   -41209.838    3911.8099   -45121.648    403.46391   0.99930297 
   34200    291.23656    49.702994    138085.95   -41160.331    3999.4328   -45159.764     404.4457   0.99826607 
   34300    292.14015    5.0993429    137971.34   -41130.917    4011.8415   -45142.759       405.84   0.99909532 
   34400     295.3677    150.30707    138054.69   -41008.754     4056.164   -45064.918    406.97511   0.99849207 
   34500    298.24431    129.21087    138307.25   -40992.667    4095.6674   -45088.335    409.93485   0.99666881 
   34600    290.06716   -14.140821    138238.23   -41112.514    3983.3739   -45095.888    411.46196   0.99716637 
   34700    289.83867   -104.62957    138443.13   -41143.886    3980.2361   -45124.122    413.66114   0.99569055 
   34800    290.94724   -295.60093    138131.56   -41145.349    3995.4598   -45140.808    414.53974   0.99793641 
   34900    288.74189   -7.8657101    137953.53   -41122.931    3965.1745   -45088.106    415.86592   0.99922429 
   35000    291.15435    49.174792    138385.81    -41176.38    3998.3038   -45174.683    417.98529   0.99610296 
   35100    289.62105    -96.72962    138232.51   -41058.259    3977.2477   -45035.507    419.58619   0.99720768 
   35200    295.23756    4.2515358    138010.74   -40951.456     4054.377   -45005.833    420.74331   0.99881005 
   35300    289.09647   -103.35466    137764.14   -41051.071    3970.0438   -45021.115    421.82397    1.0005979 
   35400    288.50372   -86.705634    137670.94   -41158.833    3961.9039   -45120.737    423.54602    1.0012753 
   35500    292.79365   -105.92261    137839.56   -41097.835    4020.8157   -45118.651    426.02383    1.0000505 
   35600    286.07999    -95.24979    138203.69   -41123.923    3928.6198   -45052.543    428.87162   0.99741562 
   35700    292.48851    110.87323     138098.8   -41065.353    4016.6254   -45081.978    429.99763    0.9981732 
   35800    291.12658   -29.272295    138093.15   -41052.738    3997.9225   -45050.661    431.72884   0.99821403 
   35900    293.14161    104.29275    138223.35   -41000.249    4025.5941   -45025.843    433.04963   0.99727377 
   36000    292.19294   -30.175714    138236.24   -41014.092    4012.5664   -45026.658    434.76786   0.99718075 
   36100    289.55891    288.55673    138303.64   -41106.843    3976.3943   -45083.237    435.95916    0.9966948 
   36200    291.10676   -66.681444    138059.34   -41058.192    3997.6503   -45055.843     436.8411    0.9984585 
   36300    291.16575    76.133445    138171.15   -41050.512    3998.4604   -45048.972    439.00971   0.99765049 
   36400    297.74378    246.60283    138483.83   -40933.151    4088.7938   -45021.945     440.6187   0.99539791 
   36500    293.40743   -156.95241    138709.82   -40974.756    4029.2444       -45004    443.02454   0.99377623 
   36600    286.89434    40.397731    138614.17   -41061.912    3939.8029   -45001.715    444.24646   0.99446196 
   36700    293.48729    98.159732    138600.76   -41100.851    4030.3412   -45131.192    445.56012   0.99455819 
   36800    288.46132    131.89724    138689.17   -41185.743    3961.3216   -45147.064    447.30411   0.99392416 
   36900    289.78047    97.719596    138596.59   -41189.086    3979.4369   -45168.523    447.88363   0.99458806 
   37000    293.67989   -72.361967    138651.34   -41133.159     4032.986   -45166.146    449.49266   0.99419535 
   37100    289.30234   -324.44146    138502.34   -41167.286     3972.871   -45140.157    450.15717   0.99526489 
   37200    287.83759   -24.177035    138264.09   -41178.489    3952.7561   -45131.245    450.70313   0.99697988 
   37300    289.15003   -15.885302    138304.09   -41177.342    3970.7794   -45148.121    452.16065   0.99669153 
   37400    287.32435    138.21104    138374.08   -41225.841     3945.708   -45171.549    453.52583   0.99618739 
   37500    286.08858    78.235641    138156.35    -41269.28    3928.7377   -45198.018    454.16157   0.99775736 
   37600    281.39597   -94.895382    138221.56   -41255.368     3864.296   -45119.664    455.32398   0.99728665 
   37700    285.58081     -45.3526    137995.87   -41254.423    3921.7647   -45176.188    456.28208   0.99891769 
   37800    294.64855   -153.36907    138141.55   -41238.928    4046.2883   -45285.216    456.89306   0.99786425 
   37900    286.62612   -120.80812    137864.37   -41232.823    3936.1195   -45168.943    457.87639    0.9998705 
   38000    286.57094    53.777726    137845.89   -41239.088    3935.3618    -45174.45     459.1117    1.0000046 
   38100    284.27103    149.89128    137990.18   -41221.926     3903.778   -45125.704    461.82143   0.99895885 
   38200     283.1097   -109.61228    138192.18     -41227.7      3887.83    -45115.53     463.8981   0.99749867 
   38300    281.41687   -108.25911    137929.41    -41242.85    3864.5831   -45107.433    464.34842     0.999399 
   38400    281.41552    -42.58566    137703.45   -41303.915    3864.5645   -45168.479     465.6551    1.0010389 
   38500    289.47942    169.30206    137787.58   -41255.286    3975.3027   -45230.589    467.24484    1.0004278 
   38600    288.13364     78.38948    138150.49   -41156.106    3956.8217   -45112.928      468.539    0.9977997 
   38700    292.47254   -14.436904     138312.4   -41132.675     4016.406   -45149.081    469.95206   0.99663165 
   38800    285.33853   -107.86905    138078.19   -41153.071    3918.4376   -45071.509    470.69952   0.99832214 
   38900    291.02475   -156.98707    137969.97   -41082.807    3996.5241   -45079.331    471.49032   0.99910524 
   39000    291.28696    181.71247    137947.14   -41030.518     4000.125   -45030.643    473.81931    0.9992706 
   39100     284.0012   -146.38827     137806.6   -41124.131    3900.0725   -45024.203    475.41305    1.0002897 
   39200    286.49502    113.94412    137914.73   -41069.239    3934.3192   -45003.558    477.60455   0.99950538 
   39300    289.00933    33.744654    137966.99    -41035.16    3968.8472   -45004.007    478.48346   0.99912682 
   39400    288.16152    155.30699    138406.95   -41059.132    3957.2045   -45016.337    480.55781   0.99595084 
   39500    293.57143   -29.747816       138191   -41016.885    4031.4967   -45048.382    481.58445    0.9975072 
   39600    294.77522    -44.62294    138217.05   -41032.973    4048.0278   -45081.001    482.95886   0.99731919 
   39700    289.78739    219.49036     138175.8   -41081.173    3979.5319   -45060.705    483.94691   0.99761695 
   39800    289.71421    -263.5748    138209.08   -41149.605    3978.5269   -45128.132    485.65783   0.99737672 
   39900    284.94671   -130.39243    137988.91   -41299.635    3913.0569   -45212.692    487.28654    0.9989681 
   40000    293.09784   -204.13865    137875.53   -41204.288     4024.993   -45229.281      488.276    0.9997896 
   40100    288.88009    3.5707687    137646.59   -41159.258    3967.0723   -45126.331    488.79664    1.0014524 
   40200    290.74447    139.14484    137574.47   -41126.224    3992.6752   -45118.899     489.6739    1.0019774 
   40300    286.16954     57.49059    137686.25   -41137.677    3929.8495   -45067.526    491.03027     1.001164 
   40400    283.26917   -111.12116    137749.38   -41194.532    3890.0199   -45084.552    492.38734    1.0007052 
   40500    287.66977     226.1696    137720.63   -41162.571    3950.4515   -45113.022    493.02348    1.0009141 
   40600    290.40102   -10.489816    137838.82   -41152.606    3987.9587   -45140.565     494.4941    1.0000559 
   40700    290.03957   -201.01828    138020.67   -41206.508    3982.9951   -45189.503     495.5959   0.99873822 
   40800    287.19506      160.049    138056.45   -41178.596    3943.9325   -45122.528    496.95838   0.99847936 
   40900    285.31164    161.63119    137854.73     -41195.1    3918.0683   -45113.169     497.7858   0.99994043 
   41000      285.926   -164.83109    138066.75   -41188.812    3926.5051   -45115.317    500.17401   0.99840487 
   41100    288.84908    264.39856     138272.9   -41120.165    3966.6466   -45086.812    501.77346   0.99691639 
   41200    288.94787    -70.61303     138091.7    -41026.97    3968.0032   -44994.973     502.8366   0.99822448 
   41300    290.31405   -349.70631     138113.2   -41160.049    3986.7644   -45146.814      504.581   0.99806911 
   41400    284.64959    158.29205    138214.19   -41119.321    3908.9767   -45028.298    506.48699   0.99733985 
   41500    285.06514     152.3886    138236.03   -41121.538    3914.6833   -45036.221    508.18907   0.99718228 
   41600    290.64412   -95.652024    138307.78   -41120.649    3991.2971   -45111.946    508.93143   0.99666495 
   41700    288.84028   -191.78774    138398.89   -41183.151    3966.5257   -45149.677    510.77787   0.99600881 
   41800    293.61721    129.04343    138408.96   -41049.011    4032.1253   -45081.136    512.26298    0.9959364 
   41900    292.83827   -20.839669    138527.57   -41074.498    4021.4285   -45095.926    513.93537   0.99508359 
   42000    296.05165   -287.03338    138588.41   -41098.526    4065.5565   -45164.082    514.90904    0.9946468 
   42100    293.53632   -238.76128    138237.64   -41112.078    4031.0145   -45143.093    515.96385   0.99717065 
   42200     292.6624   -67.266455    138172.41   -41112.066    4019.0134   -45131.079    516.82873   0.99764139 
   42300    280.88088    154.59332    138278.64   -41211.611    3857.2224   -45068.834    518.59636   0.99687496 
   42400    292.96499   -31.526978    138237.69   -41148.323    4023.1687   -45171.492       520.03   0.99717028 
   42500    288.30709   -29.717128    138475.06   -41221.756    3959.2036    -45180.96    522.75584   0.99546096 
   42600    290.43639   -70.792688    138329.84   -41206.795    3988.4444    -45195.24      522.566   0.99650603 
   42700    284.83423   -126.08046    138644.77   -41307.311    3911.5123   -45218.824    525.01847   0.99424245 
   42800    285.94783   -1.8541833     138073.7   -41290.222    3926.8048   -45217.027     525.2418   0.99835463 
   42900    282.25042   -37.603928    138009.67   -41233.655    3876.0298   -45109.684    526.65982   0.99881779 
   43000    291.22149   -75.470804    137896.55   -41204.569    3999.2259   -45203.795    527.69986   0.99963714 
   43100    286.88684    117.29129    137833.73   -41217.533    3939.6999   -45157.233    529.01808    1.0000928 
   43200    291.33157   -16.270637    137771.27   -41247.757    4000.7375   -45248.494    530.29567    1.0005462 
   43300    289.03658    66.865245    137971.18     -41246.4    3969.2214   -45215.622    533.24313   0.99909647 
   43400     289.4416   -231.77469    137607.88   -41220.928    3974.7834   -45195.712    532.71284    1.0017342 
   43500    290.35131    240.55899    137937.56   -41233.934    3987.2761    -45221.21    534.60059      0.99934 
   43600    285.67348    131.21385    137978.84   -41212.673    3923.0373    -45135.71    535.92189   0.99904097 
   43700    295.01903   -67.687609    137942.25   -41143.159    4051.3759   -45194.535    536.94925   0.99930597 
   43800    286.49585    -21.98078    137916.44   -41129.945    3934.3307   -45064.276    537.65389   0.99949297 
   43900    290.97379    35.989572    138026.66   -41208.048    3995.8243   -45203.873     539.0451   0.99869486 
   44000    290.72305   -73.098167    138043.49   -41143.304     3992.381   -45135.685    540.57948   0.99857313 
   44100    293.76815   -88.251219    137946.97   -41069.457    4034.1981   -45103.655    541.87941   0.99927178 
   44200    292.19326   -55.995806    138068.69   -41158.159    4012.5708    -45170.73    543.26747   0.99839083 
   44300    287.80961   -60.786793    137357.88   -41258.853    3952.3719   -45211.225    542.25946    1.0035574 
   44400    288.46047   -21.780655     137579.5    -41236.85      3961.31    -45198.16    544.79328    1.0019408 
   44500    289.16844    55.717419    138021.62   -41231.119    3971.0322   -45202.151    546.87355   0.99873132 
   44600     286.4205   -139.68752    137803.48   -41286.221    3933.2958   -45219.516    547.36799    1.0003123 
   44700    289.53914    53.818006    138089.24   -41246.273    3976.1228   -45222.395    549.07032   0.99824226 
   44800    287.17988   -47.786394    137928.93   -41228.123    3943.7241   -45171.848     549.4427   0.99940249 
   44900    286.80006   -59.511436    137779.46   -41241.438    3938.5082   -45179.946    550.47373    1.0004867 
   45000    287.91029    60.087263    137703.14   -41208.172    3953.7545   -45161.926    552.19634    1.0010412 
   45100     288.7403    145.88824    137813.45    -41193.94    3965.1526   -45159.093      552.574    1.0002399 
   45200    286.86826    4.3926771    137713.19   -41215.479    3939.4447   -45154.923    553.53408    1.0009681 
   45300    286.28513    97.874369    137497.56    -41192.43    3931.4369   -45123.867    554.80714    1.0025379 
   45400    286.37847    233.36821    137469.28   -41233.739    3932.7187   -45166.458    555.33555    1.0027442 
   45500    283.19718   -60.617101    137791.51   -41131.632    3889.0312   -45020.663    557.88483    1.0003992 
   45600    288.85362   -28.963647    137802.26   -41144.422    3966.7089   -45111.131    558.78356    1.0003211 
   45700    293.90335   -72.781409     138022.7   -41086.749    4036.0547   -45122.804    560.82193   0.99872352 
   45800    290.16633   -154.36321    138180.28   -41121.904    3984.7357   -45106.639    562.41823    0.9975846 
   45900    293.34662   -106.56891    137979.35   -41108.629    4028.4094   -45137.038    562.91898   0.99903733 
   46000    289.43828    68.470859    137869.45   -41150.422    3974.7378    -45125.16    564.42834   0.99983363 
   46100    294.57404   -31.837224    137868.65   -41143.652    4045.2651   -45188.917    564.71811   0.99983948 
   46200     290.8765    -88.09222    137831.55   -41101.443    3994.4882   -45095.931     565.6394    1.0001086 
   46300    295.65577   -178.25532     137740.8   -41160.288      4060.12   -45220.408    566.63981    1.0007675 
   46400    285.07479    179.90786    138021.58   -41155.615    3914.8157   -45070.431    568.60562    0.9987316 
   46500    292.06901    74.452613    137925.25   -41128.572    4010.8645   -45139.437    569.46933   0.99942914 
   46600    294.12949   -52.226859    138199.78   -41029.482    4039.1602   -45068.642    570.72583   0.99744379 
   46700    294.11381    143.37299    138253.13    -41011.61    4038.9449   -45050.555    571.75339   0.99705889 
   46800    296.32984    117.96558    138390.45   -40989.341    4069.3768   -45058.718    573.08559   0.99606959 
   46900    288.62957    215.10907    138503.68   -41047.465    3963.6321   -45011.097    575.16721   0.99525523 
   47000    290.59021   -313.33501    138491.97   -41107.248    3990.5568   -45097.804    576.81067   0.99533945 
   47100    290.90778    14.570021    138215.24   -41114.266    3994.9178   -45109.184    576.39915   0.99733227 
   47200    292.74293    83.417197    138365.46   -41143.748    4020.1192   -45163.868    578.31384   0.99624946 
   47300    294.07901    152.61984    138531.64   -41095.181    4038.4671   -45133.648    580.13283   0.99505442 
   47400    286.15994    90.216129    138849.87   -41112.805    3929.7177   -45042.523    582.20451   0.99277386 
   47500    288.75267    -247.8256    138560.16   -41105.949    3965.3226   -45071.272     582.5583   0.99484955 
   47600    289.07609   -155.46124    138386.39   -41067.036     3969.764     -45036.8    583.05046   0.99609876 
   47700    291.17508   -87.948711    138390.19   -41124.065    3998.5886   -45122.654     584.4336   0.99607144 
   47800    288.43471   -189.25286    138100.82   -41202.624    3960.9562    -45163.58     584.3223   0.99815853 
   47900     289.5253   -64.934628    138179.83   -41167.749    3975.9328   -45143.682    585.42987   0.99758783 
   48000    294.89712    -162.2236    138059.76   -41143.546    4049.7017   -45193.247    585.59784   0.99845545 
   48100     289.2414   -24.458302    138298.42    -41167.45    3972.0341   -45139.484    588.07994   0.99673243 
   48200    287.80776    246.58761    138343.92   -41144.254    3952.3466   -45096.601    589.50205   0.99640459 
   48300    288.87166     39.01766    138216.22   -41151.673    3966.9566   -45118.629    590.52031   0.99732518 
   48400    289.30229   -39.451015    138445.92   -41176.156    3972.8703   -45149.026    592.70112   0.99567049 
   48500    287.74657   -236.90261    138201.45   -41204.879    3951.5063   -45156.386    594.05536   0.99743177 
   48600    288.18529    325.35162    138185.92   -41165.837     3957.531   -45123.368    595.28741   0.99754385 
   48700     285.1073    20.331242     138156.3   -41210.584    3915.2622   -45125.847    596.62915   0.99775777 
   48800    290.86093    67.479796    138141.16   -41166.792    3994.2745   -45161.067    597.73995   0.99786711 
   48900    291.93909    42.171375    138078.02   -41159.214    4009.0805   -45168.294     598.2244   0.99832341 
   49000     288.1789   -147.00809     137947.5   -41145.778    3957.4432   -45103.221     599.7452   0.99926799 
   49100    283.51116    7.9763183    138034.75   -41214.073    3893.3431   -45107.417    600.44324   0.99863636 
   49200    284.31201   -107.38799    138150.83   -41243.734    3904.3408   -45148.075    600.80891   0.99779727 
   49300     287.0405   -243.63101    137933.39   -41184.014    3941.8101   -45125.824    601.13474   0.99937016 
   49400    285.06325    77.698503    138109.65   -41220.622    3914.6573   -45135.279    603.03124   0.99809474 
   49500    286.85604    96.091447    138187.38   -41200.409    3939.2769   -45139.686    604.90876   0.99753331 
   49600    290.36006    45.887936       138228   -41191.115    3987.3962   -45178.511    606.80198   0.99724021 
   49700    286.51893   -61.137124    138346.52   -41146.778    3934.6475   -45081.426    607.84948   0.99638583 
   49800    287.52694   -32.233318    138575.69   -41113.817    3948.4901   -45062.307    609.67016   0.99473811 
   49900    286.69172   -202.48869    138361.05   -41138.704    3937.0204   -45075.724    610.27025   0.99628121 
   50000     287.4531    61.576919    138121.53   -41220.285    3947.4761   -45167.761    611.37385    0.9980089 
   50100    286.92433    306.98228    137894.22    -41199.76    3940.2147   -45139.974    612.32672   0.99965408 
   50200    287.91213    132.27683    138201.23   -41215.593    3953.7798   -45169.373    614.68132   0.99743336 
   50300    288.95201    -103.1344     138183.2   -41168.311      3968.06   -45136.371    616.10675   0.99756353 
   50400    290.01101    14.581279    138356.51   -41201.021    3982.6029   -45183.624    617.57476    0.9963139 
   50500    292.99272   -134.29294    138450.34   -41176.732    4023.5495   -45200.282    618.67685   0.99563868 
   50600    284.18734   -321.19458    138251.91   -41210.241    3902.6287   -45112.869    619.13086   0.99706773 
   50700    285.46076    204.51561    138194.19   -41071.823    3920.1162   -44991.939    620.46362   0.99748415 
   50800    287.53468    62.411814    138224.43   -41083.726    3948.5964   -45032.322    622.30362   0.99726596 
   50900    291.08865    90.359745    138364.14   -41081.608    3997.4016   -45079.009    623.68095   0.99625897 
   51000    294.75103   -46.580983    138323.47    -41133.65    4047.6957   -45181.346    625.10708   0.99655193 
   51100     289.1993   -108.57713    138002.47   -41124.219    3971.4559   -45095.675    625.82948   0.99886992 
   51200    300.09123   -21.153291    138024.59   -40983.373    4121.0304   -45104.403    627.61186   0.99870986 
   51300    289.26602    236.52098    137783.42   -41057.723    3972.3721   -45030.095    627.73968     1.000458 
   51400    286.76152    10.051391    137891.01   -41231.158    3937.9789   -45169.137    628.83563   0.99967733 
   51500    285.01948   -236.40659    138079.37   -41199.769    3914.0562   -45113.826    630.01445    0.9983136 
   51600    289.32684    12.388319    138011.04   -41210.394    3973.2074   -45183.601     630.9082   0.99880786 
   51700    285.56633    247.30731    138258.15   -41197.594    3921.5659    -45119.16    633.00662   0.99702271 
   51800    287.54815    76.302243    138003.55   -41200.274    3948.7814   -45149.055    632.76503   0.99886212 
   51900     288.0494   -15.638446    137890.05   -41259.677    3955.6649   -45215.342    633.44203   0.99968427 
   52000    288.84518   -61.798892    137870.01   -41226.586     3966.593   -45193.179    634.53904    0.9998296 
   52100    281.78742    244.13076    138016.23   -41247.642    3869.6717   -45117.313    635.07046   0.99877034 
   52200    291.43683   -53.769623     138084.1   -41245.241    4002.1831   -45247.424    635.95142   0.99827944 
   52300    288.63416   -86.031956    137793.82   -41235.047    3963.6951   -45198.743    635.78461    1.0003824 
   52400    287.10753     119.5426    137969.34   -41186.979    3942.7305    -45129.71    637.80229    0.9991098 
   52500    285.32339    187.20638    137808.07   -41181.083    3918.2297   -45099.312    639.18996     1.000279 
   52600    283.97636     72.89765    138003.43   -41238.257    3899.7315   -45137.988    641.63706   0.99886295 
   52700    289.43446   -211.59721     138193.5   -41249.327    3974.6853   -45224.012    642.76335   0.99748918 
   52800    286.22142   -207.33775    138277.54   -41317.059    3930.5619   -45247.621    643.82921   0.99688289 
   52900    283.61092    296.27151     138297.1   -41323.097     3894.713    -45217.81    643.75853    0.9967419 
   53000    284.39365    64.014698    138533.78   -41348.045    3905.4619   -45253.507    645.92655   0.99503901 
   53100    286.80209   -122.90784    138458.83   -41355.635     3938.536   -45294.171    647.46007   0.99557762 
   53200    287.96763   -94.103715    138309.69   -41180.144    3954.5419   -45134.686    647.47739   0.99665116 
   53300    285.14237   -119.51793    138099.77   -41216.704    3915.7438   -45132.448    647.88296   0.99816616 
   53400    294.24302    -177.1441    138007.34   -41116.231    4040.7193    -45156.95    648.73162   0.99883469 
   53500     283.1301    136.87575    138147.43   -41104.933    3888.1102   -44993.043      650.547   0.99782177 
   53600    293.28788   -101.00251    138208.07    -41089.14    4027.6027   -45116.742    652.08438     0.997384 
   53700    288.04127   -121.86001    138105.27   -41176.791    3955.5532   -45132.344    653.37326   0.99812642 
   53800    283.41162   -90.895259    137954.35   -41241.205    3891.9762   -45133.181    654.10095   0.99921832 
   53900    283.46475   -340.29773    137677.35   -41283.864    3892.7058   -45176.569    654.01197    1.0012287 
   54000    285.63836   -156.53502    137661.46   -41183.765     3922.555    -45106.32    654.91479    1.0013443 
   54100    288.87178    72.081116    137953.08   -41170.716    3966.9582   -45137.674    657.51441   0.99922756 
   54200    284.28048   -99.955774    138087.85   -41219.048    3903.9077   -45122.956    659.05073   0.99825229 
   54300    294.06228   -167.51126    137965.46   -41138.537    4038.2373   -45176.774    660.74834   0.99913785 
   54400    287.28781   -24.182033    137766.08   -41243.079    3945.2063   -45188.285    661.25656    1.0005838 
   54500    288.29672   -17.395034    137716.23   -41201.294    3959.0612   -45160.355     662.9414     1.000946 
   54600    289.95136    68.713608    137991.41    -41175.68    3981.7837   -45157.464    665.08094   0.99894997 
   54700    291.89293    177.94864    137885.61   -41164.003    4008.4465   -45172.449    666.21693   0.99971647 
   54800     295.5132   -172.55596    137795.64   -41159.515    4058.1622   -45217.677    667.00812    1.0003692 
   54900    290.77421   -87.065452    137638.29   -41112.277    3993.0835   -45105.361    668.13359    1.0015129 
   55000    289.37396   -117.82941    137819.29   -41034.046    3973.8545   -45007.901     669.0128    1.0001975 
   55100    293.46467   -131.62514    138039.25    -41033.02    4030.0305    -45063.05    670.40298   0.99860376 
   55200     295.6954     -9.91775    137731.07   -41060.187    4060.6642   -45120.851    671.20163    1.0008382 
   55300    287.75168    168.67755    137792.68    -41087.71    3951.5764   -45039.286    671.60258    1.0003907 
   55400    289.91225    26.465668    137939.21   -41115.197    3981.2467   -45096.444    674.77333   0.99932802 
   55500    289.78089    41.500035    137872.64   -41109.544    3979.4427   -45088.987    675.93859   0.99981055 
   55600    291.09527    19.277216     138033.8   -41014.868    3997.4926   -45012.361    676.84946   0.99864324 
   55700    295.31746   -157.93391    137874.35   -41092.259    4055.4742   -45147.733    677.59346   0.99979813 
   55800    289.08553    -180.7089    138085.32   -41219.658    3969.8935   -45189.551    679.61534    0.9982706 
   55900    284.79356   -114.29196     137636.7   -41238.673    3910.9537   -45149.627    679.17585    1.0015244 
   56000    287.87409   -28.976556    137733.49   -41230.356    3953.2574   -45183.613    680.85638    1.0008206 
   56100    283.00599   -66.865925    138057.76   -41236.597    3886.4057   -45123.003    683.48751   0.99846986 
   56200    291.59733   -8.5982788    138130.16   -41125.629    4004.3871   -45130.016    684.86361   0.99794657 
   56300    291.67474     314.9545    138636.17   -41033.725    4005.4502   -45039.175    687.07209   0.99430411 
   56400     294.1799     111.8008    138872.81   -40959.552    4039.8525   -44999.404    689.08901   0.99260982 
   56500    289.39765   -279.37778    138373.16   -41079.037    3974.1798   -45053.216    687.84397   0.99619405 
   56600    292.95715    334.29621    138699.36   -41007.453    4023.0609   -45030.514    689.37269   0.99385116 
   56700    290.49088    32.958185    138692.86   -41048.175    3989.1927   -45037.368    690.39575   0.99389774 
   56800    293.55326   -216.00632    138460.51   -41058.028    4031.2471   -45089.276    690.24695   0.99556559 
   56900    288.56775   -79.829073    138314.39   -41146.288    3962.7831   -45109.072    691.28587   0.99661733 
   57000    289.62215   -135.13492    138103.68   -41203.047    3977.2628    -45180.31     691.2242   0.99813789 
   57100    285.85238   -104.61347    138181.43   -41345.672    3925.4941   -45271.166    693.74189   0.99757626 
   57200    285.72548   -51.480613    137626.59     -41386.4    3923.7514   -45310.152    692.85408     1.001598 
   57300    286.34473   -139.81643    137600.82   -41333.514    3932.2553    -45265.77    693.96269    1.0017856 
   57400    290.47392    90.474909    137525.76   -41242.951    3988.9598   -45231.911    696.07022    1.0023323 
   57500    290.14928    129.69186    137464.13   -41283.909    3984.5016    -45268.41    697.27105    1.0027817 
   57600    283.80625   -148.39592    137374.73   -41347.154    3897.3954    -45244.55     699.2712    1.0034343 
   57700    293.54555    151.02048    137338.29   -41246.885    4031.1412   -45278.027    700.85633    1.0037006 
   57800      289.996    210.83349    137873.35   -41217.728    3982.3968   -45200.125    703.92623   0.99980538 
   57900    281.13286    110.09013    138312.34    -41329.31    3860.6829   -45189.993    705.66568    0.9966321 
   58000    288.92336   -35.633764    138222.46   -41289.599    3967.6665   -45257.266    707.15738   0.99728017 
   58100    288.35823   -72.778794    138527.72   -41174.875    3959.9059   -45134.781    709.12684   0.99508255 
   58200     286.0897    86.204638    138828.07   -41288.431    3928.7531   -45217.184    709.70877   0.99292971 
   58300    284.29126    -264.3017    138523.48   -41272.904    3904.0559   -45176.959    709.89498     0.995113 
   58400    289.90173   -130.83495    138138.89   -41190.856    3981.1022   -45171.958    708.88485   0.99788352 
   58500    295.28352   -205.58239    138088.09    -41143.99     4055.008   -45198.998    710.39074   0.99825055 
   58600    290.44057   -18.323071    138015.19   -41176.333    3988.5019   -45164.835    710.47516   0.99877788 
   58700    294.56716    69.130221    137786.04   -41172.524    4045.1705   -45217.695    710.24129    1.0004389 
   58800    295.46254   -91.292204    137829.78   -41117.667    4057.4665   -45175.134     710.5077    1.0001214 
   58900    285.37914    304.73771    137887.29   -41120.553    3918.9953   -45039.548    712.31164   0.99970432 
   59000    289.97982    -104.7619    137945.63   -41139.988    3982.1746   -45122.163    713.43974   0.99928152 
   59100    286.36482    21.915759    138056.78   -41147.854    3932.5312   -45080.385    714.86454   0.99847698 
   59200     287.9167    123.75109    138169.58   -41186.476    3953.8426   -45140.318    717.03338   0.99766186 
   59300    293.39205    -275.9715    138058.01   -41156.903    4029.0333   -45185.936    717.47512   0.99846809 
   59400    288.84864    104.40155    138401.06   -41180.664    3966.6405   -45147.305    720.22506   0.99599319 
   59500    288.68516    45.887179    138257.46   -41140.719    3964.3955   -45105.114    720.08647   0.99702768 
   59600    290.18068   -30.047217    137895.95   -41095.607    3984.9328    -45080.54    719.58449   0.99964154 
   59700    295.75353    277.89512    137970.55   -41042.639    4061.4625   -45104.102     721.0324   0.99910099 
   59800    287.75466    175.59189    138409.31   -41143.905    3951.6173   -45095.522    724.69732   0.99593388 
   59900    290.58952   -224.56137    138236.28   -41134.373    3990.5473    -45124.92    725.26853   0.99718049 
   60000    290.10572    221.42184    138340.27   -41177.214    3983.9035   -45161.117    726.50247   0.99643085 
   60100    283.33339   -195.79419    138134.09    -41237.68    3890.9018   -45128.582    727.12428   0.99791818 
   60200    285.26473    82.319641    137970.78   -41205.647    3917.4241   -45123.071    727.74636   0.99909938 
   60300     294.3426   -182.49096    138232.41   -41134.924    4042.0868   -45177.011    729.68263   0.99720835 
   60400    291.06421    24.303828    138456.09   -41261.893     3997.066   -45258.959    731.35501   0.99559735 
   60500    290.28168   -106.25889    138288.95   -41306.846    3986.3198   -45293.166    731.92507   0.99680066 
   60600    285.52691    59.261443    138323.87   -41222.052    3921.0245   -45143.076    733.26286   0.99654904 
   60700    284.10133   -20.298074     138300.6   -41202.726    3901.4476   -45104.174    734.58038   0.99671673 
   60800    288.42956   -42.363656    138122.29   -41200.285    3960.8854    -45161.17    736.23917   0.99800341 
   60900    289.37517    201.80172    138089.99   -41151.539    3973.8711    -45125.41    737.38894   0.99823687 
   61000    300.64798   -239.73134    138328.51   -41117.536     4128.676   -45246.212    739.66738   0.99651558 
   61100    292.56099   -19.970247    138382.27    -41075.81    4017.6207   -45093.431    741.34638   0.99612849 
   61200    291.14458    66.633372     138739.4   -41155.912    3998.1697   -45154.082    744.04049   0.99356434 
   61300    293.66638   -103.95539    138487.52   -41088.245    4032.8005   -45121.045    743.17876   0.99537141 
   61400     288.9181    105.66158    138290.91   -41033.788    3967.5944   -45001.383    742.83357    0.9967865 
   61500    291.28421   -175.52629    138410.77   -41020.583    4000.0872    -45020.67    744.20205   0.99592338 
   61600    289.84332    52.929649    138257.45   -41112.369       3980.3   -45092.669    744.24538   0.99702778 
   61700    292.47106   -89.448426       138134   -41089.622    4016.3857   -45106.008    744.99436   0.99791882 
   61800    291.63972    170.60888    137971.74    -41039.06    4004.9693    -45044.03    743.83197   0.99909243 
   61900     288.9413     10.34275    137973.91   -41099.422     3967.913   -45067.335    745.88324   0.99907671 
   62000    290.65111    125.47339     138200.9   -41060.759    3991.3931   -45052.152    748.31197   0.99743571 
   62100     287.4382    40.002535    138450.67   -41106.021    3947.2714   -45053.292    750.06412   0.99563635 
   62200     288.4376    71.306139     138067.9   -41137.721    3960.9958   -45098.717    750.04577   0.99839659 
   62300    289.94187    61.024199    138118.04   -41197.329    3981.6534   -45178.982    751.42096   0.99803413 
   62400    284.97391   -326.03541    138473.69   -41240.045    3913.4304   -45153.475    754.76432   0.99547081 
   62500    288.00609   -46.559176    138304.49   -41184.821      3955.07   -45139.891    754.82757   0.99668869 
   62600    289.95023     204.9763    138318.52   -41105.159    3981.7682   -45086.927    756.14286   0.99658753 
   62700    285.18908   -25.948665    138361.37   -41196.377    3916.3853   -45112.762     756.7318   0.99627889 
   62800    296.58313   -84.105314    138207.12   -41132.684    4072.8551   -45205.539     758.0059   0.99739088 
   62900    289.68677   -35.879052    138389.22   -41191.738    3978.1503   -45169.888    759.54486   0.99607843 
   63000    285.97826    229.33994    138282.73   -41150.003    3927.2228   -45077.226    761.30204    0.9968455 
   63100    286.79682   -0.7572922    138442.29   -41138.522    3938.4637   -45076.986    764.12127   0.99569656 
   63200    289.70875   -226.88202    138029.31   -41176.598     3978.452    -45155.05    763.92093   0.99867569 
   63300    288.22365    180.05487    138127.94   -41246.075    3958.0577   -45204.133    765.26575   0.99796256 
   63400     287.2574   -258.87053    138075.86   -41316.218    3944.7887   -45261.007    766.85691   0.99833899 
   63500    288.84896    80.282984    138164.33   -41187.461    3966.6449   -45154.106    768.45751   0.99769971 
   63600     290.5925   -48.542433    138546.17   -41137.305    3990.5882   -45127.894    772.14959   0.99495005 
   63700    290.15281   -173.64174    138080.76   -41237.906    3984.5502   -45222.456    771.14292   0.99830361 
   63800    284.82106    131.72448     138371.9   -41220.285    3911.3314   -45131.617    774.14211   0.99620314 
   63900    290.78017   -189.80697    138329.59   -41217.714    3993.1653    -45210.88    774.92542   0.99650781 
   64000    284.07577     133.6973     138116.6    -41271.25    3901.0966   -45172.347    775.59245   0.99804451 
   64100    285.63232   -176.22844    137958.84   -41222.775     3922.472   -45145.247    776.55306   0.99918581 
   64200    280.76907    136.79262    137997.33   -41260.033     3855.687    -45115.72    778.44161   0.99890714 
   64300    285.49971    157.14089    138039.77   -41266.159    3920.6511    -45186.81    779.73326   0.99859998 
   64400    287.89893   -31.824515    138181.36   -41298.962    3953.5986   -45252.561    782.34945   0.99757678 
   64500    288.31694    41.472615    137988.24   -41279.007    3959.3388   -45238.346    783.10359   0.99897292 
   64600    287.98186    221.92112    138131.22   -41202.127    3954.7374   -45156.865    783.83379   0.99793892 
   64700    290.53234    -346.3201    138211.77   -41160.997    3989.7621   -45150.759    785.01545   0.99735731 
   64800    290.27371  -0.71648971    138122.52   -41133.816    3986.2104   -45120.027    785.91716   0.99800171 
   64900    291.31551   -29.616712    138030.26   -41139.779     4000.517   -45140.296    786.33903   0.99866879 
   65000    287.80555   -314.06268    138093.77   -41175.817    3952.3162   -45128.133    786.78112   0.99820951 
   65100    287.10887    166.93766    137916.69   -41203.421    3942.7489    -45146.17    787.59082   0.99949117 
   65200    286.06484    89.201624    138205.59   -41172.428    3928.4117    -45100.84     790.0128   0.99740192 
   65300    290.92212    140.16199    138300.16   -41163.239    3995.1147   -45158.353    791.63173   0.99671985 
   65400    286.70208    33.438089    138190.93   -41213.261    3937.1626   -45150.424    793.17761   0.99750771 
   65500    286.36556    -267.5574    138451.96   -41144.615    3932.5414   -45077.156    793.98992   0.99562707 
   65600     295.9162    73.612472    138329.71   -41052.239    4063.6963   -45115.935    794.54245   0.99650695 
   65700    289.82517   -17.927638     138292.8   -41090.035    3980.0507   -45070.085    795.87672   0.99677289 
   65800    290.32266    86.292709     138185.3    -41130.26    3986.8826   -45117.142    797.24258   0.99754834 
   65900    291.42851   -42.295597     138066.7    -41087.77    4002.0688   -45089.839    797.25678   0.99840522 
   66000     287.1959   -58.370655    138287.46   -41170.924    3943.9441   -45114.868    799.62359   0.99681139 
   66100     292.7111   -77.234597    138152.21   -41149.647    4019.6821   -45169.329    801.10831   0.99778726 
   66200    293.35151   -259.29348    138028.14   -41084.963    4028.4766    -45113.44    801.13059   0.99868418 
[...]
   84600    290.11669  -0.43950563    138090.58   -41283.196    3984.0542    -45267.25    1034.2522   0.99823262 
   84700    286.31916   -164.99439    138195.46    -41297.01    3931.9041   -45228.914    1036.1322   0.99747497 
   84800    291.50403   -130.26554    138080.34   -41201.961    4003.1058   -45205.067    1036.4344   0.99830659 
   84900    284.76339    143.44291    138086.37   -41218.912    3910.5395   -45129.452    1037.5661   0.99826303 
   85000     285.0541    30.621811     138266.4   -41213.762    3914.5317   -45128.293     1039.289   0.99696323 
   85100    289.66244   -185.03018    137902.37   -41199.101     3977.816   -45176.917    1039.6396   0.99959496 
   85200     291.4044   -121.61908    138003.98   -41144.402    4001.7377    -45146.14    1041.6756   0.99885903 
   85300    290.26224   -2.8333048    138142.64   -41143.687     3986.053    -45129.74    1043.5788   0.99785639 
   85400    289.46624   -183.72097    138076.47   -41164.922    3975.1217   -45140.044    1044.6602   0.99833457 
   85500    288.90909    37.939249    138021.43   -41128.782    3967.4707   -45096.252    1045.2403   0.99873268 
   85600    288.88073     94.31759    138092.45   -41094.497    3967.0812   -45061.578    1047.3465   0.99821909 
   85700    284.40285   -56.510353    137743.68   -41132.299    3905.5883   -45037.887    1047.8349    1.0007466 
   85800    287.75661    126.29066    137789.21   -41109.817    3951.6441   -45061.461    1049.6157    1.0004159 
   85900    290.93733    19.923987    137796.96   -41159.871    3995.3236   -45155.195    1050.2602    1.0003596 
   86000    284.02532    103.82364    138142.83   -41199.321    3900.4039   -45099.725    1054.4306   0.99785503 
   86100     292.4659    292.99266    138185.58   -41124.748    4016.3148   -45141.063    1056.1572   0.99754631 
   86200    289.46792    197.33832    138329.51   -41150.471    3975.1448   -45125.616    1057.1608   0.99650838 
   86300    293.24651   -76.331658    138481.67    -41167.32    4027.0346   -45194.355    1059.2249   0.99541348 
   86400    288.38958   -60.920251    138193.18   -41190.697    3960.3364   -45151.033    1059.2006   0.99749142 
   86500    289.57679   -143.70799    138192.06   -41126.413    3976.6399   -45103.053    1061.2255   0.99749953 
   86600    285.93945    140.85905    138217.88   -41167.628    3926.6898   -45094.318    1062.5457   0.99731318 
   86700    290.87926    91.005031    137980.36   -41148.262    3994.5262   -45142.788    1063.0557   0.99902997 
   86800    287.33094    169.91586    138132.26    -41130.57    3945.7986   -45076.369    1065.5902   0.99793135 
   86900    291.04626   -98.857868    138263.74   -41143.564    3996.8195   -45140.383    1068.2552   0.99698239 
   87000    285.96953    44.240527    138416.12    -41247.64    3927.1029   -45174.743    1071.0229   0.99588486 
   87100    287.76468    112.24639    138172.39   -41212.739    3951.7549   -45164.494    1070.6021   0.99764154 
   87200    288.12181    136.98848    138435.87   -41187.253    3956.6592   -45143.913    1073.4215   0.99574276 
   87300    289.02202    81.284951    138297.39   -41092.607    3969.0214   -45061.628     1073.951   0.99673984 
   87400    288.66156   -148.81196    138025.76   -41142.925    3964.0714   -45106.997    1075.3304   0.99870137 
   87500    293.51971    49.597138    137981.02   -41154.823    4030.7864    -45185.61    1076.3511   0.99902524 
   87600    291.50677    147.16113    137907.34   -41157.823    4003.1435   -45160.967    1077.3312   0.99955895 
   87700    291.15786   -219.09065    138283.52   -41150.797    3998.3521    -45149.15     1081.411   0.99683979 
   87800    289.51512    12.361807    138166.12   -41087.094     3975.793   -45062.887    1082.4579   0.99768679 
   87900    289.78134   -190.26312    137649.99   -41039.185    3979.4488   -45018.634    1081.2243    1.0014278 
   88000    292.67673    307.47395    137559.36   -41123.698    4019.2101   -45142.909    1081.2463    1.0020875 
   88100    291.85782   -232.67327    137856.27   -41082.337    4007.9644   -45090.301    1083.7625   0.99992929 
   88200    293.42052     224.7645    137857.78   -41046.582    4029.4243   -45076.006    1085.1417   0.99991829 
   88300    294.05636    15.129428    138207.01   -41056.538     4038.156   -45094.694    1087.0752   0.99739166 
   88400    286.86084    199.34459    138139.76   -41160.715    3939.3429   -45100.058     1087.474   0.99787718 
   88500     287.2443     94.47029    138314.92   -41199.917    3944.6088   -45144.526    1089.6529    0.9966135 
   88600    291.92864    23.771265    138235.08   -41177.641    4008.9369   -45186.578     1091.072   0.99718909 
   88700    293.75921    4.5330321    138686.52   -41138.623    4034.0753   -45172.698    1095.0127   0.99394313 
   88800     293.4906   -422.64242    138371.31   -41171.762    4030.3866   -45202.148    1094.0771   0.99620736 
   88900    282.56847    123.23816    138348.35   -41256.374    3880.3975   -45136.771    1095.5684   0.99637271 
   89000      295.222    64.103547    138580.45   -41090.737    4054.1633     -45144.9    1098.9179   0.99470393 
   89100    295.24381   -43.385667    138499.89   -41119.517    4054.4628    -45173.98    1099.3467   0.99528247 
   89200    287.35098    44.618138    138350.03    -41201.84    3946.0737   -45147.914    1100.4595    0.9963606 
   89300    290.34334    98.317047    138466.03   -41155.308    3987.1666   -45142.475    1101.9758   0.99552591 
   89400    287.26862    112.65663    138086.05     -41211.4    3944.9427   -45156.343    1100.5651   0.99826534 
   89500    284.33497   -92.222281    138410.92   -41249.225     3904.656   -45153.881    1103.6667   0.99592229 
   89600    287.31571    110.42663    138163.87    -41143.07    3945.5894   -45088.659    1102.3357   0.99770306 
   89700    287.60761   -285.41624    138277.02    -41173.06    3949.5979   -45122.658    1102.7439   0.99688665 
   89800    290.80753    -146.0816    138076.11   -41172.759    3993.5412     -45166.3    1102.4974   0.99833721 
   89900    288.97091    170.36605     137823.2   -41239.693    3968.3196   -45208.012    1102.6414    1.0001692 
   90000    289.95185    111.77412    137978.46    -41161.53    3981.7904    -45143.32    1104.9035   0.99904373 
   90100    293.15234   -72.583555    137962.14   -41174.175    4025.7414   -45199.916    1105.9416   0.99916189 
   90200    288.36765  -0.27435931    137896.44    -41296.47    3960.0353   -45256.505    1106.3385   0.99963795 
   90300    288.07173    77.838854    137914.79   -41297.426    3955.9716   -45253.397    1108.0724   0.99950498 
   90400    288.01525    162.81789     138030.9   -41181.586     3955.196   -45136.782    1109.6918   0.99866422 
   90500    290.01843    22.856088     138090.9   -41178.885    3982.7048    -45161.59    1110.6047   0.99823029 
   90600    290.64702    42.616893    138286.65   -41138.699    3991.3369   -45130.036    1112.1683   0.99681721 
   90700    290.53062    152.57485    137989.06   -41146.057    3989.7384   -45135.795    1112.7667   0.99896702 
   90800     287.5804    103.91214    138198.39   -41216.461    3949.2243   -45165.685    1115.0216   0.99745386 
   90900    287.55614     333.1177    138554.05   -41238.654    3948.8911   -45187.545    1117.6946   0.99489342 
   91000    287.98789     7.889229    138629.98   -41160.153    3954.8201   -45114.973    1118.4649   0.99434854 
   91100    289.78378   -231.89756    138272.14   -41183.401    3979.4824   -45162.883    1118.1711   0.99692182 
   91200    290.79514    238.53768    137977.79   -41208.733     3993.371   -45202.104    1118.8187   0.99904858 
   91300    284.28063    174.61916    137867.57   -41275.987    3903.9099   -45179.897    1118.8455   0.99984732 
   91400    286.28479   -226.30295    138304.92   -41210.933    3931.4322   -45142.365    1123.0569   0.99668558 
   91500    286.52445   -132.08917       137989   -41210.851    3934.7233   -45145.574    1123.6451    0.9989674 
   91600    290.01216    59.589692    138123.03   -41239.418    3982.6186   -45222.037     1125.324   0.99799808 
   91700    288.04044   -190.01207    138005.48   -41329.874    3955.5418   -45285.416    1126.9881   0.99884812 
   91800     286.8399   -45.075227    137990.95   -41309.398    3939.0553   -45248.454    1128.2492   0.99895328 
   91900    285.94857    121.56079    138198.61   -41263.204     3926.815   -45190.019    1130.4041   0.99745225 
   92000    288.56541   -191.46131    138180.55   -41236.314     3962.751   -45199.065     1131.604   0.99758264 
   92100    292.15486   -80.588064    138174.47   -41157.236    4012.0435    -45169.28    1132.2303   0.99762652 
   92200    289.52296    263.99999    138010.87   -41114.809    3975.9006   -45090.709    1132.4873   0.99880915 
   92300    288.68026    4.2178297    138203.91   -41173.961    3964.3283   -45138.289    1134.5221   0.99741402 
   92400    285.38403    141.80152    138215.67    -41105.09    3919.0625   -45024.152    1136.2559   0.99732914 
   92500    290.95383    110.12855    137985.34   -41077.364    3995.5502   -45072.914     1136.334   0.99899396 
   92600    290.09823    4.4989723    138150.09   -41075.326    3983.8007   -45059.127    1138.3272    0.9978026 
   92700    288.74696   -154.76027    138003.25   -41189.713    3965.2441   -45154.957    1138.7412   0.99886426 
   92800    285.48205    -353.8209    137694.41   -41128.095    3920.4085   -45048.503    1138.8142    1.0011047 
   92900    292.72839    55.048313    138016.68   -41108.266    4019.9195   -45128.185    1142.5108   0.99876708 
   93000    288.96468    37.765271    138016.25   -41127.666     3968.234     -45095.9    1144.2208   0.99877022 
   93100    291.68147    326.93132    138436.28   -41085.261    4005.5426   -45090.804    1148.6554   0.99573983 
   93200    295.62246   -37.522199    138191.97   -41027.068    4059.6626   -45086.731    1147.2512   0.99750023 
   93300    288.96325   -111.91073    138320.42    -41031.79    3968.2144   -45000.004      1150.61   0.99657391 
   93400     288.1786    162.30137    138797.48   -41108.213    3957.4392   -45065.652    1155.1326   0.99314852 
   93500     292.3186   -330.61851     138582.2   -41154.649    4014.2921   -45168.941    1155.2425   0.99469136 
   93600    289.83885    100.17401    138512.66   -41205.885    3980.2386   -45186.123     1155.876   0.99519073 
   93700    290.04993   -7.1053035    138529.85   -41191.151    3983.1373   -45174.288    1155.9402   0.99506725 
   93800    291.03399   -73.132346    138994.55    -41153.43     3996.651   -45150.081    1159.8814   0.99174043 
   93900     291.3174    115.87038    138546.58   -41178.806    4000.5429   -45179.349    1158.2247   0.99494707 
   94000    288.32458   -133.15752    138226.02   -41255.197    3959.4438   -45214.641    1157.8826    0.9972545 
   94100    282.48663     79.43909    138079.11    -41312.33    3879.2737   -45191.604    1158.7589   0.99831551 
   94200    285.74015   -107.86829    137942.03   -41252.322    3923.9528   -45176.275    1158.9955   0.99930755 
   94300    291.77898   -59.515811    138218.59   -41197.191    4006.8817   -45204.073    1161.0695   0.99730807 
   94400    284.65329    23.046746    138361.52   -41265.882    3909.0275    -45174.91    1164.1662   0.99627787 
   94500    284.91657   -9.5264913    138190.36   -41301.562     3912.643   -45214.205    1165.2685   0.99751184 
   94600    286.91413    26.888109    138056.53   -41321.532    3940.0746   -45261.607     1165.335    0.9984788 
   94700    287.51472   -48.165456    138035.51   -41197.885    3948.3223   -45146.208    1165.8856   0.99863085 
   94800    284.31422    2.0946129    138301.05   -41135.449    3904.3711    -45039.82    1168.1524   0.99671343 
   94900    290.98481   -23.163861    138033.99   -41159.892    3995.9757   -45155.867    1166.7431   0.99864184 
   95000     288.3485   -74.119032    138384.87   -41175.189    3959.7723   -45134.962     1169.106   0.99610975 
   95100    293.82014   -95.238462    138444.17   -41093.509    4034.9121   -45128.421    1169.9028   0.99568311 
   95200    288.16612    92.268142    137993.35   -41203.236    3957.2677   -45160.503    1167.1644   0.99893596 
   95300    289.04441    81.879157    137926.49   -41193.661     3969.329    -45162.99    1167.6788   0.99942021 
   95400    286.73104   -158.14039    138013.09   -41179.874    3937.5603   -45117.434    1169.8069   0.99879306 
   95500    284.67082   -174.28009    138032.12   -41229.798    3909.2682   -45139.066    1170.4775   0.99865535 
   95600    288.72515    240.76421     137957.8   -41184.123    3964.9447   -45149.068    1171.5097   0.99919335 
   95700    290.67628   -20.756818    138057.02   -41170.373    3991.7387   -45162.112    1172.5953   0.99847526 
   95800    293.95391    113.10249    137921.55   -41189.942     4036.749   -45226.691    1173.5747   0.99945598 
   95900    284.87158    270.70298    137979.34   -41197.744    3912.0251   -45109.769    1176.5165    0.9990374 
   96000    292.74522    113.36138    138163.59   -41135.133    4020.1506   -45155.284    1178.6421   0.99770506 
   96100    290.39154    166.02595    138211.64   -41126.662    3987.8285   -45114.491    1179.0359   0.99735823 
   96200     290.5684    323.48589    138283.33   -41135.973    3990.2573    -45126.23    1179.9572    0.9968412 
   96300    292.34151    88.992998     138309.7   -41160.745    4014.6067   -45175.351    1181.6714    0.9966511 
   96400    295.45257   -58.427333    138322.79   -41191.632    4057.3296   -45248.962    1182.5467   0.99655682 
   96500    292.84303    37.854081    138479.29   -41162.926    4021.4939    -45184.42    1186.3144   0.99543056 
   96600    290.85454    74.967651    138532.92   -41102.288    3994.1867   -45096.475    1188.5776   0.99504521 
   96700    285.84437   -162.92259    138492.65   -41016.082    3925.3841   -44941.466    1190.7816   0.99533451 
   96800    294.31499   -2.7111446    137954.22   -41014.812    4041.7077   -45056.519    1189.7377   0.99921927 
   96900    290.26566    232.89134    138144.82    -41088.92    3986.0998    -45075.02    1191.8512   0.99784064 
   97000    289.20923    -223.8465    138108.09   -41118.046    3971.5923   -45089.638    1192.2235   0.99810605 
   97100    290.86752    189.86444    137616.25   -41148.589     3994.365   -45142.954    1191.4299    1.0016733 
   97200    285.83243   -260.04705    137877.11   -41177.728    3925.2201   -45102.948    1194.5721    0.9997781 
   97300    284.51389    41.990503    137610.32   -41211.665    3907.1132   -45118.779    1194.1243    1.0017164 
   97400    291.07833     168.8645    137834.45   -41142.092    3997.2599   -45139.351    1196.4602    1.0000875 
   97500    289.82325   -91.630874    137949.02   -41158.292    3980.0245   -45138.317    1198.9073   0.99925693 
   97600    289.57592    54.620387     137992.5   -41226.675    3976.6279   -45203.303     1201.547   0.99894211 
   97700    291.65358    49.320007    138041.16   -41201.309    4005.1596   -45206.468     1202.363   0.99858999 
   97800    283.76497   -30.932588    137727.88   -41204.836    3896.8285   -45101.664    1202.0478    1.0008614 
   97900    290.08626   -106.37557    137823.43   -41072.505    3983.6362   -45056.141    1204.0422    1.0001675 
   98000    290.37408    290.19636    137675.19   -41096.611    3987.5888   -45084.199    1204.7314    1.0012444 
   98100    292.99987   -23.974723    137829.08   -41045.899    4023.6477   -45069.547    1206.5751    1.0001265 
   98200    293.53581    174.89595    137933.78   -41040.361    4031.0075   -45071.369     1207.397   0.99936738 
   98300    292.63009    64.606763    138082.48   -40997.625    4018.5696   -45016.194    1210.0254   0.99829114 
   98400    289.90528    -3.340947    137984.04   -41026.854    3981.1509   -45008.005     1209.268   0.99900334 
   98500    292.66531    20.196915    137740.08   -41034.951    4019.0533   -45054.004    1208.3257    1.0007727 
   98600    289.58858    126.15261    137634.02   -41102.325    3976.8018   -45079.127    1208.7256    1.0015439 
   98700    291.14905   -142.03218    137546.34   -41060.701     3998.231   -45058.932    1209.3537    1.0021824 
   98800    290.49959    158.16056    137534.62   -41102.795    3989.3123   -45092.107    1210.5693    1.0022677 
   98900      294.442   -39.985356       137859   -41016.984    4043.4518   -45060.436    1213.7733   0.99990943 
   99000    288.81259    139.27219     137964.6   -41040.816    3966.1455   -45006.961    1215.8543   0.99914408 
   99100    294.80044     49.56152    137805.29   -41132.786    4048.3742    -45181.16     1215.107    1.0002992 
   99200    291.53099   -296.61701    137761.78   -41150.845    4003.4761   -45154.321    1216.1792    1.0006151 
   99300    290.91815    88.209949     137824.4   -41126.402    3995.0602   -45121.462    1217.7092    1.0001605 
   99400      292.315    128.21905    137828.85   -41123.948    4014.2427   -45138.191    1218.4151    1.0001282 
   99500    290.32376   -115.87706    137935.33   -41145.049    3986.8978   -45131.946    1219.2108   0.99935614 
   99600    292.13871   -76.054274    137502.91    -41248.21    4011.8217   -45260.032    1218.8101    1.0024989 
   99700    280.62751   -20.439526    137918.41   -41228.505    3853.7431   -45082.248    1221.7706   0.99947876 
   99800    292.31592   -40.708149    138182.26   -41217.051    4014.2552   -45231.307    1224.1451    0.9975703 
   99900    295.79533   -72.353972    138249.37   -41174.073    4062.0365    -45236.11    1225.1303   0.99708603 
  100000    288.82639   -21.899615    137974.49   -41196.559     3966.335   -45162.894    1225.2957   0.99907248 
  100100     290.3183     238.6161    138137.47   -41213.924    3986.8228   -45200.747    1226.9016   0.99789373 
  100200    293.28987   -68.889297    138483.87   -41170.514    4027.6301   -45198.144    1230.5004   0.99539765 
  100300    288.39885   -217.67226    138528.33       -41188    3960.4638   -45148.464    1231.3736   0.99507813 
  100400    293.32698    92.533427    138301.48   -41208.091    4028.1397   -45236.231    1230.6688   0.99671035 
  100500    284.83281   -43.117541    138273.17   -41224.995    3911.4928   -45136.487    1232.2087   0.99691444 
  100600    292.39553   -61.797257    138434.44   -41179.825    4015.3485   -45195.173     1234.518   0.99575309 
  100642    294.88381   -109.78738    138318.52   -41182.505     4049.519   -45232.024    1234.4389   0.99658755 
Loop time of 121.057 on 6 procs for 100000 steps with 4608 atoms

Performance: 356.858 ns/day, 0.067 hours/ns, 826.060 timesteps/s
99.0% CPU use with 6 MPI tasks x no OpenMP threads

MPI task timing breakdown:
Section |  min time  |  avg time  |  max time  |%varavg| %total
---------------------------------------------------------------
Pair    | 102.32     | 103.1      | 104.97     |   8.9 | 85.17
Neigh   | 7.1298     | 7.1808     | 7.3354     |   2.7 |  5.93
Comm    | 6.2477     | 8.0218     | 8.761      |  30.1 |  6.63
Output  | 0.17185    | 0.17263    | 0.17622    |   0.4 |  0.14
Modify  | 1.8547     | 1.9252     | 1.9901     |   3.4 |  1.59
Other   |            | 0.6574     |            |       |  0.54

Nlocal:        768.000 ave         786 max         751 min
Histogram: 1 1 0 0 0 2 1 0 0 1
Nghost:        1572.67 ave        1584 max        1557 min
Histogram: 2 0 0 0 1 0 0 0 0 3
Neighs:        0.00000 ave           0 max           0 min
Histogram: 6 0 0 0 0 0 0 0 0 0
FullNghs:      22219.0 ave       22852 max       21447 min
Histogram: 1 0 0 1 0 1 1 1 0 1

Total # of neighbors = 133314
Ave neighs/atom = 28.930990
Neighbor list builds = 7020
Dangerous builds = 0

undump              1
unfix               2
unfix               3
unfix               4


################################################
#######         Run Simulation         #########
################################################

reset_timestep      0
log                 log.run_${NAME}
log                 log.run_liq_290K_1atm_ML
