LAMMPS data file via write_data, version 29 Oct 2020, timestep = 100000

8518 atoms
1 atom types

-0.27594944197093696 104.54385147906937 xlo xhi
-0.13395611889618309 51.041076118893834 ylo yhi
-0.13395611889618309 51.041076118893834 zlo zhi

Masses

1 18.015

Atoms # atomic

2070 1 2.617564139855873 2.0549589171483817 0.8273103552080608 0 0 1
2062 1 1.0764996344290976 0.37028592942725236 2.2577913404606913 0 0 1
2063 1 7.605636459979994 0.8536187496334398 2.3686586481946437 0 0 1
2064 1 9.313065039275674 2.305795473306639 0.761873839667211 0 0 1
2066 1 13.821791884867606 0.6993645997542041 2.4130724546163322 0 0 1
1964 1 15.653872530955843 2.475443227048249 1.0530371388929978 0 0 1
2717 1 20.165188460125382 0.6000809202888379 2.4948591083060094 0 0 1
2649 1 22.191978526843467 2.2541130862129934 1.250597819135176 0 0 1
2646 1 28.187949364210265 2.393960216891621 1.1535183170608914 0 0 1
2719 1 26.59809684251753 0.5284004315428332 2.794890524061807 0 0 1
2721 1 32.971631040898984 1.0033451633590118 2.3360296984106865 0 0 1
1960 1 5.8332115398333 5.329567610465051 0.7607130678292893 0 0 1
2071 1 4.373925757395129 3.5334628061202613 2.3815332295029665 0 0 1
2072 1 10.777785704489675 4.059294134659275 2.132433232422737 0 0 1
2073 1 12.47875455984072 5.390496154358356 0.5469739166845132 0 0 1
2074 1 17.175209326172762 4.04537861299795 2.3496836003899637 0 0 1
2458 1 18.972112238307897 5.567561371932192 0.8064161934052492 0 0 1
2650 1 24.901417223614022 5.491085199327253 1.211562286245243 0 0 1
2729 1 31.16962660347842 5.8226642806574755 1.0635631238533858 0 0 1
2725 1 29.874364169830027 4.021254186644976 2.6185025593981806 0 0 1
1966 1 2.4408682191825792 8.884472088728641 0.6986455118483131 0 0 1
2075 1 0.9948889676418327 7.43398085808252 2.449497667611664 0 0 1
1976 1 9.0420129274562 8.842770350808136 0.5872140784812884 0 0 1
2076 1 7.519513073668623 6.979761758023267 2.156397654470011 0 0 1
1971 1 15.536953491043482 8.514340618187418 0.48192926400673897 0 0 1
2079 1 14.122986338302246 6.913207125083679 2.4419346388447636 0 0 1
2727 1 20.64132958537419 7.153259279399134 2.5105113071777576 0 0 1
2732 1 22.127473297282126 8.915591238256885 0.6206019467754216 0 0 1
2657 1 28.21702067594483 8.544433629631477 0.6393571397167539 0 0 1
2728 1 26.70163921883218 7.154945079854061 2.4831388422015865 0 0 1
2730 1 32.89149071144025 7.424234048870796 2.515748954571186 0 0 1
2081 1 4.032819270816311 10.488211959384872 2.264275721266766 0 0 1
2088 1 12.178646914578101 11.821409601855649 0.9020809873923352 0 0 1
2082 1 10.786407937261883 10.067581632469798 2.370861297572693 0 0 1
2084 1 17.146222159810964 10.18767000476674 2.1829268389307637 0 0 1
2115 1 18.82821323011113 11.182457286942402 0.20080321993843048 0 0 1
2733 1 23.608305656531144 10.460877732936261 2.155302213683067 0 0 1
2661 1 31.174471120702794 11.926312484307898 0.6665181999665212 0 0 1
2734 1 29.51235627564531 10.391326298614588 2.4883731543267786 0 0 1
2731 1 34.46046002392056 9.024261307445306 0.7839297149253007 0 0 1
2086 1 0.7677463736050951 13.754498402955871 2.2674045901386255 0 0 1
1233 1 33.115097591524204 48.84109715482134 25.016709688650117 0 -1 0
2080 1 5.878062993355482 12.020820945969193 0.8509616800799004 0 0 1
2087 1 7.526760141951941 13.618325962878922 2.2261963589575693 0 0 1
2089 1 13.985161859374864 13.469172344313039 1.9251163027229383 0 0 1
1995 1 15.803732866493487 14.852760000666803 0.6617533604250231 0 0 1
2736 1 20.057851739808715 13.079424325761735 1.7215742381510706 0 0 1
2669 1 21.97060858363641 14.796988950593786 0.27530767194524225 0 0 1
2664 1 25.046067739635422 12.377200738702477 0.4239681008871682 0 0 1
2738 1 26.81028668319329 13.858350822149442 1.944988565429218 0 0 1
2739 1 33.15868953552864 13.219486449117891 2.313206165003249 0 0 1
1979 1 2.5984342934736873 15.226216582399593 0.7721302778215681 0 0 1
2091 1 4.146138863099015 16.81520780580404 2.5187878294630703 0 0 1
2093 1 9.029236878890938 15.27153099730939 0.5709808218436359 0 0 1
2094 1 10.781491911310647 16.990799119114158 1.9447661389515511 0 0 1
2096 1 17.22616083316733 16.96490705688389 2.1499545767374864 0 0 1
2741 1 23.508831887335184 16.643494355292216 1.9296633941784016 0 0 1
2671 1 28.521832168292477 15.552346387052637 1.0006823119248727 0 0 1
2742 1 30.147989948032127 17.287277632579013 2.487752516258206 0 0 1
2673 1 34.47642243843768 15.200936494728655 0.8581860610557116 0 0 1
2097 1 1.0656233613135855 20.02500570837567 2.06136637265546 0 0 1
2092 1 6.087900057221308 18.277439966637502 0.8529070845946157 0 0 1
2099 1 7.5664922322820685 20.08996686002289 2.5329011253450227 0 0 1
2100 1 12.28418623446125 18.33662553546552 0.28418818429437953 0 0 1
2101 1 14.102794350362814 19.94970017000703 2.2364307426842065 0 0 1
2745 1 18.893382853515014 18.49909967868879 0.4019586833773172 0 0 1
2743 1 20.005615020172016 19.796164323488483 2.366206198289315 0 0 1
2668 1 25.073632169091386 18.590406406898417 0.9879928202858306 0 0 1
2744 1 26.76588017410308 20.024260660858456 2.6088013331997475 0 0 1
2672 1 31.649268560114475 18.727808259031978 0.7526867270645493 0 0 1
2749 1 33.06868868526669 20.260000070943693 2.520290099514765 0 0 1
2098 1 3.128916847793547 21.92309460509756 0.5344253142773698 0 0 1
1978 1 4.738520912806506 23.264967876432603 2.1006133108453806 0 0 1
1998 1 9.122913737244653 21.60609356410779 0.6992756539044355 0 0 1
1813 1 10.944777490867311 23.050883873766942 2.325597474858887 0 0 1
1715 1 16.001881613677817 21.335287103397633 0.8782176386136908 0 0 1
1714 1 17.06137409398606 23.173282554279623 2.552275272589986 0 0 1
2679 1 21.895844170376225 21.39247529546426 1.0157668599629013 0 0 1
2751 1 23.558747702191425 23.215854454213137 2.1085343372055747 0 0 1
2747 1 28.328348065345107 21.56674950918877 0.9641268613993723 0 0 1
2753 1 29.763799479749515 23.5670599823121 2.7554428623088136 0 0 1
1681 1 1.0753287814168122 26.506732803287054 2.4883099271168097 0 0 1
2006 1 6.623402607795205 24.897904842719914 0.6769269159885452 0 0 1
1804 1 7.851586918064815 26.56171423920345 2.5880906099746275 0 0 1
1601 1 12.575241558429939 24.791754442124788 0.6635138803031377 0 0 1
1598 1 13.878685352995268 26.784606305459352 2.379589901531711 0 0 1
2056 1 18.85566386116003 24.58206055120488 1.0817942699829972 0 0 1
2755 1 20.4221115711203 26.43935420072358 2.428140330011362 0 0 1
2752 1 25.433321970475117 24.78819935823608 0.9213847935248127 0 0 1
2756 1 26.8887083541783 26.77634590734419 2.675733433815008 0 0 1
2686 1 31.80605218505793 24.754642250570143 0.9115373708067809 0 0 1
2748 1 32.831972585952194 26.571204217822164 2.5431995616594736 0 0 1
2029 1 2.4731261870581513 28.068366257970034 1.1052324589517024 0 0 1
2085 1 4.379793224836577 29.95690485579842 2.393113724097417 0 0 1
1689 1 9.351130669175467 28.111454164225457 0.8446382747834937 0 0 1
1925 1 10.903959642361526 29.92607165324226 2.3536634289222618 0 0 1
2095 1 15.608431761727942 27.71314410648576 0.5784552524408523 0 0 1
2090 1 17.124263637368777 29.454379848136316 2.219366099369497 0 0 1
2754 1 22.187626630955265 27.95178946651722 1.0444847035209897 0 0 1
2559 1 23.708230751506054 29.834328070690926 2.493864486979394 0 0 1
2685 1 28.376251605370804 27.91206756945087 0.4167038732435018 0 0 1
2688 1 29.4879423774466 29.643741081159718 2.1886986618327713 0 0 1
2735 1 34.40759209398612 28.12250873106635 0.9678781311197622 0 0 1
2059 1 1.017641018547228 32.94183439449992 2.098280507314319 0 0 1
1973 1 6.158341416727876 31.318236193270064 0.8483018078519035 0 0 1
2034 1 7.807581885964153 32.91887475269381 2.341855236619458 0 0 1
2025 1 12.69136824610178 31.40830243639739 0.7577520724216544 0 0 1
2159 1 19.022198052013547 31.131232320732163 0.7538175366782971 0 0 1
2718 1 20.633593302660856 32.65486405424342 2.497467821357832 0 0 1
2504 1 25.4461266177335 31.0705993794198 0.8662859780299037 0 0 1
2696 1 31.3889217153535 31.382955233541985 0.7333590883093603 0 0 1
2740 1 32.92843584414507 32.87965168116229 2.642361130785199 0 0 1
2024 1 2.968409625490381 34.61364496935802 0.78575414996685 0 0 1
2032 1 9.122321856856873 34.38101972023148 0.14792163801252117 0 0 1
1986 1 15.424740944776651 34.450239627407015 0.42151739289713286 0 0 1
2010 1 14.19903720085723 33.131359193256074 2.4115958068922643 0 0 1
2693 1 22.157153284106094 34.391245741619755 0.7802284424885043 0 0 1
2715 1 26.944149847542132 33.027326929517315 2.599162425627515 0 0 1
2694 1 28.451812018732337 34.617815492434076 0.697990664368791 0 0 1
2716 1 34.56878027240186 34.36128973862168 0.7169117851526067 0 0 1
1446 1 -0.07061307857102328 37.887186860906056 0.4271129872877709 0 0 1
1996 1 5.881124212011199 37.96390770231852 0.4240059942286406 0 0 1
2004 1 4.565809481773074 36.29822346503373 2.266090454042686 0 0 1
1987 1 10.757638822109502 36.282598747105325 1.9226853811332059 0 0 1
2038 1 12.714839736098408 38.25175639799578 0.5086661410660188 0 0 1
2048 1 17.194229158141827 36.03754860072563 2.095371661302648 0 0 1
2136 1 18.78903234353574 37.93395039259529 0.6913320510159571 0 0 1
2700 1 23.811809434389016 36.100870124433385 2.264171192975812 0 0 1
2726 1 25.476678964582543 37.717795061181846 0.8102253126041256 0 0 1
2703 1 31.408055960579393 37.74055981013704 0.8955131777222216 0 0 1
2750 1 29.804823314356554 36.177165374145005 2.5099848943654948 0 0 1
2077 1 1.3083220967846556 39.570302852677884 2.2999656178258747 0 0 1
2035 1 2.9700789420539278 41.00177830513596 0.6605234380685223 0 0 1
2067 1 7.780383530790955 39.2137596049334 2.2741501588771382 0 0 1
1938 1 9.279267313293303 40.88251847387741 0.8113059085600483 0 0 1
2065 1 14.603052784561783 39.47635798298593 2.2585330852306735 0 0 1
2049 1 15.872116987303261 41.057573899093114 0.5395372652804188 0 0 1
2632 1 20.565158898112227 39.28780739333615 2.4042216900775 0 0 1
2485 1 22.134150554614436 40.8104302114772 0.6487721241879765 0 0 1
2631 1 27.207279282996165 39.3658423265679 2.480352756236475 0 0 1
2707 1 28.5201575138912 41.11119572402981 0.5472998101080695 0 0 1
2498 1 33.144808506457814 39.481071650351225 2.3923101928266703 0 0 1
1429 1 -0.2372257834999939 44.091569390303974 0.7749337286952229 0 0 1
2069 1 4.457340684888255 42.56503461633274 2.4760609377182483 0 0 1
2002 1 6.222428940647063 43.95923538942168 0.8647961054134721 0 0 1
1965 1 11.079994103267307 42.32136382276509 2.4162602399573037 0 0 1
1897 1 12.508763860193906 44.23230640662982 0.7685426673399498 0 0 1
1863 1 17.397294764357696 42.59711609005119 2.4275078384151456 0 0 1
2124 1 18.82551640691823 44.09225223697504 0.8705295603838303 0 0 1
2434 1 23.7914131790797 42.806405797467704 1.9558585972881004 0 0 1
2709 1 25.3901123930248 44.25806280657923 0.37344113864303985 0 0 1
2360 1 30.259824045339602 42.59039539307895 2.3095948049411708 0 0 1
2711 1 31.994502638729507 44.25977569286438 0.6438882770843626 0 0 1
1827 1 1.0486814736579553 45.98671719214411 2.4550873050856534 0 0 1
2055 1 2.91389935732134 47.2606444802269 0.41676936645323925 0 -1 1
1617 1 9.191794590614835 47.29734910699571 0.3546905869954666 0 -1 1
1746 1 7.8853462676628965 45.753075150183776 2.233966582607975 0 0 1
1585 1 14.450815139340902 45.76266442990861 2.4745378359468257 0 0 1
1400 1 16.159074389015036 47.089397670051966 0.5923772537478705 0 -1 1
2281 1 20.56263446765778 45.493249683672516 2.3964124371437148 0 0 1
2262 1 22.289183798090093 47.10790244553638 0.7053097926549274 0 -1 1
2220 1 27.17561205662843 45.65677228469491 1.8978170282285993 0 0 1
2639 1 28.43786710371206 47.50205826530383 0.7029838681467818 0 -1 1
2181 1 33.59716686469828 46.09169303855187 2.359592554503999 0 0 1
2057 1 4.35566249632092 48.653769433032195 2.2159958615487274 0 -1 1
2058 1 6.154950859883881 50.594233003062854 0.7917107170609815 0 -1 1
1949 1 12.281511869508236 50.14290068317155 0.448290589757916 0 -1 1
2060 1 10.66545794607099 48.76638902722904 2.180935357509936 0 -1 1
2061 1 17.348502407024082 48.59182894635832 2.597655011988304 0 -1 1
2184 1 19.016830355970892 50.11143294468816 0.6726593680291325 0 -1 1
2713 1 23.753312725137466 48.51576073592996 2.7514035909723384 0 -1 1
2645 1 25.14104553594768 50.12089861881738 0.9085700120764475 0 -1 1
2642 1 31.216042006057176 50.93176563625414 0.6549875093580618 0 -1 1
2714 1 29.956847151754108 49.28329049526424 2.1239980708476853 0 -1 1
9 1 4.651124526808793 0.6912067430065308 5.669331635963981 0 0 0
2144 1 6.181411397620565 2.150381642886016 3.859866148270066 0 0 0
12 1 10.899400420990371 1.0008831804630494 5.672598310385043 0 0 0
2140 1 12.458901165759206 2.464156845440958 3.878268257592336 0 0 0
736 1 18.525539259588847 2.3365657221842637 4.237741561292765 0 0 0
13 1 16.966772306464097 0.8353106081692182 5.60292612394585 0 0 0
1153 1 25.126584443640937 2.3666033799341704 4.384972142811965 0 0 0
756 1 23.29061124832691 1.0449292851780905 5.815214700717518 0 0 0
759 1 30.227425102469372 0.8824692096239006 5.5601526083617525 0 0 0
813 1 31.68461321462148 2.7416394727180475 4.089317090006789 0 0 0
724 1 2.4604386106135108 5.36248266934072 4.196819779510997 0 0 0
14 1 0.9768225970906703 3.875951280937154 5.732269676822714 0 0 0
15 1 7.665530836452428 4.129483542456517 5.380256541973139 0 0 0
1467 1 9.448038358564194 5.673501725073816 3.834747861298332 0 0 0
511 1 15.532234980790928 5.384405523133523 4.050757986999295 0 0 0
17 1 14.218250509202244 3.8915101943269335 5.906635324797715 0 0 0
1307 1 21.91116923625857 5.772740247737269 4.470426229043427 0 0 0
761 1 20.166841254861104 4.080582467023602 5.601552890608937 0 0 0
2724 1 23.574091085109238 3.9052414672410602 3.077612224686494 0 0 1
762 1 26.89228928418993 3.7419072001256732 5.936056328378923 0 0 0
838 1 28.35258851526098 5.445987120911055 4.149992506835754 0 0 0
766 1 33.60220441073383 4.494841907837666 5.3132446898778625 0 0 0
2110 1 6.017121199750337 8.683977260764687 3.6651565591691297 0 0 0
19 1 4.353164380527728 7.324778420333708 5.5113311081463365 0 0 0
22 1 10.941744167084257 7.146967494356504 5.667625707898267 0 0 0
1797 1 12.441693262326773 8.442754736816099 3.912439635477379 0 0 0
25 1 17.0937654335363 7.1137108318358315 5.377227110507106 0 0 0
2187 1 18.865082194656807 8.592820344905423 3.7668273770172243 0 0 0
1052 1 24.92665455387833 8.874576411592235 4.007417273893043 0 0 0
768 1 23.66948007846938 6.874516942194032 6.043381520444308 0 0 0
771 1 30.00979166442845 7.341238589868508 5.94740127215206 0 0 0
27 1 0.9790852114756845 10.613918327234323 5.550751101762108 0 0 0
2127 1 8.945611543576582 11.676647609737271 3.8604240382760056 0 0 0
29 1 7.167342192166785 10.32261145667585 5.6768360125746495 0 0 0
1516 1 15.587642463315683 11.817123665650453 3.447537201813108 0 0 0
30 1 13.880170562102979 10.257205097073463 5.285068677558132 0 0 0
2737 1 21.742084592843884 11.834200587233834 3.6474746974731667 0 0 0
773 1 20.374766636189555 10.19692504480937 5.5310264842755625 0 0 0
776 1 26.437145858261633 10.53845283145448 5.657185915104499 0 0 0
1356 1 31.32161329342639 9.004225206480493 4.044877488024171 0 0 0
779 1 33.22140226398921 10.429494167403837 5.385694734937761 0 0 0
1881 1 2.1829198251776503 12.075619084488865 3.595853065419611 0 0 0
31 1 3.7877571265541095 13.820470363682533 5.228536726852227 0 0 0
32 1 10.584777031017833 13.50377781526283 5.491152086607682 0 0 0
35 1 17.150885019856176 13.43038694595292 5.10433378110514 0 0 0
1411 1 18.78483897375889 14.921556723107058 3.48799090173567 0 0 0
781 1 23.396862890578 13.388428395750214 5.218355036883198 0 0 0
1369 1 27.886638646234797 12.176184307719328 4.046217499607878 0 0 0
783 1 29.518409261486983 13.79634861118985 5.3805079799964375 0 0 0
36 1 0.5761564679134378 16.548990898495532 5.75140682212672 0 0 0
1392 1 5.683237960465509 15.223885011847624 3.782684541600566 0 0 0
38 1 7.576786062289261 16.75370463419942 5.369585053525264 0 0 0
1924 1 12.24849899096745 15.039004671090927 3.7702191841629205 0 0 0
40 1 13.78588615393475 16.70638551094561 5.315274532181559 0 0 0
786 1 20.149545670477526 16.615862021536177 5.296098158815251 0 0 0
2766 1 25.06372870975671 15.010732235602458 3.655139187641469 0 0 0
787 1 26.507552154883466 16.619345919389325 5.409577720863668 0 0 0
2774 1 31.704610597637455 15.193318987487517 3.8601250215289933 0 0 0
788 1 33.227196971851804 16.10180415952304 5.78300643367736 0 0 0
1144 1 28.60215970895437 50.47826398953461 22.965785549111384 0 -1 0
365 1 2.485923879666827 18.202500793012824 4.209129570351401 0 0 0
42 1 4.330670281791522 20.069127669606114 5.392802961610687 0 0 0
1698 1 9.10349479180101 18.391706314692414 3.705398113153143 0 0 0
45 1 10.852721888057296 20.055894780552975 5.31900825465042 0 0 0
748 1 15.610875977064824 18.36847436095346 4.023989592021796 0 0 0
46 1 17.119780394375862 20.136994004728585 5.440924155938799 0 0 0
2771 1 21.825623804237022 18.20958707187601 3.643838307102531 0 0 0
790 1 23.3086202402375 20.017109914920507 5.148738508503424 0 0 0
1362 1 28.36901072939969 18.529081079048886 4.058129479091694 0 0 0
792 1 29.875688459751647 19.608262996821196 5.9542901109131146 0 0 0
47 1 1.1215416300344094 22.887503819478564 5.2523607027681685 0 0 0
2116 1 5.944369891077175 21.690292814594986 3.8982443966652554 0 0 0
50 1 7.67728244712234 23.029115244048047 5.576803087724551 0 0 0
728 1 12.54486699436 21.799221410547787 3.975246845599595 0 0 0
53 1 14.100952260387078 23.376131104127733 5.673478519826009 0 0 0
743 1 18.608609278483517 21.534873492879324 3.970996740171282 0 0 0
794 1 20.223779495509543 23.24785361930052 5.390675427072624 0 0 0
2772 1 25.017018777385157 21.801401747849244 3.878274365374385 0 0 0
797 1 26.607365665476554 23.215495820358818 5.735243289417698 0 0 0
1361 1 31.450912980088145 21.61737081450347 4.330596624649431 0 0 0
799 1 33.13398529823362 23.28295382041046 5.622613899908432 0 0 0
3080 1 34.64434197135851 5.272886973468827 16.731374517695823 0 0 0
1969 1 2.9959911664843046 24.8587561398398 3.6617937067448887 0 0 0
56 1 4.411228457237298 26.468250131692567 5.596398932450984 0 0 0
120 1 9.349506408449033 24.654507642909042 4.072905990076584 0 0 0
58 1 11.233360030416028 26.164114101675736 5.26674219706946 0 0 0
2083 1 15.501496419603123 25.032124898105867 3.8438392893007567 0 0 0
60 1 16.476352318002252 26.527231482873844 5.882522870670602 0 0 0
2763 1 21.928781428478725 24.792266493410803 3.7921189181433674 0 0 0
801 1 23.52718525315473 26.184966403040608 5.529027348243449 0 0 0
1355 1 28.352504383739216 25.195754526222565 4.421871288789682 0 0 0
803 1 30.31201313957473 26.547920885183412 5.924747157879044 0 0 0
4211 1 0.3178063265718103 17.376387921265525 2.120827335047134 1 1 0
62 1 1.3732383437355913 29.982193563933905 5.491948967594348 0 0 0
1231 1 26.898854923331363 49.07254668226874 24.80114154624973 0 -1 0
2138 1 6.06312124151254 28.25608842703932 3.903742093838243 0 0 0
63 1 7.569761981248538 29.844406440166985 5.805057303031499 0 0 0
2103 1 12.733343801907651 28.37395522219391 3.906204453602884 0 0 0
59 1 18.48375745127534 27.814534263496913 4.315461410588034 0 0 0
805 1 20.19432200802225 29.869425180670614 5.391506832691546 0 0 0
1354 1 24.984264118132543 28.034319141422532 4.112369695476313 0 0 0
806 1 26.877225867488598 29.760002490197863 6.065932016495982 0 0 0
1366 1 31.398157709915118 28.34401510174898 4.061868657868107 0 0 0
807 1 33.11146707042313 29.926070475201616 5.566717476820132 0 0 0
1148 1 22.032134337902956 50.31908854367005 23.434198112524392 0 -1 0
2132 1 2.807225834281622 31.74621493197322 3.9443547054178385 0 0 0
737 1 9.227393851956514 31.346096800286688 4.172211828151695 0 0 0
71 1 11.093388219089755 32.973166931063844 5.235199136029413 0 0 0
66 1 14.02513946757146 30.018630689355682 5.557125937217164 0 0 0
1452 1 15.629837885719102 31.22859519362396 3.844411065288459 0 0 0
72 1 17.48123267008689 32.732028870507165 5.212911779537695 0 0 0
826 1 22.227258434605233 31.150821320909397 4.251482294383502 0 0 0
760 1 28.601814966067128 31.56628395127428 4.176986655881311 0 0 0
3536 1 34.62277919400672 31.421240292035733 4.017746164316833 0 0 0
2145 1 -0.1031462496765026 34.512430813875625 3.9434799117166994 0 0 0
69 1 4.566305089818156 33.26809989145573 5.298566261377576 0 0 0
2102 1 6.203795864189804 34.601167916338255 3.7857896658936983 0 0 0
1499 1 12.457834074582253 35.08100611276414 3.6980553353736734 0 0 0
80 1 14.628110680921914 35.93768776267689 5.3035336769962464 0 0 0
2626 1 18.93275184881754 34.61704527913328 3.7029056238625184 0 0 0
809 1 23.96979695410504 33.13888752016554 5.826464721938214 0 0 0
1377 1 25.537196372103473 34.71618881364404 4.154561839682149 0 0 0
810 1 30.09821956740431 33.19850844085781 5.960906304083081 0 0 0
820 1 31.74771059447714 34.722722019195004 4.310239579034018 0 0 0
74 1 1.5715602815355616 36.218031120216395 5.016405432559096 0 0 0
1414 1 3.0359060603979384 37.91269727353814 3.8507169751147527 0 0 0
77 1 7.763867796745796 36.24419006199075 5.472359971490662 0 0 0
1514 1 9.489794052767447 37.89623523669452 3.8203678679920436 0 0 0
1448 1 15.986703149720416 37.72586616104792 3.730669456562868 0 0 0
816 1 20.590193676056387 36.23144275537729 5.38093773772234 0 0 0
2767 1 22.084101224077063 37.62537883028398 3.7406042617666295 0 0 0
822 1 23.95006942704089 38.915215156714325 5.142926033332221 0 0 0
802 1 28.296611941187532 38.13585794796812 4.416477698835669 0 0 0
817 1 27.20683705261935 36.06536616751622 6.036489804578821 0 0 0
5776 1 0.38528615273336186 30.094927722788015 8.235324494426186 1 1 -1
819 1 33.42553667116836 36.19119651227233 5.956961450553606 0 0 0
2139 1 -0.1901321268688015 40.916274849276476 3.843771303391029 0 0 0
82 1 4.590117873889452 39.49326697143459 5.235456963589435 0 0 0
1812 1 6.1764407839687925 40.791432708623844 3.7560163445071693 0 0 0
90 1 7.921481911454697 41.99063567651962 5.593180026430344 0 0 0
84 1 11.368760242052224 39.122725390474514 5.489471308812084 0 0 0
2146 1 12.771402547344065 40.984553538221604 3.892501045307619 0 0 0
86 1 17.44004756248485 39.07441938925956 5.407762832167294 0 0 0
1374 1 18.912202529987535 40.655699075861136 4.008704479118628 0 0 0
2643 1 25.441920755640098 41.27397180342399 3.7261433386487974 0 0 0
823 1 30.074203033683435 39.42680454193764 5.902350950198693 0 0 0
1375 1 31.667882345785138 40.92896025843676 4.037350574504295 0 0 0
747 1 2.6117722049399084 44.12789456922039 4.012670430776549 0 0 0
89 1 1.1320908519230648 42.39151770283442 5.710505302649344 0 0 0
2131 1 9.40251171437801 43.92442584008329 3.755213643675022 0 0 0
92 1 14.086668281738076 42.542915881003736 5.738826111693363 0 0 0
614 1 15.82509294302885 44.132753614815556 4.433275181448082 0 0 0
828 1 20.536771836672646 42.29668407008114 5.633123759303645 0 0 0
1340 1 22.021944144201907 43.92278953166036 4.003310822356395 0 0 0
830 1 26.917129528394774 42.621140245738715 5.485564874809537 0 0 0
2746 1 28.76093090085038 44.191109370450775 3.710793056567028 0 0 0
832 1 33.32819864328414 42.45743090592633 5.478262015974995 0 0 0
750 1 5.9814896278050975 46.688653610786474 3.9789046869390745 0 -1 0
94 1 4.270834205138209 45.33851116539192 5.661814537972226 0 0 0
1441 1 12.200635714316551 47.23824645447441 3.74901314481895 0 -1 0
96 1 10.896666302568399 45.58894135290116 5.485380597491875 0 0 0
97 1 17.49847507289552 45.7879152280172 5.93615210145339 0 0 0
769 1 19.165551544404178 47.22732481200059 4.097942215888939 0 -1 0
833 1 24.127404596454525 45.38365625723311 5.653855362720411 0 0 0
1322 1 25.79443432978048 47.059033960991144 4.084085249808914 0 -1 0
836 1 30.20396570514204 45.82940645165188 5.600169183775001 0 0 0
2494 1 31.56068133416436 47.48515956718357 3.748261993241276 0 -1 0
1 1 1.2425669454831725 49.070400106702806 5.82017981709188 0 -1 0
73 1 3.069017873340642 50.16909112216524 4.152894401217399 0 -1 0
3 1 7.749806129284362 48.14144840174764 5.285724842019577 0 -1 0
2134 1 9.215552146147997 50.25088361231137 3.7864683304632316 0 -1 0
2142 1 15.511987327015037 50.21461069391101 3.934505864432831 0 -1 0
5 1 13.675544465263956 48.82577723902166 5.434709657938815 0 -1 0
751 1 20.82504923037963 48.78385796043388 5.360893540994577 0 -1 0
1370 1 22.054333818922416 50.40559609742742 4.081096027553629 0 -1 0
752 1 26.999961981677433 48.790234412564374 5.847806224217784 0 -1 0
1009 1 28.49741739953908 50.2931364473766 4.145984045106186 0 -1 0
754 1 33.141436107696705 48.79520604511775 5.179941535381374 0 -1 0
109 1 2.5008546145120407 2.035449228536537 7.148792884270608 0 0 0
111 1 8.971505232049912 2.5045313694294973 7.114308586939385 0 0 0
104 1 7.655996615178756 0.7070962617206666 8.723593052555605 0 0 0
107 1 13.860980228781528 0.9655620353517009 8.810214712730057 0 0 0
106 1 15.689735943934155 2.520561853642404 7.315996015038721 0 0 0
757 1 21.851175687350477 2.6772862160906423 7.525927793281047 0 0 0
844 1 20.28609160224738 0.8474640132866965 8.804505857848861 0 0 0
845 1 26.716402492317552 0.7073890094478731 9.236033003785998 0 0 0
764 1 28.75279921879648 2.132936152633724 7.456188209790129 0 0 0
846 1 33.34402623529412 1.0670571158409738 8.359149614614195 0 0 0
116 1 5.986400535450878 5.435565728147199 6.913836574978698 0 0 0
110 1 4.158529640835267 3.8773403591083317 8.584148057976725 0 0 0
112 1 10.799407112922868 3.989370714658831 8.889120794658407 0 0 0
23 1 12.529321096945512 5.645229723335712 7.374208749377157 0 0 0
114 1 17.221007184684705 4.163393613006048 8.987562997447526 0 0 0
742 1 18.84905153711804 5.837774793432429 7.125571861383117 0 0 0
848 1 23.60716363328304 4.002638949540863 9.13888998713142 0 0 0
770 1 25.270837598151694 5.354541933543872 7.676509483732833 0 0 0
850 1 30.09071141046367 4.232059226840012 8.917352382745479 0 0 0
765 1 31.91742553483226 5.680971969125063 7.022715134042777 0 0 0
121 1 2.6141467785135664 8.884612066860917 7.2273644840758235 0 0 0
115 1 0.9764602070238675 7.4409009446896865 8.705048168643588 0 0 0
21 1 9.223405928127239 8.801558121825318 7.048486767424839 0 0 0
117 1 7.442148090506608 7.094900457573416 8.748016566503878 0 0 0
118 1 14.113378562277926 7.273683294989902 8.959740619168665 0 0 0
125 1 15.735904858857566 8.782131529759614 7.032016223895052 0 0 0
851 1 20.555391109366234 7.236066786360882 8.79496968018212 0 0 0
856 1 22.2081643295432 8.717716797582199 7.345661125440796 0 0 0
778 1 28.03259779765619 8.900236810520656 7.089195485815208 0 0 0
852 1 27.010977281796485 6.944665177850241 8.79580892492684 0 0 0
854 1 33.39537370441579 7.191845331304326 8.751678060358326 0 0 0
122 1 4.200823976906724 10.850099514618138 8.463051346339247 0 0 0
124 1 10.866294777673502 10.401897916253292 8.750333970934697 0 0 0
126 1 12.50755439029614 11.88024834527519 6.945698376087901 0 0 0
338 1 18.619020111341314 11.92004101111404 6.95274760698548 0 0 0
127 1 17.15878028303017 10.530924956326778 8.660511884429797 0 0 0
857 1 23.606216467273647 10.386027553665649 8.733252128647697 0 0 0
858 1 30.16536926803749 10.43248452453043 8.372791893077313 0 0 0
129 1 1.1749831828913482 13.89456674735161 9.041674550871104 0 0 0
123 1 5.665301731433748 12.429590740001334 6.830318375051435 0 0 0
130 1 7.452848664520008 13.662956887346194 8.436209407613458 0 0 0
132 1 13.88533017488135 13.923810635878358 8.66808680161373 0 0 0
780 1 21.710937019261443 14.914433729094936 6.85207641878827 0 0 0
860 1 20.55522991849029 13.568973368440172 8.641184292109623 0 0 0
775 1 25.29013779290653 12.18140827074712 7.274947941947093 0 0 0
862 1 27.188443695512735 13.4561149278785 8.882628531680943 0 0 0
784 1 31.48323656140871 12.333017821755218 6.971154745832378 0 0 0
863 1 33.01499692820532 13.664849301708113 8.94715916762447 0 0 0
128 1 2.6812034301996825 15.455942797448616 7.097360428781241 0 0 0
135 1 4.407242575306816 16.833892024242225 8.734864461334485 0 0 0
131 1 9.248128774007723 15.166370115272905 7.050782768328898 0 0 0
137 1 10.663795483052503 16.593736688904748 8.778401022044939 0 0 0
133 1 15.616094981267013 15.368674977594575 6.85580429123248 0 0 0
139 1 17.01750877842008 16.71160267334656 8.83657365470343 0 0 0
865 1 23.680668724502535 16.272941265782283 8.246399700873178 0 0 0
782 1 28.378671124224002 15.496176924734403 7.077392873100746 0 0 0
868 1 30.01171306735009 16.82448484727119 9.02665024314539 0 0 0
141 1 0.9087387187595042 20.064454511992107 8.802944576742187 0 0 0
43 1 6.059655205791817 18.300767414286497 6.834283054507859 0 0 0
143 1 7.5315339420053435 19.974829173480867 8.72184606947205 0 0 0
138 1 12.026763320836416 18.2927060561623 6.962582002956601 0 0 0
146 1 13.842861500075617 20.000479419630622 8.680327046460349 0 0 0
739 1 18.506675365553313 18.164303199493112 6.826882641784538 0 0 0
870 1 20.16116865904446 20.018744222104043 8.47162095008495 0 0 0
866 1 24.86858276120328 18.376815934694722 6.842274971047305 0 0 0
872 1 26.513413076818527 19.620882978610414 8.761250867269993 0 0 0
793 1 32.01935430815744 18.11159779634582 7.353012037479333 0 0 0
874 1 33.32023436641461 19.934997237344284 8.914035543594338 0 0 0
148 1 2.55968962211575 21.600944249355734 7.103284849264946 0 0 0
151 1 4.239992151230492 22.963870592072748 8.775079665476937 0 0 0
144 1 9.223023899588798 21.323588989334326 7.156119512866957 0 0 0
152 1 11.076983893323277 22.987847622793193 8.528360047018447 0 0 0
145 1 15.607539110050142 21.550651321032486 7.166178608654973 0 0 0
155 1 16.94741488666492 23.494038658878534 8.483233815561906 0 0 0
871 1 22.152903730725605 21.50738406870601 7.1500220023218635 0 0 0
875 1 23.923582472466293 22.935095298831484 8.764914279498232 0 0 0
796 1 28.329940001716686 21.321930328631826 7.3862299743843565 0 0 0
877 1 30.191073578178564 23.068836689808165 8.790055498252404 0 0 0
158 1 1.0321052138144962 26.19363012032407 8.485655719195693 0 0 0
149 1 5.8447476861516074 24.65662904992238 7.171167621108381 0 0 0
160 1 7.8469126646481655 26.28959136963662 8.655303672151655 0 0 0
153 1 12.629631184107765 25.04051162349554 7.338873107695131 0 0 0
161 1 13.791814159614043 26.544004455850224 9.16226458505147 0 0 0
727 1 18.576408260100703 25.106715558153383 6.964967085664484 0 0 0
879 1 20.449631940799506 26.393822058602808 8.589655270152438 0 0 0
876 1 25.484791732697637 24.90567601120113 7.447790631821866 0 0 0