LAMMPS data file via write_data, version 29 Oct 2020, timestep = 200000

4608 atoms
1 atom types

0.001915987333376279 57.268594012670675 xlo xhi
0.0017030998517881812 50.905416900146605 ylo yhi
0.0017030998517881812 50.905416900146605 zlo zhi

Masses

1 18.015

Atoms # atomic

5 1 1.569234890621331 1.7906109115599376 1.862849858660119 0 0 0
3 1 3.5626169358889874 0.06126463207296368 3.209230465696902 0 0 0
13 1 8.04197416517822 0.8665842982746887 1.3312284428926315 0 0 0
506 1 0.07689046365162255 34.82181046286813 15.72425247603295 0 0 0
21 1 13.936295577786142 1.5472849789515184 1.4794233750404713 0 0 0
18 1 12.704773734254363 3.105765433083054 3.1639578566093625 0 0 0
19 1 16.018571355473338 0.3296575720243772 2.88385206229218 0 0 0
554 1 0.05078805329390213 47.908158413924426 15.626088458106288 0 0 0
8 1 4.959721071174712 4.5716268807802996 1.7128014404418623 0 0 0
698 1 0.13524167225552727 35.22793244258467 21.766619263623152 0 0 0
626 1 0.014899771184692504 15.56645342565343 22.435930665809742 0 0 0
16 1 11.174870020857346 4.879661483860492 1.7160507956967586 0 0 0
24 1 17.210074073939627 4.714966739867635 1.6467479954196074 0 0 0
29 1 1.3048994586129943 7.739486624034832 1.7754057980552624 0 0 0
37 1 7.958145680872619 7.991674714891059 1.4252589571681125 0 0 0
828 1 10.093455727852247 15.640360859162932 25.221153921899287 0 0 0
45 1 14.476124317120584 7.754963047588021 1.9488469988329111 0 0 0
146 1 0.07074103116035246 41.146028730096 2.668324204148027 0 0 0
32 1 4.663340642146242 11.170028862577963 1.5556385956620957 0 0 0
852 1 9.594125585442805 22.493694550343154 25.33757416042246 0 0 0
59 1 9.507761271435278 12.638979012360545 3.084644603567992 0 0 0
40 1 11.21698926999424 10.993160649882675 1.7111045568227607 0 0 0
42 1 12.796149226319862 9.49938475260715 3.4086396812983635 0 0 0
953 1 12.631304223683204 44.58998022203114 25.32251943009368 0 0 0
48 1 17.33639391219555 10.960080306659135 1.4222455870628965 0 0 0
865 1 0.2728500174334096 25.758132543591145 25.428062158401513 0 0 0
53 1 1.3071500771287334 14.44173049418581 1.594849593393419 0 0 0
697 1 0.1259881199628623 32.0916457352129 19.22034527403367 0 0 0
61 1 7.462598320014126 14.151968066718519 1.7202660305484452 0 0 0
69 1 14.139836793375961 14.08690847682963 1.3305757572653436 0 0 0
56 1 4.100931049454038 17.631282117538092 1.2743435261675293 0 0 0
64 1 10.86191469288415 17.316268601326932 1.5355665587287253 0 0 0
940 1 3.0099304260086215 47.68021126230261 24.992707807398514 0 0 0
844 1 3.5575470931102653 22.37232665181778 25.185533711726283 0 0 0
72 1 17.393210663398413 17.243266833792763 1.1507990763242832 0 0 0
77 1 0.906357570562261 20.345336654072955 1.794441482546886 0 0 0
529 1 0.3144451610327043 38.35826734863338 12.11142944458972 0 0 0
85 1 7.869871411415034 20.548965043886813 1.4146440465383967 0 0 0
481 1 0.13226475433093643 25.180820624326284 12.533635617391834 0 0 0
93 1 14.046052259799534 20.501896795914842 1.3606214672839398 0 0 0
766 1 14.315381113958741 49.09694632541627 23.722947823699432 0 0 0
80 1 4.640965802029978 23.846810456804146 1.4377388585305624 0 0 0
82 1 6.360784039317275 22.087825647290714 2.871576550251634 0 0 0
746 1 0.07888526142869523 47.698335270472086 21.838757533126863 0 0 0
88 1 11.128438966940545 23.833647725532742 1.3643353944033518 0 0 0
96 1 17.362270947603253 23.914316979979045 1.485604925178875 0 0 0
101 1 1.4488512240011204 26.650244214265253 1.298041192755282 0 0 0
722 1 0.1157578071042675 41.433041729280646 21.948958298064124 0 0 0
2209 1 18.99801609659259 25.624944014542393 19.314488194019397 0 0 0
109 1 7.969834987163273 26.791104847116724 1.6207634576244507 0 0 0
362 1 0.10055282299728674 47.88669086287945 9.286922731190437 0 0 0
772 1 3.0723725065935645 3.237792648932108 25.16982625466595 0 0 0
117 1 14.359447957070119 27.13628090765362 1.716926338466387 0 0 0
361 1 0.1876548599866075 44.42967364198443 5.998694379994586 0 0 0
434 1 0.10075634990386055 16.371262060662428 15.968977672509084 0 0 0
104 1 4.721096876263744 30.212006220032848 1.640255409617957 0 0 0
131 1 9.445592959244062 31.677194470873665 3.07911763242919 0 0 0
112 1 11.507059052025793 29.90948265040603 1.3123464396286055 0 0 0
1657 1 18.719016506880912 31.551152658099415 0.36610912855618516 0 0 0
120 1 16.722254181249536 30.27067486544038 1.9248623834794074 0 0 0
758 1 7.67776318689909 49.45070619821741 23.787344087103033 0 0 0
125 1 1.699213498697599 33.70731951957469 1.5363592148324432 0 0 0
133 1 7.862884570462044 33.57026291195063 1.8478075207465379 0 0 0
849 1 6.654645147811322 19.009548942910946 25.33647526855086 0 0 0
948 1 9.395534695035325 47.74595095585033 25.29099166855437 0 0 0
141 1 14.284037106521883 33.74356346360516 1.6011906309145927 0 0 0
139 1 15.572176546873935 32.185350495078836 3.5426118482008424 0 0 0
482 1 0.34129472464785 28.897573168166574 15.963647084378724 0 0 0
128 1 4.875351327640161 36.97580471550994 1.3440017799514499 0 0 0
130 1 6.14986736267406 35.3160754558271 3.1716432926837697 0 0 0
136 1 11.367829339560394 36.68243542291854 1.280970612756275 0 0 0
144 1 17.721806885161406 36.44257582177495 1.2588014187863343 0 0 0
4 1 3.386002389074962 2.883476915944719 0.20440401267338354 0 0 0
149 1 1.8964839784733676 39.910096076608696 1.0633369039810951 0 0 0
785 1 12.58821257465942 50.76100173022012 25.043344918956638 0 -1 0
154 1 6.261215683123078 41.29155138547192 3.0099766818237814 0 0 0
157 1 8.055961280861863 39.936116329598086 1.5168740751513108 0 0 0
193 1 0.185801656791222 0.0958951006399171 6.102737455110899 0 0 0
745 1 0.020322348302638547 44.52197570210345 18.619466213954126 0 0 0
165 1 14.883811502980535 39.63123903609813 1.3489428594566186 0 0 0
162 1 13.40090186593507 41.07217178627977 3.1677026142228097 0 0 0
152 1 4.899037861720253 43.1679673686913 1.2812270733757336 0 0 0
171 1 3.195236329013218 44.34276531594723 3.3073822716796997 0 0 0
160 1 11.64174140238723 42.79939031532111 1.5338946920368706 0 0 0
179 1 9.719942084257099 43.95690981720921 3.2651318028297065 0 0 0
168 1 17.680840131678067 42.751340421593774 1.4526194152405685 0 0 0
242 1 0.04289256863808011 15.65586904579178 9.846656575324245 0 0 0
505 1 0.016581643132576523 31.88767151388964 12.506970398745432 0 0 0
173 1 1.459344516303177 46.050852230732815 1.753756813669477 0 0 0
181 1 8.212739761210589 45.65209559017988 1.637053569506856 0 0 0
178 1 6.320798696759554 47.560594108586166 3.5100714621306053 0 0 0
189 1 14.34523970884199 46.201447730030885 1.781927472191931 0 0 0
2 1 0.05483635317303737 3.468905162334466 3.602256701103516 0 0 0
176 1 4.5814469627113565 48.98222140099973 1.705324196404115 0 0 0
186 1 12.754789894073227 47.78807859003712 3.28614180226779 0 0 0
184 1 11.17215039811266 49.231323864341526 1.5298256687398528 0 0 0
192 1 17.738957872652772 49.42924282500912 1.9782072842192697 0 0 0
7 1 4.916087181955842 1.7854957258324087 4.838706762916755 0 0 0
15 1 11.514216896543134 1.1267975337956706 4.6217444595961865 0 0 0
11 1 9.659383351292982 50.489983796733 3.2420270369926767 0 -1 0
23 1 17.758298700529057 1.5687207822752383 4.769046751279149 0 0 0
6 1 1.3967120201318275 5.041591094466197 5.408032399848877 0 0 0
10 1 6.732030348213781 2.682992843315728 2.8492525143264253 0 0 0
14 1 7.948662007882605 4.587432156862879 4.750869854333619 0 0 0
204 1 9.844785900947276 2.750134342683749 6.167191117090179 0 0 0
43 1 15.939808269147546 6.391283164692574 3.350735577701015 0 0 0
22 1 14.120748202858561 4.84452760346555 4.837032266072819 0 0 0
750 1 1.5314197093723114 49.31705076460268 23.50425911446529 0 0 0
27 1 2.820851403241363 5.908742496920156 3.1844189200861783 0 0 0
31 1 4.469737811788369 7.740868337628359 4.612164165552956 0 0 0
35 1 9.257196095831805 6.375337670478472 3.1501174506945553 0 0 0
39 1 11.075406854675741 7.852304733591811 4.915520005814831 0 0 0
236 1 16.064702179195308 9.820907319835351 6.4699987412475775 0 0 0
47 1 17.462961056381957 8.025405001921838 5.013440290326852 0 0 0
30 1 1.3045389898563478 11.285535731593779 4.732423291198662 0 0 0
34 1 6.2879177486576685 9.290832348463535 2.9507082959648803 0 0 0
38 1 7.735947259683499 10.941369660743149 4.775163880339392 0 0 0
46 1 14.371808377520924 11.11920463202376 4.985765420000196 0 0 0
793 1 0.005208274465440459 6.780765634131276 25.284629618916764 0 0 0
108 1 9.633193195553128 28.40787978338438 0.12483968198008846 0 0 0
51 1 2.933542917832879 12.721592624178628 3.2625739510537497 0 0 0
55 1 4.511807912863108 14.676659502373587 4.491709481270243 0 0 0
58 1 5.96852133781929 16.24777662279701 2.867632890628685 0 0 0
63 1 11.141939896168127 14.230834167434445 4.777468998416152 0 0 0
67 1 15.985732406933103 12.619655415688124 3.0682613831315004 0 0 0
66 1 12.774497921821997 15.70134671710474 2.9824011730161177 0 0 0
71 1 17.401064067674 14.359177135345965 4.688123128283061 0 0 0
75 1 3.0002440503299797 19.258083646647123 3.1332591478343037 0 0 0
54 1 1.502009441841273 17.704985658951706 5.067264956542133 0 0 0
62 1 7.746591101675805 17.474603742000006 4.4650098524278325 0 0 0
83 1 9.532353042382608 18.970046213287862 3.086928431594629 0 0 0
70 1 14.144969051054755 17.734074503002056 4.6956578849702755 0 0 0
91 1 15.8665577341949 19.1712785010221 2.892983686251378 0 0 0
385 1 0.004459423756172811 50.85672312480649 12.52835444358239 0 -1 0
79 1 4.717132126577359 20.628727298539243 4.762081504654472 0 0 0
276 1 9.025864525540397 21.994090541328685 6.2707411316283475 0 0 0
87 1 10.940514206971853 20.38984521243043 4.805387244374287 0 0 0
90 1 12.29625589778648 22.07980702866252 2.999195286716468 0 0 0
95 1 17.260541552604188 20.507086298100344 4.863251458902142 0 0 0
650 1 0.3472643722835108 22.468043388922283 22.496635070393936 0 0 0
78 1 1.23717654559406 23.842162075212922 4.829800674700026 0 0 0
268 1 2.8454857501891384 22.133387039619777 6.054458995141993 0 0 0
86 1 7.824859207630329 23.753011909960055 4.749132133359079 0 0 0
107 1 9.507381268325956 25.0946209065615 3.1917067045558674 0 0 0
115 1 15.858047224270646 25.320479405172208 3.2017124692954244 0 0 0
94 1 14.102725535551413 23.778526164311902 4.707833234809356 0 0 0
579 1 3.453199395078549 50.538291586943586 22.130068472553244 0 -1 0
99 1 2.8793744809519777 25.370505691773182 3.139152158381769 0 0 0
106 1 6.1470159107023665 28.409989943178605 3.2066750311340058 0 0 0
297 1 6.219099440419534 25.325228043553892 6.1580084900733185 0 0 0
103 1 4.550768426392367 26.726206107518532 4.802083496886897 0 0 0
111 1 11.351511985815227 26.75005601744885 4.556671930001065 0 0 0
114 1 12.895927492105056 28.79183725823755 3.373491381190414 0 0 0
308 1 15.974103803146027 28.815275127075633 6.4904061260975645 0 0 0
119 1 17.1908192827975 27.25356334323634 4.511784947609599 0 0 0
767 1 17.701429007406357 45.921545691689566 23.757916212745155 0 0 0
123 1 3.0685950060194838 31.782826533473692 3.467001458437812 0 0 0
102 1 1.3598889794161222 29.93884218180458 4.5141940108581595 0 0 0
321 1 6.382375136075119 31.660919903720863 6.232119448533989 0 0 0
110 1 8.138565863671458 30.034294666294855 4.682942528767312 0 0 0
118 1 14.051948836535091 30.287358911909635 5.187215649657543 0 0 0
530 1 0.41275021436741766 41.30506089534401 15.579778136641039 0 0 0
127 1 5.069708550259587 33.26090781796298 4.590787206252884 0 0 0
135 1 11.127563721481936 33.25219921734564 4.601080052139379 0 0 0
324 1 9.680968308184326 34.58195648438479 6.451032004151016 0 0 0
138 1 12.52360524620402 35.148570505695 3.1308318659305923 0 0 0
143 1 17.412603554371373 33.220985909431796 5.24680496001391 0 0 0
553 1 0.3141637216564831 44.63264804043057 12.705678388208856 0 0 0
126 1 1.8047525993739177 36.99838173502103 4.477750870110873 0 0 0
147 1 3.4288103332469126 38.41294281260955 3.011680301281332 0 0 0
134 1 8.361092695521815 36.35967420731839 4.709544671834402 0 0 0
345 1 6.277144840874051 37.99998199763912 6.290059516633225 0 0 0
155 1 9.55786893182426 38.01911201046405 3.085939027074767 0 0 0
142 1 14.08907026975539 36.68682785775515 4.816494100971285 0 0 0
332 1 15.474641848241658 35.0694211388679 6.5414107713210825 0 0 0
163 1 16.109712186187686 37.706958721494004 3.031470197267702 0 0 0
151 1 4.711026614431768 39.6885281287905 4.733024526076586 0 0 0
340 1 3.189656394492581 41.25292927257268 6.381954316651433 0 0 0
159 1 11.484501069855241 39.64340402314882 4.57459163115291 0 0 0
167 1 17.573661377365287 39.36203262098458 4.683927535458674 0 0 0
150 1 1.558713771919379 42.65916678172684 4.599779399070791 0 0 0
158 1 7.790968754774605 42.78267829710832 4.724150976567617 0 0 0
369 1 6.454612404344048 44.50034628947429 6.470057677304802 0 0 0
166 1 14.679964484926211 42.79288560185465 4.783433871595271 0 0 0
187 1 16.011647488368624 44.62066901376914 3.1394455585117544 0 0 0
356 1 16.24131201099251 41.26149974031638 6.453362296156048 0 0 0
857 1 12.92237832619887 18.786625873352254 25.232897370203855 0 0 0
175 1 4.6362811387971155 46.410469760370404 5.263351650405618 0 0 0
372 1 9.719893165677803 47.620190779289025 6.349613333712015 0 0 0
183 1 11.154225897906265 45.98550460355963 4.641889833408304 0 0 0
191 1 17.402511576562993 46.25424806751331 4.650335703262719 0 0 0
174 1 1.742337482201276 49.382166219398705 4.724486716803649 0 0 0
182 1 7.803526677579384 49.218125226516314 4.760904954231262 0 0 0
201 1 6.510945831821724 0.08864200995525358 6.5847582799754365 0 0 0
190 1 14.534629290702819 49.51083853642917 4.610040752932507 0 0 0
868 1 3.414277294574709 28.645843321075088 25.174502164782368 0 0 0
197 1 1.6625720898676204 1.6383235855865073 7.951913779086825 0 0 0
205 1 8.323966724307937 1.6111410172154272 8.120369139167364 0 0 0
213 1 14.784273356755733 1.668724257841724 7.904956922567677 0 0 0
212 1 16.33059223704677 3.405061139844201 6.2985828369717005 0 0 0
196 1 3.1026079384403547 3.4415399915464397 6.7014054792404405 0 0 0
200 1 4.70855036171136 4.617652974272828 8.513521733054276 0 0 0
208 1 11.332647610059592 4.759810491996292 7.814116462476748 0 0 0
235 1 16.14598860254195 6.195800593615564 9.68282405512819 0 0 0
216 1 17.713715190158776 4.84386754084523 7.994069058203145 0 0 0
220 1 3.111922213946249 9.84890795072224 6.108706709854841 0 0 0
221 1 1.886327366855145 8.552665779657751 8.293212863449211 0 0 0
225 1 6.201588451274492 6.310677455373587 6.4151889048542206 0 0 0
229 1 7.975867185712188 7.630255844178401 7.75298629276132 0 0 0
228 1 9.41883708370563 9.57066616218155 6.57030210926742 0 0 0
233 1 12.95595247299055 6.594429745009173 6.593937201505989 0 0 0
237 1 14.709967352061446 8.070058299378399 8.066987794561308 0 0 0
763 1 15.848919972076285 44.04863745747465 22.418441962351018 0 0 0
897 1 6.196448807741215 31.99988569392113 25.315775357790024 0 0 0
224 1 4.720129091598753 11.479887176677181 7.984864677094286 0 0 0
249 1 6.079688266571522 13.05437614624303 6.21044455663167 0 0 0
232 1 11.1472114571406 10.960724719202974 8.239115349012755 0 0 0
240 1 17.304763997532934 11.537401033724839 8.205611872053066 0 0 0
259 1 15.704032577007167 12.766420379702492 9.916660791409113 0 0 0
245 1 1.5074382980942018 14.097263182775526 8.132851400122941 0 0 0
253 1 7.8734421315557395 14.436379695546202 7.837933984691134 0 0 0
257 1 12.671485561613574 12.817632370695975 6.606215447215995 0 0 0
258 1 12.412885482149811 15.681201211902215 9.682193079040054 0 0 0
261 1 14.176469600791473 14.069018699292922 8.186340030377698 0 0 0
244 1 3.0046235843926214 15.717242518210284 6.475736506131321 0 0 0
267 1 2.9746701037101833 19.107706133258322 9.367796544498058 0 0 0
248 1 4.66906112218238 17.350168101772308 8.037479244872639 0 0 0
252 1 9.367229293450894 16.02588967420394 6.057879000499596 0 0 0
250 1 6.281320917587125 15.94342314453756 9.879932351456501 0 0 0
256 1 10.87057833420126 17.43867432614336 7.826390273601397 0 0 0
260 1 15.807811998626857 15.746241809012108 6.3869814382412615 0 0 0
264 1 17.328803636193893 17.64684642295975 7.63453462011337 0 0 0
269 1 1.350292105592306 20.60692602216735 7.699107682167015 0 0 0
273 1 6.045500420658923 18.749191578507677 6.396510821089114 0 0 0
274 1 5.668968587224902 21.994724140728376 9.606668056415915 0 0 0
277 1 7.415384655691437 20.26650264081842 8.056166268110044 0 0 0
275 1 9.39683703800985 18.889738233059045 9.63939190744039 0 0 0
281 1 12.578860520787485 19.00585682143597 6.466695737537942 0 0 0
285 1 14.295052565397267 20.843323972185114 7.864512804750396 0 0 0
577 1 0.23490145278009214 0.2918779688955059 19.10398480820692 0 0 0
272 1 4.45823891402283 23.705118419016372 7.757182336684243 0 0 0
299 1 9.484612828682426 25.22849523957898 9.806654934295347 0 0 0
280 1 10.697924702210589 23.751526666250857 7.796620522712738 0 0 0
305 1 12.805241072120571 25.362620485067964 6.274397913762364 0 0 0
284 1 15.819942894853687 22.398231173223543 6.040568207073419 0 0 0
307 1 15.793750396872934 25.533754729509518 9.675062154293617 0 0 0
288 1 17.150922802705505 23.88975992511733 7.809369715062417 0 0 0
796 1 3.0861845698506873 9.610639732570489 25.19648661412871 0 0 0
293 1 1.204772622429344 27.287578518845 7.793470810785983 0 0 0
301 1 8.068086891127102 26.73912453717653 7.900988960855755 0 0 0
309 1 14.65040233503293 26.94150622125265 7.703779626948721 0 0 0
292 1 2.966677424418585 28.69073183948615 6.35476113630346 0 0 0
296 1 4.763822641339715 30.133579452157985 7.919296534587809 0 0 0
300 1 9.677861824651487 28.457069980535728 6.132783396510563 0 0 0
304 1 11.278619248425082 29.968014710089285 7.814502041093069 0 0 0
329 1 12.58609507260737 31.807665509355 6.497060831083399 0 0 0
312 1 17.851783272410973 30.164180083723373 8.159006527950876 0 0 0
316 1 3.114998452569814 35.07915340902565 6.164851954596888 0 0 0
317 1 1.4561632645000022 33.23698408006564 7.517293519777236 0 0 0
325 1 7.760150734787678 33.53540551203475 7.915126195361114 0 0 0
322 1 6.475926564576911 35.46778092606502 9.570370860222216 0 0 0
333 1 14.283488160423992 33.02687209204893 8.194823179292401 0 0 0
330 1 12.633654081520625 34.913103508187525 9.24726172889693 0 0 0
320 1 4.723884243798642 36.51199204116565 7.708756905911461 0 0 0
339 1 3.2964990400008545 38.1637252605977 9.14178826448166 0 0 0
328 1 11.172206884255207 36.652430281954004 7.644915539009859 0 0 0
353 1 12.954680945140785 38.47816260159309 6.430026855463519 0 0 0
336 1 17.532505470217615 36.236198660404774 7.750933629975574 0 0 0
355 1 16.03690007658204 37.98778553342553 9.193288443003851 0 0 0
341 1 1.3528610293182335 39.719985197679115 7.892434929400576 0 0 0
349 1 8.272027436982665 39.7620239129223 7.765740839405748 0 0 0
348 1 9.785925797015587 41.30904961013611 6.084654409513599 0 0 0
357 1 14.578260154542866 40.06617552498876 8.11424205479073 0 0 0
354 1 12.811770182740572 41.506889487054686 9.707904756577337 0 0 0
841 1 0.1472766677639771 19.14477778284617 25.02339427500613 0 0 0
344 1 4.735958725355925 42.814982504895134 7.937422255960227 0 0 0
363 1 3.1326811754978046 44.611558418303574 9.585240264271272 0 0 0
352 1 11.07141273405194 42.68204279556389 8.130247709088858 0 0 0
360 1 17.649327306579757 42.94479208996133 8.111940718612143 0 0 0
365 1 1.5748702529385705 46.36322157508542 7.527630439437232 0 0 0
373 1 8.027292695575538 46.16338888996311 8.032851818223463 0 0 0
371 1 9.430382417005678 44.35386579555936 9.519208746979054 0 0 0
378 1 12.910045188427226 47.768257632524694 9.726551599853886 0 0 0
377 1 12.849511330474922 44.36495902285249 6.671237566259045 0 0 0
381 1 14.46292331716108 46.309380132887526 7.883343083295672 0 0 0
380 1 15.995660281872889 48.12051841878086 6.189568635796422 0 0 0
364 1 3.136794421896703 48.225470526414526 6.504525326293282 0 0 0
368 1 5.064857125676131 49.3972700281119 8.261155421343036 0 0 0
370 1 6.336586124525129 47.521677059933275 9.784344448985578 0 0 0
203 1 9.500071280683512 0.08881104019175012 9.709615776385569 0 0 0
376 1 11.16878881374489 49.23253603205399 8.137225895696742 0 0 0
209 1 13.075234041332303 50.88425604435985 6.620452239658863 0 -1 0
211 1 16.344302149509534 0.2599153911205971 9.633206826207694 0 0 0
384 1 17.641318505890666 49.29885875512379 8.229095461033292 0 0 0
199 1 4.75527708598791 1.5676350744240586 11.166278883490003 0 0 0
195 1 3.2339745117107963 0.201727790383917 9.49865425037873 0 0 0
207 1 11.210519235219387 1.5867658406491454 11.140669855434895 0 0 0
396 1 9.899090439921563 3.5048296834843997 12.494229682104553 0 0 0
210 1 12.831433080155463 2.93937576787687 9.41279671443451 0 0 0
404 1 15.925389306911908 3.2565776672374644 12.870777013882458 0 0 0
215 1 17.744941262684716 1.9755816974556402 10.90248044947037 0 0 0
1658 1 18.964873487066317 35.13328777258715 3.372103358561207 0 0 0
1897 1 18.90639501059411 44.48414228312262 6.06334924698614 0 0 0
198 1 1.2377269208093302 4.797093946587005 11.423250857208723 0 0 0
202 1 6.38874716798784 2.878032541863161 9.677154671716378 0 0 0
219 1 3.0572245269429232 6.295369862748685 9.983249027597259 0 0 0
206 1 7.990833145689261 4.732631949299925 10.870740647116612 0 0 0
227 1 9.852440094599498 6.03170524814388 9.407320758062252 0 0 0
214 1 14.356390841642714 4.683218935552976 11.120538821987596 0 0 0
223 1 4.712229871847419 8.09171843218639 11.101262222297105 0 0 0
226 1 6.276126342625259 9.291754078557913 9.021797020582248 0 0 0
231 1 11.402993979829336 7.956206477539944 10.863251886137366 0 0 0
425 1 12.704223423742532 6.418635350493267 12.591832952700006 0 0 0
428 1 15.875011306498813 9.365803540693916 12.97222111721596 0 0 0
239 1 17.640856678342793 8.00045820211626 11.245869870007589 0 0 0
222 1 1.4902709452266023 11.393690363751627 11.660834400812085 0 0 0
243 1 3.0972291272622017 12.745552755718467 9.811817614120596 0 0 0
441 1 6.416950825440268 12.50136973152365 12.510878444571484 0 0 0
230 1 7.790380788324925 10.717365746319569 10.7640503063586 0 0 0
234 1 12.990022024223302 9.623037703225727 9.912282783946006 0 0 0
238 1 14.434246289482662 10.993250658822705 11.665945016152998 0 0 0
884 1 16.15126095023353 28.464205478201666 25.25248893969229 0 0 0
247 1 4.802184726166416 14.415434979972632 11.616499466404473 0 0 0
251 1 9.29803983759272 12.74728460584602 9.522776287921262 0 0 0
255 1 10.776619394424205 14.042088634651314 11.349683758988345 0 0 0
263 1 17.543154301128514 14.477120783053403 11.405817090927648 0 0 0
246 1 1.5846388125553577 17.612681989771826 11.36844430749366 0 0 0
254 1 7.7825840315802015 17.51361179976188 11.363507532621512 0 0 0
444 1 9.494391538759688 15.92152354760525 12.729931566393475 0 0 0
283 1 15.795211267285804 18.861284812757443 9.288612738092894 0 0 0
262 1 14.345683959676043 17.47884139145884 11.259057988476684 0 0 0
314 1 0.15419115215431198 34.7655844347269 9.519768186244919 0 0 0
460 1 2.789823533150497 22.21109087421187 12.9348767196376 0 0 0
271 1 4.428942634406567 20.4522768330858 11.582156919434098 0 0 0
279 1 11.13071222641591 20.554875699919894 11.097728944745628 0 0 0
282 1 12.587016641852777 22.26170672257766 9.412436734151338 0 0 0
287 1 17.203797494253788 20.73164140781091 11.073808189694507 0 0 0
1586 1 18.85356203493977 15.740928411236029 2.9894130304874387 0 0 0
270 1 1.7187115545445093 23.641757478113114 10.850568046630926 0 0 0
291 1 2.9869198171280824 25.699635571961664 8.994358836981403 0 0 0
278 1 7.486759128457138 23.4280759152709 10.774954158234822 0 0 0
286 1 14.200349820138339 23.635763543829267 11.27364880916365 0 0 0
727 1 4.860209536585923 39.44984307922738 23.98388103845014 0 0 0
298 1 6.270580318269503 28.55583123656347 9.289613943065318 0 0 0
295 1 4.585234980702976 27.125214128625814 10.617621552213548 0 0 0
303 1 10.988650544754798 27.113414004018974 10.88015384108706 0 0 0
306 1 12.808236989548103 28.415143496647133 9.29821055797793 0 0 0
311 1 17.583817625237856 27.13265533178367 11.194594893605924 0 0 0
916 1 3.205626992865892 41.43103998358543 25.18542694719561 0 0 0
294 1 1.4019279201751624 30.173102558254506 11.134698206031082 0 0 0
678 1 1.5527489815599471 30.300876115846272 23.546909595629636 0 0 0
323 1 9.581417258812996 31.45501843306314 9.384529607240365 0 0 0
302 1 8.022218031153063 30.077904692991755 10.903425991403866 0 0 0
310 1 14.329661012671773 29.838450453395865 11.1795220970796 0 0 0
331 1 16.034797746554805 31.492240769021453 9.633032452876055 0 0 0
671 1 17.397279322278216 20.85389857168707 24.055288104540537 0 0 0
315 1 2.992960354088878 31.738785857419007 9.384210994019679 0 0 0
319 1 4.719172238320922 33.62660359253878 10.844908323671989 0 0 0
521 1 12.895131024918287 31.844828441604317 12.607230521474715 0 0 0
327 1 11.034701919881208 33.17566290188441 10.9926096904683 0 0 0
524 1 16.02761687552846 34.993378109296714 12.531729405205812 0 0 0
335 1 17.366868208720213 33.333109128470234 11.121255160723273 0 0 0
711 1 11.08248529057171 33.44648824231546 23.81514236336581 0 0 0
318 1 1.7289566417815858 36.45221856937625 10.8374128619207 0 0 0
76 1 2.8059998277728733 21.990080013400963 0.2603410356680397 0 0 0
326 1 8.053857196457937 36.73750028919071 11.295614789172584 0 0 0
516 1 9.611066015553094 34.7687877316486 12.453382725894285 0 0 0
347 1 9.787693884632327 38.102726030165584 9.239452560092657 0 0 0
334 1 14.484523871413126 36.399882054802845 10.769136883336252 0 0 0
663 1 11.13333074339197 20.587734783270534 23.770155130438816 0 0 0
343 1 4.757295695209523 40.07089910679093 10.524901030222471 0 0 0
346 1 6.675775768501206 41.42940657928084 9.40520772443776 0 0 0
537 1 5.9216479932252675 38.401637319388996 12.45111525739253 0 0 0
351 1 11.258895393644883 39.6839742618217 10.770565818172098 0 0 0
545 1 12.81828845426658 38.11136790104781 12.648622813641852 0 0 0
359 1 17.73197003448002 39.69200396360951 11.03579715812663 0 0 0
342 1 1.7028066940298456 42.92297025351429 10.898654730345154 0 0 0
350 1 7.977950011223451 42.9141820790139 11.140495978533544 0 0 0
540 1 9.611925369347901 41.156278941492175 12.518886431126884 0 0 0
569 1 12.85133275597726 44.50639584717854 12.796967346219118 0 0 0
358 1 14.458215937432279 43.045303885732245 11.068269295332748 0 0 0
379 1 15.989998706140863 44.76999473407769 9.401679521858856 0 0 0
367 1 4.925575506117238 45.92546070496656 11.188890925089085 0 0 0
561 1 6.438893199348941 44.43036060150949 12.869544556913626 0 0 0
556 1 3.576066218520832 47.83003842533425 12.575826467384418 0 0 0
375 1 11.229099843703182 45.943205463672925 11.023517190740556 0 0 0
572 1 15.83916491871864 48.02318353404594 12.908116581485313 0 0 0
383 1 17.62223074345689 46.39971872851277 11.063850454006923 0 0 0
759 1 10.863949039007707 46.00262375239318 23.709839762726332 0 0 0
937 1 0.0634449709633121 44.71132012845353 25.352105925694666 0 0 0
366 1 1.7000851404887694 49.27506167664816 10.92639369987572 0 0 0
374 1 8.027860053146048 49.192562135761946 10.98034637399459 0 0 0
564 1 9.454595117248129 47.69335418877422 12.785403532342073 0 0 0
401 1 12.899425510848701 0.20605880726061385 12.83915467273079 0 0 0
382 1 14.447359123561451 49.62227033330307 11.24641909645759 0 0 0
389 1 1.7034851167464424 2.045302508894566 13.726885089280861 0 0 0
393 1 6.748348294610117 0.3043015677989873 12.380673737569289 0 0 0
397 1 8.318590270113837 2.019938401906227 14.086739246452183 0 0 0
405 1 14.454481239523188 1.6504207667754587 14.519995486331126 0 0 0
388 1 3.3321014549514367 3.5921739673938333 12.364853450111005 0 0 0
392 1 4.674544860885885 5.213516294209873 14.082770436411586 0 0 0
394 1 6.37947414254686 3.5926240471545867 15.358146663580465 0 0 0
400 1 11.328798689081049 4.6713937643942165 14.438809037171175 0 0 0
427 1 15.810001817043924 6.246136305950626 16.03032544067632 0 0 0
338 1 0.04088519836989781 41.674429976428684 9.247180408926514 0 0 0
408 1 17.658969902082603 4.566532567924078 14.43492126433733 0 0 0
413 1 1.5224416824600762 8.045317712840555 14.475647256585212 0 0 0
412 1 3.0508580226854973 9.681352651948444 12.95336645739124 0 0 0
417 1 6.603875846200947 6.310526927200204 12.311241303582761 0 0 0
420 1 9.47000717213146 9.29051418647804 12.420227767984619 0 0 0
421 1 8.0451405510021 7.655733568482687 14.258898895457072 0 0 0
426 1 12.672090363372071 9.291886053557349 16.09901740160836 0 0 0
429 1 14.333024980426297 7.495011269937644 14.29133169704632 0 0 0
695 1 17.696796490413835 26.951712991816922 23.419911029000826 0 0 0
435 1 3.2198238119066467 12.526303288853978 16.13833321369598 0 0 0
416 1 4.595552159766479 10.932094155804254 14.442923087208365 0 0 0
424 1 10.97556627915616 10.802808296136856 14.401902776620686 0 0 0
449 1 12.702400655729704 12.678567632150022 13.13663891709825 0 0 0
432 1 17.594050569923592 10.898650340019337 14.511949145716823 0 0 0
451 1 16.19273604323524 12.224645990433723 15.979038903662321 0 0 0
437 1 1.6706458344619612 14.421311964190483 14.374563081559664 0 0 0
443 1 9.425365678320551 12.445145226411812 15.898570196443778 0 0 0
445 1 8.006335439722333 14.094487784235183 14.26123578108682 0 0 0
442 1 6.56385544459029 15.851275017724053 16.082357172771772 0 0 0
453 1 14.438710499959667 13.971703926012067 14.795102967153309 0 0 0
436 1 3.1254005807532774 16.167892632605827 12.896153077187176 0 0 0
440 1 4.772469503993027 17.41276324002905 14.731685965785937 0 0 0
448 1 11.337657712747832 17.10168951509394 14.26879639910176 0 0 0
473 1 12.658573692920541 19.088217855489088 12.728870153537718 0 0 0
450 1 12.700130805378542 15.70250386171875 16.261837484654965 0 0 0
452 1 15.796049043309528 15.8239258968433 13.104985678561665 0 0 0
475 1 16.041207544340292 18.959865398009743 16.098551283698473 0 0 0
456 1 17.426855032115135 17.58193374671556 14.28562357770056 0 0 0
755 1 9.629469829441124 44.23455150720982 22.341621746881106 0 0 0
461 1 0.8751779869532833 20.526848783845047 14.392062444564651 0 0 0
465 1 6.198236453042252 19.053580835851097 13.305172422519334 0 0 0
469 1 8.04060913041489 20.6268169110923 14.493991961633357 0 0 0
477 1 14.466456926398061 20.42046654727945 14.326144336351794 0 0 0
476 1 15.790179079659698 22.185014547329605 12.855084357466774 0 0 0
464 1 4.627798456946274 24.14984558619641 13.685784467866126 0 0 0
489 1 6.056952074963553 25.572116045992363 12.23676712342252 0 0 0
483 1 3.2008419908272945 25.510759242682727 15.711980015323006 0 0 0