LAMMPS data file via write_data, version 29 Oct 2020, timestep = 200000

4608 atoms
1 atom types

0.039430850382373706 53.36056914961702 xlo xhi
0.01822541550319201 50.88889458449496 ylo yhi
0.01822541550319201 50.88889458449496 zlo zhi

Masses

1 18.015

Atoms # atomic

1594 1 17.571879251985905 48.43688388156015 21.30070647590689 1 -1 -1
3579 1 0.6795432209793079 23.648384064896135 17.597584877104882 2 0 0
4531 1 7.30297185585126 1.0746002754830162 0.5833723979226008 2 -1 1
272 1 2.304115589494207 33.29549297096003 21.645359380747895 0 -1 -1
4413 1 10.651176626942862 3.6157276218160046 1.0533983589452036 1 -1 1
474 1 2.3014549185958524 18.375972537780758 6.78180046662086 0 0 -1
1912 1 0.10491597082376103 31.809316901802024 19.147356556559746 0 1 -2
4324 1 0.3110711118782474 38.23987657964652 20.499834501644244 2 -1 1
1145 1 9.816071159170042 0.0783561847102512 0.4211778752661903 0 1 0
4140 1 5.56669083076031 24.477902297510642 2.0782532432857357 1 -1 1
3340 1 0.87713350443797 26.95491928959649 6.918529937963816 0 2 1
2710 1 0.2561568108036514 4.406897517231029 8.719823250207575 0 0 1
573 1 3.2669409721226144 14.765739301488319 7.577726857982151 0 1 1
2978 1 5.675893640213489 10.943300676793678 1.5389506689066257 1 2 1
3607 1 9.542417166608603 7.793048973176958 2.0094036752397706 1 0 0
704 1 15.112759036425244 6.891092921440201 1.078321904962508 0 1 0
2518 1 5.939714867496628 43.004731457364926 1.2415296551807544 1 0 0
2898 1 1.9079402054748889 28.317999960172447 24.261742082387176 0 0 1
1287 1 2.145441489633669 10.304448545843718 2.052199589797106 0 -1 1
1005 1 7.053230132379961 13.241276183809905 4.968198855918976 0 0 0
1022 1 9.859722641288135 5.274234061929654 4.202500957343989 0 1 1
4535 1 10.013679507051362 12.919150670829097 2.641448318123104 0 -1 0
4387 1 9.795660913013888 12.182179610100183 6.000492153489545 2 0 1
3677 1 13.372139889830324 9.244406252854686 0.07384414562585334 1 1 1
889 1 8.284023940508028 19.770760532185086 0.21065026969332254 0 -1 1
1650 1 8.074845887633726 28.2091250573176 23.425820234359264 0 1 1
3211 1 5.110888808677473 21.531206269761768 0.7034224852388129 1 0 1
2771 1 4.156950980806793 14.89100893796844 2.345948432367917 0 0 0
4122 1 1.516131488335771 23.88129140974873 7.76041328276776 0 -1 0
3968 1 2.683318987544447 0.5691884298883999 22.55993958883832 1 1 1
844 1 0.4370936268744863 17.481599903190816 20.54767181864028 0 1 1
743 1 15.316708794590468 40.85885120545511 11.09607653606016 -1 1 -1
4195 1 11.56662157704619 14.027427860376896 0.818476746197988 0 1 2
1817 1 0.7392053921945111 38.37419480540987 23.11162387899832 0 -1 -1
3216 1 0.6835990011199644 26.197083741980077 11.032096968532445 1 0 -2
1302 1 6.057689416698007 36.994518813574985 24.060528244515815 -1 -1 1
3259 1 0.9046455223609022 21.550403199477344 2.9876316151154163 0 -1 0
4143 1 1.0263802310020775 25.792618412515782 18.79480848455484 1 0 1
2281 1 8.361565296596996 19.01609557827684 2.754236383544172 1 0 1
4351 1 5.720409493008794 17.34050803275045 2.3312929522237735 1 0 0
3671 1 13.18906269518617 18.000321776262137 1.9535510969534746 0 -1 0
2248 1 12.467994690266691 34.965180394719255 0.554121299055382 0 0 0
156 1 0.5375251941885751 43.82469354379306 8.027833975742297 0 0 0
3537 1 2.452316784104341 24.77607053751706 4.8905502571332935 0 1 1
3600 1 1.3023054910923424 24.613962148974814 1.9569572437317488 1 -1 1
3008 1 4.950012547424733 23.378481787534483 4.470593481531017 1 -1 2
628 1 5.869705938066381 24.456771233964812 6.807290008953117 0 -1 1
2828 1 7.74596253643999 22.641975649002436 1.5237159950869745 1 1 0
1786 1 8.351552557896571 22.62420092112018 6.117536581273258 1 -1 0
309 1 9.058888180826512 25.295050093165234 1.5339189661989432 1 1 1
1431 1 10.128811773393009 16.85228179535159 1.722861443697438 -1 0 1
1103 1 11.679235336785805 23.56521213827696 1.0243168699374061 0 0 1
972 1 16.838299357245287 33.83824576228221 1.9326860212383814 -1 0 1
3120 1 4.197212103953536 27.286644240552416 1.9557199087148593 2 -1 -1
2634 1 4.28787932722658 30.485547931164795 3.2772622953851465 0 0 0
3533 1 11.34680580320995 26.880074583912002 2.0449116069952837 2 -2 0
2944 1 1.8580745184930954 39.89715457851692 0.8424373190012747 1 0 0
1210 1 7.83088679676525 46.63464599739197 0.7457749899858176 -1 -1 1
4547 1 6.2403920133152955 32.627703937531365 4.617552796057632 1 0 1
2476 1 7.396581643036502 25.95316799544386 3.782970031689028 0 -1 1
215 1 8.943632517090421 25.32330851789764 5.6548713738976355 0 1 -1
4499 1 8.375482112266177 30.9706223544972 2.046043577790997 1 1 1
3213 1 0.45161896596583273 41.40896126725296 2.920050709603871 1 -1 1
166 1 6.830545733598748 35.87486197131982 6.199929013755454 0 -1 0
935 1 5.3968030670893175 33.834002471793795 1.6375329691996234 -1 0 1
3552 1 15.446529816089614 22.13948092746172 0.15468922798371085 2 1 0
3924 1 16.85885594089825 8.679202781162488 23.15400303290472 0 0 0
2680 1 8.186843455023523 34.03574294931826 1.6388282228477598 1 0 0
3697 1 12.658018638884815 36.63355211729103 24.28908511614153 1 -2 0
4242 1 8.943760616101203 17.202650042718393 22.65690474756045 2 0 -1
3055 1 16.45265517994054 20.54813099827801 13.002768371843851 1 -1 -1
3047 1 5.2059481063075035 37.10022598922983 1.8556203136830416 2 -1 0
2181 1 3.9615151793391856 33.99578566211163 4.090257809939557 1 0 0
3615 1 0.904654687715797 36.205759066480354 9.78072676365455 0 -1 1
3074 1 1.4133475914744804 6.587560765776153 12.435436873766772 1 1 0
607 1 1.3420898007624766 29.01312731936204 21.663675907772653 0 -1 1
500 1 15.707329012056672 36.83785470392047 4.958397099350821 0 1 1
26 1 16.93782296642454 9.692672934404717 6.767312701267819 0 2 0
154 1 2.716995372758172 42.76095975630304 4.588169587241511 0 1 0
3124 1 0.9201281333421726 15.556717348055066 1.3034937753219027 1 0 0
3725 1 7.750701727457241 40.07051870478273 1.4198350072053434 1 -1 0
2760 1 11.801918599073309 39.10629667055595 1.630636340094283 1 -1 1
887 1 0.5211786558237366 10.97460456186162 15.978790346448845 1 1 1
3207 1 17.715439577046048 38.493022714155885 3.348710311378032 2 0 1
2270 1 15.013401671011673 24.229302660122723 24.686011304002456 1 1 0
3475 1 4.720324158898243 40.890648480260495 4.329689256096665 1 -1 0
1313 1 11.696011205417161 45.786583780414475 0.4941341696744748 1 1 1
409 1 0.8867634053306326 42.89161484933368 11.058000743769565 -1 -1 1
1387 1 17.553462462471398 50.69433172314719 12.830010921221128 0 -1 0
4489 1 0.15505601556142734 29.991403441520617 14.042760032186177 1 -2 0
2936 1 2.3523687216122444 50.82124482188251 1.4731947627242732 0 0 1
3436 1 2.66159611469459 45.376815271151855 3.5383400700722896 0 0 0
2492 1 5.057717444328151 46.731882451333405 4.256111739476339 0 0 1
2991 1 13.36065415472436 41.98750602593377 2.9847816688433313 0 -1 1
4287 1 13.620023283743588 44.921891356145366 2.6075332065843786 -1 1 0
2791 1 1.3923623772134142 28.051089384229474 17.585102774697734 1 1 0
1803 1 15.881139213248824 39.86347465442351 6.136009624992094 0 1 1
4105 1 0.19484080996718048 1.0836461303673166 24.15430608324301 0 0 0
1002 1 3.7820741988652946 19.54466247940293 2.1436609720007063 -1 1 0
661 1 0.999096776259567 13.848331057452612 12.655719006064542 1 2 -1
801 1 13.96802503951257 49.472245586241314 3.3147789870627866 1 0 0
4463 1 17.72716158011371 14.012563493374206 7.785087318678145 0 1 0
3342 1 0.6569402472129444 44.833056530062976 18.179238457333682 1 -1 0
69 1 3.182585720813114 2.934240315402288 0.7184333076729937 -1 0 0
552 1 4.301638037007067 1.8398204974968275 6.999281592229182 0 -1 1
845 1 9.918073970020952 1.4202161915063996 3.1679328033302467 0 0 1
465 1 8.14900446975265 3.1064676950352004 4.665176604267213 0 0 0
2242 1 11.792964342969237 4.16565130057409 5.879569277294206 0 2 1
4173 1 5.202007305999824 4.8570040556149925 0.23794431393664586 1 0 0
2534 1 17.597409561271633 50.11424812523282 17.382615321173926 0 -1 1
2732 1 4.066134970287846 0.5327316984605284 3.971217721650986 1 0 1
3626 1 7.680046157843675 4.118243786914515 1.421030347279432 1 1 0
2340 1 8.327269100392114 7.4773257124536165 5.22361393203232 0 0 1
2537 1 14.843782600967034 3.5991889677873687 7.531146726233396 1 1 1
3461 1 14.090272579491113 5.181811942346689 4.500048957200989 0 1 1
112 1 8.030353829439733 39.06154593010952 24.084440116797015 0 -1 0
1174 1 0.5258187423470018 18.20593754976298 14.109518596579797 1 1 0
56 1 4.372809849044603 8.765362558326048 3.371061453654377 -1 0 1
72 1 6.5768526114172685 5.666036700652452 7.832801499335388 1 0 -1
462 1 5.610828108400938 8.004914980564877 5.689031348394889 1 0 -1
3424 1 8.51671922943968 10.273003027273743 1.6514443361902305 1 0 2
3902 1 8.823508501802781 10.05878016918268 4.501031296049142 0 0 1
3858 1 13.781204631280314 8.045630580111439 4.701449573936836 1 1 2
2734 1 16.423855181801365 50.43759070451053 1.7013104296323667 1 -1 0
1812 1 6.621118682841401 10.533149246514162 6.2394359976379565 0 0 0
115 1 11.895103827893385 8.635008590365938 2.1895643912274627 0 0 0
2214 1 16.260924266955282 9.212413655906513 4.229536999766094 0 2 1
3 1 0.5256511411044589 49.09898757877133 2.43924571194157 1 0 1
2851 1 16.457090654558296 40.99541197134535 13.538494353311075 -1 0 1
3112 1 5.214847557415114 16.71725794717434 7.163805907262211 0 0 0
269 1 9.660032800028002 15.44875760558777 4.265604103771977 1 1 0
4403 1 12.022807059573065 11.088044534213687 3.7311959632333473 0 0 1
1045 1 1.1294018613903591 17.2262323020631 4.37982672350192 0 0 1
2990 1 13.729084077215395 13.144483558119886 2.3328745825858452 -1 0 1
3308 1 3.1017021661413176 20.65269611326755 4.585580721856848 1 -1 1
3735 1 6.930315632331215 16.54569258654628 4.619967069683531 0 1 1
1409 1 11.287049671410877 19.20352632403152 6.577018688168777 -1 1 0
4064 1 5.064462099595539 44.64548498403623 23.595207190874643 1 -1 0
3271 1 6.36873114758635 20.72507239661482 5.3818935179156275 0 0 0
2177 1 4.854090406675982 19.267116987141392 7.633235784861377 1 1 0
2667 1 11.957451058766706 21.051442016808704 2.5847153867825896 1 0 1
4453 1 8.55861390716752 19.09387130825145 5.71989644468276 1 0 1
3519 1 12.500056464227697 22.55563310941993 6.181843378187522 1 0 1
145 1 13.681632801793004 20.051592393583636 5.036835908260245 0 0 0
2702 1 14.30278341135358 22.694632525992727 2.98128725352896 1 0 1
2319 1 6.089456859798776 30.708221777795664 0.9888523754505781 1 0 1
2163 1 6.6857942391865395 27.156017994167982 7.767337965127206 2 1 0
196 1 9.380735952566175 21.62822233763132 3.642925712978166 -1 0 0
953 1 7.709031156750602 25.034489022308517 9.646360402334722 -1 0 0
78 1 13.158181825362199 25.29641022533137 3.551260874873478 -1 0 0
1909 1 15.443720839749826 23.657347975036764 5.961642899408425 2 0 1
1887 1 12.866128206166845 42.51461573044463 20.47571927746207 1 0 -2
954 1 6.0583954184657225 28.28698364807895 4.351549728396907 1 0 2
1028 1 10.930532544210397 29.940652372260285 1.7427162261631741 1 0 1
1070 1 11.724026559946891 25.01785508159518 5.898963047675955 0 0 0
123 1 9.485399140249536 28.19617815265013 6.610019762182472 0 0 1
1447 1 2.551226065374057 13.024171041303115 16.506117459850756 1 -1 0
2261 1 3.07189187198778 31.828501396511445 5.84010433009886 0 0 0
3233 1 6.694587095603931 31.1901284800704 8.434981791307834 0 0 0
2527 1 11.53671554073367 30.683013037937737 5.298015513758707 1 0 0
1716 1 15.123011023581 31.234763037070387 4.3024431713111735 1 0 0
993 1 17.649552493849733 4.517085140197579 4.618219567013662 1 1 1
3092 1 3.946202140780931 35.901013671410865 5.988162798320371 1 1 0
3958 1 11.761967478575627 34.180371669023 3.9029230328324642 1 0 2
3525 1 13.38599768500897 36.898187578171445 2.0894223337412035 1 0 0
1058 1 13.532347286222395 21.74259456876862 24.6449366138719 0 0 -1
731 1 15.403435964980154 31.796756496309836 7.619643741355797 0 -1 2
4256 1 0.9964711411412243 38.83558939051886 4.452483399565616 -1 -1 1
2364 1 3.7159628573119163 38.76020267060147 5.955056159171627 1 1 1
3592 1 7.842089577022918 36.83901662505761 3.264125955572079 0 0 1
3694 1 8.592588338042297 32.67900360594865 7.061522316592226 1 0 1
4519 1 8.709764075274144 34.16420491598369 4.502496301527813 0 1 0
2551 1 9.482962611688864 39.03969740594658 3.501552825382074 2 -1 0
2481 1 11.2771819699531 33.32838532676121 24.179461371408532 0 1 0
2082 1 4.64468959207653 40.127807043848875 1.678614279192421 0 -1 0
407 1 2.258402606281735 39.66379603930412 8.063761620953805 0 0 -1
809 1 9.189608831162692 42.52243507130525 3.0584205647741967 0 -1 0
3813 1 11.299505397046827 41.423906089440436 4.775737338177084 0 0 0
2836 1 11.69379169479282 38.918971565056154 6.288797234574982 1 0 1
3088 1 15.863247191175583 9.975504023693526 1.1853691960218466 0 -1 0
4112 1 3.7249184238847572 47.905502682729235 6.646926549690377 -1 -1 2
4534 1 8.991872892308251 46.3318806676358 6.869358192920996 1 0 1
2329 1 6.9505464418832075 41.98402229301057 4.951261431989387 0 0 1
30 1 12.145276212788085 43.51459957672911 6.630826582787242 0 0 1
1234 1 1.29462164116208 29.73544141668817 4.956754432797734 0 1 0
3061 1 1.6505427871464808 9.903935890818675 19.71530219646434 0 -1 0
3646 1 7.084117416129513 45.05118472824368 5.113995713542295 0 0 0
2038 1 2.867287625683531 45.918932006983454 8.422059445829289 0 -2 2
4431 1 10.385140694549529 47.29598161394853 4.451180732351036 1 -1 0
791 1 11.200622010177575 49.362485338784154 2.3627217108657765 0 -1 0
485 1 15.985372855000405 45.663649380166206 4.7383681387651055 0 0 0
4273 1 14.730574050158017 2.073829035454957 3.224796598614516 1 0 0
4509 1 1.7929914291670497 49.831614910457176 4.855670930101337 1 -1 1
3189 1 6.363660824078982 50.041043940260494 2.5562509816526515 0 0 1
4594 1 8.445856264859158 49.87055641808104 4.2822800578136295 2 0 1
3191 1 12.255681078819933 1.7379766408943234 4.613592549148294 0 1 0
1124 1 16.415548413365563 48.5953782462435 6.152002178939515 -1 0 1
3433 1 16.046203185815852 22.008439116050507 8.651991046223072 1 0 -1
1793 1 1.3398291075628204 3.8679523541712495 4.933367367265086 0 1 0
1675 1 5.868644717584738 4.329054708776275 3.7285507071497905 -1 0 0
4480 1 3.766700596261159 2.317464862493737 11.193193053670644 1 1 0
3083 1 10.544587680846584 3.9702487036230973 8.23109311282603 1 2 1
324 1 15.296978767634883 1.3474839777750067 10.533510081508869 0 0 2
424 1 1.7539084197510402 7.798864608361834 4.3017219025427 0 0 1
238 1 0.9253790600374788 8.284164755148689 0.5570169378770073 1 0 1
412 1 2.1229002121619556 6.001091014193043 6.980162584930066 0 1 1
2207 1 4.087278155408176 4.506575014888465 7.875394333253236 0 1 0
4436 1 16.744838849451067 3.9976958338012167 9.551815621237946 0 1 0
445 1 12.053345915790587 4.985957188890893 10.091443422322891 0 1 -1
4558 1 3.785706699606205 8.082548397391884 7.951958283744117 0 -1 1
406 1 9.104447735234137 7.1712298996255806 7.6712305938337515 0 1 0
1000 1 13.483994349093226 8.550098924571717 8.621776631737745 -1 0 1
4355 1 12.457739642548596 10.247883420224149 6.40704013399748 0 1 0
1537 1 10.640526981044028 9.571630157163273 9.233470163006688 0 0 0
1940 1 0.8913531818285318 10.50607281026284 5.022188743506744 0 0 -1
3901 1 5.526726534763677 47.36116234242597 1.3393248999444258 1 -1 1
560 1 2.3559553983196597 11.05558374112884 9.40652432498575 1 0 0
1251 1 3.5803002965309436 10.75552081246894 6.762105810052943 0 0 2
4113 1 5.697889591789551 7.936649368129888 9.969589479432328 1 2 0
2238 1 11.979060475922692 13.211744928878149 8.163877285430802 -1 1 1
3796 1 12.155145890276506 11.333656419123836 10.463141996115061 1 0 -1
1066 1 14.793717319452455 11.562560098628529 6.924989360897209 0 1 0
383 1 14.745153870543122 6.483435762775055 7.181350139555368 -1 0 1
2967 1 16.67539342746601 4.776632861547639 20.29526142685552 0 1 2
3295 1 4.248070081146436 13.327846310059734 5.490442259250159 0 -1 0
3594 1 7.503840967863852 9.724849753627549 8.642257770360468 1 0 0
1617 1 6.616309835947625 13.557034014121601 10.184848104830897 0 1 1
3656 1 15.60638118596516 13.1952392211252 13.028690856172094 3 1 0
1706 1 13.774100079402237 13.956081939328818 10.209948614263467 0 1 1
1317 1 0.8393144273581159 21.45267949344103 14.070165057746937 0 0 1
3799 1 2.064097415448372 16.828169023025477 9.687921905392367 1 -1 1
858 1 7.315124292461649 14.512003599138191 7.500925240472521 -1 1 1
2816 1 10.245533906867138 12.573395658877358 12.236580277433129 -1 -1 1
1876 1 11.79783724036967 16.197680331131053 5.857408749606253 2 0 0
2724 1 14.204227267569095 14.724359320501907 6.902067026188864 0 0 0
4221 1 13.941716791428583 15.644282748474778 3.7537953353054387 1 0 0
2869 1 16.978903254249637 24.947925866698533 0.9240986247320734 0 0 1
2543 1 3.13740177019871 21.590231381499244 7.45236683757502 1 0 -1
2801 1 14.689362211505383 48.384637170732574 22.389221780032315 0 -1 -1
3918 1 6.940991491763314 20.179291295059976 11.045047149418787 1 1 0
3637 1 8.933279342071545 22.14510648868184 12.02781579942272 1 0 0
1276 1 9.964429954655552 15.083853231886227 8.336732534268519 1 0 1
1376 1 15.670936925514802 19.73870707850457 6.887676694313679 0 1 0
4179 1 0.3677331524116497 35.303303756891225 20.99115676589644 0 -1 0
71 1 2.8225954200916825 25.055873290866433 10.26837701506827 1 0 -1
346 1 0.320734891003049 17.9807895723479 17.900209470590585 0 0 -1
138 1 5.64131846703396 22.74848920555736 9.243755557683103 0 -1 -1
702 1 9.864797788544541 24.367431555589636 10.565883800916405 0 0 0
2032 1 16.581085264131165 24.700553941317764 9.13342769941441 0 0 1
3721 1 2.922931500076802 27.46524364248688 4.540686976806023 2 0 1
3872 1 8.519155091017781 30.22121783907916 5.096229923956836 -1 -1 1
3448 1 12.130469251121504 28.776678329074688 12.622046269649898 0 0 0
3279 1 15.229733320709702 27.63739696688307 9.701635783835426 2 0 1
3982 1 13.085192249994012 26.377275723620635 7.851651519944557 1 1 -1
2952 1 14.271778814128801 0.3314071487677606 23.259348732389025 1 0 0
3048 1 4.86491739037432 29.485126416701537 6.612017053454527 0 0 1
1731 1 6.980879307408678 32.853241505481435 10.655345917807736 0 0 0
692 1 9.324805952956439 31.862399621664856 12.174756628488442 1 1 0
758 1 8.218516774894528 29.215422221857004 9.118103672971133 0 1 0
2998 1 10.831689384551982 30.115134513500816 10.536908307217132 0 0 1
2996 1 11.949432318176626 29.180883897164193 7.822063383333748 1 1 0
431 1 12.551623372807857 31.428605125463665 3.032228719737732 -1 0 0
1196 1 16.655744951370117 28.894835358495275 7.617200040818182 -1 0 1
3798 1 1.4331328672669763 46.85104201082592 0.8706390915429429 1 -1 1
358 1 2.2474014730740093 32.29777149570147 8.55337512359353 0 -1 -1
2612 1 7.4090162376440025 34.78144728045889 8.787583168550588 0 -1 0
3162 1 6.632715457656238 39.255580757039894 9.714109128669408 2 0 -1
1697 1 11.409208493114567 33.181570838190424 7.077088290950281 0 -1 0
3313 1 13.855055875799447 33.35805988964134 5.985556311587175 0 1 1
2051 1 16.196922422492076 20.06052165055306 3.215408247192936 0 0 0
4176 1 2.0135375393119883 34.67342884146397 1.9978964461035773 1 -1 0
1041 1 6.430054425472017 38.38076598609278 6.838723406234576 0 0 1
1014 1 10.965445322221894 37.85867000917837 8.789752261251564 0 -1 1
1016 1 16.668030842308546 38.505618818925 10.156552135399165 0 0 0
1619 1 5.621750199373301 39.766964048774994 22.499630043453667 1 -1 0
4344 1 6.430273975231718 48.96143416433934 23.513994164005044 0 0 1
2468 1 15.860385295046365 2.0536848023137093 5.5440855395129764 1 1 0
1872 1 0.7558743410809307 25.847171271190206 24.118582949429957 1 1 0
4129 1 9.468034642773588 40.21628719536329 8.912083966580274 0 0 1
305 1 15.632722671660666 40.76153123296669 3.6418636755970657 0 -1 1
631 1 13.016947312162536 36.689135380118685 4.974210369857417 -1 1 0
4001 1 13.772723552365196 40.20958596368594 7.868947177269576 1 -1 1
3434 1 11.600683398723808 44.775176731368134 24.25219325535368 2 0 -1
3135 1 0.5401525050877175 27.697434847013138 2.2524751090240085 1 0 0
917 1 3.5493765632527863 43.117991298970736 7.375724132041905 0 -1 1
4175 1 6.108547974834642 45.169801380802156 7.798961754821496 1 -1 -1
3645 1 4.457436320850475 40.59769576251732 9.641909305082446 1 -1 1
1932 1 6.565618879631532 42.26960931111405 7.8936969343985055 1 1 0
4407 1 16.287795544247448 36.728091742036156 1.3371651492246084 1 0 0
2924 1 11.930049078313319 42.01836575272905 9.126180346388532 2 -1 1
241 1 4.813143392011509 45.97332619770526 10.396746930220317 1 -1 -1
31 1 9.282477812481503 50.598626804291854 6.805825597678173 0 -1 0
3930 1 12.633641660542496 45.90044855224852 5.061176162895246 1 -1 -1
51 1 8.62393201042064 48.59621893589069 8.541120786505962 0 -1 0
4472 1 16.213397667785127 48.04375217619483 9.164281029484476 1 -1 1
3136 1 14.937053203763702 43.87909704671959 7.037444100539661 1 -2 -1
3713 1 0.5660530108402765 1.6052253312418676 9.070413073257821 0 0 0
3128 1 7.064745746125779 1.6045866772313113 6.910053369715429 0 1 0
2519 1 5.422656350994137 49.853089615432665 7.864154989946725 -1 -1 1
919 1 11.946987380558785 0.40885051324509186 6.799456119790141 0 0 1
2864 1 13.400322868660819 48.537924413111355 6.273270708226413 0 0 1
1948 1 17.191835928620545 50.46896427943919 9.965669872635567 0 -1 0
1118 1 0.8858032286455406 3.689393994456827 11.59972626661862 0 1 1
1943 1 1.529439177782685 18.399595577891795 0.68957713825475 1 0 1
2950 1 3.0903542879598365 0.5539514402772663 9.176615673305031 0 0 1
212 1 8.077377084362086 2.888190731729329 9.171795145600871 0 1 1
221 1 6.4555487368117 1.9067612041822206 11.634754819261298 1 1 2
4120 1 12.683597776863142 1.9084840671978827 8.726728255321808 1 1 0
1730 1 3.961042763890629 45.17849070020391 0.8824345893018807 0 0 0
1360 1 3.4793600371513107 4.830945674257966 10.290638536614749 1 0 0
4498 1 10.051357330647932 37.251458044956905 25.310589151783248 0 2 0
3015 1 7.440871828929999 5.6304792346628565 10.424842583903704 0 1 0
1462 1 9.755518696562369 6.990750659073343 10.781563495608408 -1 0 2
3874 1 14.725733224429833 6.413862063062597 10.93058804091902 1 0 1
3556 1 2.6693303586749537 47.42010695234933 20.970241327835012 1 -1 -1
2220 1 0.8752679641884196 7.145295502321589 9.566522053095593 1 0 1
3975 1 6.045019461765214 3.7688102137555157 14.529319890219043 0 -1 0
3482 1 9.436030089242605 7.08366866726584 13.25717603206917 0 0 1
2588 1 11.771286400087943 8.527765267641318 13.888657442286402 0 0 1
1089 1 17.264380578565312 8.690066629654744 9.981039087413853 0 0 3
43 1 14.533037896412837 46.22241579224641 23.791442591403367 -1 -1 -1
3071 1 5.407163539365595 5.680681370333409 12.441954838071856 0 1 0
585 1 7.563725066733656 9.271437957430466 13.538851342458896 0 -1 0
16 1 14.96625843474121 9.91401480968776 10.718851522550974 1 0 0
2505 1 7.7915791809230015 43.77659088998267 23.71203970397705 0 -1 0
3836 1 0.29674817254606645 28.969041924341273 11.448210596572858 1 -1 0
3457 1 17.58690285326403 3.6056375071941287 25.05040144517904 0 0 0
2375 1 4.046907454591639 13.562549448098062 9.911220511262094 1 0 0
1693 1 9.235496019119134 11.295003190440019 14.490995151403434 1 0 -1
3179 1 12.67928569151052 13.720715542556762 12.850311334452213 0 0 0
3073 1 13.759607153259388 16.46646494197074 10.264256728827144 2 1 -1
3317 1 4.492982143858041 24.182862717205136 23.687249871010337 2 0 0
1396 1 4.5864158634106476 18.70293542675114 10.208740799787613 0 0 1
857 1 6.957534385338868 18.758200147517393 13.495504205529016 -1 1 1
3546 1 9.899584330970566 15.161441783399601 11.092079887888742 1 0 0
1866 1 7.7507572348028955 10.9734654992785 11.164284244036807 1 1 0
1968 1 11.546834708405576 17.487802563411467 8.819627804805513 0 -1 0
338 1 17.1225518994281 45.209174640609376 0.38217728180300264 0 0 0
4245 1 15.12385165254183 16.895237709174125 8.122009583281708 0 -2 1
997 1 2.541207330074914 20.757884560647145 10.194115013954622 0 -1 1
2151 1 3.766000649001777 22.90370452170863 11.339929736672802 0 1 1
1192 1 7.878477823491868 23.85516178172149 14.306723550838475 -1 0 1
3215 1 10.145524643569122 21.747468521422743 7.91831906783013 0 0 -1
3003 1 9.126048203921382 19.291527418379513 8.884681260346985 0 0 0
1655 1 12.316784972901484 25.451655570745185 12.545435572027314 0 0 0
3684 1 12.465885144392733 25.16818049631677 15.214375649903893 1 -2 -1
116 1 14.932528462972906 24.925444258051833 11.498299588935835 0 0 1
4433 1 14.421189590562404 21.674337779112886 10.747864743993294 1 1 1
199 1 0.8593250551240624 38.860354189242244 9.9464597946582 0 -2 0
3767 1 9.326860429549418 26.06972647824911 12.916945787476406 2 0 1
922 1 7.555706740450158 27.686992170162736 11.419157309130094 2 0 1
2935 1 17.20927946844565 43.15221512860589 24.28564103970731 0 -1 1
3636 1 4.47254343139781 27.286480507876764 9.756492956888144 1 0 0
220 1 3.0883433010547106 30.027404567501122 14.091018604506196 -1 -1 0
2080 1 9.5341604078231 28.801695717592633 14.111195438888178 1 -1 0
1235 1 15.537536598316407 29.929598292951752 11.912284166395157 -1 -1 0
1006 1 2.0630111183430646 24.128133010594826 15.171896251025494 0 0 0
1699 1 1.8262390058545408 41.28649870650969 21.64225115610745 1 -2 1
1270 1 4.599539003149328 34.21890746094137 8.300018505639859 -1 1 1
4132 1 10.636395783663215 32.4553397612775 14.562281364508033 1 0 0
1148 1 6.0576022480637635 36.91717263243139 10.680644181019256 0 0 2
2569 1 11.977178156051421 32.57201403574986 9.64372014793081 1 0 1
1062 1 14.627216751848197 35.66852647056382 8.271835012179853 -1 -2 0
3153 1 17.03920514353947 6.421413424764053 8.371687534562605 1 0 0
1814 1 14.73088660491476 33.47107941388742 9.866600685854234 0 0 1
4153 1 3.5846070302521267 35.51789793781302 10.55032053402057 1 1 0
3732 1 2.107143436766885 38.66619815292694 12.386786556195444 1 -1 -2
4364 1 13.681767830212657 38.00301218341151 9.794955988494396 1 -1 -1
2673 1 12.792491608348687 38.61510497510298 12.207968437234111 0 0 1
4134 1 1.8177217610354772 25.35165574562287 21.776875600035122 2 1 2
3956 1 5.080713013311384 40.71298675623113 12.306180535735242 1 0 0
1550 1 9.757377645687068 38.26304479952921 11.392406229764545 0 0 1
1333 1 10.127537632031371 42.11658760952642 13.349736018179396 1 0 1
3158 1 12.545136243991369 41.31552494461407 11.877932921778715 0 0 0
818 1 16.028302256348486 39.54545849096414 15.967491204506068 0 -1 -1
572 1 3.5875749314380685 43.21506476603787 10.681012529493943 1 0 0
3079 1 8.028362005094642 40.532320746875996 12.328144473389358 1 0 -1
4507 1 8.624387156837033 42.81234103632097 9.794069639600224 1 -1 1
1718 1 9.116848808397508 44.71306560062929 13.058855191174672 -1 -1 0
2291 1 10.293827288349505 44.46956881231128 8.677170303061546 0 0 1
1967 1 8.769420752166447 40.08348999503825 6.274417161905761 0 0 0
3700 1 15.369181351037199 44.8493659502257 10.466789755590273 0 0 0
459 1 0.614196335667538 50.27060797217655 20.044835093706958 -1 0 0
426 1 1.7744423869982564 47.98840870192092 10.26091329891924 1 0 1
3146 1 17.791417376551465 24.949243879441596 23.942804408289845 1 0 1
700 1 6.249138109873944 48.63481780483366 10.252513010325774 0 -1 0
2135 1 10.581742926864171 48.361970978543226 10.576260129700366 2 -1 0
2575 1 13.905781832614537 46.406094006676 8.215254636725081 -1 0 0
1240 1 6.684113483747306 43.847953706165626 11.60378994149002 0 0 0
410 1 9.347323439025864 48.147737126933436 13.004781547891316 -1 -1 -1
1049 1 5.185207629758425 50.0011394478192 12.380529058274703 1 -1 0
2240 1 2.140324078216729 19.416871327337766 23.515033931722048 0 1 -1
4567 1 5.764140564317507 0.7960103116987897 17.812301064492694 0 0 1
3057 1 3.525150091126194 12.233982086638655 0.15480785217214993 0 1 1
3067 1 7.305031047614738 49.725119415481714 14.037016939423184 1 0 0
18 1 7.185201027129598 50.20839024025936 19.774089353481664 1 0 0
1301 1 8.653304181739344 1.4038596810287949 14.86233110541067 0 1 1
2414 1 17.12208817842795 2.6422758828424966 12.355036958250365 1 1 1
1100 1 8.839705660581819 3.3792130386943313 12.8096725895994 -1 1 0
1295 1 2.3172370801181885 1.0785117313892658 13.09166956145541 0 1 0
2165 1 1.9133897907946384 48.61724368334579 23.26146303375011 1 0 1
2655 1 5.071590733371143 0.9182144755625133 14.869597556188518 1 1 1
2455 1 9.94041716181978 2.7473007456702025 17.251823349751042 1 0 0
4066 1 8.881550122939009 4.78014203269025 14.91826058571668 1 1 1
2159 1 14.46877689746825 50.82896687918079 13.407378605065157 0 0 0
3331 1 0.4767509260819521 14.124546924099905 7.7482203719505955 1 1 0
2193 1 11.659135329773074 2.8316965832495655 12.276057083163161 0 1 0
3531 1 3.500151449236983 8.606455900319721 11.888084838389927 1 1 0
681 1 8.666426817996246 1.964622528274081 25.311408412219013 -1 -1 0
3564 1 4.470644604081119 7.103850260906258 16.5835688660145 0 0 -1
2765 1 15.161981840223984 10.600095363597967 13.503281367543442 1 0 1
2016 1 13.823567572768939 6.71192917255252 13.846856244531661 1 1 -1
2668 1 16.41719451544454 7.835330586047048 14.090513316609053 -1 1 2
3400 1 0.7822459770964935 11.439756450302307 11.50288464313438 1 0 -1
2478 1 1.659534099454722 3.072069422110892 21.719982462645987 1 0 0
1784 1 7.252022517333696 15.943655224773833 11.965081805792517 0 0 0
594 1 5.054397913726125 8.610466912208013 14.429252522981113 0 -1 0
3293 1 8.080894375154209 9.087537286666954 16.983620309409766 0 0 -1
1452 1 14.75390549234575 11.245901296930208 16.765503756284826 0 0 1
2227 1 17.756606139781944 23.167386832190044 13.538578179887267 0 0 1
1849 1 1.8006912238154462 10.07653919916102 13.563589911995578 0 1 0
1869 1 12.704993063173827 11.135609651709824 14.272474598250776 0 0 0
4392 1 10.636031998592484 8.152521491942352 16.47595533700191 1 0 0
1708 1 15.474705028210746 14.206258194641753 17.31722583042354 1 -2 -1
862 1 3.067431620431473 15.246012791824 11.860788539360527 1 0 2
2867 1 5.475383077737384 13.492296689696316 13.203146708067802 0 1 -1
3407 1 9.674271130922865 17.123066134267358 13.44150510958267 1 1 0
4269 1 10.722174445359702 13.208438205432795 17.744075224211873 0 0 0
254 1 11.943415465902948 15.762899259187737 14.325706389656775 -1 -1 0
2827 1 15.85400111635586 25.26654315519693 14.023742337257 0 -1 0
1986 1 3.1306884998024698 19.746508614030763 14.795876537228278 0 1 0
996 1 11.103741347288175 27.700154915183088 23.40038536494156 -1 0 0
382 1 7.901292779872698 20.734954673055633 15.1602631879044 -1 0 1