
# Define the lattice
#
variable	    lattice_constant equal 6.36339
lattice		    diamond ${lattice_constant}
lattice		    diamond 6.36339
Lattice spacing in x,y,z = 6.3633900 6.3633900 6.3633900

# Define region
# multiples of lattice spacing
#
region 		    simbox block 0 9 0 8 0 8

# Create Atoms
#
create_box          1 simbox
Created orthogonal box = (0.0000000 0.0000000 0.0000000) to (57.270510 50.907120 50.907120)
  3 by 1 by 2 MPI processor grid
create_atoms        1 box
Created 4608 atoms
  create_atoms CPU = 0.002 seconds
mass                1 18.015

# Define potential
#
pair_style          sw
pair_coeff          * * ../ML_mW.sw mW
Reading sw potential file ../ML_mW.sw with DATE: 2019-02-27

# Add velocity/set timestep
#
velocity            all create ${TEMP} 120598 rot yes dist gaussian
velocity            all create 291 120598 rot yes dist gaussian
timestep            5.0

# Define output
#
compute	            1 all msd
thermo              100
thermo_style        custom step temp press vol etotal ke pe c_1[4]

# Neighbor lists
#
neigh_modify        delay 0 every 1 check yes

# Set fixes
#
fix                 1 all momentum 10 linear 1 1 1 rescale
fix                 2 all nve
fix                 3 all temp/csvr ${TEMP} ${TEMP} 500.0 928347
fix                 3 all temp/csvr 291 ${TEMP} 500.0 928347
fix                 3 all temp/csvr 291 291 500.0 928347
fix                 4 all press/berendsen iso ${PRES} ${PRES} 1000.0 modulus 20000
fix                 4 all press/berendsen iso 1 ${PRES} 1000.0 modulus 20000
fix                 4 all press/berendsen iso 1 1 1000.0 modulus 20000

# Run 0.5 ns equilibration
#
dump		    1 all custom 1000 eq.${NAME}.dump id type x y z vx vy vz
dump		    1 all custom 1000 eq.ice_291K_1atm_ML.dump id type x y z vx vy vz
run                 100000
Neighbor list info ...
  update every 1 steps, delay 0 steps, check yes
  max neighbors/atom: 2000, page size: 100000
  master list distance cutoff = 6.0032907
  ghost atom cutoff = 6.0032907
  binsize = 3.0016454, bins = 20 17 17
  1 neighbor lists, perpetual/occasional/extra = 1 0 0
  (1) pair sw, perpetual
      attributes: full, newton on
      pair build: full/bin/atomonly
      stencil: full/bin/3d
      bin: standard
Per MPI rank memory allocation (min/avg/max) = 4.779 | 4.779 | 4.779 Mbytes
Step Temp Press Volume TotEng KinEng PotEng c_1[4] 
       0          291    -631.4845    148418.52       -51901    3996.1842   -55897.184            0 
     100    191.56454    119.52601    147739.68   -50283.344    2630.6776   -52914.022     0.096051 
     200    222.29522    103.14972    148022.49    -49320.35    3052.6896   -52373.039   0.10923352 
     300    245.74009    49.076573    148221.41   -48710.068    3374.6484   -52084.716   0.12773416 
     400    261.72954    27.522034    148356.04   -48304.958     3594.225   -51899.183   0.13231298 
     500    277.54768    43.061447    148455.59   -48022.353     3811.449   -51833.802   0.13172483 
     600    287.73452    30.591799    148535.02   -47749.833    3951.3408   -51701.174   0.14234744 
     700    287.47118    5.5516675    148591.81   -47702.854    3947.7244   -51650.579   0.13275844 
     800     285.7401   -23.687371    148610.83   -47607.921    3923.9522   -51531.874   0.14704738 
     900    289.24815   -7.9173283    148615.03   -47588.673    3972.1268     -51560.8   0.14589834 
    1000    283.91842   -12.004374    148590.62   -47633.706    3898.9358   -51532.642   0.14089276 
    1100    287.20666   -20.672226    148615.22   -47577.795    3944.0919   -51521.887   0.13832462 
    1200    290.72023    -5.345548    148609.57   -47568.012    3992.3422   -51560.354   0.14398284 
    1300     288.3818   -46.182292    148609.78   -47490.245    3960.2296   -51450.475   0.14654629 
    1400    287.40873   -12.880555    148624.08   -47590.555    3946.8668   -51537.422   0.14597732 
    1500    283.66909   -3.7405378    148575.62   -47615.399    3895.5119   -51510.911   0.13862221 
    1600    293.22431    48.169323    148587.68   -47548.931    4026.7298   -51575.661   0.14576063 
    1700    292.51549    3.7542436    148591.63   -47579.001    4016.9958   -51595.997   0.13988968 
    1800    291.17564       40.463    148560.49   -47571.585    3998.5963   -51570.181   0.14286262 
    1900    294.94661   -44.909315    148586.87   -47483.615    4050.3815   -51533.996   0.14936819 
    2000     297.2476    5.7733814    148637.72   -47431.561      4081.98   -51513.541    0.1366685 
    2100    284.97709   -4.3614218    148596.64   -47596.647     3913.474   -51510.121   0.14543052 
    2200    296.50281    22.708173    148583.48   -47525.575    4071.7521   -51597.327   0.13293557 
    2300    292.60744   -15.530585    148589.31   -47463.716    4018.2586   -51481.974   0.15349025 
    2400    297.51784    33.517861    148566.13   -47483.003    4085.6911   -51568.694   0.14178073 
    2500    295.35153   -9.0800851    148596.74    -47533.11    4055.9421   -51589.052    0.1373363 
    2600    288.30137   -12.312702     148576.3   -47568.529    3959.1251   -51527.654   0.14752214 
    2700    296.73844    56.852178    148556.19   -47532.434    4074.9879   -51607.422   0.13279684 
    2800    292.14731   -5.2089593    148570.52   -47434.903    4011.9398   -51446.843   0.15264608 
    2900    295.11785   -11.681898    148613.03   -47461.266     4052.733   -51513.999   0.14594391 
    3000    290.32857   -23.592939    148575.32   -47521.903    3986.9638   -51508.866   0.15256433 
    3100    291.25074    49.119882    148622.31   -47494.067    3999.6275   -51493.694   0.14049093 
    3200    289.73654    10.625715     148591.3   -47597.948    3978.8337   -51576.782   0.14110199 
    3300    291.44109    20.711384    148564.87   -47666.956    4002.2416   -51669.198   0.12996647 
    3400    292.61717    19.612305    148580.25    -47602.78    4018.3922   -51621.172   0.14308491 
    3500     288.4883    29.091535    148604.01   -47567.352    3961.6922   -51529.044   0.14231974 
    3600    286.85365   -33.144752    148594.59    -47573.55    3939.2441   -51512.794   0.14709695 
    3700    289.03516    2.6583921    148606.49   -47534.474    3969.2019   -51503.676   0.14730588 
    3800    290.97785   -12.794652    148592.66   -47520.972    3995.8801   -51516.852    0.1464856 
    3900    288.05161   -14.381973    148584.71   -47526.772    3955.6952   -51482.467   0.15041362 
    4000    286.85735   -6.2997803    148590.87   -47569.166    3939.2949   -51508.461   0.14116444 
    4100    284.95599    4.2914037    148594.64   -47591.563    3913.1843   -51504.747   0.14334044 
    4200    289.84497    5.0068471    148587.26   -47541.626    3980.3227   -51521.949   0.14002269 
    4300    284.04153   -32.516839    148552.36    -47673.89    3900.6264   -51574.517   0.14987777 
    4400    290.79165    25.428363    148603.15    -47564.28     3993.323   -51557.603   0.13319045 
    4500    288.12113    6.0884966    148570.18   -47623.844    3956.6498   -51580.494   0.14825518 
    4600    290.93822    27.052066    148570.75   -47656.837    3995.3359   -51652.173    0.1349042 
    4700    295.31986    40.822773    148592.39   -47559.671     4055.507   -51615.178   0.13387628 
    4800    298.45031     41.45382    148618.07   -47453.772    4098.4963   -51552.268   0.14130607 
    4900    291.25599    28.370257    148650.59   -47430.562    3999.6997   -51430.261   0.14193316 
    5000    287.92154   -13.301709    148631.66   -47563.052     3953.909   -51516.961   0.14886734 
    5100     294.6707   -8.7954239    148643.04   -47493.841    4046.5925   -51540.434   0.14112162 
    5200    287.87088   -26.661473    148623.19   -47561.965    3953.2133   -51515.178   0.14520698 
    5300    284.08206   -3.2598387    148594.09   -47663.659     3901.183   -51564.842   0.13590371 
    5400    289.56842    32.822122    148599.02   -47630.766     3976.525   -51607.291   0.13696392 
    5500     290.4564    19.407809    148581.24   -47590.021    3988.7193   -51578.741   0.14050824 
    5600    291.89885   -6.7731041    148590.29   -47635.942    4008.5277    -51644.47   0.14019442 
    5700    291.72712    16.802094    148582.13   -47623.949    4006.1695   -51630.119   0.13764086 
    5800    292.78489   -21.235017    148618.44   -47567.617    4020.6954   -51588.313   0.13896819 
    5900    292.30363   -5.7045947    148580.32   -47641.292    4014.0865   -51655.379   0.13876427 
    6000    291.51352    28.785087    148592.89   -47620.514    4003.2362    -51623.75   0.13993086 
    6100    286.37668    7.6833335     148560.8   -47694.403    3932.6941   -51627.097   0.13810273 
    6200    287.08487   -42.818234    148555.56   -47665.726    3942.4194   -51608.145   0.14536578 
    6300    290.48136    1.1832774    148599.56   -47554.254     3989.062   -51543.316    0.1460492 
    6400    288.59998    18.181137    148600.05    -47604.87    3963.2257   -51568.095   0.13775384 
    6500    284.54672    -4.346996    148588.45   -47622.374     3907.564   -51529.938   0.14420612 
    6600    291.87063    7.3480041    148591.23   -47630.826    4008.1403   -51638.966   0.13558515 
    6700    284.42978   -9.7883928    148598.69   -47683.733    3905.9581   -51589.691   0.14212899 
    6800    295.55415    30.585434    148570.11    -47633.94    4058.7245   -51692.664   0.13428446 
    6900    289.51303    -4.781997     148576.2   -47557.511    3975.7643   -51533.275   0.13832549 
    7000    288.57223   0.70781968    148581.16   -47561.542    3962.8447   -51524.386   0.15241907 
    7100    291.21872    21.168328    148586.76    -47570.66    3999.1879   -51569.847   0.13288042 
    7200    286.68904    1.0268817    148568.99   -47679.736    3936.9836    -51616.72   0.14040524 
    7300     286.1075    17.891907     148553.6   -47729.149    3928.9976   -51658.147   0.13108785 
    7400    288.94267    15.546982    148565.25   -47617.969    3967.9318   -51585.901   0.13985902 
    7500    293.00841    25.582856    148595.79   -47551.226    4023.7649   -51574.991   0.14145612 
    7600    287.05804   -24.513661    148577.74   -47521.694    3942.0509   -51463.745   0.14710635 
    7700    288.68164   -40.068575    148574.17   -47620.663    3964.3472    -51585.01   0.14608425 
    7800    286.54015   -7.6883966    148593.04   -47687.546    3934.9389   -51622.485   0.13630305 
    7900    284.59747    15.682944    148573.47   -47617.505     3908.261   -51525.766   0.13897046 
    8000    290.39881    32.663043    148571.18   -47518.401    3987.9283    -51506.33   0.14330731 
    8100    297.58258    4.4488891    148589.63   -47479.479    4086.5801   -51566.059   0.14474565 
    8200    294.46343  -0.93120356    148591.82   -47510.413    4043.7461   -51554.159   0.14265232 
    8300    294.90591    4.1134529    148597.55   -47468.098    4049.8226    -51517.92   0.14905959 
    8400    291.67747   -20.319139    148591.61   -47443.188    4005.4877   -51448.676   0.14765625 
    8500    294.45653    25.622855    148592.77   -47536.367    4043.6514   -51580.018   0.14675943 
    8600    295.35308    15.392419    148574.44   -47539.462    4055.9633   -51595.425   0.13495586 
    8700    291.50699   -2.4426774    148553.66   -47509.481    4003.1465   -51512.627   0.15405252 
    8800    288.62036    12.787167    148550.54   -47547.624    3963.5056   -51511.129   0.14045378 
    8900     286.2575    18.775185    148563.27   -47616.991    3931.0574   -51548.049    0.1438636 
    9000    288.88352    6.7575603    148564.01    -47545.16    3967.1195    -51512.28    0.1463012 
    9100    291.41167    13.391301    148589.93   -47603.572    4001.8375    -51605.41   0.13499242 
    9200    292.65336   -3.0455932    148582.37   -47492.401    4018.8892    -51511.29   0.15308655 
    9300    287.40828     6.912037    148548.59   -47637.608    3946.8606   -51584.468   0.13671846 
    9400    291.50914   -11.286246    148554.99   -47603.237    4003.1761   -51606.413   0.14897616 
    9500     289.0861   -24.992064    148564.33   -47648.572    3969.9015   -51618.473   0.14437304 
    9600    287.35456     1.639542     148566.5   -47640.089    3946.1229   -51586.212   0.14084742 
    9700    289.88046   -10.257496    148574.48   -47511.132      3980.81   -51491.942   0.14793211 
    9800     293.3333   -7.1747732       148604   -47467.937    4028.2265   -51496.164   0.14503755 
    9900    294.24079   -13.403655    148584.47   -47501.038    4040.6887   -51541.727   0.14383042 
   10000     290.8126   -12.975055    148564.78   -47556.451    3993.6107   -51550.062   0.14706881 
   10100       294.52    10.638779    148562.91   -47507.076     4044.523   -51551.599   0.14577804 
   10200    289.89966   -13.302954    148582.53   -47479.983    3981.0737   -51461.057   0.14906975 
   10300    289.94726   -28.924665    148582.18   -47479.935    3981.7274   -51461.662    0.1521775 
   10400    290.93419   -10.894857    148591.09   -47486.599    3995.2805   -51481.879   0.14541373 
   10500     290.0777   -10.818672    148576.97   -47530.615    3983.5186   -51514.134   0.14676086 
   10600    292.92686    14.670602    148571.43   -47555.487    4022.6451   -51578.132   0.13992815 
   10700    290.57053    3.4038321    148547.84   -47575.586    3990.2866   -51565.873   0.14746622 
   10800    286.56899   -19.941973    148521.27   -47706.465     3935.335     -51641.8    0.1421098 
   10900    288.43459    17.970004    148501.48   -47688.835    3960.9546    -51649.79   0.14394815 
   11000    287.03214   -16.995271    148521.94   -47706.545    3941.6953    -51648.24   0.14197817 
   11100    288.83418   -65.606832    148556.86   -47617.878    3966.4419    -51584.32   0.14230166 
   11200    287.72486   -19.535121    148535.29   -47720.726    3951.2081   -51671.934   0.14319466 
   11300    293.76933    4.4185533    148511.76   -47633.522    4034.2144   -51667.736   0.13465207 
   11400    287.15697   -1.1786976     148500.7   -47604.948    3943.4095   -51548.358   0.15227537 
   11500    294.62958    2.9053314    148549.94   -47508.166    4046.0278   -51554.194   0.14086057 
   11600    293.75574   -2.8881369    148568.49   -47508.204    4034.0277   -51542.232   0.14796111 
   11700     294.3877    20.943532    148602.24    -47376.92    4042.7061   -51419.626   0.15095655 
   11800    293.68168   -22.344219    148587.47   -47452.369    4033.0107    -51485.38   0.14715513 
   11900    291.21916     7.717706    148568.71   -47496.593    3999.1939   -51495.787   0.14795056 
   12000    290.95924   -44.585021    148557.35   -47457.582    3995.6246   -51453.207   0.15050481 
   12100    291.86066    7.9040313    148542.63   -47515.686    4008.0033   -51523.689   0.14553344 
   12200    295.37898    20.222938    148556.71   -47522.233     4056.319   -51578.552   0.13938553 
   12300    286.32097    13.375221    148552.07   -47577.506    3931.9291   -51509.435   0.14765251 
   12400    293.06563    12.960013    148548.82   -47565.034    4024.5507   -51589.585   0.14164943 
   12500    291.62231    10.515532    148558.69   -47494.778    4004.7301   -51499.508   0.15195789 
   12600    294.29919   -15.302425    148581.57   -47463.287    4041.4907   -51504.778   0.14530115 
   12700    286.64203   -44.629914    148580.25   -47542.421     3936.338   -51478.759   0.15203371 
   12800    291.70023    1.9018827    148582.18   -47524.435    4005.8003   -51530.235   0.14553919 
   12900    293.67323   -19.513633     148576.7   -47590.637    4032.8946   -51623.532   0.14379706 
   13000    288.53374   -13.050873    148550.04   -47556.357    3962.3161   -51518.673   0.14530525 
   13100    286.38144   0.33856597    148530.17   -47632.741    3932.7595     -51565.5   0.14876012 
   13200    282.88486   -51.259233    148514.85   -47661.089    3884.7424   -51545.831    0.1461593 
   13300    283.50053    12.545026    148508.33   -47742.029    3893.1971   -51635.226   0.13858591 
   13400    288.54595   -6.0637175    148489.37   -47728.068    3962.4838   -51690.552   0.14842522 
   13500    288.20574    21.323572    148526.57   -47638.108    3957.8119   -51595.919   0.13685937 
   13600    288.19949    -30.77656    148525.63   -47586.287    3957.7259   -51544.013     0.153711 
   13700    290.53136    33.897368    148503.98    -47610.62    3989.7486   -51600.369   0.14023087 
   13800    292.16784    33.279708    148519.46   -47564.332    4012.2217   -51576.554    0.1490006 
   13900     291.1855    28.274962    148530.26   -47556.009    3998.7317    -51554.74   0.14609737 
   14000    297.16215    13.332776    148562.17   -47444.509    4080.8066   -51525.316   0.14438965 
   14100    289.78806   -38.535111    148551.11   -47537.247    3979.5412   -51516.788   0.15471036 
   14200    290.47996   -24.662213    148559.73   -47548.203    3989.0428   -51537.245   0.14469794 
   14300    290.20864    19.079434    148543.25   -47577.608    3985.3168   -51562.925   0.14650432 
   14400    287.83438   -3.3317623    148555.29   -47635.576    3952.7121   -51588.288   0.14164411 
   14500    289.28567    28.320517    148520.99   -47650.541    3972.6421   -51623.183   0.14655252 
   14600    291.03414   -3.4112436    148524.87   -47605.346    3996.6531   -51601.999    0.1450256 
   14700    288.18213    15.716924    148549.67    -47553.65    3957.4876   -51511.138   0.14614345 
   14800    287.50513    7.8059372     148543.1     -47531.2    3948.1906    -51479.39   0.15137603 
   14900    290.70261    4.6771261    148565.59    -47543.91    3992.1002    -51536.01   0.14793735 
   15000    287.86973    2.8300119    148530.35   -47605.129    3953.1975   -51558.326   0.14706019 
   15100    282.30211   -50.917138    148533.31   -47620.874    3876.7397   -51497.614   0.15223051 
   15200    290.05335    31.109678    148556.11   -47549.223    3983.1843   -51532.407   0.14355466 
   15300    286.85025    8.2447737    148543.29   -47636.093    3939.1975    -51575.29   0.14973602 
   15400     288.0086    43.847883    148554.67   -47622.917    3955.1046   -51578.021   0.14139187 
   15500    289.76383    56.835258    148528.53   -47559.552    3979.2085   -51538.761   0.14350737 
   15600    292.16323   -12.874774    148595.87   -47438.972    4012.1584    -51451.13   0.15826867 
   15700    293.32939   -10.299668     148601.9     -47457.2    4028.1728   -51485.373   0.13896623 
   15800    292.43915   -40.551876    148598.14   -47463.692    4015.9475    -51479.64   0.15950922 
   15900    290.85443   -16.610708    148592.11   -47483.157    3994.1852   -51477.342   0.14966756 
   16000    291.15808   -26.856794    148572.24   -47530.515    3998.3551    -51528.87   0.14822477 
   16100    289.95889    1.6799579    148548.57   -47561.165     3981.887   -51543.052   0.15232705 
   16200    290.70287    28.859906     148533.4   -47570.652    3992.1038   -51562.756   0.13943981 
   16300    290.83804    3.4685684    148553.08     -47592.6    3993.9601    -51586.56   0.15257888 
   16400     294.8015    7.4245294    148590.53   -47600.815    4048.3886   -51649.204   0.13823211 
   16500    292.40489   -23.155439     148590.2   -47522.749     4015.477   -51538.226   0.15243437 
   16600     296.0204    6.2843465    148609.61    -47447.79    4065.1274   -51512.918   0.15073366 
   16700    298.02495  -0.15390068    148594.32   -47488.393     4092.655   -51581.048   0.14567016 
   16800     289.5414   -36.079559    148587.48   -47544.379    3976.1539   -51520.533   0.14823262 
   16900    289.60013    -16.03856    148584.71   -47570.227    3976.9604   -51547.187   0.14362102 
   17000    289.97137    2.9894608    148583.18   -47615.367    3982.0586   -51597.426   0.14572582 
   17100    291.34307    33.184347    148603.41   -47566.241    4000.8954   -51567.137   0.14434671 
   17200    287.23352    17.967132    148607.99    -47629.21    3944.4608    -51573.67   0.14321578 
   17300    286.79974   -68.089463    148581.52   -47728.615    3938.5038   -51667.119   0.14570968 
   17400    285.32062    -8.572628    148561.42   -47719.914    3918.1917   -51638.105   0.14117939 
   17500     289.8444    7.1211195    148566.38   -47612.891    3980.3149   -51593.206   0.14392899 
   17600    288.44674    17.872344     148558.2   -47618.835    3961.1214   -51579.956   0.14666199 
   17700    289.88566    19.200161    148554.02    -47679.71    3980.8814   -51660.592    0.1355689 
   17800      287.889    10.760853    148540.88   -47628.122    3953.4621   -51581.585   0.15252605 
   17900    290.40673   -6.8332551    148565.67   -47574.017    3988.0371   -51562.054   0.14088855 
   18000    290.10597   -38.028707    148569.55   -47484.306    3983.9068   -51468.213    0.1543226 
   18100    294.81624    -9.311913    148595.02   -47490.202    4048.5911   -51538.793    0.1490199 
   18200    292.24824  -0.90304655    148577.53   -47540.879    4013.3259   -51554.205   0.14557385 
   18300    292.17479   -36.000107    148555.65   -47539.717    4012.3172   -51552.034   0.15378366 
   18400    292.04081   -28.650037    148563.37   -47642.869    4010.4772   -51653.346   0.14005205 
   18500     290.0591    14.883953     148560.8   -47577.016    3983.2632    -51560.28   0.15051213 
   18600    286.15787   -21.040382    148562.84   -47530.065    3929.6893   -51459.755   0.14854408 
   18700    293.48207   -14.271946    148567.12   -47547.384    4030.2695   -51577.654   0.14459506 
   18800    291.26479     2.632588     148568.5   -47566.213    3999.8205   -51566.033   0.14619914 
   18900    288.65326    2.6179578    148564.32   -47520.495    3963.9574   -51484.452   0.14864388 
   19000    288.96058    -41.67071    148543.17   -47550.138    3968.1777   -51518.316    0.1502106 
   19100    291.76758    23.799864     148550.8   -47460.396     4006.725   -51467.121   0.15064312 
   19200     293.7518     21.13945    148536.95   -47491.873    4033.9736   -51525.847   0.14801644 
   19300    295.36259    25.983587     148580.6   -47385.853     4056.094   -51441.947   0.14672922 
   19400    298.77168    51.191863    148564.58    -47444.57    4102.9096    -51547.48   0.14758842 
   19500     292.0601    4.8677317    148575.59   -47448.564    4010.7422   -51459.306   0.14971234 
   19600    294.79478    36.806895    148560.12   -47434.903    4048.2964     -51483.2   0.14883734 
   19700    293.40781    -15.63476    148554.19   -47491.741    4029.2497    -51520.99   0.15018893 
   19800     292.7273   -20.019778     148572.7   -47442.925    4019.9045   -51462.829   0.15102475 
   19900    292.01377   -15.955792    148553.96   -47525.527    4010.1059   -51535.633   0.14981285 
   20000    291.53995    20.213556    148555.18   -47552.952    4003.5992   -51556.551   0.14367044 
   20100    286.98584   -11.883536    148519.22   -47592.611    3941.0594    -51533.67   0.14704681 
   20200    290.32797   -13.037676    148537.43   -47574.691    3986.9556   -51561.647   0.15260425 
   20300    294.85787     17.21675    148517.23   -47532.194    4049.1628   -51581.356   0.14704047 
   20400    291.60122   -20.445978    148518.33   -47593.944    4004.4405   -51598.384   0.14560091 
   20500    286.73168   -28.317002    148517.57    -47638.42    3937.5691   -51575.989    0.1501497 
   20600    293.27829   -8.4594573    148523.03   -47660.072     4027.471   -51687.543    0.1399093 
   20700    291.10946   -26.894516    148502.84   -47600.808    3997.6874   -51598.496   0.15134691 
   20800    293.67186   -10.254608    148534.45   -47455.884    4032.8758    -51488.76   0.14936282 
   20900    296.32536    15.845634    148547.27   -47568.896    4069.3153   -51638.211   0.14824188 
   21000    292.42173    29.667484    148529.13   -47579.564    4015.7083   -51595.272   0.14455146 
   21100    296.89893    40.240013    148535.33   -47456.167    4077.1918   -51533.359    0.1471542 
   21200    293.29864   -29.059895    148563.81   -47476.558    4027.7506   -51504.309   0.15022629 
   21300    294.20551   -28.024288    148556.09   -47469.698    4040.2042   -51509.902   0.14860349 
   21400    292.23951    -36.94148    148519.44   -47509.481    4013.2059   -51522.687   0.15358154 
   21500    300.62244     71.48113    148561.67   -47410.341    4128.3252   -51538.666   0.14204089 
   21600    298.26282    31.730483    148545.31   -47414.412    4095.9216   -51510.334   0.15372209 
   21700    292.14098 -0.095731669     148547.3   -47553.241    4011.8528   -51565.094   0.14507076 
   21800    293.31232    21.968927    148568.68   -47590.445    4027.9384   -51618.383   0.14104899 
   21900    286.81629   -22.251202    148553.96   -47562.478    3938.7311   -51501.209   0.15360524 
   22000    292.08501   -13.702335    148548.37   -47598.735    4011.0843   -51609.819   0.14483055 
   22100    289.74491  -0.68229528    148531.03   -47635.789    3978.9486   -51614.737   0.14157414 
   22200    288.59278    26.486394    148507.45   -47724.584    3963.1269   -51687.711   0.14455434 
   22300    291.12092  -0.38454169    148532.32   -47607.258    3997.8448   -51605.103   0.14208153 
   22400     288.9161   -40.530773    148580.52    -47557.99    3967.5669   -51525.557   0.15079287 
   22500    290.62725   -21.009559    148587.86   -47512.681    3991.0654   -51503.747   0.14773094 
   22600    289.57596    25.944176     148561.3   -47548.536    3976.6285   -51525.165   0.14462819 
   22700     289.9292   -16.906859    148529.51   -47612.882    3981.4794   -51594.361   0.14989122 
   22800    294.71675   -21.980114       148537   -47531.559    4047.2249   -51578.784   0.14284425 
   22900    288.07711    16.769143    148539.67   -47571.016    3956.0454   -51527.062    0.1507657 
   23000    292.15524    16.620468     148548.6   -47643.186    4012.0487   -51655.234   0.14129443 
   23100     286.3424   0.69075292    148542.85   -47582.194    3932.2233   -51514.418   0.14726836 
   23200    295.15992    4.1999351    148544.57   -47528.903    4053.3108   -51582.214   0.14537502 
   23300    294.86617    16.265466    148541.15   -47526.052    4049.2768   -51575.329    0.1479927 
   23400    290.14223    23.810509    148509.63   -47571.459    3984.4048   -51555.864    0.1460989 
   23500     297.3725    36.079609     148556.9   -47460.518    4083.6952   -51544.213   0.14545744 
   23600    288.35112   -28.678755    148549.41   -47476.147    3959.8083   -51435.955   0.15472334 
   23700    294.63405    7.1062408    148555.31   -47471.143    4046.0892   -51517.232   0.14623687 
   23800    293.62115   -23.993339    148555.81   -47480.006    4032.1794   -51512.185   0.15250225 
   23900    296.15161   -21.580036    148525.65   -47573.064    4066.9292   -51639.994   0.14487067 
   24000    293.40286    42.957995    148514.23    -47513.95    4029.1818   -51543.131    0.1458223 
   24100    294.68994    14.474795    148554.65   -47439.217    4046.8567   -51486.074   0.14814443 
   24200    293.43888   -17.043739     148541.9   -47573.007    4029.6764   -51602.683   0.14655509 
   24300    282.38409   -33.027808    148539.37    -47614.43    3877.8654   -51492.295   0.14932614 
   24400    288.75961   -4.8957854    148536.63   -47643.242    3965.4179    -51608.66   0.14588919 
   24500    290.51175   -10.509285    148545.03   -47594.869    3989.4793   -51584.348   0.14359704 
   24600    289.16493   0.22000079     148518.7   -47637.375    3970.9839   -51608.359   0.14148392 
   24700    285.22725    -35.17107    148520.91   -47643.831    3916.9094   -51560.741    0.1470818 
   24800    289.86253    16.083451    148540.77   -47581.038    3980.5638   -51561.602   0.14272387 
   24900    289.13318    4.8442194    148539.46   -47644.854     3970.548   -51615.402   0.14828448 
   25000    290.40732   -29.709215    148557.86   -47628.022    3988.0452   -51616.067   0.14413823 
   25100    286.14524   -9.9040469    148561.28   -47683.641    3929.5158   -51613.157   0.14289947 
   25200    282.87374   -23.012711    148531.61     -47817.9    3884.5896    -51702.49   0.13997343 
   25300    290.12943    8.9212214     148536.7    -47649.42     3984.229   -51633.649   0.14426161 
   25400    285.48792   -17.078853    148558.53   -47695.384    3920.4891   -51615.874   0.14084987 
   25500    290.92294    41.092806    148568.75   -47576.004     3995.126    -51571.13   0.14055841 
   25600    286.85036   -18.846624    148593.57   -47501.092    3939.1989   -51440.291   0.15174547 
   25700    287.70186   -2.3812561    148596.89   -47590.824    3950.8923   -51541.716   0.14154238 
   25800     297.4643   -13.290551    148602.45   -47446.233    4084.9558   -51531.189   0.15221134 
   25900    293.40211   -26.368752     148598.2    -47474.69    4029.1715   -51503.862   0.14622117 
   26000    293.50955   -7.7013292    148567.77   -47516.835    4030.6469   -51547.482   0.15066493 
   26100    297.16709   0.74862054    148576.83   -47507.077    4080.8744   -51587.951   0.13977871 
   26200    290.24068   -21.017325    148552.86   -47607.472    3985.7568   -51593.229   0.14634555 
   26300    289.34991   0.39370272    148541.71   -47566.485    3973.5242    -51540.01   0.14671699 
   26400     287.5836   -2.4698308    148536.36   -47622.882    3949.2682    -51572.15   0.14430703 
   26500    289.49008    10.238573    148549.06   -47529.895    3975.4491   -51505.344    0.1479143 
   26600    289.59767    10.376805     148573.6   -47480.123    3976.9266    -51457.05   0.14968163 
   26700    294.85688    7.1764852    148576.62   -47478.985    4049.1493   -51528.134   0.15082471 
   26800    293.85311     39.96378    148580.52   -47531.607    4035.3648   -51566.972   0.14372227 
   26900    293.00267    22.870911    148549.32   -47465.473    4023.6861   -51489.159   0.15057369 
   27000    291.61108   -34.712153    148582.63   -47505.579    4004.5759   -51510.155   0.14880135 
   27100    294.18955    30.211321    148569.66   -47446.743    4039.9851   -51486.728    0.1475687 
   27200     292.7652    39.432294    148564.15   -47513.108    4020.4249   -51533.533   0.14136667 
   27300    297.42865    37.965935    148622.04   -47347.596    4084.4663   -51432.062   0.15307453 
   27400    292.20431    9.6878291    148595.16    -47470.74    4012.7225   -51483.463   0.14750723 
   27500    289.60431   -10.340528    148600.12   -47588.935    3977.0178   -51565.953    0.1452518 
   27600    283.34552    -31.28376    148567.58   -47642.589    3891.0683   -51533.657   0.14409645 
   27700    294.16894    24.683039    148570.04   -47533.802     4039.702   -51573.504   0.14420802 
   27800    292.79486   -10.453337    148595.22   -47512.517    4020.8323   -51533.349    0.1479756 
   27900    296.02011    12.938033    148588.92   -47570.173    4065.1234   -51635.296   0.13768268 
   28000    283.47332   -0.5444823    148578.66   -47646.952    3892.8235   -51539.775   0.14876354 
   28100    290.75539    10.080402    148571.09   -47623.368    3992.8251   -51616.193   0.13789308 
   28200    291.26383    4.5070456    148565.11   -47587.005    3999.8073   -51586.813   0.14491064 
   28300    290.83173    6.5424148    148564.69   -47609.709    3993.8735   -51603.583   0.14479208 
   28400    291.87761    8.5723854     148561.7   -47542.825    4008.2361   -51551.061    0.1454074 
   28500    294.99358    6.4906998    148560.22   -47575.267    4051.0265   -51626.294   0.14826632 
   28600     287.8299    32.636057    148561.35   -47569.191    3952.6506   -51521.841   0.13979734 
   28700    286.96945    19.572169    148563.69   -47566.569    3940.8344   -51507.403   0.15163428 
   28800    289.76749   -5.9579182    148567.52   -47612.413    3979.2587   -51591.671   0.14425381 
   28900    290.72428   -12.856587    148602.85   -47586.458     3992.398   -51578.856   0.14862397 
   29000    289.80413    -10.69175    148581.28   -47521.459    3979.7618   -51501.221   0.14821551 
   29100    295.12266   -2.0449538    148599.89   -47525.431     4052.799    -51578.23   0.14432354 
   29200    298.01897   -6.9733379     148592.2    -47458.81    4092.5729   -51551.383   0.14354052 
   29300    294.95192    4.7995227    148587.33    -47464.08    4050.4543   -51514.534   0.14850929 
   29400    293.38875     22.42099    148603.03   -47476.688     4028.988   -51505.676   0.14450625 
   29500    292.01711   -3.1390235    148603.73   -47527.006    4010.1517   -51537.158   0.14326547 
   29600    295.81175    23.855668    148596.86   -47493.478     4062.262    -51555.74   0.14514474 
   29700    294.98588    13.591817    148577.74   -47571.851    4050.9207   -51622.771   0.13794695 
   29800    288.25879   -4.0843098    148545.22    -47664.09    3958.5404   -51622.631   0.15023262 
   29900    286.35583   -17.776895     148541.9   -47643.997    3932.4077   -51576.405   0.14312354 
   30000     288.6062   -47.785393    148535.98   -47612.118    3963.3111   -51575.429    0.1533277 
   30100    283.88088   -6.4295551    148541.97   -47576.944    3898.4203   -51475.364   0.14590482 
   30200     289.6334   -22.846252    148552.04   -47584.197    3977.4172   -51561.615   0.15085554 
   30300    291.31608    28.899891    148552.46   -47571.186    4000.5249   -51571.711   0.14080583 
   30400    293.38722    39.089755    148568.36   -47611.432    4028.9669   -51640.399   0.14054805 
   30500    286.02312    21.342502    148546.75   -47711.177    3927.8387   -51639.016   0.13941358 
   30600    289.04944    20.810919    148563.02   -47589.896    3969.3979   -51559.294   0.13876766 
   30700    290.46987  -0.78149953    148553.79   -47616.689    3988.9042   -51605.593   0.14448322 
   30800    296.25745    21.562192    148568.63   -47552.976    4068.3827   -51621.358   0.13934688 
   30900    288.88722   -25.804971    148579.88    -47526.51    3967.1704    -51493.68   0.15276046 
   31000    292.08887   -6.0548963    148587.86   -47566.582    4011.1373   -51577.719   0.13961372 
   31100    289.83719   -26.879301    148592.63   -47576.079    3980.2158   -51556.294   0.14425241 
   31200    293.90958     26.32395    148583.79   -47521.219    4036.1403    -51557.36   0.14157961 
   31300    291.76479    10.663586    148586.27   -47448.202    4006.6868   -51454.889   0.15322599 
   31400    291.04212   -19.953827    148592.02   -47571.481    3996.7626   -51568.244   0.14293644 
   31500    294.12047    15.320853    148597.18   -47523.606    4039.0365   -51562.643   0.14501522 
   31600    293.01385    13.806896    148592.74   -47542.328    4023.8396   -51566.168   0.14256274 
   31700     295.4549   -1.3187182    148612.78   -47522.202    4057.3616   -51579.564   0.13830498 
   31800    292.19919    12.829141    148591.65   -47579.616    4012.6522   -51592.269   0.14421783 
   31900    288.87266   -19.910316    148584.29   -47576.694    3966.9703   -51543.665    0.1416441 
   32000    292.91448   -5.3566767    148576.03    -47520.55     4022.475   -51543.025   0.14941219 
   32100    293.87262   -3.1993221    148581.71   -47558.877    4035.6328    -51594.51    0.1415406 
   32200    282.17064   -41.097914    148524.75    -47679.83    3874.9342   -51554.764   0.14590168 
   32300    292.48011   -13.444187    148535.96   -47623.732      4016.51   -51640.242   0.14357899 
   32400    287.49807   -3.9599374    148534.99    -47718.78    3948.0937   -51666.874    0.1420495 
   32500      288.347    26.926874    148551.92   -47573.775    3959.7517   -51533.526   0.14218476 
   32600    292.73075    17.435006    148577.53   -47529.901    4019.9519   -51549.853   0.14157752 
   32700    290.58566     -10.7166    148542.45   -47621.817    3990.4943   -51612.311   0.14362647 
   32800    295.01299   -10.893068    148567.52   -47488.978    4051.2931   -51540.271   0.14216026 
   32900    293.69042   -8.2068426    148558.76   -47559.208    4033.1307   -51592.338   0.14645977 
   33000    292.30042    -35.26958    148559.53   -47546.247    4014.0424    -51560.29   0.14420514 
   33100    290.88142   -4.8364507     148560.4   -47582.386    3994.5558   -51576.941   0.14779525 
   33200     292.1684    17.657464    148558.46   -47557.363    4012.2294   -51569.592   0.13915062 
   33300    290.67705    18.543366     148565.6   -47560.711    3991.7493    -51552.46   0.14688911 
   33400    293.02841   -18.161568    148536.25   -47580.285    4024.0396   -51604.325   0.14682952 
   33500    288.69387    10.313385    148570.33   -47608.939    3964.5151   -51573.454   0.14160853 
   33600     286.6247   -15.728459    148573.49   -47617.172    3936.1001   -51553.273   0.14137303 
   33700    292.11178   -4.3157678    148598.22    -47517.59    4011.4519   -51529.042   0.13785326 
   33800    295.95768    12.367391    148632.29   -47406.878     4064.266   -51471.144   0.14834926 
   33900    293.69077    24.035696     148632.9   -47431.933    4033.1355   -51465.069   0.14009554 
   34000    288.22889   -18.439257     148567.6   -47573.073    3958.1297   -51531.203   0.14787922 
   34100    293.42806   -36.258458    148563.71   -47599.961    4029.5278   -51629.488   0.14133608 
   34200    294.15727    29.633905    148537.57    -47596.15    4039.5418   -51635.692   0.14650787 
   34300     291.4134    5.3953366    148536.11   -47626.821    4001.8613   -51628.682    0.1387718 
   34400    291.07297    20.447085    148539.42   -47552.982    3997.1863   -51550.168   0.14911436 
   34500    292.67044   -14.015066    148574.04   -47475.188    4019.1237   -51494.312   0.14915491 
   34600    294.15126   -52.402874    148623.28   -47480.148    4039.4591   -51519.607   0.14825967 
   34700    290.27284    5.8983849    148589.68   -47589.694    3986.1984   -51575.892   0.14163842 
   34800    295.61393    13.172182    148581.81   -47588.596    4059.5454   -51648.142   0.14078585 
   34900    292.88728    5.0732214    148598.49   -47567.766    4022.1015   -51589.868   0.14448476 
   35000    293.71809    36.976293    148577.05   -47542.974    4033.5107   -51576.484   0.13650356 
   35100    289.86048    21.609192    148563.41    -47555.88    3980.5356   -51536.415   0.14849765 
   35200     289.4675    -5.590401    148590.49   -47499.818     3975.139   -51474.957   0.14196195 
   35300     286.8738   -3.8171018    148575.38   -47581.558    3939.5209   -51521.079   0.14985196 
   35400    293.54609    2.7705989    148548.07   -47580.846    4031.1487   -51611.994   0.14247645 
   35500    291.23395    23.490203     148567.7   -47567.486     3999.397   -51566.883   0.14596862 
   35600    291.04344    -4.765472    148575.25     -47541.9    3996.7808    -51538.68   0.14474338 
   35700    293.22833    -25.80162    148568.79   -47551.856     4026.785   -51578.641   0.14611588 
   35800    294.73422   -14.060326    148603.56   -47383.848    4047.4647   -51431.312    0.1518931 
   35900    292.47119   -28.678183    148598.86   -47506.336    4016.3874   -51522.724   0.14810973 
   36000    292.65382    7.9526754    148565.83   -47562.811    4018.8955   -51581.707   0.14558925 
   36100     287.9542   -27.730952    148544.38   -47605.296    3954.3575   -51559.654   0.14144517 
   36200    285.27997   -24.538885    148521.77   -47637.489    3917.6334   -51555.122   0.14976442 
   36300    292.98867    37.087321    148538.82   -47567.786    4023.4938    -51591.28   0.14045547 
   36400    289.52056   -22.530141    148550.15   -47626.985    3975.8677   -51602.853   0.14795405 
   36500    287.52656    -42.69544    148519.73   -47594.612    3948.4849   -51543.097   0.14793924 
   36600     292.1057     5.925774    148532.83   -47595.709    4011.3683   -51607.077   0.14727877 
   36700     285.4133     1.221244    148526.73   -47635.761    3919.4644   -51555.226   0.14528104 
   36800    285.14745   -30.777689    148504.45   -47704.006    3915.8136   -51619.819   0.14363606 
   36900     285.6561   -16.233234    148540.55   -47625.683    3922.7986   -51548.481   0.14811492 
   37000    288.68304     8.907973    148523.63   -47611.031    3964.3664   -51575.398   0.14464506 
   37100    289.01965    4.5091093     148510.8   -47653.001    3968.9889   -51621.989   0.14687782 
   37200    286.57207   -37.499443    148516.25   -47655.391    3935.3773   -51590.768   0.14470473 
   37300    283.29748   -41.911007    148500.09   -47653.044    3890.4086   -51543.453   0.15366204 
   37400    286.79915    21.749542    148503.13    -47656.53    3938.4957   -51595.025   0.14159589 
   37500    289.20917   -6.3776423    148533.96    -47639.81    3971.5915   -51611.401   0.14541151 
   37600    292.66184    9.4318748    148523.41   -47689.671    4019.0056   -51708.677   0.14057333 
   37700     282.6358    8.6395349    148499.72   -47769.266    3881.3221   -51650.588   0.14145599 
   37800    283.16033   -8.8222815    148473.42   -47784.502    3888.5253   -51673.027   0.14660407 
   37900    289.17193    36.231262    148491.46   -47687.219    3971.0801   -51658.299   0.14065302 
   38000    288.91529   -30.092059    148521.61    -47627.32    3967.5558   -51594.876    0.1527049 
   38100    291.88937    6.1752936    148538.24   -47562.775    4008.3975   -51571.173   0.14064603 
   38200    291.97454    13.272554     148540.4   -47528.366    4009.5672   -51537.933   0.14945828 
   38300    291.17821   -15.817755    148544.06   -47579.552    3998.6316   -51578.184   0.14041461 
   38400    294.45872   -10.665846    148552.46   -47513.856    4043.6814   -51557.537   0.15413516 
   38500     288.6116   -13.892294    148527.88   -47568.702    3963.3853   -51532.087   0.14677545 
   38600    291.27135    18.530447    148526.02   -47528.538    3999.9106   -51528.448   0.14860315 
   38700    292.30738    48.027417    148549.46   -47496.658    4014.1379   -51510.796   0.14724835 
   38800    292.13436    17.352601    148541.21   -47533.306    4011.7619   -51545.068   0.14330329 
   38900    292.20001   -5.0022603    148583.42   -47478.988    4012.6634   -51491.652   0.15225236 
   39000    291.71098   -1.9281602    148603.02   -47536.978    4005.9479   -51542.926   0.14113524 
   39100    293.48348    -11.82441    148568.43   -47556.878    4030.2889   -51587.167   0.14915309 
   39200    285.33942   -7.5007814    148551.55   -47688.976    3918.4499   -51607.426   0.13921035 
   39300    282.81578    20.298995    148513.29   -47695.754    3883.7936   -51579.548   0.14612084 
   39400    291.56017   -30.204914    148555.89   -47569.993    4003.8769    -51573.87   0.14481026 
   39500     293.0392   -3.9481104    148573.41   -47556.963    4024.1877   -51581.151   0.14924008 
   39600    292.19278   -4.3561474    148576.22   -47554.738    4012.5642   -51567.303   0.14132912 
   39700    293.64362    15.991361    148553.86   -47535.019     4032.488   -51567.507   0.14935587 
   39800    286.66563    -26.44657    148554.67    -47557.47     3936.662   -51494.132   0.15168044 
   39900    290.45397     -10.4536    148570.24   -47522.045    3988.6858   -51510.731   0.14738159 
   40000    290.28036   -19.951917    148555.76   -47596.848    3986.3017    -51583.15   0.14823164 
   40100    288.71137   -11.718169    148554.22    -47608.04    3964.7555   -51572.796   0.13994677 
   40200    286.55727   -47.077482    148546.63   -47585.265     3935.174   -51520.439   0.15376537 
   40300    293.63996    55.048887    148512.48   -47588.938    4032.4377   -51621.376   0.14136818 
   40400    288.41562   -29.383162    148486.73   -47669.354    3960.6941   -51630.048   0.15025625 
   40500    294.77844    47.653992    148556.89   -47534.712     4048.072   -51582.784   0.14272413 
   40600    290.81971   -47.574931    148551.75   -47611.425    3993.7084   -51605.134   0.15158193 
   40700    291.12826    -2.266475    148522.05   -47610.913    3997.9456   -51608.859   0.14297403 
   40800     293.7102    36.789272    148532.44   -47583.746    4033.4023   -51617.148   0.14410304 
   40900     293.4669    31.438762     148526.9   -47571.718    4030.0612   -51601.779   0.14698979 
   41000    286.61179   -16.139328    148536.25   -47639.648    3935.9227    -51575.57   0.14006331 
   41100    288.11303    31.403493     148521.7   -47609.773    3956.5387   -51566.311   0.14902645 
   41200    292.26051    51.444793    148566.79   -47491.987    4013.4943   -51505.481   0.14215821 
   41300     286.9907   -38.324416    148558.55   -47581.645    3941.1262   -51522.771   0.15290807 
   41400    290.66646    17.019302    148548.97   -47527.158    3991.6038   -51518.762   0.14482534 
   41500    289.69146    -29.97331    148553.98   -47541.226    3978.2146   -51519.441   0.14941832 
   41600    286.20496    21.202677    148546.08   -47544.781     3930.336   -51475.117   0.14789208 
   41700    284.87878    11.421482    148537.16   -47655.792     3912.124   -51567.916   0.14170124 
   41800    292.36359   -8.6641275    148553.63   -47573.717    4014.9099   -51588.627   0.14946773 
   41900    288.88623   -11.476585    148549.17   -47655.538    3967.1566   -51622.694   0.14355749 
   42000    291.14425    33.062114    148545.16   -47621.083    3998.1652   -51619.248   0.14378642 
   42100    288.84135      53.1644    148542.92   -47692.423    3966.5404   -51658.963   0.13346062 
   42200    288.55247   -6.1114993    148531.11   -47654.067    3962.5732    -51616.64   0.14901224 
   42300    287.40039   -16.960185    148537.75   -47616.377    3946.7522    -51563.13   0.14431458 
   42400    287.15422   -13.212626    148544.64   -47639.446    3943.3717   -51582.817   0.14788531 
   42500    292.52309   -24.473719    148549.36   -47605.341    4017.1002   -51622.441   0.14279984 
   42600    290.12494   -11.262005    148514.53   -47638.462    3984.1674    -51622.63   0.14679141 
   42700    287.01861    14.322755    148515.62   -47706.114    3941.5094   -51647.623   0.14108048 
   42800    290.26745    5.8412662    148524.66   -47621.389    3986.1245   -51607.513   0.14556344 
   42900    288.77773   0.30542723     148503.4   -47638.171    3965.6667   -51603.838   0.15062493 
   43000    289.60032   -49.410683     148499.3   -47662.013     3976.963   -51638.976   0.14703472 
   43100    292.95071    -2.599721     148504.5   -47578.931    4022.9725   -51601.903   0.15528191 
   43200    291.25752    -5.304032    148508.94   -47591.108    3999.7206   -51590.829   0.14190728 
   43300    288.71318   -25.153524    148479.23   -47582.497    3964.7803   -51547.277   0.15878693 
   43400    295.53843    26.537997    148506.05   -47515.388    4058.5086   -51573.896   0.14117032 
   43500    286.22217   -17.967675    148515.82   -47572.695    3930.5723   -51503.267   0.15050044 
   43600    287.88026     16.72049    148510.55   -47615.279    3953.3422   -51568.621   0.14421364 
   43700    287.80331   -3.6495189     148480.9   -47658.874    3952.2854   -51611.159    0.1465783 
   43800    283.94743    -17.76505    148487.76    -47696.56    3899.3342   -51595.895   0.14780656 
   43900    287.80449    10.185579    148500.36   -47608.078    3952.3016    -51560.38   0.14496688 
   44000    283.41139   -24.415756    148470.47   -47692.791    3891.9729   -51584.763   0.14905298 
   44100    289.33897    46.024548       148486   -47647.451     3973.374   -51620.825   0.14020057 
   44200    291.21848    29.044245    148497.91   -47604.303    3999.1845   -51603.488   0.15089163 
   44300    295.07504    15.612876    148506.28   -47609.648    4052.1451   -51661.794   0.14042899 
   44400    294.48193    18.096661    148497.86   -47617.648    4044.0002   -51661.648   0.14784688 
   44500    290.85119    9.6526019    148521.31   -47629.547    3994.1407   -51623.688   0.14083538 
   44600    286.53248   -35.189205    148514.18   -47631.523    3934.8336   -51566.357   0.14397214 
   44700    286.62522   -12.374617    148509.45   -47620.425    3936.1072   -51556.532   0.14843208 
   44800    288.02425    16.531443    148511.04   -47579.283    3955.3195   -51534.602    0.1494098 
   44900     288.4718    20.158434    148533.11   -47565.391    3961.4655   -51526.856   0.15003131 
   45000    286.47437      37.2699    148516.47   -47605.147    3934.0356   -51539.182   0.14711817 
   45100    293.86747   -5.0740565     148556.3   -47492.468     4035.562    -51528.03   0.14695956 
   45200     293.7158    23.680955    148562.36   -47532.216    4033.4792   -51565.695   0.14248241 
   45300    284.18047   -22.982651    148566.29   -47564.388    3902.5344   -51466.923    0.1508815 
   45400    293.66407    8.9115917    148526.46   -47622.454    4032.7689   -51655.223   0.14145912 
   45500    290.51317   -7.2093892    148548.64   -47561.255    3989.4987   -51550.753    0.1495528 
   45600    291.85022    36.737751    148557.16   -47551.934      4007.86   -51559.794   0.14398179 
   45700    292.46234    1.6937271    148526.27    -47504.83    4016.2659   -51521.096    0.1519822 
   45800    292.03344     14.50207    148531.27   -47581.053    4010.3761   -51591.429   0.14787318 
   45900    291.17874    8.5317975    148554.12   -47444.978    3998.6388   -51443.617   0.14884944 
   46000    298.43818    18.365305    148565.65   -47514.178    4098.3297   -51612.508   0.14877333 
   46100    297.98948    6.6710864    148594.63   -47420.114    4092.1679   -51512.282    0.1446446 
   46200    297.89558    13.755211    148594.24   -47478.716    4090.8784   -51569.594   0.14862181 
   46300    297.19598   0.79792604    148594.45   -47464.516    4081.2712   -51545.787   0.14593571 
   46400    291.41778    6.4338848    148566.37   -47506.175    4001.9215   -51508.096   0.15150545 
   46500    295.43912     34.41961    148581.73   -47470.431    4057.1449   -51527.576   0.14559931 
   46600    292.41381    12.809881    148569.23   -47533.107    4015.5995   -51548.706   0.14496409 
   46700     297.7192    15.380381     148577.7   -47469.104    4088.4563    -51557.56   0.14539618 
   46800    295.49712    23.385086    148568.08   -47478.809    4057.9413   -51536.751   0.14034652 
   46900    293.37387    5.2612517    148552.26     -47532.4    4028.7836   -51561.184    0.1508103 
   47000    294.35382   0.72165015    148552.78   -47573.134    4042.2409   -51615.375   0.14057226 
   47100    289.67874    7.2043737       148525   -47574.985    3978.0399   -51553.025    0.1489414 
   47200    290.77343    57.034716    148534.84   -47542.649    3993.0728   -51535.722   0.14048498 
   47300    285.41505   -4.3278846    148543.62     -47666.7    3919.4885   -51586.188   0.14530112 
   47400    288.84684   -37.121515    148538.65   -47605.103    3966.6158   -51571.719   0.14541617 
   47500    291.64612    24.762057    148534.25   -47604.348    4005.0571   -51609.405   0.14724693 
   47600    296.57856    30.582413    148553.34   -47604.971    4072.7924   -51677.764   0.13670196 
   47700    297.62316   -6.2972265    148554.05   -47527.658    4087.1373   -51614.795   0.14738452 
   47800    293.29454    20.024185    148561.24   -47585.241    4027.6942   -51612.935   0.14267236 
   47900    290.37511    18.354535    148529.57   -47639.674    3987.6028   -51627.277    0.1426164 
   48000    285.62794   -29.964061    148528.62   -47596.472    3922.4119   -51518.884   0.15195301 
   48100    291.83659   -0.3623063    148528.47   -47642.849    4007.6729   -51650.522   0.14306816 
   48200    290.19075    26.424967    148531.07   -47628.626    3985.0711   -51613.697   0.14750941 
   48300    292.18099    8.0109872     148529.3   -47582.042    4012.4022   -51594.444   0.14315106 
   48400    286.37823   -13.900077    148560.73   -47619.242    3932.7154   -51551.957   0.14895759 
   48500    286.17515  -0.23610135    148531.31   -47703.483    3929.9265    -51633.41   0.14080537 
   48600    290.77753    2.1859295    148521.37   -47702.352    3993.1292   -51695.481   0.14232214 
   48700    292.00742    29.170765    148535.13   -47582.811    4010.0187    -51592.83   0.14296905 
   48800    292.64247    37.997657     148541.8   -47575.681    4018.7397   -51594.421   0.14540626 
   48900    290.83095    23.666211    148541.62   -47601.456    3993.8628   -51595.319   0.14752582 
   49000    286.36223    4.0850567    148521.66   -47637.157    3932.4956   -51569.652   0.14396587 
   49100    294.89425    25.967391    148522.72   -47547.427    4049.6624    -51597.09   0.15027792 
   49200    294.11036    17.672981    148541.61   -47581.217    4038.8976   -51620.114   0.14078832 
   49300    290.26293   -16.491193     148535.3    -47653.15    3986.0623   -51639.212   0.14328036 
   49400    290.07268    4.7775484     148518.5   -47672.949    3983.4498   -51656.399   0.14448529 
   49500    291.19332   -22.205766    148491.72   -47606.651     3998.839    -51605.49   0.14911118 
   49600    291.44042    25.962778    148495.25   -47602.782    4002.2324   -51605.015   0.14477055 
   49700    294.01034   -10.521017    148504.28   -47609.066    4037.5241    -51646.59   0.14496131 
   49800    289.01378    1.2604317     148511.8   -47618.403    3968.9084   -51587.311   0.14638504 
   49900    291.95527    22.940711     148496.8   -47596.109    4009.3026   -51605.411   0.14679579 
   50000    283.35527   -22.519733    148513.67    -47597.19    3891.2022   -51488.392   0.15553082 
   50100    295.18019   -10.368919    148586.88   -47468.829    4053.5891   -51522.418   0.14344069 
   50200    291.18032   -24.915592     148548.2   -47539.596    3998.6604   -51538.256   0.15473724 
   50300    290.63351   -7.9384114    148562.93   -47559.841    3991.1514   -51550.992   0.14410902 
   50400    293.63635   -24.965527    148563.45   -47577.057    4032.3881   -51609.445   0.14752798 
   50500    297.84376    41.185775    148554.42    -47484.94    4090.1667   -51575.107   0.14465754 
   50600    296.67156    11.319373    148584.85   -47414.861    4074.0694    -51488.93   0.14925504 
   50700    290.63541    3.9489168    148554.28   -47653.289    3991.1775   -51644.466   0.14304575 
   50800    285.76907   -23.046154    148555.67    -47633.34      3924.35    -51557.69   0.14418139 
   50900    292.01813    4.4761119    148520.96   -47655.067    4010.1658   -51665.233    0.1438175 
   51000    290.81275     25.91104    148551.34   -47616.951    3993.6128   -51610.564   0.14326386 
   51100    285.77086   -21.510245    148546.87   -47625.119    3924.3746   -51549.494   0.14881325 
   51200    288.79219    45.394019     148538.9   -47686.674    3965.8653   -51652.539   0.13839431 
   51300    290.79254    38.600016    148544.09   -47696.007    3993.3352   -51689.342     0.144802 
   51400    290.91607   -5.0550872    148567.46   -47636.123    3995.0316   -51631.155   0.14001597 
   51500    287.81322    -5.168278    148559.28   -47694.534    3952.4215   -51646.956   0.14430854 
   51600    292.26046    21.551364    148568.94   -47611.224    4013.4937   -51624.718   0.13894839 
   51700     292.6009   -6.9233408    148563.68    -47507.97    4018.1687   -51526.139   0.15086492 
   51800    290.97438   -38.568473     148591.4   -47558.511    3995.8325   -51554.343   0.14337748 
   51900    290.24679    9.2172543    148598.48   -47622.902    3985.8407   -51608.743   0.14565973 
   52000    285.36088   -26.491465    148574.62   -47600.469    3918.7445   -51519.213   0.14607811 
   52100     287.6771   0.99414729    148552.37   -47686.661    3950.5522   -51637.213    0.1422839 
   52200    288.22575    1.3280585    148539.12   -47735.459    3958.0867   -51693.545    0.1435396 
   52300    291.39963   -1.6307837     148548.5   -47715.603    4001.6721   -51717.275    0.1347116 
   52400    283.55001    10.363703    148537.61   -47800.257    3893.8766   -51694.133    0.1441442 
   52500    283.90825    37.348793    148548.46   -47647.038    3898.7961   -51545.834   0.14056514 
   52600    287.84543   -17.866528    148578.47   -47616.101    3952.8638   -51568.965   0.14742333 
   52700    288.65839   -3.4056446    148582.08   -47549.649    3964.0279   -51513.677   0.14749484 
   52800    293.28487    2.6676942    148611.81   -47524.501    4027.5614   -51552.063   0.14649263 
   52900    292.81952    34.873123    148597.03   -47540.347     4021.171   -51561.518   0.14445665 
   53000    295.78748   -3.0618619    148620.47   -47497.891    4061.9287    -51559.82   0.14415703 
   53100    289.89214   -11.162417    148572.57   -47631.014    3980.9705   -51611.984    0.1438302 
   53200     288.6676    20.423659    148557.88   -47682.467    3964.1543   -51646.621   0.14030879 
   53300    291.73315    51.411885     148534.4   -47639.005    4006.2523   -51645.257   0.14410628 
   53400    292.48798    20.777204    148574.47   -47571.634    4016.6181   -51588.252    0.1427046 
   53500    291.12671   -20.205373     148575.5   -47562.408    3997.9243   -51560.332   0.15126977 
   53600    292.04902    12.209261    148574.54   -47630.071      4010.59   -51640.661   0.14036212 
   53700    290.12169    -4.771718    148567.17   -47612.278    3984.1227     -51596.4   0.14522377 
   53800    285.99259    -3.129238    148558.15   -47639.232    3927.4195   -51566.651    0.1466364 
   53900    287.64129   -25.097157    148575.28   -47649.029    3950.0604   -51599.089   0.14632566 
   54000    286.81065   -21.651216    148568.11   -47651.785    3938.6535   -51590.439   0.14452718 
   54100    290.91533   -10.775032    148565.46   -47627.772    3995.0215   -51622.793   0.14470757 
   54200    292.49128    4.0661039    148569.79    -47574.88    4016.6633   -51591.543    0.1478259 
   54300    292.85214   -0.9348005    148600.06   -47504.322    4021.6189   -51525.941   0.14499067 
   54400    293.82692   -1.9628198    148610.29    -47420.61    4035.0052   -51455.615   0.15415306 
   54500    292.83326    1.6580618    148598.89    -47492.55    4021.3596   -51513.909    0.1427865 
   54600    294.85179    9.4188827    148606.34   -47510.765    4049.0793   -51559.844   0.15439328 
   54700    295.46027    29.681556    148600.18   -47570.321    4057.4354   -51627.757   0.13667285 
   54800    294.97393   -20.388916    148598.27   -47495.921    4050.7566   -51546.677   0.14885938 
   54900    294.09052    24.700654    148605.69   -47515.823    4038.6251   -51554.449   0.14568274 
   55000    288.54843     4.569893    148621.22   -47553.281    3962.5178   -51515.799   0.14413529 
   55100    284.67419   -28.452419    148588.51   -47565.965    3909.3145    -51475.28   0.15245641 
   55200    285.75166   -3.5571471    148545.62   -47679.081     3924.111   -51603.192   0.14221968 
   55300    283.79887    8.4840082    148532.45   -47716.324    3897.2941   -51613.618    0.1494261 
   55400      287.743   -13.648267    148514.84   -47679.418    3951.4571   -51630.875   0.14137269 
   55500    286.71124   -12.120897     148526.8   -47633.234    3937.2884   -51570.522   0.15027664 
   55600    289.63984   -11.766627    148541.26   -47528.261    3977.5058   -51505.767   0.14521852 
   55700    292.03841   0.25333167    148562.83   -47490.311    4010.4443   -51500.756   0.15295793 
   55800    293.18264    9.1475159    148568.21    -47476.42    4026.1575   -51502.577   0.14550964 
   55900    295.08361   -4.1132013    148538.15   -47492.459    4052.2628   -51544.721   0.15297231 
   56000    291.75969   -18.668694    148565.07   -47503.076    4006.6167   -51509.693    0.1528698 
   56100    291.78735   -20.692004    148544.85   -47488.165    4006.9966   -51495.161   0.15114465 
   56200    292.09221    26.337909    148551.35   -47520.386    4011.1831   -51531.569   0.14634168 
   56300    291.58088   -24.210927    148544.16   -47596.889    4004.1612    -51601.05   0.14622223 
   56400    287.66427   -32.044896    148517.25    -47645.26    3950.3761   -51595.636   0.15050675 
   56500     284.9397   -15.292904    148503.56   -47698.032    3912.9606   -51610.993    0.1428539 
   56600    285.50312   -24.219895    148500.34   -47755.341    3920.6979   -51676.039   0.15066593 
   56700    287.28309    10.886159    148521.25    -47737.79    3945.1414   -51682.932   0.13623967 
   56800    287.01253    1.3079051    148533.65   -47622.114     3941.426    -51563.54   0.15431416 
   56900    284.53277    1.6216641    148528.93   -47719.225    3907.3724   -51626.598   0.14054659 
   57000    287.01111   -8.8096497    148505.55   -47702.411    3941.4064   -51643.817    0.1446992 
   57100    287.24044     4.050164    148545.75   -47623.908    3944.5558   -51568.463   0.14946898 
   57200    292.94637   -23.299543     148566.7   -47579.273     4022.913   -51602.186    0.1432611 
   57300    284.59159   -21.274001    148513.34   -47706.568    3908.1802   -51614.749   0.15050969 
   57400    290.20023   -1.9901277     148531.9   -47590.185    3985.2014   -51575.386    0.1465013 
   57500    293.01606   -31.135036    148537.48   -47554.758    4023.8699   -51578.628   0.15059016 
   57600    290.26392  -0.99421418    148526.99   -47665.376    3986.0759   -51651.452   0.14286121 
   57700    289.74097    27.729013    148529.86   -47574.877    3978.8945   -51553.771   0.14640011 
   57800    287.34528   -16.908803    148540.91   -47529.058    3945.9955   -51475.054   0.14946226 
   57900     295.6659    17.901789    148576.77   -47568.238    4060.2591   -51628.497   0.14665752 
   58000    291.60128   -2.2699071     148543.5   -47522.732    4004.4414   -51527.174    0.1498184 
   58100    289.35983   -5.9793773    148539.24   -47576.617    3973.6604   -51550.277   0.14734473 
   58200    291.81363    -3.695888    148562.62   -47467.005    4007.3575   -51474.362   0.15287642 
   58300    290.99939   -3.4358913    148562.01   -47536.621    3996.1759   -51532.797   0.14357034 
   58400    291.94482    3.3158563    148571.57   -47582.907    4009.1591   -51592.066   0.14756386 
   58500    289.94712   -24.945645    148533.19   -47580.756    3981.7255   -51562.482   0.14991076 
   58600    287.59772    2.8974771     148517.6   -47618.231    3949.4622   -51567.693     0.148012 
   58700    290.02412    12.941393    148523.04   -47567.015    3982.7829   -51549.798   0.14314309 
   58800    295.44936    37.539927    148507.39   -47613.259    4057.2856   -51670.544   0.14898468 
   58900    291.07325    13.608562    148534.39   -47531.783    3997.1902   -51528.973   0.14422955 
   59000    290.99401    13.711863    148550.53   -47500.492     3996.102   -51496.594    0.1521517 
   59100    297.02397    8.4792032     148560.2   -47460.008     4078.909   -51538.917   0.14861338 
   59200    291.82356    21.829296    148557.63   -47587.801    4007.4939   -51595.295   0.14106889 
   59300     289.8768    13.383875    148525.49   -47559.421    3980.7599   -51540.181   0.14799376 
   59400    290.05965   -4.4852993    148550.27   -47546.654    3983.2708   -51529.925   0.13922217 
   59500    288.50689    9.8788299    148514.69   -47653.008    3961.9474   -51614.956   0.14350401 
   59600    287.18763    2.4892485    148517.59   -47627.176    3943.8305   -51571.007    0.1431973 
   59700    288.42964    4.9776478    148521.42   -47562.546    3960.8866   -51523.433   0.14897259 
   59800    285.56335   -38.839339    148478.34   -47678.562    3921.5249   -51600.087   0.14344014 
   59900    284.52096   -33.208415    148482.05   -47671.651    3907.2102   -51578.861   0.15025926 
   60000    287.52241   -18.532398    148481.84   -47633.347     3948.428   -51581.775   0.14417071 
   60100     289.1656    14.195492    148513.32   -47587.487    3970.9931    -51558.48   0.14928839 
   60200    292.76115    38.664877    148504.95   -47554.561    4020.3694    -51574.93   0.14386032 
   60300    294.12256    21.930203     148529.4   -47521.138    4039.0651   -51560.203   0.14372827 
   60400    293.87313    23.981124    148531.73   -47470.036    4035.6397   -51505.675   0.15102745 
   60500    294.73325    6.0012776    148538.17   -47502.131    4047.4514   -51549.583   0.14234899 
   60600    288.63439    28.282273    148519.02    -47559.33    3963.6983   -51523.029   0.15085873 
   60700    294.32274    -3.131521    148568.99   -47385.679    4041.8141   -51427.493   0.14962601 
   60800    294.12345   0.42184786    148577.63   -47414.943    4039.0773    -51454.02   0.14943361 
   60900    295.17404      1.93774    148564.47    -47508.01    4053.5046   -51561.514   0.14456572 
   61000    296.03452    13.894053    148534.94   -47551.275    4065.3213   -51616.596    0.1445733 
   61100    288.03954    1.7217109    148523.56   -47527.507    3955.5295   -51483.037   0.14833059 
   61200     293.3031    28.463382    148535.59   -47471.304    4027.8118   -51499.116   0.14869996 
   61300    290.14547   -12.787444    148538.74   -47567.405    3984.4494   -51551.854   0.14579081 
   61400    285.40975   -35.231123    148532.79   -47622.132    3919.4156   -51541.548   0.14612818 
   61500    289.03787    3.9502295    148529.06   -47557.289     3969.239   -51526.528   0.14616559 
   61600    287.79257    7.9688738    148507.84   -47598.369    3952.1379   -51550.507    0.1433995 
   61700    288.51034   -19.292506    148483.19   -47664.803    3961.9948   -51626.798   0.14767822 
   61800    288.25642   -2.1213791    148492.92   -47652.109    3958.5078   -51610.617   0.14407982 
   61900    291.26101    17.059566    148518.33   -47544.896    3999.7686   -51544.664   0.14628151 
   62000    287.34145    5.0668687    148533.17   -47557.553    3945.9428   -51503.496   0.14530282 
   62100    289.32847    -7.458053       148525   -47633.501    3973.2298   -51606.731   0.14798962 
   62200    293.05519   -8.9086549    148528.63   -47524.906    4024.4073   -51549.313   0.14591537 
   62300    292.39326    10.014981    148522.39   -47568.018    4015.3173   -51583.336   0.14591931 
   62400    290.77174    15.893411     148527.5   -47616.492    3993.0497   -51609.542   0.14686497 
   62500     291.8709    10.713992    148502.73   -47604.734    4008.1439   -51612.878   0.14256979 
   62600    289.51572    7.5875191    148496.51   -47631.835    3975.8012   -51607.637   0.14914407 
   62700    290.34186   -47.772841    148504.52   -47663.306    3987.1463   -51650.452   0.14201713 
   62800    284.23204   -29.351483    148499.35   -47636.448    3903.2427    -51539.69   0.14709101 
   62900    288.89686    5.5822302    148548.26    -47549.91    3967.3027   -51517.213   0.14573662 
   63000    290.61196    4.2376912    148564.08    -47582.78    3990.8554   -51573.635   0.14326157 
   63100    289.55241    2.5348541    148513.34   -47655.768    3976.3051   -51632.073   0.14570137 
   63200     288.7479    31.475757    148528.87   -47532.598     3965.257   -51497.855   0.14820406 
   63300    291.04588   -15.348331    148527.92   -47634.692    3996.8143   -51631.506   0.14317708 
   63400    288.83297   -5.9889929    148487.89   -47721.566    3966.4253   -51687.991   0.14198494 
   63500    284.34812   -6.9336649    148497.03    -47694.42    3904.8367   -51599.256   0.14406336 
   63600    283.18382   -21.204288    148491.59   -47739.969    3888.8478   -51628.816   0.14390581 
   63700    284.81759    18.892664    148489.81   -47703.614    3911.2837   -51614.897   0.14761494 
   63800    289.44052      1.66613    148496.92   -47779.757    3974.7685   -51754.525   0.13981376 
   63900    283.49805   -12.294679    148510.71   -47670.074     3893.163   -51563.237   0.15206984 
   64000    290.33331    9.3199762    148525.93   -47583.215    3987.0288   -51570.243   0.14258506 
   64100    291.38942   -20.536276    148522.99   -47534.058     4001.532    -51535.59   0.14950818 
   64200    293.51745   -9.6174507    148565.18   -47532.205    4030.7554    -51562.96   0.14823016 
   64300    293.19209   -13.090759    148553.64   -47569.109    4026.2873   -51595.396    0.1451863 
   64400    290.55415    5.6037674    148536.92   -47627.646    3990.0616   -51617.707   0.14646127 
   64500    285.82905   -18.105843    148526.13   -47615.503    3925.1737   -51540.677   0.14331917 
   64600    285.00389   -5.2402717    148510.15   -47644.034     3913.842   -51557.877   0.15281667 
   64700    293.32533    18.347638    148525.65    -47650.28    4028.1171   -51678.397   0.13818676 
   64800    291.23892   -5.3899281    148494.61   -47584.258    3999.4652   -51583.724   0.15216916 
   64900    292.79548    29.327188    148518.54   -47500.963    4020.8409   -51521.804   0.14629743 
   65000    293.01896   -6.7894437    148532.21   -47490.442    4023.9097   -51514.352   0.14725204 
   65100    287.99884    8.1340566    148528.54   -47556.403    3954.9705   -51511.373   0.14954111 
   65200    288.09904    45.563425     148535.7   -47579.211    3956.3466   -51535.558   0.14400888 
   65300     294.4502   -5.6121603    148544.02   -47518.826    4043.5644   -51562.391   0.14945001 
   65400     290.7438   -10.023486    148535.41   -47561.927    3992.6659   -51554.593   0.14461629 
   65500    290.85748   -14.341915     148536.2   -47494.473     3994.227     -51488.7     0.152983 
   65600    290.71957   -18.263145     148567.1   -47512.896    3992.3332   -51505.229   0.15003441 
   65700    290.85481   -22.587767    148558.32   -47471.892    3994.1904   -51466.082   0.15142547 
   65800    290.56563   -3.8387116     148540.2   -47535.684    3990.2193   -51525.903   0.14752395 
   65900    290.06091   -28.858432     148546.7   -47555.731    3983.2881   -51539.019   0.15094125 
   66000     293.2158   -5.9173783    148541.79   -47565.803     4026.613   -51592.416   0.14275741 
   66100    293.11096    10.957479    148539.15   -47533.155    4025.1732   -51558.328    0.1449869 
   66200    287.06203    -14.10204    148495.13    -47665.06    3942.1056   -51607.166   0.14577946 
   66300    293.12752    26.602099     148510.6   -47592.109    4025.4006    -51617.51   0.14288445 
   66400    291.25931   -36.687918    148519.65   -47601.921    3999.7453   -51601.667   0.14725983 
   66500    288.08726   -12.698391     148504.2   -47630.796    3956.1848    -51586.98   0.14269242 
   66600    285.78603   -1.4946836    148508.99     -47635.7     3924.583   -51560.283     0.147227 
   66700    287.77849   -6.8828522    148520.81   -47622.429    3951.9445   -51574.373    0.1447427 
   66800     287.2965    15.287031    148535.98   -47648.368    3945.3256   -51593.693   0.14574371 
   66900    283.40964   -10.994565    148520.39   -47653.194     3891.949   -51545.143   0.14536566 
   67000    285.16331    13.684318    148521.67    -47766.97    3916.0313   -51683.001   0.14172951 
   67100    289.80273    -6.303834    148555.91   -47600.079    3979.7426   -51579.821   0.14349939 
   67200     286.0356    26.903378    148549.09   -47707.567    3928.0102   -51635.577   0.13896465 
   67300    284.38036   -2.5801576    148562.03   -47623.753    3905.2794   -51529.032   0.14689928 
   67400    288.87241    8.5536639    148559.91   -47606.102    3966.9669   -51573.069   0.14226376 
   67500    290.93047   -3.5503287    148568.18   -47593.298    3995.2294   -51588.527   0.14483544 
   67600    294.35747    -5.740187    148605.37   -47450.752     4042.291   -51493.043   0.14425628 
   67700    289.04041   -7.2857021    148564.59   -47522.982     3969.274   -51492.256   0.15067473 
   67800    295.23301   -19.556408    148580.77   -47570.422    4054.3145   -51624.737    0.1438706 
   67900    290.68314   -2.3076921    148552.95   -47599.325     3991.833   -51591.158   0.14851063 
   68000    288.60746   -50.209871    148530.11     -47633.1    3963.3285   -51596.429   0.14697077 
   68100    288.33028   -6.9773831    148508.86    -47632.74    3959.5221   -51592.262   0.14954321 
   68200    286.77045    12.294856    148530.21   -47600.617    3938.1016   -51538.719   0.14628443 
   68300    290.72566    3.2611982    148565.29   -47548.788    3992.4169   -51541.205   0.14427135 
   68400    292.09306    8.6867852    148569.04   -47512.512    4011.1948   -51523.707   0.15179038 
   68500    294.32491   -13.614304    148566.65   -47512.271    4041.8439   -51554.115   0.14647501 
   68600    289.14133   -6.5076102    148545.59   -47603.191    3970.6599   -51573.851   0.14949621 
   68700    290.35502   0.57066732    148534.97   -47575.528    3987.3269   -51562.855   0.14437016 
   68800    285.95859   -23.655614    148542.27   -47577.278    3926.9526   -51504.231   0.15083694 
   68900    290.49724    43.141526    148543.08    -47575.64      3989.28    -51564.92   0.14410121 
   69000    291.07749   -19.378662    148537.18   -47574.451    3997.2483   -51571.699   0.14947779 
   69100    292.40646    25.141342    148513.37   -47636.648    4015.4986   -51652.146   0.14234838 
   69200    285.59053   -23.369736    148522.61   -47649.715    3921.8982   -51571.613   0.15080185 
   69300    287.14126    18.379066       148501   -47673.743    3943.1938   -51616.937    0.1441721 
   69400    280.88371   -52.611334     148494.2   -47727.415    3857.2614   -51584.676   0.14852424 
   69500    290.36144    47.787741     148522.5   -47589.268    3987.4151   -51576.683   0.14511047 
   69600     296.3385    15.344807    148581.62   -47489.587    4069.4956   -51559.082   0.14096862 
   69700     286.6712   -23.830761    148544.22    -47583.07    3936.7386   -51519.808   0.14977215 
   69800    287.93791     11.58945    148547.38   -47579.483    3954.1338   -51533.616   0.14206171 
   69900    288.14886     10.88721    148530.34   -47677.703    3957.0307   -51634.734   0.14741251 
   70000    291.86868    21.803202    148546.32    -47607.75    4008.1134   -51615.863   0.14299405 
   70100    284.98734   -6.5658897    148531.48   -47730.608    3913.6148   -51644.222   0.14221364 
   70200    292.37885    4.3816101    148566.21   -47566.764    4015.1194   -51581.883   0.14518397 
   70300    287.59038    3.4613174    148566.18   -47574.919    3949.3614    -51524.28   0.14573526 
   70400    289.01434   -9.9242856    148578.89   -47463.536     3968.916   -51432.452   0.14945531 
   70500    292.98144    9.0788217    148592.57   -47541.335    4023.3946   -51564.729   0.14219216 
   70600    290.43068   -29.980422    148577.52   -47601.788     3988.366   -51590.154   0.14358235 
   70700    293.45534    14.041973    148572.18   -47567.879    4029.9024   -51597.782   0.14127415 
   70800    292.46847    8.1888907    148574.89   -47602.477    4016.3501   -51618.827   0.14029139 
   70900    290.46619   -29.608119    148584.02   -47597.974    3988.8537   -51586.828   0.14358442 
   71000    286.47433   -17.576809    148571.61   -47614.613    3934.0351   -51548.649   0.14835626 
   71100    289.30051   -15.205633    148567.76   -47604.945    3972.8458   -51577.791   0.14228914 
   71200     286.6068    14.371776    148572.79   -47645.333    3935.8543   -51581.188    0.1438658 
   71300    285.45412    -3.760015    148549.07   -47696.773    3920.0249   -51616.798   0.14529381 
   71400    287.77333    5.9259609    148550.23   -47630.085    3951.8737   -51581.958    0.1444955 
   71500    290.75447   -3.2460319    148535.76   -47584.911    3992.8124   -51577.724   0.14653112 
   71600    290.90023   -38.245927    148529.57   -47602.731    3994.8141   -51597.545   0.14497227 
   71700    287.25814    18.236973    148531.64   -47590.875    3944.7988   -51535.673   0.14791167 
   71800    286.13224   -28.084226     148521.8   -47769.873    3929.3373   -51699.211   0.13998784 
   71900    285.63643   -8.2605049    148508.75   -47703.831    3922.5286    -51626.36   0.14676296 
   72000    285.21551   -3.8877625    148526.69   -47673.023    3916.7482   -51589.771   0.14353473 
   72100    291.67702    5.1129703    148554.27   -47537.794    4005.4815   -51543.275   0.14608095 
   72200    297.23299    27.557106     148579.7   -47428.878    4081.7794   -51510.658   0.14865953 
   72300    295.65816   -5.0812317    148614.25   -47406.715    4060.1529   -51466.868   0.14859104 
   72400    293.38415   -5.3563789    148570.17   -47525.383    4028.9248   -51554.308   0.14921216 
   72500    293.82501   -6.2859228     148585.1   -47523.662     4034.979   -51558.641   0.14487211 
   72600    290.33168   -23.956402    148592.38   -47463.358    3987.0065   -51450.365   0.15215783 
   72700    287.68924   -52.936795    148572.46   -47631.489     3950.719   -51582.208   0.14859329 
   72800    290.51684    1.4973365     148576.8   -47549.988    3989.5492   -51539.538   0.14741614 
   72900    298.06285    23.964909    148582.61   -47563.999    4093.1754   -51657.175   0.13962429 
   73000    292.99428    22.384013    148570.42   -47570.549    4023.5709    -51594.12   0.14440647 
   73100    299.37551    15.660565    148600.97   -47530.825    4111.2017   -51642.027   0.13799853 
   73200    295.27395   -44.792316    148609.59   -47521.463    4054.8767    -51576.34   0.14895361 
   73300    295.68402    11.192748    148607.97   -47493.068    4060.5079   -51553.576    0.1447152 
   73400    295.57421    21.255592    148618.71   -47482.332         4059   -51541.332   0.14499806 
   73500    292.14759   -17.668315    148614.29   -47479.485    4011.9437   -51491.428   0.14957784 
   73600    294.08737    14.187712    148624.87   -47525.372    4038.5819   -51563.954    0.1413186 
   73700    287.18164    4.8898169    148586.49   -47580.378    3943.7483   -51524.127   0.14628389 
   73800    288.09814    1.1855624    148569.08   -47677.541    3956.3342   -51633.875   0.14125585 
   73900    286.85377   -57.494671    148584.79   -47654.444    3939.2458   -51593.689   0.14504296 
   74000    288.85105   -8.4986703    148570.29   -47573.763    3966.6736   -51540.436   0.14510736 
   74100    294.29897    15.422147    148624.86   -47405.579    4041.4876   -51447.067   0.14871859 
   74200     287.3487   -19.521707     148601.7   -47572.995    3946.0424   -51519.037   0.14476289 
   74300    294.89581    36.627927    148606.01   -47579.255    4049.6837   -51628.938    0.1388496 
   74400    290.90486    17.456289    148591.92   -47606.753    3994.8778    -51601.63   0.14068236 
   74500    289.29251   -16.379227    148590.41    -47626.06     3972.736   -51598.796   0.14282861 
   74600    289.26988   -46.376495    148598.45   -47636.068    3972.4252   -51608.493   0.14428794 
   74700    290.69526   -43.724052    148605.09   -47545.596    3991.9993   -51537.595   0.14847463 
   74800    289.39255     2.090371    148579.83   -47598.031    3974.1098   -51572.141   0.14568379 
   74900    287.50945   -50.454308    148561.15   -47598.755      3948.25   -51547.005   0.14730439 
   75000    294.11307    40.738851    148559.68   -47575.856    4038.9348   -51614.791   0.14032757 
   75100      292.216    3.8208243     148567.6   -47508.404    4012.8831   -51521.287    0.1454834 
   75200    293.28978    35.577283    148581.49   -47558.508    4027.6288   -51586.136   0.14367884 
   75300    289.21687   -41.298759    148569.45   -47612.708    3971.6972   -51584.405   0.14389622 
   75400    289.06165    -13.14474    148585.29    -47623.34    3969.5657   -51592.905   0.14387154 
   75500    292.79845     25.94226    148564.39   -47614.726    4020.8816   -51635.608   0.14029076 
   75600    287.74405   -3.8647201    148589.08   -47545.574    3951.4717   -51497.046   0.14586537 
   75700    289.12675   -9.9112616    148588.71   -47498.857    3970.4597   -51469.316    0.1506836 
   75800    291.30536   -27.375871    148589.68    -47528.37    4000.3776   -51528.748    0.1456961 
   75900    291.52664    5.2360414    148587.63   -47545.084    4003.4164     -51548.5   0.14586655 
   76000    291.41915    19.402789    148590.44   -47552.357    4001.9403   -51554.297   0.14139619 
   76100    287.45606   -3.0740762    148567.18   -47641.727    3947.5167   -51589.244   0.14618098 
   76200    284.49637    16.541814    148550.02   -47683.685    3906.8726   -51590.557   0.14018419 
   76300    291.52471    24.611997    148582.35   -47626.991    4003.3899   -51630.381   0.13943339 
   76400    284.40269     7.676059    148575.05   -47614.467     3905.586   -51520.053   0.14611084 
   76500    291.06278     2.438461    148571.36   -47609.479    3997.0464   -51606.525   0.14247688 
   76600    291.25295    6.4606424    148558.32   -47648.794     3999.658   -51648.452   0.14461379 
   76700    291.97505    19.237614     148575.4   -47509.191    4009.5742   -51518.765   0.14549443 
[...]
   81900    286.79301   -4.0347983     148544.9   -47644.513    3938.4114   -51582.924   0.14388697 
   82000    289.35647    47.224816    148558.67   -47556.931    3973.6143   -51530.545   0.13969108 
   82100    288.43111   -1.0354064    148560.74   -47505.545    3960.9068   -51466.451   0.14964169 
   82200    293.54512    -11.89881    148566.93   -47521.385    4031.1353    -51552.52   0.14555157 
   82300    288.93873    24.250641    148538.56   -47592.584    3967.8776   -51560.462   0.14448252 
   82400    296.86242    43.218657    148561.77   -47465.069    4076.6904   -51541.759   0.14208446 
   82500    296.46684   -8.1984462    148614.37   -47374.235    4071.2581   -51445.493   0.14944172 
   82600    294.91821     11.01433    148610.37   -47481.749    4049.9914   -51531.741   0.14276593 
   82700     293.3331   -20.601762    148561.81   -47556.207    4028.2238   -51584.431   0.14252833 
   82800    287.47088    7.4293207    148550.92   -47567.014    3947.7203   -51514.735   0.14937242 
   82900    290.48377    -15.31236    148573.94   -47523.736     3989.095   -51512.831   0.14609373 
   83000    297.07471    -2.947628    148573.34   -47459.782    4079.6057   -51539.388   0.14949721 
   83100    292.05933   -16.002851     148569.9   -47496.147    4010.7316   -51506.878   0.14288432 
   83200    288.94725   -19.453919    148533.61    -47528.54    3967.9946   -51496.534   0.15150801 
   83300    294.32828    13.277412    148551.37   -47518.144    4041.8902   -51560.034   0.14268029 
   83400    289.44989   -24.035126    148551.36   -47596.778    3974.8972   -51571.675   0.14459259 
   83500    287.34103    4.4286499    148519.44   -47705.042    3945.9371    -51650.98   0.14273088 
   83600    289.60428    21.987838    148536.27   -47647.678    3977.0174   -51624.695   0.14117376 
   83700    285.74718   -13.294118    148536.21   -47679.969    3924.0494   -51604.018   0.14587295 
   83800    289.46539   -9.1429059    148534.73   -47639.476    3975.1101   -51614.586   0.14099871 
   83900      291.437    6.3010342    148563.67   -47645.724    4002.1853   -51647.909   0.14419033 
   84000    286.49036   -40.928003    148540.64   -47662.881    3934.2552   -51597.137   0.14168719 
   84100    290.45302   -22.843451    148544.96   -47588.309    3988.6728   -51576.982   0.14690843 
   84200     290.4897   -7.2640637    148565.77   -47540.417    3989.1765   -51529.594   0.14430919 
   84300    290.36681   -34.677102    148557.71   -47596.168     3987.489   -51583.657   0.14960405 
   84400    289.02983     34.11114    148554.39   -47593.277    3969.1287   -51562.406   0.14072397 
   84500     284.4489    8.1898402    148526.92   -47644.207    3906.2206   -51550.428   0.14395338 
   84600    286.74175   -6.7074273    148548.09   -47556.672    3937.7074    -51494.38   0.14867543 
   84700    289.43828    -13.46791    148565.65   -47569.507    3974.7378   -51544.244   0.14525342 
   84800    288.74485   -28.044314    148545.06   -47561.234    3965.2152    -51526.45   0.14963593 
   84900    293.10067    -37.97476    148552.91   -47482.903    4025.0319   -51507.935   0.14599807 
   85000    291.62503   -15.683997     148541.1   -47553.125    4004.7675   -51557.893   0.15198678 
   85100    294.42671    10.305913    148561.57    -47579.21    4043.2419   -51622.452   0.14028986 
   85200    291.02183    42.494761    148560.17   -47616.619    3996.4841   -51613.103   0.14251036 
   85300    288.44354    8.6687918     148545.8    -47623.05    3961.0775   -51584.127   0.14479712 
   85400    284.71887   -16.644788    148549.81   -47658.001    3909.9281   -51567.929   0.14532754 
   85500    289.65761    21.157323    148562.55   -47604.867    3977.7498   -51582.617   0.14253393 
   85600    292.89596   -4.1537814    148552.22   -47636.564    4022.2207   -51658.785   0.14097932 
   85700    292.80354   -21.379192    148527.62    -47566.61    4020.9515   -51587.561   0.14944152 
   85800    290.52856   -2.1726617    148542.96   -47564.424    3989.7102   -51554.134   0.14655104 
   85900    293.29256    13.874577    148543.25    -47530.08     4027.667   -51557.747     0.149859 
   86000    292.11673    11.609619    148547.65   -47584.817    4011.5198   -51596.337   0.14197036 
   86100    292.65164   -16.553603    148545.96   -47556.842    4018.8655   -51575.707   0.15049317 
   86200    293.69536   -34.321082    148567.87   -47524.624    4033.1985   -51557.823   0.14259992 
   86300    288.59436    13.144173    148550.63   -47567.056    3963.1486   -51530.205   0.14917505 
   86400     291.6116   -30.373148    148535.24   -47629.574    4004.5831   -51634.157   0.14357568 
   86500    289.35175   -7.9573519    148517.85   -47662.596    3973.5495   -51636.146   0.14381256 
   86600    288.85752   -5.7967177    148545.48   -47501.229    3966.7624   -51467.991   0.14929239 
   86700    294.20949   -27.253267    148574.98   -47503.633    4040.2589   -51543.892   0.14541327 
   86800    287.40215   -22.278488    148553.18    -47619.98    3946.7765   -51566.756   0.14923719 
   86900    285.77225    36.393704    148561.71   -47607.061    3924.3937   -51531.454   0.14305482 
   87000    287.38647   -13.358903    148556.41   -47584.133    3946.5611   -51530.694   0.15037547 
   87100     290.2029   -1.9269773    148572.48   -47556.215    3985.2381   -51541.453   0.14630374 
   87200    292.60644    9.1164248    148603.97   -47493.884    4018.2448   -51512.129   0.14787173 
   87300    291.39105   -16.384895    148599.37   -47509.443    4001.5543   -51510.997   0.14620516 
   87400    290.53039     22.38812    148578.26   -47560.965    3989.7353     -51550.7   0.14734655 
   87500    295.25962   -5.9199979     148592.7   -47536.434    4054.6799   -51591.114   0.14721629 
   87600     288.8814    39.753568    148587.49   -47558.054    3967.0904   -51525.145   0.14608263 
   87700    297.84988   0.68270192    148577.22   -47528.251    4090.2509   -51618.502   0.14189045 
   87800    291.48904   -7.9464348    148559.14   -47617.828       4002.9   -51620.728   0.14497928 
   87900    287.41741   -12.284312    148555.09   -47639.733    3946.9859   -51586.719    0.1463733 
   88000    289.03679   -24.932644    148572.56   -47610.124    3969.2242   -51579.348   0.14174665 
   88100    294.97414   -3.2687205    148580.04   -47576.291    4050.7595   -51627.051   0.14564493 
   88200    290.34565    9.1252557    148559.15   -47673.298    3987.1983   -51660.496   0.14072097 
   88300    293.48413    31.331585    148583.48    -47622.13    4030.2979   -51652.428   0.14541206 
   88400    293.30664    9.0161474    148578.31   -47545.393    4027.8604   -51573.253   0.14325885 
   88500    292.65783   -4.2927423    148582.39    -47622.76    4018.9505   -51641.711   0.14630417 
   88600    286.94721   -29.213068    148574.66   -47607.838     3940.529   -51548.367   0.14767003 
   88700    288.63357   -11.394722    148588.75    -47584.19     3963.687   -51547.877   0.14515955 
   88800    290.65431    7.1498712    148592.34    -47648.64     3991.437   -51640.077   0.14180557 
   88900    292.70181    29.089841    148573.38   -47582.414    4019.5545   -51601.969   0.14150651 
   89000    290.13359     14.15211    148599.73   -47550.974    3984.2862    -51535.26   0.14679905 
   89100    288.49307    -26.72123    148590.54   -47603.265    3961.7576   -51565.023   0.14135202 
   89200    287.08901     16.14379    148568.73    -47545.46    3942.4763   -51487.936   0.15234135 
   89300    286.91106   -23.744458    148585.91   -47678.829    3940.0324   -51618.861   0.14284906 
   89400    290.52678    2.7941873    148597.52   -47579.759    3989.6858   -51569.445   0.14497912 
   89500    288.16752    11.785932    148579.43   -47672.872     3957.287   -51630.159   0.14126698 
   89600    289.56496    23.231957     148559.6   -47698.322    3976.4775   -51674.799   0.14408752 
   89700    290.45663    18.534622    148556.07   -47611.294    3988.7223   -51600.016   0.14404025 
   89800    290.81403    13.316264    148579.14   -47547.349    3993.6304    -51540.98   0.14762085 
   89900    290.13678    15.206173    148584.33   -47526.352      3984.33   -51510.682   0.14723696 
   90000    293.61649    -15.26571    148620.64   -47555.625    4032.1154    -51587.74   0.14558342 
   90100    294.38254   -1.4473957    148616.91   -47537.857    4042.6353   -51580.492   0.14353148 
   90200    287.67501   -16.706891    148604.04   -47612.112    3950.5235   -51562.636   0.14380414 
   90300    290.66203   -11.050425    148591.48   -47588.973    3991.5431   -51580.516   0.14782145 
   90400    290.86888    41.076803    148612.08   -47574.652    3994.3837   -51569.035    0.1416333 
   90500    294.17983    14.339836    148618.29   -47586.101    4039.8515   -51625.953   0.14341949 
   90600    292.65335    23.043022    148599.41   -47607.777    4018.8891   -51626.666   0.14049489 
   90700    286.24783   -16.982375    148562.35   -47635.447    3930.9247   -51566.372   0.14827403 
   90800    288.44838   -9.6170526    148569.07   -47651.095    3961.1439   -51612.239   0.14322832 
   90900    287.70125   -17.515851    148573.03   -47627.813    3950.8839   -51578.697   0.14576901 
   91000    283.06791   -16.682993    148561.82   -47644.026    3887.2561   -51531.282   0.14682281 
   91100    287.24857   -64.287716    148535.51   -47755.425    3944.6674   -51700.092   0.14431022 
   91200    283.66886   -9.1727226    148543.44   -47696.346    3895.5087   -51591.854   0.14199079 
   91300    289.82907    13.275564    148562.54   -47630.686    3980.1043    -51610.79    0.1406507 
   91400    288.43188   -26.071042    148566.29    -47605.11    3960.9174   -51566.027   0.14999674 
   91500    292.50972   -13.119875    148584.41   -47441.115    4016.9166   -51458.031   0.14991868 
   91600    297.40378     16.67839       148595   -47509.424    4084.1248   -51593.549   0.14650265 
   91700      292.135    4.2986006    148576.12   -47580.419    4011.7708    -51592.19    0.1449411 
   91800    292.80417    3.4280662    148595.25   -47550.532    4020.9601   -51571.493   0.14932827 
   91900    292.57242    15.877257    148575.83   -47543.546    4017.7777   -51561.323   0.14487012 
   92000    289.41886    2.8216902    148574.02   -47590.537    3974.4711   -51565.008   0.14406023 
   92100    293.06153    3.8899053    148545.86   -47573.539    4024.4944   -51598.034   0.14750408 
   92200    291.69257    33.803679    148539.88   -47604.402    4005.6951   -51610.097   0.14471838 
   92300    292.03837    15.427019    148551.27   -47472.575    4010.4438   -51483.018   0.15109649 
   92400    292.16907    23.691151    148562.26   -47520.943    4012.2386   -51533.182   0.14604866 
   92500    289.58951    26.159611    148577.19   -47520.776    3976.8145    -51497.59   0.15120768 
   92600    295.24757   -4.8436266    148599.81   -47434.072    4054.5143   -51488.586    0.1491543 
   92700    288.82752    39.368118    148565.64   -47552.541    3966.3504   -51518.891   0.14992723 
   92800    290.35939     1.449369    148549.26   -47561.792     3987.387   -51549.179   0.14919602 
   92900    289.82602   -18.343099    148534.98   -47604.261    3980.0625   -51584.324   0.15252494 
   93000    289.91757   0.26576472    148508.93   -47609.395    3981.3196   -51590.714   0.15104531 
   93100     292.4199    30.218795    148523.17   -47525.809    4015.6831   -51541.492   0.14963063 
   93200    288.99687    6.9158369    148534.89   -47586.023     3968.676   -51554.699   0.14760058 
   93300    294.10524    47.300177    148512.92   -47632.131    4038.8273   -51670.958   0.13825977 
   93400    284.94077    32.223855    148504.72   -47686.523    3912.9753   -51599.498   0.14671972 
   93500    286.34291   -12.173614    148523.01   -47693.549    3932.2303   -51625.779   0.14215826 
   93600    291.95381   -15.991614    148530.03   -47642.834    4009.2826   -51652.116   0.15062803 
   93700    289.54691    16.052794    148518.95    -47614.68    3976.2295    -51590.91   0.14622565 
   93800    292.46836    28.300763    148522.44   -47620.264    4016.3486   -51636.612    0.1462174 
   93900    283.60593   -4.3568476    148515.72   -47697.918    3894.6445   -51592.563   0.14784307 
   94000    285.44733    19.645319    148545.38   -47665.622    3919.9317   -51585.554   0.14666509 
   94100    291.08917   -9.6331614    148548.87   -47545.253    3997.4087   -51542.662   0.15109391 
   94200    293.23989    1.5783173    148536.44   -47538.751    4026.9437   -51565.694   0.14881173 
   94300    293.10761    28.743522    148534.09   -47551.022    4025.1272    -51576.15   0.15179508 
   94400    291.28888   -6.3137052    148540.49   -47541.929    4000.1513    -51542.08   0.14757762 
   94500    291.58258   -5.5334532    148564.02   -47551.329    4004.1846   -51555.513   0.14818723 
   94600    295.91222   -1.7082157    148588.89   -47561.907    4063.6417   -51625.549   0.14167154 
   94700     293.4515     30.40731    148561.44   -47598.563    4029.8498   -51628.413   0.14333222 
   94800    291.79154   -35.767332    148567.88   -47640.039    4007.0542   -51647.094   0.14512207 
   94900    289.73037    17.512519    148535.85   -47662.139    3978.7489   -51640.888   0.14601148 
   95000     289.6415    1.1727407    148545.75   -47623.479    3977.5285   -51601.008   0.14663654 
   95100    284.08755   -40.804277    148535.73   -47583.705    3901.2584   -51484.963   0.15027524 
   95200    286.21665     6.857722    148549.99   -47610.225    3930.4964   -51540.722   0.14650335 
   95300    290.42927    22.457753    148574.71   -47565.117    3988.3467   -51553.464   0.14314251 
   95400    292.85283    15.838659    148573.77   -47537.337    4021.6284   -51558.965   0.15000282 
   95500    293.01513   -21.367475    148577.31   -47556.907    4023.8572   -51580.765    0.1460804 
   95600    294.57461    23.320856    148547.56   -47540.996    4045.2729   -51586.269   0.14922251 
   95700    290.98946    9.8474027    148558.35   -47581.197    3996.0395   -51577.236    0.1422819 
   95800    293.47823     58.81267    148565.08   -47520.716    4030.2168   -51550.933   0.14490665 
   95900    292.79397    4.0832561    148567.72   -47541.197    4020.8201   -51562.017   0.14376425 
   96000    293.99102   -7.3472949    148602.11   -47513.571    4037.2587    -51550.83   0.14856318 
   96100    294.81789   -1.8222235    148597.06   -47459.172    4048.6138   -51507.785   0.15198228 
   96200    294.50003    18.625112    148576.34   -47483.803    4044.2487   -51528.051   0.14633168 
   96300    289.41284    -11.99395    148562.87   -47497.803    3974.3884   -51472.191   0.15822411 
   96400    293.98312   -19.371104    148559.28   -47554.629    4037.1502    -51591.78    0.1447518 
   96500    288.59939     43.64994    148548.38   -47545.937    3963.2177   -51509.155   0.14892397 
   96600    293.49429   -1.7537297    148538.09   -47598.734    4030.4373   -51629.171   0.14008809 
   96700    288.27634    9.2801306    148569.78   -47571.205    3958.7814   -51529.986   0.14528171 
   96800    296.25141    27.731204    148563.09    -47586.72    4068.2997    -51655.02   0.14724122 
   96900    295.78457    43.297519    148535.72   -47587.145    4061.8888   -51649.034   0.14327426 
   97000    288.74247   -28.610981    148513.74   -47660.488    3965.1825    -51625.67   0.15054794 
   97100    290.08377   -1.5717932    148559.68   -47634.177     3983.602   -51617.779   0.14339681 
   97200    291.99172   -28.498808    148553.17   -47575.055    4009.8031   -51584.858   0.14755506 
   97300    287.47177   -13.506112    148578.37   -47467.106    3947.7326   -51414.838   0.15165321 
   97400    289.38051   -17.350227    148540.29   -47557.537    3973.9444   -51531.482   0.15116586 
   97500    292.15202    20.819865    148544.08   -47535.171    4012.0045   -51547.175   0.15005185 
   97600    300.42348    59.510035    148555.27   -47468.226     4125.593   -51593.819   0.14629415 
   97700    291.50011    7.8257383    148556.03   -47422.866     4003.052   -51425.918   0.14515861 
   97800    291.20228    5.4664987    148526.71   -47530.667    3998.9621   -51529.629   0.15407242 
   97900    291.32982   -24.925383    148562.95   -47495.396    4000.7135    -51496.11   0.14553462 
   98000    287.94558   -45.534006    148534.97   -47589.287    3954.2392   -51543.526    0.1504848 
   98100    291.00384  -0.39127143    148543.34   -47569.955     3996.237   -51566.192   0.14860912 
   98200    295.93308   -6.5729107     148552.4   -47568.564    4063.9282   -51632.492   0.14480539 
   98300    288.81768   -1.0335206    148569.08   -47505.111    3966.2154   -51471.326   0.15399761 
   98400    293.02629   -15.697836    148551.97   -47546.007    4024.0105   -51570.018   0.14405564 
   98500     288.8507   -25.583481    148543.68   -47521.197    3966.6688   -51487.866   0.15391984 
   98600    292.41909    11.891128    148553.59   -47530.925     4015.672   -51546.597   0.14074971 
   98700    294.22007    5.9179821    148562.55   -47496.242    4040.4042   -51536.646   0.14864502 
   98800    289.48346   -10.982932    148574.44   -47507.498    3975.3583   -51482.856    0.1492051 
   98900    295.30607    6.2207808    148554.86   -47573.869    4055.3177   -51629.186   0.14457342 
   99000    287.70408     -3.91198    148558.58   -47565.876    3950.9227   -51516.799   0.15000129 
   99100    291.35771   -5.5587871    148550.28   -47630.232    4001.0965   -51631.329   0.13861702 
   99200    286.09578    -35.57747    148540.76   -47624.578    3928.8365   -51553.415   0.14934569 
   99300    289.59657   0.32113872    148554.21   -47551.174    3976.9115   -51528.085   0.14828273 
   99400    288.82373    7.1785444    148554.67   -47594.285    3966.2984   -51560.583    0.1466858 
   99500    285.73179   -11.372863    148539.84   -47544.326     3923.838   -51468.164   0.15309387 
   99600     289.4586   -6.5151326     148559.2   -47546.903    3975.0168    -51521.92   0.14735941 
   99700    288.49213   -8.4123767    148535.04   -47591.571    3961.7447   -51553.316   0.14617119 
   99800    287.66217   -9.4908552    148553.74   -47606.852    3950.3472     -51557.2   0.14502687 
   99900    287.76053    31.457633    148547.15   -47661.133    3951.6979   -51612.831   0.14268751 
  100000    289.81632    15.306906    148548.19   -47576.304    3979.9292   -51556.233   0.14792772 
Loop time of 68.694 on 6 procs for 100000 steps with 4608 atoms

Performance: 628.876 ns/day, 0.038 hours/ns, 1455.731 timesteps/s
98.2% CPU use with 6 MPI tasks x no OpenMP threads

MPI task timing breakdown:
Section |  min time  |  avg time  |  max time  |%varavg| %total
---------------------------------------------------------------
Pair    | 42.305     | 42.907     | 43.668     |   7.6 | 62.46
Neigh   | 6.4889     | 6.5909     | 6.777      |   4.2 |  9.59
Comm    | 14.783     | 15.734     | 16.273     |  13.7 | 22.90
Output  | 0.21759    | 0.21903    | 0.22565    |   0.6 |  0.32
Modify  | 2.338      | 2.3985     | 2.4261     |   2.0 |  3.49
Other   |            | 0.844      |            |       |  1.23

Nlocal:        768.000 ave         777 max         761 min
Histogram: 1 1 0 1 1 0 0 1 0 1
Nghost:        1393.00 ave        1403 max        1385 min
Histogram: 1 1 0 0 1 1 1 0 0 1
Neighs:        0.00000 ave           0 max           0 min
Histogram: 6 0 0 0 0 0 0 0 0 0
FullNghs:      21902.7 ave       22171 max       21680 min
Histogram: 1 1 0 1 1 0 0 1 0 1

Total # of neighbors = 131416
Ave neighs/atom = 28.519097
Neighbor list builds = 6230
Dangerous builds = 0

undump              1
unfix               2
unfix               3
unfix               4




################################################
#######         Run Simulation         #########
################################################

reset_timestep      0
log                 log.run_${NAME}
log                 log.run_ice_291K_1atm_ML
