

read_data data.ice_${TEMP}K_${PRES}atm_ML group ice
read_data data.ice_291K_${PRES}atm_ML group ice
read_data data.ice_291K_1atm_ML group ice
Reading data file ...
  orthogonal box = (0.0019159873 0.0017030999 0.0017030999) to (57.268594 50.905417 50.905417)
  3 by 1 by 2 MPI processor grid
  reading atoms ...
  4608 atoms
  reading velocities ...
  4608 velocities
  read_data CPU = 0.009 seconds
read_data data.liq_${TEMP}K_${PRES}atm_ML add append shift ${X_HI} ${YZ_LO} ${YZ_LO} group water
read_data data.liq_291K_${PRES}atm_ML add append shift ${X_HI} ${YZ_LO} ${YZ_LO} group water
read_data data.liq_291K_1atm_ML add append shift ${X_HI} ${YZ_LO} ${YZ_LO} group water
read_data data.liq_291K_1atm_ML add append shift 50.9054169001466 ${YZ_LO} ${YZ_LO} group water
read_data data.liq_291K_1atm_ML add append shift 50.9054169001466 -0.00170309985178818 ${YZ_LO} group water
read_data data.liq_291K_1atm_ML add append shift 50.9054169001466 -0.00170309985178818 -0.00170309985178818 group water
Reading data file ...
  orthogonal box = (0.0019159873 0.0017030999 0.0017030999) to (104.26599 50.905417 50.905417)
  3 by 1 by 2 MPI processor grid
  reading atoms ...
  4608 atoms
  reading velocities ...
  4608 velocities
  read_data CPU = 0.009 seconds

write_data data.icewater_test
System init for write_data ...
WARNING: Communication cutoff is 0.0. No ghost atoms will be generated. Atoms may get lost. (../comm_brick.cpp:167)

# Define potential
#
pair_style sw
pair_coeff * * /data/emrosky-sim/Freezing_Simulations/Melting/MLmW_fancy/ML_mW.sw mW
Reading sw potential file /data/emrosky-sim/Freezing_Simulations/Melting/MLmW_fancy/ML_mW.sw with DATE: 2019-02-27

# Delete water and ice atoms that are overlapping
#
delete_atoms overlap 2.5 water ice
System init for delete_atoms ...
Neighbor list info ...
  update every 1 steps, delay 10 steps, check yes
  max neighbors/atom: 2000, page size: 100000
  master list distance cutoff = 6.0032907
  ghost atom cutoff = 6.0032907
  binsize = 3.0016454, bins = 35 17 17
  2 neighbor lists, perpetual/occasional/extra = 1 1 0
  (1) command delete_atoms, occasional, copy from (2)
      attributes: full, newton on
      pair build: copy
      stencil: none
      bin: none
  (2) pair sw, perpetual
      attributes: full, newton on
      pair build: full/bin/atomonly
      stencil: full/bin/3d
      bin: standard
Deleted 698 atoms, new total = 8518

# set timestep
#
timestep 10.0

# Define output
#
compute 1 all msd
thermo 50
thermo_style custom step temp press vol etotal ke pe c_1[4]

# Neighbor lists
#
neigh_modify delay 0 every 1 check yes

# Set fixes
#
fix 1 all momentum 10 linear 1 1 1 rescale
fix 2 all nph iso ${PRES} ${PRES} ${PCOUPL}
fix 2 all nph iso 1 ${PRES} ${PCOUPL}
fix 2 all nph iso 1 1 ${PCOUPL}
fix 2 all nph iso 1 1 10000.0
fix 3 all temp/csvr ${TEMP} ${TEMP} ${TCOUPL} 837492
fix 3 all temp/csvr 291 ${TEMP} ${TCOUPL} 837492
fix 3 all temp/csvr 291 291 ${TCOUPL} 837492
fix 3 all temp/csvr 291 291 5000.0 837492


# Fix ice atoms in place
#
velocity ice set 0.0 0.0 0.0
fix 4 ice setforce 0.0 0.0 0.0

# Run 1.0 ns equilibration of water
#
dump 1 all atom 1000 eq.all.${NAME}.dump
dump 1 all atom 1000 eq.all.coexist_291K_1atm_ML.dump
run 100000
Neighbor list info ...
  update every 1 steps, delay 0 steps, check yes
  max neighbors/atom: 2000, page size: 100000
  master list distance cutoff = 6.0032907
  ghost atom cutoff = 6.0032907
  binsize = 3.0016454, bins = 35 17 17
  1 neighbor lists, perpetual/occasional/extra = 1 0 0
  (1) pair sw, perpetual
      attributes: full, newton on
      pair build: full/bin/atomonly
      stencil: full/bin/3d
      bin: standard
Per MPI rank memory allocation (min/avg/max) = 4.589 | 4.597 | 4.604 Mbytes
Step Temp Press Volume TotEng KinEng PotEng c_1[4] 
       0    131.86282    -519.4293    270167.82   -84447.902    3347.6751   -87795.578            0 
      50    158.22159   -210.12946    269118.89   -84078.024    4016.8599   -88094.884   0.85867921 
     100     163.4653    216.68113    267561.12   -83761.479    4149.9849   -87911.464     1.791114 
     150    172.37401    404.95135    267173.16   -83434.058    4376.1554   -87810.214     2.710462 
     200    176.89339    232.13522    267925.74   -83128.656    4490.8913   -87619.547    3.6318458 
     250    183.10249    164.54009    268903.98    -82845.81    4648.5254   -87494.335    4.7134025 
     300    183.65471   -496.28646    269521.39   -82553.016    4662.5448   -87215.561    5.8172309 
     350    189.18485    134.69708    269055.14   -82237.059    4802.9415       -87040    7.0749119 
     400    193.86132   -11.451544    268824.25   -82046.787    4921.6656   -86968.453    8.5050022 
     450    197.82806    358.66192    268980.56   -81825.898    5022.3717    -86848.27     9.819726 
     500    205.00416   -53.787644    269606.52   -81609.755    5204.5552    -86814.31    11.050344 
     550    205.25881    -234.9731    269722.56   -81420.022    5211.0202   -86631.042    12.497669 
     600    210.53064   -104.25603    269685.13   -81209.152    5344.8592   -86554.011    14.184211 
     650    211.18118    105.32528    270093.55   -81037.418    5361.3747   -86398.792    15.923688 
     700    217.20819    13.985921    270618.47   -80817.049    5514.3857   -86331.434    17.713092 
     750    220.37089   -342.66968    271127.24   -80657.154     5594.679   -86251.833    19.508194 
     800    215.55742    17.245069     271048.3   -80479.515    5472.4768   -85951.992    21.382261 
     850    226.40154    212.92735    270540.14   -80344.991    5747.7824   -86092.774     22.95558 
     900     231.1485    72.705554    270277.01   -80200.214    5868.2962    -86068.51    25.149508 
     950    236.72208    257.38886    270531.64   -80059.601    6009.7958   -86069.397    27.275543 
    1000     237.5062   -430.42082    271479.91   -79876.326    6029.7028   -85906.029    29.689745 
    1050    236.53135    173.87239     271936.8   -79758.271    6004.9536   -85763.225    31.688404 
    1100    240.37562   -217.28577    272262.21   -79591.375    6102.5503   -85693.925    33.969617 
    1150    242.70093   -126.07675    272112.44   -79433.711    6161.5843   -85595.295    36.215241 
    1200    245.37818   -57.143373    271842.45   -79347.848    6229.5531   -85577.401    38.144261 
    1250    246.89166   -27.529854    271600.13   -79237.358    6267.9766   -85505.334    40.790673 
    1300    248.49091    255.00159    271526.78   -79169.529    6308.5777   -85478.106    43.236809 
    1350    249.54154    113.59511     272082.8   -79006.486    6335.2507   -85341.737    45.943793 
    1400    255.02428   -9.2561155    272669.21   -78904.779    6474.4441   -85379.224    48.703636 
    1450    251.54524   -335.46218    273008.44   -78776.263    6386.1197   -85162.383    51.207058 
    1500    256.92607   -180.30202    272698.51   -78743.554    6522.7257    -85266.28    53.605167 
    1550    255.41619    258.38655    272116.98    -78627.45    6484.3937   -85111.843    56.136875 
    1600    260.07161      255.758    271969.22   -78550.114    6602.5833   -85152.698    58.554285 
    1650     263.8782     213.4035    272505.92   -78491.742    6699.2234   -85190.965     61.37261 
    1700    262.57968    -15.62869    273119.84   -78421.417    6666.2572   -85087.674     64.82292 
    1750    263.07245   -21.356011    273428.16    -78319.17    6678.7675   -84997.938    67.768192 
    1800    259.49885    341.30976    273269.34   -78282.035    6588.0423   -84870.078    70.519395 
    1850    264.64623    204.88294    273258.04   -78170.059    6718.7219   -84888.781    73.470249 
    1900    265.23508    117.38663    273304.73   -78110.539    6733.6712    -84844.21    75.941858 
    1950    264.94883    -234.2079    273306.24   -78032.799    6726.4042   -84759.203    78.793505 
    2000    268.78623    103.48231    273044.32   -77927.283    6823.8264   -84751.109    81.642764 
    2050     275.3951   -90.845789     273102.4   -77894.078    6991.6094   -84885.687    83.972223 
    2100    269.95783   -38.875484    273129.37   -77851.097    6853.5705   -84704.668    87.074092 
    2150    276.31014    213.36628    273301.33   -77751.249    7014.8401    -84766.09    90.012862 
    2200    275.32384   -27.524293    273964.23   -77686.341    6989.8003   -84676.141    93.275817 
    2250    274.67722   -419.60765    274496.09   -77663.798    6973.3843   -84637.183    96.183368 
    2300    270.56617    117.03803    274254.85   -77634.329    6869.0148   -84503.344    99.306332 
    2350    278.99577   -278.43474    273695.86   -77572.266    7083.0217   -84655.288    102.10203 
    2400    276.33043   -112.24878    273223.41   -77572.651    7015.3551   -84588.006    105.09934 
    2450    278.73709    192.22899    273178.16   -77602.578    7076.4543   -84679.032    108.24246 
    2500    275.26025    190.09574    273744.99   -77602.061    6988.1858   -84590.247    111.85291 
    2550    275.51732   -242.08931    274247.15   -77515.917    6994.7123   -84510.629    115.26479 
    2600    276.39001     5.220973    274120.83   -77516.357    7016.8678   -84533.224    118.72689 
    2650    272.27069    56.668224    273700.15    -77520.29    6912.2884   -84432.578    121.33977 
    2700    280.96927    244.84163    273476.42   -77475.385     7133.124   -84608.509    124.70546 
    2750    277.45902    246.89391    273821.87   -77428.275    7044.0072   -84472.283     127.8663 
    2800    274.46392     -247.219    274525.92   -77449.385     6967.969   -84417.354    130.95682 
    2850    278.84449    -214.8024    274533.76   -77405.491    7079.1809   -84484.672    133.64439 
    2900    282.10285    110.75184    274019.92   -77362.717    7161.9029    -84524.62    136.41186 
    2950    282.67723    234.03141    273638.52   -77355.793     7176.485   -84532.278    139.07327 
    3000    280.73977     235.4709    273718.61   -77352.566    7127.2975   -84479.863    141.93474 
    3050    279.90075   -56.232218    274089.15   -77327.332    7105.9969   -84433.329     145.2456 
    3100    285.11643   -63.773695    274228.95   -77258.664    7238.4102   -84497.075    148.13988 
    3150     285.5629    32.536469    274292.69   -77211.755     7249.745     -84461.5    150.63073 
    3200    283.65798   -33.622876    274183.49   -77168.766    7201.3838    -84370.15    153.88228 
    3250    284.33514     152.2935    274150.27   -77134.648    7218.5752   -84353.224    156.02488 
    3300    282.78333   -195.72916    274151.78   -77142.186    7179.1786   -84321.365    158.78329 
    3350    282.62277    76.366175    273999.61   -77161.402    7175.1023   -84336.505       161.32 
    3400    282.58202   -45.833897    274085.04   -77165.596    7174.0677   -84339.664    164.52458 
    3450    283.94154    226.01738    274164.54   -77224.442    7208.5826   -84433.025    168.37085 
    3500    285.84868   -159.66258    274303.17    -77221.02    7257.0004    -84478.02    171.46807 
    3550    286.82792 -0.011349299    274221.54   -77212.001    7281.8609   -84493.862    174.60972 
    3600    281.20205    72.702958    274195.21   -77195.064    7139.0337   -84334.098    177.48132 
    3650    282.58695   -5.3246336    274127.27   -77162.252     7174.193   -84336.445    181.16777 
    3700    287.64179    86.073209    274119.22   -77126.448     7302.523   -84428.971    184.75638 
    3750     287.8761   -8.2895485    274175.06   -77021.489    7308.4716    -84329.96    188.44152 
    3800    290.85961   -294.93345    274500.56   -77020.241    7384.2157   -84404.457    192.14532 
    3850    288.62695   -72.154309    274873.39   -76967.954    7327.5338   -84295.488    195.05122 
    3900    293.34813   -184.35035    274899.29   -76937.489     7447.393   -84384.882    197.80377 
    3950    287.23282   -261.57036    274512.65   -76930.746    7292.1402   -84222.886    200.27685 
    4000    289.27803   -97.777237    274103.35   -76990.823    7344.0632   -84334.887    203.76386 
    4050    286.50091    29.457399    274028.65   -76994.716    7273.5589   -84268.274    206.42078 
    4100    286.74621     195.2808    274254.97   -76976.237    7279.7863   -84256.023    210.00786 
    4150    280.92499    181.84691    274855.85   -77010.942    7131.9999   -84142.942    212.93592 
    4200     283.9917   -110.86625    274937.92   -76983.151    7209.8562   -84193.007    215.98861 
    4250    287.72699   -18.041694    274256.42   -76961.911     7304.686   -84266.597    218.77994 
    4300    286.39538    151.24954    273878.62   -76939.112    7270.8796   -84209.992    222.15538 
    4350    288.76333    45.229081    274126.74   -76942.217    7330.9961   -84273.213    225.23785 
    4400    289.05591   -103.39824    274454.99   -76960.937     7338.424   -84299.361    228.52527 
    4450    292.01421   -236.00955    274651.11   -76942.016     7413.528   -84355.544    232.22537 
    4500    289.10506     21.88404    274760.16   -76922.084    7339.6719   -84261.756    235.77253 
    4550    289.82543   -469.11783    274827.92   -76914.961    7357.9602   -84272.922    239.55618 
    4600    288.78938   -95.364831    274408.99   -76881.323    7331.6575    -84212.98     243.0292 
    4650    293.93898  -0.60302484    274026.03   -76895.932    7462.3932   -84358.325    246.12584 
    4700    292.02134   -7.3541217    274178.38   -76888.055     7413.709   -84301.764    249.72574 
    4750    289.83272   -299.24453    274679.14   -76913.739    7358.1454   -84271.885    253.02819 
    4800    294.36857    10.140334    274616.93   -76882.073    7473.2996   -84355.372    256.30342 
    4850     290.6514   -29.367345    274458.85   -76838.999    7378.9297   -84217.929    259.53527 
    4900    288.47928    108.69941    274563.65    -76846.39    7323.7848   -84170.175    263.58128 
    4950     287.8379   -224.29739    274877.55   -76846.692    7307.5017   -84154.194    268.15709 
    5000    289.23275   -288.71809    274795.85   -76840.697    7342.9136   -84183.611    270.34803 
    5050    291.40569    125.99258    274422.06   -76855.133    7398.0792   -84253.212    272.20376 
    5100    293.20219     424.7187    274270.84   -76834.883    7443.6879   -84278.571    275.44867 
    5150    289.85072    166.58023    274417.57   -76860.968    7358.6023    -84219.57     278.3787 
    5200    289.84425   -127.31972       274703   -76811.097    7358.4381   -84169.535    280.34813 
    5250    291.63181   -61.750684    274867.22   -76785.304    7403.8199   -84189.124     283.3264 
    5300     291.4965   -351.13351    274777.99   -76737.965    7400.3848    -84138.35    285.93393 
    5350    291.62503    322.68335     274484.2   -76723.674    7403.6476   -84127.322    289.00153 
    5400    287.63171    2.4776365    274787.28   -76730.949    7302.2669   -84033.216    291.73979 
    5450    292.08583    49.075724     275002.5   -76724.486    7415.3462   -84139.833    295.03674 
    5500    293.69068   -76.391299    275263.07   -76721.986    7456.0894   -84178.076    298.09458 
    5550    287.98944     46.76671     275091.5   -76760.962    7311.3491   -84072.311    301.11687 
    5600     293.0847    331.17909    274552.82   -76730.444    7440.7052   -84171.149    303.29912 
    5650    290.79131    106.84368    274327.19   -76720.189    7382.4817   -84102.671    306.50322 
    5700    293.42827   -54.299847    274565.84   -76671.372    7449.4275   -84120.799    309.28669 
    5750    293.60984   -118.89773    275120.11   -76695.526    7454.0371   -84149.563    312.68773 
    5800     288.4424    96.729901    275448.88   -76714.603    7322.8484   -84037.451    316.09549 
    5850    291.47548   -85.678088    275430.98   -76702.933    7399.8511   -84102.785    318.88409 
    5900    295.16482    96.656032    274950.92   -76663.106    7493.5145    -84156.62    322.38714 
    5950    297.54065    227.93689    274532.03   -76642.005     7553.831   -84195.836    326.89809 
    6000    294.59367     86.46892    274554.21   -76689.126    7479.0141    -84168.14    330.73864 
    6050    291.84716    129.53459    274804.82    -76735.38     7409.287   -84144.667    333.99563 
    6100     295.4462     -349.116    275045.31   -76735.941    7500.6579   -84236.599    337.17772 
    6150    292.89739    101.39886    274833.93   -76695.694    7435.9498   -84131.644    339.98108 
    6200    292.19969    -312.0029    274735.05   -76692.171     7418.237   -84110.408    342.88779 
    6250    294.22487    240.38466    274380.61    -76652.23    7469.6512   -84121.882    345.44638 
    6300    291.79962    204.95376    274289.59    -76657.02    7408.0802     -84065.1    348.16085 
    6350    295.41588   -46.080035    274652.46   -76696.053    7499.8881   -84195.941    351.63047 
    6400    293.18509   -160.70035    275154.82   -76629.316    7443.2538    -84072.57    354.70147 
    6450    292.23423   -217.09595    275419.53   -76619.085    7419.1138   -84038.198    357.56219 
    6500    291.83793   -169.96754    275159.21   -76616.537    7409.0528    -84025.59    359.92096 
    6550    294.79534    59.384692    275002.02    -76622.84    7484.1341   -84106.974    363.36359 
    6600    296.56557   -135.65374    275107.73   -76716.803    7529.0759   -84245.878    368.89428 
    6650    291.07408    -99.38482    275082.04   -76745.295    7389.6603   -84134.955    371.75179 
    6700     292.0573   -4.8457156    274786.59   -76756.073    7414.6221   -84170.696    374.78483 
    6750    287.08405    15.992677    274647.61   -76784.492    7288.3633   -84072.856    378.21382 
    6800    292.04201   -18.431171    274813.33   -76795.639    7414.2338   -84209.873    381.66695 
    6850    287.06997   -1.9237655    274939.74   -76802.926     7288.006   -84090.932    383.46056 
    6900    289.12562    16.816155    274743.74   -76826.224    7340.1939   -84166.417    385.05401 
    6950    291.37346     35.92802    274524.76   -76805.904    7397.2611   -84203.165    387.25685 
    7000    294.39038    -168.6872    274559.53   -76792.897    7473.8532    -84266.75    390.20424 
    7050    292.00982     11.00232    274698.23   -76777.036    7413.4166   -84190.453    393.46639 
    7100    291.36575    50.860047    274565.52   -76729.139    7397.0652   -84126.204    396.44099 
    7150    293.82337    45.950053    274508.88    -76742.88    7459.4582   -84202.338    398.81407 
    7200    289.85423   -55.739931    274703.54   -76715.325    7358.6913   -84074.016    401.39132 
    7250    291.02011    -44.60733    274763.76   -76671.972    7388.2902   -84060.262    404.46018 
    7300    295.18162   -180.39269    274777.56   -76663.179    7493.9408    -84157.12     407.0763 
    7350    298.72958    50.310163    274843.18   -76692.394     7584.015   -84276.409     409.9158 
    7400    299.73754   -296.44637    275106.23   -76701.116    7609.6046    -84310.72    412.78385 
    7450    289.06257    -224.9077     274955.6   -76665.931    7338.5932   -84004.525    416.10337 
    7500    293.86558   -93.823097    274449.54   -76700.963    7460.5298   -84161.492    419.10087 
    7550    296.99284    151.46603    274083.07   -76745.547    7539.9233    -84285.47    421.07401 
    7600    293.85022    202.26942    274158.93   -76754.934    7460.1398   -84215.074    423.85239 
    7650    291.84084    233.81534    274381.66    -76726.08    7409.1265   -84135.207    426.64431 
    7700    291.52969     66.57991    274656.31   -76719.804    7401.2271   -84121.031    428.98558 
    7750    294.50448    79.562569    274797.01    -76735.39    7476.7498    -84212.14    432.16999 
    7800    294.25814     -278.885    274733.46   -76781.187    7470.4959   -84251.683    435.35403 
    7850    284.06904    116.67743    274513.51   -76757.639    7211.8195   -83969.458    437.54209 
    7900    292.91491    180.48315    274505.76    -76716.07    7436.3947   -84152.464     441.1105 
    7950    291.84299   -247.84429    274720.56   -76732.855    7409.1812   -84142.037    444.82622 
    8000    294.48781   -61.550711    274819.09   -76727.457    7476.3268   -84203.784    447.27755 
    8050     293.2674   -181.66393    274644.08   -76744.756    7445.3435   -84190.099    449.41739 
    8100     292.3039   -14.513432    274293.85   -76785.074    7420.8825   -84205.957    451.03963 
    8150    291.93563    85.076822    274097.49     -76833.8     7411.533   -84245.333    453.92929 
    8200    290.18928   -94.627132    274371.36   -76794.694    7367.1974   -84161.891    456.55744 
    8250    298.04671   -68.685985     274702.1   -76804.639    7566.6785   -84371.317    459.51166 
    8300    295.11046    60.458415    274913.93   -76786.222    7492.1343   -84278.356    462.19781 
    8350    290.42127      -245.05    274943.21   -76854.538    7373.0871   -84227.625    464.95001 
    8400    294.78284    -17.16166    274600.42   -76872.414    7483.8168   -84356.231    467.12952 
    8450    291.89795   -132.93915    274067.55   -76866.641    7410.5765   -84277.217    470.18495 
    8500     294.8114    269.00662    274078.21   -76808.037    7484.5418   -84292.579    473.99841 
    8550    294.18213    119.63777    274852.62   -76771.167    7468.5662   -84239.734    478.05665 
    8600    290.00109    109.16285    275410.81   -76769.448    7362.4198   -84131.867    480.18189 
    8650    293.63012   -360.76366    275264.76   -76720.472    7454.5521   -84175.024    482.22148 
    8700    296.08216    192.93726    274592.03   -76691.609    7516.8035   -84208.412     484.2566 
    8750    291.15707    300.02854    274130.69   -76675.483    7391.7673    -84067.25    486.67089 
    8800    297.34681    105.64643    274587.51   -76665.893    7548.9097   -84214.802    489.14981 
    8850    295.68955   -113.93519    275067.04   -76637.494     7506.836    -84144.33    492.49585 
    8900    293.68125    8.5299934    275123.54   -76645.098    7455.8502   -84100.948    494.02868 
    8950    289.58935    131.83363    274861.01    -76621.08    7351.9668   -83973.046    495.94865 
    9000    295.04047    316.47198    274827.34   -76644.504    7490.3575   -84134.861    499.16729 
    9050    295.27766    106.45424       275012   -76618.167     7496.379   -84114.546    501.87778 
    9100    294.54999   -258.23312    274909.32   -76641.284    7477.9052   -84119.189    504.59392 
    9150    295.83549   -181.21394    274577.51    -76663.64    7510.5409   -84174.181    506.55863 
    9200    291.60587    178.82123    274331.27   -76615.316    7403.1613   -84018.477    509.17846 
    9250    297.98645    299.43567    274472.59   -76605.555    7565.1486   -84170.703    511.20731 
    9300    296.11065    15.618783    274975.22    -76666.64    7517.5268   -84184.167     515.1082 
    9350    296.65212    200.94595    275239.84   -76672.567    7531.2733    -84203.84    519.47697 
    9400    288.93557   -57.434418    275382.78   -76715.178    7335.3689   -84050.547    523.12294 
    9450    290.88465   -194.06543    275023.14   -76715.624    7384.8512   -84100.475    525.01898 
    9500     297.9149    215.87634    274505.67   -76709.942    7563.3322   -84273.275     526.8698 
    9550    295.38368    55.277641     274366.6   -76712.564    7499.0707   -84211.634    529.53337 
    9600    296.27149    90.471131    274556.21   -76714.653    7521.6101   -84236.263    532.23412 
    9650    295.31961   -112.39986    275013.84   -76682.028    7497.4441   -84179.472    534.80703 
    9700    293.26289     14.80897     275351.8   -76684.768    7445.2289   -84129.997    538.32662 
    9750    293.73672   -142.07667    275235.47   -76764.371    7457.2585   -84221.629    541.05065 
    9800    293.51493    201.65067    274435.69   -76747.619    7451.6277   -84199.247    542.39328 
    9850    294.79909     106.7406    273816.05   -76739.602    7484.2294   -84223.832    543.28046 
    9900    296.60303    64.349526    274231.25   -76707.881    7530.0269   -84237.908    546.90517 
    9950    292.55281   -472.58356    275283.71   -76713.923    7427.2017   -84141.125    549.76694 
   10000    292.51428    -299.8505    275554.74   -76727.694    7426.2237   -84153.918    552.91569 
   10050    289.14125    115.50952    275084.56    -76721.33    7340.5907   -84061.921    554.43278 
   10100    295.68211    450.82824    274465.75    -76712.54    7506.6472   -84219.187     556.6523 
   10150    295.04366    76.862559    274520.45    -76713.15    7490.4385   -84203.589    558.87476 
   10200    291.82325   -5.1317344    274706.31   -76746.902    7408.6801   -84155.582    562.42928 
   10250    294.75493    -67.33998    274858.89   -76699.368    7483.1082   -84182.476    565.55359 
   10300    292.43403    203.07862    274545.27   -76660.794    7424.1861    -84084.98    568.32844 
   10350    294.77932    114.02281    274217.22   -76693.692    7483.7274    -84177.42    570.97141 
   10400     293.6026   -18.613188    274202.51   -76712.596    7453.8534   -84166.449     573.2948 
   10450    297.03439   -147.59981    274671.32   -76695.924    7540.9783   -84236.902    576.03665 
   10500    294.35659    213.24796       274847   -76677.428    7472.9954   -84150.424    578.74815 
   10550    293.37739   -91.818355    274898.83   -76655.823    7448.1359   -84103.958     582.5535 
   10600    297.02954    14.305108    274671.23   -76654.698    7540.8549   -84195.553    584.90445 
   10650    294.10905    45.269428    274491.18   -76684.473    7466.7108   -84151.184    586.13768 
   10700    294.19979   -93.825033    274463.43   -76744.941    7469.0146   -84213.956    589.41724 
   10750    292.90818    174.64009    274467.77   -76738.926    7436.2237   -84175.149    592.58776 
   10800     295.5264   -226.13344    274854.22   -76749.668    7502.6941   -84252.362    594.79695 
   10850    292.76381    289.83857    274975.85   -76753.326    7432.5587   -84185.884    598.28161 
   10900    292.98968   -328.94052    274991.62   -76751.531    7438.2929   -84189.824    600.70696 
   10950    288.47363   -232.99955    274864.39   -76785.565    7323.6413   -84109.207     603.0265 
   11000    300.47972   -345.96994    274508.41   -76820.996    7628.4468   -84449.442    604.78303 
   11050    291.12099    2.3537637    274140.51   -76807.122    7390.8514   -84197.973    608.15475 
   11100     288.6525     237.6501    274137.87   -76837.662    7328.1824   -84165.845    611.61267 
   11150    294.72264    33.699311    274235.48   -76841.969    7482.2885   -84324.257    614.74466 
   11200    291.85499   -264.68893    274434.92   -76858.252    7409.4859   -84267.738    617.59407 
   11250    287.18627    300.49057    274588.78   -76841.094    7290.9584   -84132.053    619.94914 
   11300    291.75347   -147.98533    274728.66   -76868.416    7406.9086   -84275.324    621.58353 
   11350    292.52856    -302.4005    274554.07   -76879.606    7426.5861   -84306.192     623.2091 
   11400    296.24086    180.22979    274111.51   -76898.848    7520.8323    -84419.68    624.86232 
   11450    286.83296    497.74999    273950.67   -76856.602    7281.9887   -84138.591    626.72704 
   11500    290.18916    262.24712    274402.06   -76786.703    7367.1946   -84153.897    630.89176 
   11550    289.52154   -327.18538    274909.65   -76770.276    7350.2453   -84120.521    633.98619 
   11600    293.52536    209.10965    274678.93   -76808.607    7451.8924   -84260.499    635.39461 
   11650     292.1083    40.711948    274558.65   -76888.918    7415.9168   -84304.835    637.55025 
   11700    289.48844   -202.65896    274699.39   -76853.839    7349.4048   -84203.244     639.5541 
   11750    282.94043    226.80724    274722.52   -76889.923    7183.1668    -84073.09    642.57617 
   11800    290.02698    11.907132    274714.77   -76933.536    7363.0772   -84296.613    644.33083 
   11850    288.37851    110.69994    274362.85   -76943.138    7321.2265   -84264.365    646.72801 
   11900    292.94225    56.246889    273956.51   -76933.053    7437.0888   -84370.142     647.9993 
   11950    291.83709    511.05434    273970.59   -76921.235    7409.0313   -84330.267    650.97107 
   12000     292.5067    15.756865    274643.58   -76943.298    7426.0313   -84369.329    654.26522 
   12050    288.93485   -41.855278    274963.82   -76974.569    7335.3506    -84309.92    657.05284 
   12100    286.39733    146.98408    274733.57    -76939.22    7270.9291   -84210.149    660.16593 
   12150    287.44443     472.3292    274258.77   -76893.067    7297.5125    -84190.58      663.354 
   12200    291.69758   -14.155053    274320.61   -76857.988    7405.4895   -84263.478    666.30022 
   12250    288.96813   -186.78278     274386.6   -76895.824    7336.1956    -84232.02    669.15603 
   12300    293.13946   -79.676844    274289.75   -76806.615    7442.0954   -84248.711    672.01059 
   12350    291.87983   -83.183794    274347.47   -76845.046    7410.1164   -84255.162     675.7689 
   12400    295.16409    -28.01144    274220.37   -76817.901    7493.4959   -84311.397    678.75302 
   12450    291.89177    180.27865     274535.8   -76791.163    7410.4196   -84201.582    682.36582 
   12500    293.24435    91.082728    275045.65   -76814.327    7444.7583   -84259.086    684.66467 
   12550    288.67858   -4.5483008    275090.66   -76800.238    7328.8446   -84129.083    687.22906 
   12600    289.39884   -24.275817    274629.48   -76824.392    7347.1301   -84171.522    689.56959 
   12650    294.77872    227.08284    274121.72   -76839.046    7483.7122   -84322.758    690.58069 
   12700    288.41219   -17.616112    274225.77   -76855.081    7322.0815   -84177.162    693.25468 
   12750    294.31079     165.3496    274327.35   -76848.564    7471.8327   -84320.397    694.10113 
   12800    291.82411   -176.35677    274494.21   -76868.973    7408.7018   -84277.675    697.57663 
   12850    286.38763    160.26122    274567.35    -76904.87    7270.6828   -84175.552    700.70223 
   12900    291.75058   -235.27969    274787.33   -76879.595     7406.835    -84286.43    703.45362 
   12950    288.57994   -171.17824    274549.57   -76872.229    7326.3404   -84198.569    705.46327 
   13000    292.33149    157.46892    274129.81   -76838.241     7421.583   -84259.824    707.44777 
   13050    293.06089    165.87764    274093.79   -76815.986    7440.1007   -84256.087    709.28813 
   13100    294.97461   -95.604446    274626.93   -76771.013    7488.6853   -84259.699    712.25295 
   13150    294.18579    27.487744     274831.8   -76793.044    7468.6593   -84261.703    714.68909 
   13200    293.13616   -243.84301    274824.27   -76813.062    7442.0117   -84255.074    717.43187 
   13250    296.36739      258.285    274248.93   -76794.225    7524.0447    -84318.27    718.83365 
   13300    290.57197    170.26026    273931.86   -76795.511    7376.9131   -84172.424    720.88913 
   13350    295.00258    93.529633    274142.85   -76797.643    7489.3954   -84287.039     723.5693 
   13400    299.59054   -139.28992    274584.19   -76846.005    7605.8727   -84451.878    727.18855 
   13450    294.24567   -99.187458    274539.54   -76809.023    7470.1795   -84279.202    730.45522 
   13500    293.87127   -45.937226    274576.41   -76796.414    7460.6743   -84257.089    734.08279 
   13550      291.182   -18.315027    274780.63   -76784.978    7392.4003   -84177.378    736.32599 
   13600    290.57981   -190.89767    274692.47   -76800.053     7377.112   -84177.165     737.4773 
   13650    292.82285   -9.0089444    274373.22   -76827.684    7434.0574   -84261.741    739.18286 
   13700      293.689   -326.63837    274268.84   -76835.596    7456.0469   -84291.643    740.99908 
   13750    286.25301    134.55296    274349.68   -76821.429    7267.2653   -84088.694    742.90444 
   13800    297.34402   -296.93067    274837.95   -76806.353     7548.839   -84355.192    745.82986 
   13850    291.77044   -118.17244    274996.02   -76794.133    7407.3394   -84201.473    746.79546 
   13900    287.95938    1.6070554    274703.25   -76817.237    7310.5857   -84127.822    748.03748 
   13950    291.98591   -62.423911    274169.06   -76834.404    7412.8096   -84247.214    749.61623 
   14000    294.02793    298.70517    273978.04   -76855.184    7464.6514   -84319.835    751.79463 
   14050    289.13866   -189.96817    274489.01   -76860.134    7340.5248   -84200.659    754.18915 
   14100    293.84085   -430.52503    274970.41   -76827.244     7459.902   -84287.146    757.30082 
   14150    283.42691   -314.99022    275009.45   -76834.129    7195.5174   -84029.646    760.35716 
   14200    294.47324    35.881781    274245.65    -76871.95    7475.9567   -84347.907    761.26018 
   14250    294.04694    15.959149    273900.68   -76909.715    7465.1342   -84374.849     763.3427 
   14300    288.82167    71.273359    273977.18   -76898.715    7332.4771   -84231.192    765.85249 
   14350    283.30076   -13.208461     274456.1   -76920.626    7192.3148    -84112.94    768.68829 
   14400    287.33309   -254.93376    274864.79   -76911.102    7294.6858   -84205.788    771.93214 
   14450    284.67111    165.43195    274473.01   -76901.393    7227.1047   -84128.498    772.88898 
   14500    295.97637    191.99932    273984.12   -76872.017    7514.1176   -84386.134    773.39719 
   14550    294.19502    11.808516     273948.8   -76891.089    7468.8936   -84359.983    776.69893 
   14600    288.79024   -120.02538    274306.59   -76904.777    7331.6793   -84236.456    780.45514 
   14650    288.64126   -97.017507    274654.91   -76880.603    7327.8971     -84208.5    782.51077 
   14700    294.85733   -637.18164    274805.79   -76828.621    7485.7079   -84314.329    785.09642 
   14750    295.35518    103.00379    274504.69   -76858.288    7498.3471   -84356.635    786.86078 
   14800    294.01742   -51.910924    274249.26   -76853.135    7464.3847   -84317.519    789.33332 
   14850    291.92926   -14.425219    274157.13   -76863.542    7411.3713   -84274.914    792.87273 
   14900    297.73403   -44.675451    274366.31   -76865.328    7558.7403   -84424.068    796.48888 
   14950    291.11112   -184.81676    274578.11   -76921.588    7390.6009   -84312.188    800.08881 
   15000    286.21582   -184.35198    274621.86   -76923.911     7266.321   -84190.232     803.8176 
   15050    286.82627   -104.29969    274392.79   -76960.988    7281.8189   -84242.807    806.24219 
   15100    289.84053    276.14002    274154.48   -76965.796    7358.3436    -84324.14    808.71329 
   15150    288.01226    5.4193336    274261.65   -76997.859    7311.9283   -84309.787    812.46404 
   15200     291.3376   -26.075859    274432.15   -77038.418    7396.3505   -84434.769     814.7744 
   15250     287.6003    37.521717     274406.2   -77017.967    7301.4695   -84319.437    817.78191 
   15300     287.0316   -75.243408    274483.45   -77014.796    7287.0317   -84301.827    820.37457 
   15350    285.24812   -57.269694       274455   -77019.053    7241.7535   -84260.806    822.77651 
   15400    285.60862   -76.061797    274228.78   -77034.173    7250.9057   -84285.079    824.83465 
   15450    282.47398    241.90171     273992.8   -77130.442     7171.325   -84301.767    827.47416 
   15500    282.89493    154.79708    273801.39   -77140.857    7182.0118   -84322.869    831.15276 
   15550    289.59571    390.72733    273783.46   -77162.928    7352.1282   -84515.056    833.14298 
   15600    286.05267   -80.832691    274360.54   -77106.547    7262.1791   -84368.726    835.22802 
   15650    287.60777   -24.451571    274663.27   -77055.993    7301.6593   -84357.652    837.48047 
   15700    289.90128     -39.2669    274595.38   -77009.833    7359.8858   -84369.719    838.98904 
   15750    292.26592    -48.35256    274311.47   -76968.124    7419.9183   -84388.042    840.66413 
   15800    287.23185     77.91473    274146.58   -76976.881    7292.1156   -84268.997    843.21762 
   15850    291.43871   -113.58643    274141.83   -76979.537    7398.9176   -84378.454    845.62314 
   15900    287.84653    119.24652    274450.84   -76980.014    7307.7207   -84287.735    847.93593 
   15950     287.8875   -138.25666    274679.98    -76997.34     7308.761   -84306.101     849.8166 
   16000     287.0047   -49.115311    274458.02   -76960.864    7286.3488   -84247.212    851.84354 
   16050    289.76644   -102.15017    274005.11   -76978.282    7356.4627   -84334.744     854.1132 
   16100     291.7038    309.42008    273804.24   -76981.153    7405.6476     -84386.8    855.60634 
   16150    294.05478    101.59874    274239.67   -76966.138    7465.3332   -84431.471    859.79859 
   16200    289.74927   -125.99729    274922.79   -76872.857    7356.0266   -84228.883    864.41145 
   16250    289.72167    23.061394    274872.85   -76866.876    7355.3261   -84222.202    867.10071 
   16300    291.44899    72.897602    274614.81   -76844.538    7399.1786   -84243.717    869.80838 
   16350    293.16813    82.724974    274426.44   -76801.547    7442.8232   -84244.371    873.45262 
   16400    294.71998   -261.22927    274205.67   -76849.049     7482.221    -84331.27    874.80643 
   16450    294.45794    15.737475    274157.17   -76834.762    7475.5684   -84310.331    876.20531 
   16500    290.42147   -277.99887    274341.69   -76843.097    7373.0922    -84216.19     879.5337 
   16550    291.18754    81.857575    274468.94   -76919.911     7392.541   -84312.452    882.01404 
   16600    291.72888    47.101882    274610.53   -76894.993    7406.2843   -84301.277    885.51467 
   16650    290.83025   -262.69266    274657.04   -76940.767    7383.4702   -84324.237    888.82106 
   16700    289.68646    189.49192       274191   -76915.183    7354.4321   -84269.615    889.57847 
   16750    289.40783    293.71439    273755.84   -76884.647    7347.3584   -84232.006    890.81892 
   16800    295.40988    208.23473     273985.7    -76858.05    7499.7357   -84357.785     891.7337 
   16850    295.18425   -285.56753    274660.18   -76836.493    7494.0076     -84330.5    895.85664 
   16900    291.72059    -336.4073    274987.74   -76853.905    7406.0737   -84259.978    901.32641 
   16950     292.7954   -40.963559    274548.22   -76851.504    7433.3607   -84284.864     903.4158 
   17000    292.11605    62.835156     274129.6   -76862.465    7416.1136   -84278.579    905.44965 
   17050    292.68004    113.51413    274295.15   -76844.992    7430.4319   -84275.424    910.36444 
   17100    291.02337   -97.288176    274857.13   -76835.225    7388.3731   -84223.598    914.13645 
   17150    290.49881   -233.75806    275154.31   -76846.677    7375.0558   -84221.732     917.3675 
   17200    291.01209   -236.26636    274923.04   -76866.714    7388.0867     -84254.8    919.00448 
   17250    286.66707    293.16684    274217.65   -76878.045    7277.7771   -84155.822    917.99982 
   17300    289.33071    42.642822    274251.66   -76900.574    7345.4006   -84245.975     919.5923 
   17350    285.38928   -198.34621    274606.69   -76922.624    7245.3373   -84167.962    922.33996 
   17400    284.05861   -58.209317    274552.32    -76935.19    7211.5549   -84146.745    925.35215 
   17450    292.95791   -121.81821    274373.66   -76931.333    7437.4862   -84368.819    927.75306 
   17500    289.35868    58.776842    274089.34   -76993.749    7346.1106    -84339.86    930.30037 
   17550    289.32564    13.092772    274310.24   -76997.473    7345.2718   -84342.745     932.6555 
   17600    286.04656   -208.29068    274565.39   -77005.126     7262.024    -84267.15    935.51525 
   17650    287.18568    42.127192    274285.56   -76971.679    7290.9434   -84262.622    937.00409 
   17700    284.07628    126.05217     273835.5   -76994.205    7212.0035   -84206.208    938.27825 
   17750     284.1744    451.63105    273608.45   -77010.724    7214.4944   -84225.219    940.47753 
   17800    286.78521   -32.550545    273949.25   -77030.005    7280.7765   -84310.781    944.58762 
   17850    285.88745   -208.09148    274486.35   -77056.929    7257.9845   -84314.913    947.85975 
   17900    288.77165   -119.33156    274721.53   -77008.021    7331.2073   -84339.229    950.36138 
   17950    287.78385   -306.72249    274605.87    -77040.72    7306.1296   -84346.849    952.71543 
   18000    293.55827   -6.0086907    274345.83   -77044.675    7452.7278   -84497.403    954.85119 
   18050    287.98778    2.7944709    274096.68   -77082.604    7311.3068   -84393.911    956.53606 
   18100    285.15127    420.12273    273746.88   -77086.263    7239.2948   -84325.557    958.17778 
   18150     282.5331   -60.941715    273933.69   -77095.663    7172.8257   -84268.488    960.76303 
   18200    289.08094    26.912778    274340.06   -77094.129    7339.0595   -84433.189    963.61119 
   18250    286.47406   -163.56148    274764.96   -77129.561    7272.8771   -84402.439    967.50381 
   18300    289.08928   -65.605608    274583.22   -77108.005    7339.2712   -84447.276     968.9955 
   18350    287.61772    155.40009    273904.86   -77080.657     7301.912   -84382.569      970.598 
   18400    289.06915    -6.509402    273676.16   -77120.859    7338.7602   -84459.619    970.78755 
   18450    290.59718    59.855057    273966.84   -77094.922    7377.5532   -84472.476    972.31842 
   18500    285.63513   -124.36577    274291.84   -77060.427    7251.5789   -84312.005    975.71324 
   18550    287.23652    203.25109    274495.41   -77032.437    7292.2341   -84324.672    979.26912 
   18600    284.50137   -97.760224    274770.61   -77029.882    7222.7953   -84252.677    981.77754 
   18650    289.87289    102.12542    274595.17   -77002.361    7359.1652   -84361.526    984.48011 
   18700     287.7609   -20.271563     274110.9   -76934.556    7305.5468   -84240.102    986.14549 
   18750    290.32498    54.362371    273807.41   -76920.314    7370.6427   -84290.957    988.79572 
   18800    292.33891    88.015782    274229.35   -76865.519    7421.7714    -84287.29    993.17605 
   18850     291.4603   -257.15704    274835.43   -76869.841    7399.4656   -84269.307    996.82532 
   18900    290.72271   -167.14187    274607.46   -76907.378      7380.74   -84288.118    997.89877 
   18950    289.56749   -18.321164    274024.38   -76961.802    7351.4119   -84313.214    998.76363 
   19000    297.89192    104.20481     273693.2   -76944.984    7562.7487   -84507.733    1002.3632 
   19050    288.87414    84.273264     274032.6   -76968.186    7333.8092   -84301.995    1006.0346 
   19100    291.72489   -14.679257    274593.98   -76951.786    7406.1828   -84357.969     1010.009 
   19150    282.18828   -92.930968    274888.31   -76925.754    7164.0716   -84089.825    1013.5652 
   19200    291.75182   -255.16388    274705.89    -76914.69    7406.8665   -84321.557    1015.7387 
   19250    285.25214    311.16617    274099.26   -76899.096    7241.8555   -84140.952    1018.0387 
   19300    291.19964    504.55573    273847.53   -76898.667     7392.848   -84291.515    1019.5054 
   19350    290.67567   -59.889261    274188.16    -76888.71    7379.5457   -84268.255    1023.2947 
   19400    289.46918   -70.086707    274672.67   -76876.117    7348.9159   -84225.033    1025.6052 
   19450     294.9992   -158.02372    275009.86   -76850.507    7489.3096   -84339.817    1029.0289 
   19500    291.24608   -165.66009    274862.02    -76840.59    7394.0272   -84234.617    1031.9298 
   19550    294.76968   -281.83887    274325.64   -76890.968    7483.4828   -84374.451    1033.1445 
   19600    290.23201    128.94212    273866.65    -76903.43    7368.2822   -84271.712    1035.2242 
   19650    288.77717    177.02878    273990.83   -76891.067    7331.3475   -84222.414    1037.3204 
   19700    290.15667    253.25732    274557.87   -76894.394    7366.3696   -84260.763    1041.5229 
   19750    290.36015   -195.57062    275250.46   -76871.388    7371.5355   -84242.924    1045.7866 
   19800    292.27667   -208.95842    275213.87   -76861.372    7420.1913   -84281.563    1046.2592 
   19850    287.62614   -15.292367     274625.9   -76853.396    7302.1256   -84155.522    1045.9638 
   19900    298.52928   -97.013867     274097.8   -76848.971    7578.9299   -84427.901    1047.5411 
   19950    293.01314    -192.6109    274036.97   -76852.664    7438.8884   -84291.552    1049.7402 
   20000    293.38532    159.89343    274109.65   -76869.182    7448.3371   -84317.519    1051.5668 
   20050    290.73294    280.77947       274352   -76881.152    7380.9998   -84262.152     1055.353 
   20100      294.066   -5.7223508    274559.91    -76907.89    7465.6181   -84373.508    1058.6108 
   20150     288.8103    53.431246    274565.08   -76953.365    7332.1886   -84285.553    1061.2178 
   20200    289.64425   -137.34683    274555.95   -76947.218    7353.3605   -84300.579    1063.6656 
   20250    287.80576   -209.07547    274440.41   -76942.105    7306.6858    -84248.79    1066.0427 
   20300     290.2011    113.85292    273879.43   -76952.361    7367.4977   -84319.859    1066.8276 
   20350    288.33758    352.29561    273650.78   -76913.212    7320.1874   -84233.399    1068.5489 
   20400    289.38392    83.445272    274196.64   -76912.507    7346.7514   -84259.258    1073.5839 
   20450    289.92881   -508.23888    274979.39    -76922.97    7360.5847   -84283.554    1077.5517 
   20500    288.18523   -33.103607     274986.7   -76946.075    7316.3196   -84262.395    1081.0372 
   20550    290.77895   -110.81706    274574.27   -76916.877    7382.1678   -84299.045    1082.0056 
   20600    290.98301      11.2843     274000.7    -76906.98    7387.3484   -84294.328    1081.4442 
   20650     290.6029    278.34562    273736.98   -76935.791    7377.6984    -84313.49    1082.3371 
   20700    289.85492   -149.45473    274087.46   -76946.277     7358.709   -84304.986    1086.3359 
   20750    290.20188    58.029896     274379.2   -76899.669    7367.5174   -84267.187    1089.5323 
   20800    292.53314   -325.20626     274671.9   -76930.948    7426.7023   -84357.651    1094.0148 
   20850    288.70258   -17.943649    274552.37   -76895.283    7329.4537   -84224.737    1098.0466 
   20900    291.29959    177.64724    274332.75   -76897.416    7395.3855   -84292.801    1100.5713 
   20950    287.57927   -95.158192    274276.91   -76929.279    7300.9356   -84230.215    1105.4842 
   21000     296.1368    111.20247    274373.71   -76909.633    7518.1906   -84427.824    1109.0841 
   21050    286.91354   -272.02566     274544.1   -76925.067    7284.0345   -84209.101    1111.6548 
   21100    291.31572   -96.764775    274263.66   -76928.718     7395.795   -84324.513    1112.7861 
   21150    292.05225   -18.554637    273790.68   -76925.942    7414.4937   -84340.435    1114.4111 
   21200    291.34914    153.31491    273757.54   -76898.117    7396.6436   -84294.761    1115.4204 
   21250    292.72422   -256.06747    274345.78   -76914.844    7431.5536   -84346.397    1119.2127 
   21300    292.58399   -138.89778    274651.67   -76902.561    7427.9935   -84330.554    1121.9512 
   21350    287.64206   -26.687139    274768.81   -76899.721    7302.5299   -84202.251    1124.5337 
   21400    289.15232   -99.457459    274744.33    -76892.29    7340.8717   -84233.161    1127.0035 
   21450      293.284   -273.71542     274328.3   -76851.716    7445.7649   -84297.481    1126.4868 
   21500    292.07368    284.83665    273572.33   -76857.745    7415.0377   -84272.783    1126.1861 
   21550    291.11827    399.50288    273797.64    -76842.86    7390.7824   -84233.642    1130.8939 
   21600    293.33936    199.30701    274551.85   -76828.734    7447.1704   -84275.904    1134.9155 
   21650    293.74356   -275.46528    275446.07   -76794.423    7457.4321   -84251.855    1140.9275 
   21700    293.79781   -147.15624    275438.47   -76754.573    7458.8092   -84213.382    1143.5778 
   21750    290.05337   -157.64582    274545.64   -76785.944    7363.7471   -84149.691    1145.6639 
   21800    297.71846    326.40778    273834.92   -76761.605     7558.345    -84319.95      1147.04 
   21850    295.06182     24.19414    274107.39   -76736.796    7490.8995   -84227.695     1150.746 
   21900    293.12201   -193.77278    274734.68   -76756.565    7441.6524   -84198.218    1156.1608 
   21950    296.75466   -58.327324    275082.21   -76760.074    7533.8764    -84293.95    1159.6302 
   22000    290.05378   -121.29532    275102.97   -76756.404    7363.7576   -84120.162    1161.8729 
   22050    293.63631   -32.429649     274469.4     -76728.4    7454.7091    -84183.11    1163.0747 
   22100    295.84669    148.49136    273896.58   -76719.166    7510.8253   -84229.991    1164.8597 
   22150    296.46924    259.25764    274123.13   -76738.697    7526.6303   -84265.327    1169.2101 
   22200    297.08733    2.1536589    274864.28   -76692.498    7542.3223   -84234.821    1175.1245 
   22250    292.97154   -169.04896    275274.94   -76684.325    7437.8323   -84122.157    1179.0627 
   22300    294.56516   -135.22012    274981.13   -76617.814    7478.2905   -84096.105    1181.8985 
   22350    295.86107   -131.43181    274502.52   -76630.365    7511.1904   -84141.556     1183.185 
   22400    301.01825    131.33423     274327.5   -76666.912    7642.1187    -84309.03    1184.9541 
   22450      294.113   -193.48754    274602.03   -76661.013    7466.8112   -84127.825    1189.5869 
   22500    294.01391    19.144242    274823.15   -76631.979    7464.2955   -84096.275    1194.2425 
   22550    298.08888   -253.93511    274778.67   -76647.726    7567.7492   -84215.475     1196.755 
   22600    292.83496    36.416043    274675.53   -76703.153    7434.3649   -84137.517    1198.0371 
   22650    296.29819   -49.782179    274246.52   -76672.806    7522.2878   -84195.094    1197.7648 
   22700    292.91008    296.22799    273985.67    -76692.49     7436.272   -84128.762     1199.109 
   22750    295.67157   -73.959032    274362.84   -76685.429    7506.3796   -84191.809    1202.1345 
   22800    290.84032   -96.310457    274910.51   -76698.386    7383.7258   -84082.111    1206.2358 
   22850    290.36286     168.1388    274944.63   -76699.967    7371.6044   -84071.571    1208.3672 
   22900    290.02442   -119.92719    274586.82   -76721.421    7363.0122   -84084.433    1210.1637 
   22950    291.42124    2.7207166    274222.53   -76737.179    7398.4739   -84135.653    1213.1728 
   23000    290.41724    101.75677    274412.61    -76775.19    7372.9848   -84148.175    1217.9057 
   23050    293.07671   -20.051657    274724.41   -76722.364    7440.5024   -84162.866    1222.5667 
   23100     295.2889    -62.58926    274811.01   -76709.306    7496.6643    -84205.97    1225.2753 
   23150    292.89823   -310.36266    274498.42   -76712.013    7435.9711   -84147.984    1227.9864 
   23200    296.48242   -289.46027    274060.49   -76719.712     7526.965   -84246.677    1227.2145 
   23250    301.30967    138.17943    273782.46   -76746.344    7649.5171   -84395.861    1227.1305 
   23300    290.07406    50.410676    274545.54   -76763.582    7364.2724   -84127.855    1231.6413 
   23350    293.64495   -351.87498    275379.31   -76768.388    7454.9286   -84223.317    1234.7955 
   23400    294.33139   -167.50008    275408.17   -76781.669    7472.3557   -84254.024    1237.0474 
   23450    291.21445    -79.57615    274539.43   -76785.823     7393.224   -84179.047    1235.8124 
   23500    293.16922    382.73532    273798.38   -76833.405    7442.8509   -84276.256     1234.703 
   23550    295.99335    137.14701    273800.48   -76834.105    7514.5486   -84348.654    1237.2863 
   23600    296.71983   -360.95459    274400.27    -76803.74    7532.9924   -84336.733    1242.6606 
   23650    290.45288   -43.764894    274736.93   -76774.399    7373.8897   -84148.289     1247.443 
   23700    294.09261    7.7101418    274657.09   -76730.355    7466.2935   -84196.648    1250.6942 
   23750    294.19261    70.666332     274501.8   -76728.959    7468.8322   -84197.791    1254.2118 
   23800    292.32169   -104.56648    274495.91   -76693.144    7421.3341   -84114.478    1256.1236 
   23850    293.78105     154.6403     274392.5   -76714.227    7458.3839   -84172.611    1258.5916 
   23900    291.56614    -61.43866    274554.84   -76729.849    7402.1526   -84132.001    1259.7023 
   23950    293.66886    59.235474    274424.84   -76779.994    7455.5357    -84235.53    1262.4786 
   24000    292.91424   -137.87885    274279.35    -76799.42    7436.3777   -84235.798    1264.1026 
   24050    293.79253    128.56965    274310.05   -76757.222    7458.6753   -84215.898    1266.0092 
   24100    294.65958   -429.63501    274793.94   -76717.311    7480.6875   -84197.998    1268.1601 
   24150    296.10521    -275.4608    275025.63   -76738.771    7517.3886    -84256.16    1272.0642 
   24200    295.39301    176.38136    274628.18   -76767.079    7499.3076   -84266.387    1272.5756 
   24250    292.49894    43.547419     274139.1   -76790.071    7425.8342   -84215.905    1274.2446 
   24300    294.23029   -152.55245    273902.03   -76775.193    7469.7889   -84244.982    1276.0556 
   24350    294.98152   -53.149543    274132.79   -76796.885    7488.8607   -84285.745    1279.5951 
   24400    290.98772    25.078304    274509.48   -76758.151     7387.468   -84145.619    1284.1366 
   24450     291.0004   -72.161369    274879.47   -76833.428      7387.79   -84221.218    1287.3469 
   24500    292.87558   -215.40012    274891.54   -76840.093    7435.3961   -84275.489    1289.0367 
   24550    297.98227   -423.29463    274600.45    -76817.93    7565.0426   -84382.973    1289.0963 
   24600    291.42017    321.70573    274205.33   -76801.614    7398.4469   -84200.061    1291.4543 
   24650    288.29194    252.34249    273835.76    -76789.32    7319.0287   -84108.349    1293.0297 
   24700    292.24444    113.18254     273991.8   -76743.747    7419.3731    -84163.12    1296.4214 
   24750    294.41706    26.040075     274701.5    -76733.59    7474.5304   -84208.121    1301.2148 
   24800    293.08976    19.477174    275158.35   -76669.411    7440.8336   -84110.245    1303.2557 
   24850    295.26665    -215.0394    275190.82   -76637.026    7496.0996   -84133.125    1306.0268 
   24900    291.69826     230.5146    274674.59   -76613.539    7405.5069   -84019.046    1306.9286 
   24950    297.53585     47.15155    274393.62   -76662.979    7553.7089   -84216.688     1307.803 
   25000    295.32558    204.34615    274457.22   -76697.693    7497.5955   -84195.288    1310.2916 
   25050    294.39884     129.8648    274341.64   -76731.719    7474.0681   -84205.787    1312.5796 
   25100     291.7154    499.98963    274284.23   -76679.725    7405.9419   -84085.667    1313.8483 
   25150    293.52508    135.26951       274666   -76718.433    7451.8854   -84170.318    1317.1378 
   25200    287.26437   -189.55447    275145.99   -76733.011    7292.9411   -84025.952    1320.4308 
   25250    286.84259    114.46725    274934.51   -76776.887    7282.2332    -84059.12    1320.9147 
   25300    292.11347    219.84307    274562.73   -76820.847     7416.048   -84236.895     1322.761 
   25350    292.70933   -154.97225    274332.84   -76857.987    7431.1754   -84289.162    1324.5557 
   25400    284.84255    134.85187    274294.78   -76874.057     7231.457   -84105.514    1326.9512 
   25450    289.09044   -178.59403    274495.29    -76819.21    7339.3007    -84158.51    1330.7184 
   25500    293.37631   -150.14771    274658.86   -76823.914    7448.1084   -84272.022    1334.4058 
   25550    294.14902   -346.40739    275001.99    -76859.95    7467.7257   -84327.676    1338.2913 
   25600     290.9624   -308.91919    275029.52   -76868.694    7386.8253   -84255.519    1340.9998 
   25650    295.96298   -44.509826    274560.97   -76882.531    7513.7778   -84396.308    1343.7779 
   25700    291.45736   -94.097307     274297.9   -76856.483    7399.3911   -84255.874    1346.5317 
   25750    291.98072    159.33704    274150.29   -76857.845    7412.6779   -84270.523    1349.5279 
   25800     293.0663   -333.15846    274460.43   -76860.097     7440.238   -84300.335    1353.9013 
   25850     292.5694   -222.42961    274609.57   -76850.918     7427.623   -84278.541    1356.9282 
   25900    289.86616   -7.7095693    274585.99   -76798.419    7358.9943   -84157.413     1359.587 
   25950    290.37099   -238.13097     274384.6    -76832.57    7371.8106   -84204.381     1363.247 
   26000    287.51118    345.05787    274059.88   -76812.745    7299.2071   -84111.952     1367.436 
   26050    287.34819    395.67015    274213.61   -76888.846    7295.0691   -84183.915    1370.2858 
   26100    290.60393   -179.96465    274758.41   -76923.654    7377.7245   -84301.379    1374.4897 
   26150    288.66046   -100.20034    274903.52   -76914.243    7328.3845   -84242.628    1378.4086 
   26200    287.26739   -29.370076       274455   -76901.088    7293.0178   -84194.106    1379.2111 
   26250    293.17445   -33.019289     273866.1   -76895.578    7442.9836   -84338.562    1381.2886 
   26300    290.28697     287.8803    273623.38    -76920.88    7369.6777   -84290.558    1381.9283 
   26350    289.78564    2.9035082    274242.87   -76940.356    7356.9502   -84297.306    1385.8299 
   26400    289.55523    -216.7521    274928.03   -76936.955    7351.1004   -84288.056    1391.6071 
   26450    289.53704   -317.64475    275229.25   -76890.392    7350.6387    -84241.03    1395.8484 
   26500    289.07215   -166.75244    274536.38   -76895.342    7338.8364   -84234.179    1395.4722 
   26550    290.67607    168.07762    273701.27   -76887.189    7379.5559   -84266.745    1394.5557 
   26600    291.95487    190.47681    273571.64   -76901.299    7412.0215   -84313.321    1395.9866 
   26650    291.01153   -87.238003    274058.23   -76895.254    7388.0725   -84283.327    1399.9215 
   26700    291.52464   -70.286894    274797.32   -76865.715     7401.099   -84266.814    1406.7689 
   26750    291.96822   -180.57215    275056.75   -76870.478    7412.3605   -84282.839    1411.1198 
   26800     291.9135    155.57469    274599.75   -76918.833    7410.9714   -84329.805    1411.6692 
   26850    290.87429    28.045198    274192.46   -76912.843    7384.5883   -84297.432    1413.3822 
   26900    294.36915    237.17396     274116.5   -76870.033    7473.3143   -84343.348     1414.812 
   26950    284.30938   -212.86019    274667.93   -76898.015    7217.9212   -84115.937    1418.6091 
   27000    291.49295   -68.827652     274787.1   -76905.704    7400.2946   -84305.999    1421.8817 
   27050    288.48535   -9.9454193    274461.78   -76921.934     7323.939   -84245.873    1422.6032 
   27100    290.23492    28.914279    274303.36   -76889.769    7368.3562   -84258.125    1425.1462 
   27150    290.23262    8.3127539     274493.3   -76917.716    7368.2978   -84286.014    1428.3971 
   27200      288.171   -40.964337    274741.49   -76892.761    7315.9582    -84208.72    1434.1558 
   27250    292.30267    214.30217    274579.97   -76884.777    7420.8513   -84305.628    1436.5467 
   27300    284.62243    36.414486    274368.54   -76883.024    7225.8689   -84108.893    1437.3416 
   27350    292.10511    457.21622    274340.52   -76855.494    7415.8358    -84271.33    1439.9739 
   27400    294.86564    16.594589    274776.96   -76818.851     7485.919    -84304.77    1443.8403 
   27450    291.02691   -183.08651    275225.85   -76847.656    7388.4628   -84236.119    1446.5603 
   27500    291.57425   -237.47871    275085.51   -76826.441    7402.3586   -84228.799    1447.7989 
   27550     294.0349    216.48101    274307.47   -76828.093    7464.8284   -84292.922    1446.4909 
   27600    295.12909    464.30316    273690.27   -76833.718    7492.6072   -84326.325    1445.5957 
   27650    289.74024    60.872009    273837.26   -76861.201    7355.7976   -84216.999    1448.5823 
   27700     290.6923   -146.68649    274413.68   -76876.479     7379.968   -84256.447    1454.4834 
   27750    290.43606   -426.48037    274873.75   -76839.485    7373.4628   -84212.947    1460.5887 
   27800    288.94113    15.694781    274827.76   -76846.023      7335.51   -84181.533    1461.5168 
   27850     293.0824   -61.403716    274638.54   -76806.901    7440.6468   -84247.547    1463.6269 
   27900     293.4981   -184.76452    274390.92   -76830.581    7451.2005   -84281.782    1464.0111 
   27950    293.74618    305.39196    273971.85   -76842.331    7457.4986    -84299.83    1464.5849 
   28000    293.55934    128.18555    274105.31   -76845.402    7452.7551   -84298.158    1466.6141 
   28050    288.43201   -166.05551    274656.86    -76830.25    7322.5847   -84152.834    1471.8486 
   28100    294.51588   -285.98306    274973.95   -76854.094    7477.0393   -84331.133    1476.6417 
   28150    288.67148   -72.930841    274606.28   -76833.498    7328.6642   -84162.162    1477.6143 
   28200    287.94961    52.120095    274225.42   -76840.145    7310.3377   -84150.483    1478.9861 
   28250     291.1594    26.032436    274232.52   -76903.822    7391.8264   -84295.648    1481.5367 
   28300    287.04505   -112.78488    274463.07   -76891.054    7287.3732   -84178.427    1486.7475 
   28350    294.89495    -174.4087    274665.35    -76891.86    7486.6629   -84378.523    1490.4533 
   28400    289.56085    267.75811     274811.5   -76842.493    7351.2431   -84193.737    1493.6718 
   28450    293.08263   -27.723452    275125.85    -76834.42    7440.6525   -84275.072     1495.063 
   28500    288.37393   -17.112618    274985.83    -76843.99    7321.1103     -84165.1    1496.6666 
   28550    289.75159   -77.273233    274344.33   -76858.144    7356.0856    -84214.23    1496.8547 
   28600     291.4555    453.48831    273781.34   -76846.615    7399.3438   -84245.958       1497.5 
   28650    292.02915    295.86326    274049.96   -76868.515    7413.9072   -84282.422    1499.9744 
   28700    289.38706   -544.17817    274878.63   -76871.228    7346.8311   -84218.059    1507.7167 
   28750    292.10126   -62.642614    274950.52   -76873.878    7415.7381   -84289.616    1510.2591 
   28800    292.30284    93.209436     274364.5   -76890.191    7420.8557   -84311.047    1509.6227 
   28850    294.39233    300.63973    273790.09   -76867.077    7473.9027    -84340.98    1507.8097 
   28900    292.53404    18.508046    273942.95   -76912.793    7426.7252   -84339.518    1512.5271 
   28950    291.28275   -79.352144    274474.92   -76937.251    7394.9581   -84332.209    1517.1595 
   29000    286.19361    15.738352    274775.32   -76951.817    7265.7571   -84217.574    1518.6873 
   29050     290.5231    253.11259    274546.59   -76944.264    7375.6725   -84319.936    1520.3447 
   29100    285.96758    294.81795    274031.11   -76966.459    7260.0189   -84226.478    1522.3513 
   29150    286.83233     385.7019    273826.89   -76960.902    7281.9727   -84242.875    1524.7729 
   29200    288.37015    158.10953    274378.46   -76976.336    7321.0144    -84297.35    1530.6222 
   29250    286.87725   -79.994953    274932.13   -76988.771    7283.1131   -84271.884    1534.2515 
   29300    284.93001   -76.563664    274918.64   -77009.084    7233.6774   -84242.762    1536.6055 
   29350    287.78394    122.53623    274419.54   -76996.747    7306.1318   -84302.879      1537.44 
   29400    288.35635    228.24538    274214.99   -76971.479    7320.6638   -84292.142    1538.4571 
   29450    287.91627     195.6847    274393.01   -76947.229    7309.4913    -84256.72    1541.4458 
   29500    287.95721    13.357858    274742.93   -76917.639    7310.5308    -84228.17    1544.8164 
   29550    291.00961   -34.661795     274820.4   -76866.682    7388.0238   -84254.705    1545.1807 
   29600    285.10611   -101.36254    274556.53   -76866.867    7238.1482   -84105.015    1546.2966 
   29650    289.10281    199.30213    274062.23   -76845.712    7339.6147   -84185.327    1546.6539 
   29700    292.32927    207.98094    274185.72   -76850.021    7421.5266   -84271.548    1550.4673 
   29750    288.71054    45.460789    274754.13   -76796.804    7329.6559    -84126.46    1556.4147 
   29800    295.51812    -242.5282    275178.81   -76774.059    7502.4837   -84276.543     1559.588 
   29850    290.13788   -134.44938    274875.74   -76732.796    7365.8927   -84098.688    1557.4357 
   29900    294.34125    319.90793     274059.6   -76746.358    7472.6059   -84218.964    1557.0073 
   29950    296.64649    391.87194    273882.67   -76752.532    7531.1304   -84283.663    1559.6198 
   30000    294.57371   -237.34191     274624.6   -76726.738    7478.5074   -84205.246    1566.5916 
   30050    299.07741    -361.9716    275156.19   -76727.198    7592.8455   -84320.044    1570.5404 
   30100    290.18819     -120.436    274985.74   -76734.297    7367.1699   -84101.467    1572.3307 
   30150    288.87003    78.057952    274531.78   -76719.201    7333.7049   -84052.906    1575.3282 
   30200    293.38804    141.91255       274207   -76754.784    7448.4063    -84203.19    1576.6666 
   30250    296.16613    157.19292    274268.83   -76775.792    7518.9352   -84294.727     1578.811 
   30300    289.94558   -86.312958    274645.97   -76823.773    7361.0105   -84184.783    1584.1401 
   30350    289.83735   -98.702446    274923.76   -76845.523    7358.2629   -84203.786    1591.1783 
   30400    293.60148    7.9626594     275015.1   -76873.083    7453.8248   -84326.907    1595.0869 
   30450    294.52693   -26.884907    274674.85   -76909.691    7477.3198   -84387.011    1593.1822 
   30500      290.932   -7.0415919    274114.03   -76904.768    7386.0535   -84290.822    1591.4719 
   30550    295.03146    9.1493469    273961.95   -76837.428    7490.1286   -84327.556    1592.6422 
   30600    292.54689    151.63496    274028.03   -76815.632    7427.0514   -84242.683    1595.6146 
   30650    293.31351   -61.913742    274690.08   -76778.733    7446.5141   -84225.247    1600.3825 
   30700    292.72783   -187.94297    275060.68   -76776.944     7431.645   -84208.589    1606.2433 
   30750    293.85799   -5.5102247    275040.14   -76763.472    7460.3371    -84223.81    1610.5671 
   30800    292.62802    44.025718    274677.93   -76766.404    7429.1113   -84195.515    1610.8531 
   30850    294.95638    126.65404     274132.6   -76729.313    7488.2225   -84217.535    1609.7637 
   30900    297.31934   -58.816956    274085.74   -76713.889    7548.2124   -84262.101    1613.4278 
   30950    294.00193    90.958475    274344.42    -76755.03    7463.9915   -84219.021    1619.4814 
   31000    288.74383   -28.080037    274651.11   -76755.337    7330.5011   -84085.838    1625.1787 
   31050     292.8819   -91.593113    274896.36   -76787.811    7435.5566   -84223.368     1627.779 
   31100    298.47306   -400.08802    275015.13   -76756.981    7577.5026   -84334.484    1630.4115 
   31150    291.03962   -78.331549    274698.77   -76720.911    7388.7856   -84109.697    1631.5734 
   31200    287.90939    46.366302    274411.56   -76746.671    7309.3167   -84055.988    1634.1479 
   31250    289.59664   -119.23919    274277.74   -76767.382    7352.1519   -84119.534    1637.7308 
   31300    292.04426   -24.528228    274423.57   -76758.058    7414.2909   -84172.349    1642.7134 
   31350    292.59248   -244.63108    274445.12    -76770.63    7428.2089   -84198.839     1646.352 
   31400    297.83815    34.853505    274274.18   -76786.785    7561.3836   -84348.168    1647.5886 
   31450    294.18426    218.50598    274399.26   -76790.334    7468.6204   -84258.955    1649.4988 
   31500    293.16465   -239.13299    274858.49   -76838.478    7442.7348   -84281.212     1652.515 
   31550    288.72277   -219.98033    275205.62   -76895.261    7329.9664   -84225.228    1656.6652 
   31600    290.45063    45.088229    275030.31   -76844.601    7373.8325   -84218.433    1658.2495 
   31650    292.66176    107.86842    274653.84   -76822.424    7429.9677   -84252.391    1659.9263 
   31700    293.69662    140.86853    274298.17   -76787.419    7456.2404   -84243.659    1662.0978 
   31750    293.00988    57.271698    274504.49   -76760.218    7438.8056   -84199.024    1664.1076 
   31800    292.63408   -314.14032    275037.94   -76816.369    7429.2649   -84245.634    1667.8336 
   31850    295.87548   -169.24469    274829.37   -76799.317    7511.5561   -84310.873    1670.2689 
   31900    295.37536    60.425496    274552.31   -76785.455    7498.8595   -84284.314    1669.4903 
   31950    295.46773    3.3268847     274714.1   -76772.348    7501.2046   -84273.553    1670.6295 
   32000    291.69669   -359.05071    274739.52    -76761.53    7405.4671   -84166.997    1670.6126 
   32050    294.10112    321.97148    274276.31   -76783.537    7466.5097   -84250.047    1669.2846 
   32100    294.93578   -54.473212    274205.21   -76800.892    7487.6995   -84288.592    1672.8551 
   32150    287.06213    112.75835    274404.38   -76838.855    7287.8068   -84126.662    1675.4988 
   32200    290.04143    44.525035    274963.13   -76852.729    7363.4441   -84216.173    1678.8714 
   32250     292.3642   -29.982506    275424.89   -76785.353    7422.4136   -84207.767    1682.1962 
   32300    291.64764   -93.745849    275447.22    -76781.75    7404.2216   -84185.972    1685.8635 
   32350    291.84557   -225.42394    274719.45   -76822.944    7409.2466   -84232.191    1685.6419 
   32400    291.82211   -74.079414    273922.44   -76860.742     7408.651   -84269.393    1685.2542 
   32450    288.36969    172.14467    273745.17   -76813.649    7321.0027   -84134.652     1685.753 
   32500    298.87038   -23.857935    274397.18   -76808.235    7587.5895   -84395.825    1690.3143 
   32550    291.35702   -62.650068     275158.2   -76791.607    7396.8435   -84188.451     1694.922 
   32600    290.13143   -152.01172    275281.75    -76815.13    7365.7288   -84180.859    1696.1604 
   32650    291.58947    22.107882     274617.4   -76804.868     7402.745   -84207.613    1695.4077 
   32700    293.21837     123.9959    274167.52   -76807.683    7444.0988   -84251.782    1695.7396 
   32750    292.38721   -93.366935    274067.63   -76823.559    7422.9975   -84246.556    1697.5013 
   32800    292.20044     201.4343    274372.82   -76796.866    7418.2559   -84215.122    1702.5541 
   32850    293.08621   -19.382937     275031.6   -76793.692    7440.7434   -84234.435     1707.641 
   32900    294.69547     -289.398    275279.49   -76772.193    7481.5986   -84253.791    1708.2811 
   32950    293.47953   -142.56716     274791.2   -76789.009    7450.7289   -84239.738    1706.9413 
   33000    291.43488   -29.049164    274039.68    -76797.37    7398.8203   -84196.191    1704.4122 
   33050    298.00528    46.898964    273421.72   -76790.676    7565.6266   -84356.302    1703.4191 
   33100    289.92088    192.74787    273688.01   -76795.853    7360.3834   -84156.236     1707.974 
   33150    289.25633    -129.6646    274713.52   -76776.079    7343.5122   -84119.592    1713.4503 
   33200    289.86664   -172.23446    275462.08   -76801.153    7359.0064   -84160.159    1719.8655 
   33250    292.16306   -241.78849    275306.62   -76750.477     7417.307   -84167.784    1721.4862 
   33300    297.23048     -91.2088    274639.26   -76732.462    7545.9565   -84278.419    1722.9683 
   33350    292.51542    160.53088    274112.34   -76729.318    7426.2526   -84155.571    1725.0402 
   33400    290.81175    81.705142    273985.97   -76731.724    7383.0004   -84114.724    1727.0199 
   33450    294.96005     175.1394    274301.12   -76710.169    7488.3158   -84198.484    1731.5766 
   33500    290.82088   -267.35657    274948.21   -76669.361    7383.2322   -84052.593    1737.0904 
   33550    295.54836    44.403081    275049.94   -76617.466    7503.2515   -84120.717    1742.1759 
   33600    298.27759   -260.91433    274887.43    -76631.28    7572.5399    -84203.82    1747.3795 
   33650    297.48804   -100.35714    274567.16   -76624.244    7552.4952   -84176.739    1748.4796 
   33700    301.32397    14.012085    274405.45   -76639.767      7649.88   -84289.647    1748.2255 
   33750    292.42962     87.08355    274583.14   -76682.779    7424.0743   -84106.853    1751.1548 
   33800    288.97623    139.38692    274739.97   -76704.034    7336.4011   -84040.435    1753.9154 
   33850    293.76121   -384.35895    274956.75   -76750.439    7457.8802   -84208.319    1756.7574 
   33900    295.00686   -289.24462    274693.01   -76741.831    7489.5042   -84231.335    1757.9566 
   33950    290.99563    139.47931    274413.51    -76746.04    7387.6688   -84133.709    1760.4177 
   34000      290.088   -135.52169    274470.67   -76743.218    7364.6263   -84107.844     1765.279 
   34050    295.04052   -103.62384    274603.47   -76786.206    7490.3587   -84276.565    1768.7596 
   34100    292.16425    156.07038    274635.76   -76794.028    7417.3373   -84211.365    1770.4329 
   34150    290.21846   -61.058081    274549.89   -76815.992    7367.9384    -84183.93    1774.2144 
   34200    289.47723   -11.683348    274336.42   -76798.528    7349.1202   -84147.648    1776.2031 
   34250    288.34876   -118.72135    274270.33   -76875.438    7320.4711   -84195.909    1777.0323 
   34300    290.53832    -218.3812    274592.34   -76899.601    7376.0588    -84275.66    1781.5884 
   34350    286.33844   -39.281521    274668.15   -76867.152     7269.434   -84136.586    1783.8969 
   34400    289.68967   -152.62294    274546.65   -76918.571    7354.5136   -84273.085    1786.0152 
   34450    290.72041     254.1361    274354.49   -76887.986    7380.6816   -84268.668    1787.7263 
   34500    286.63265    105.80841    274718.74   -76920.502    7276.9034   -84197.406    1790.2691 
   34550    288.07775   -156.09113    274898.57    -76869.27    7313.5909   -84182.861     1792.237 
   34600    291.85783    114.58503    274466.18   -76851.015    7409.5581   -84260.573    1792.0915 
   34650    289.69328   -114.09004    274482.34   -76847.987    7354.6053   -84202.592    1795.5639 
   34700    293.85673    104.00138    274763.96   -76824.502    7460.3051   -84284.807    1798.7271 
   34750    291.29531   -4.7899287    275032.32   -76926.978    7395.2769   -84322.254    1802.6712 
   34800    283.94016   -191.86759    274898.68    -76904.12    7208.5475   -84112.667     1804.442 
   34850    290.80178    18.650358    274194.08    -76934.57    7382.7475   -84317.317    1805.0393 
   34900    288.50779    558.19841    273449.06   -76913.494    7324.5085   -84238.002    1802.4856 
   34950    290.37859     208.7952    273691.24   -76938.955    7372.0037   -84310.959    1805.3258 
   35000    286.54471    46.322888    274352.85   -76916.137    7274.6707   -84190.808    1810.3278 
   35050    285.96526    218.66103    274819.77   -76952.397    7259.9598   -84212.357    1813.5828 
   35100    291.05486   -531.22801    275051.17   -76941.415    7389.1724   -84330.588    1816.7954 
   35150    289.42463    143.89332    274565.91   -76931.754     7347.785   -84279.539    1815.7413 
   35200    293.58989    220.91204    274082.49   -76908.608    7453.5307   -84362.139    1816.1464 
   35250    292.50686    205.82301    274051.68   -76921.531    7426.0351   -84347.567    1819.0295 
   35300    290.76774   -223.44768    274550.04   -76853.857    7381.8832    -84235.74    1823.9514 
   35350    287.02084   -94.545959    274798.25   -76850.409    7286.7587   -84137.168    1829.1683 
   35400    289.58543   -272.03276    274574.55   -76822.338    7351.8672   -84174.205     1829.969 
   35450    293.37011    40.867398    274275.08   -76862.151    7447.9512   -84310.102    1829.8015 
   35500     288.9125    -23.21449    274218.81   -76868.707    7334.7832   -84203.491    1830.7047 
   35550    292.75663    1.7688578    274378.34   -76882.154    7432.3764    -84314.53    1833.6111 
   35600    292.64962   -143.54166    274563.24   -76821.487    7429.6595   -84251.146    1835.3628 
   35650    287.98747    32.744341    274462.77   -76823.252     7311.299   -84134.551    1837.2444 
   35700    292.13614    59.484312    274338.13   -76834.999    7416.6234   -84251.622    1839.1502 
   35750    285.42927    91.323408    274383.35   -76813.898    7246.3525    -84060.25    1842.9291 
   35800    290.90078    13.421654    274648.19   -76814.508    7385.2608   -84199.769     1847.189 
   35850    287.05127      93.0507    274620.64    -76815.81    7287.5312   -84103.341    1848.9432 
   35900    296.88065   -52.209262    274559.77   -76777.291     7537.075   -84314.366    1851.1344 
   35950    296.37583    58.851078    274608.95   -76802.434     7524.259   -84326.694    1852.8325 
   36000     294.3223    60.172648    274726.95   -76803.045    7472.1249    -84275.17    1854.7562 
   36050    294.45391   -158.08912     274641.1   -76859.963    7475.4661   -84335.429    1858.6828 
   36100    291.31263    140.13347    274388.04   -76812.865    7395.7166   -84208.581    1860.7635 
   36150    292.99308    276.31599    274122.07   -76830.673    7438.3792   -84269.052    1863.2234 
   36200    290.17419   -11.600788     274351.4   -76859.426    7366.8143    -84226.24    1868.6719 
   36250    289.90823    153.40103    274862.87   -76881.057    7360.0624   -84241.119    1873.6526 
   36300    290.74445   -85.689372    274932.59   -76893.541    7381.2919   -84274.832    1875.7098 
   36350    290.33205   -270.02077    274570.44   -76901.947    7370.8222   -84272.769    1875.3268 
   36400     293.0191    192.31254    274163.53   -76909.251    7439.0398    -84348.29    1874.0987 
   36450    292.51111     1.492321    274023.59   -76851.782    7426.1432   -84277.925    1874.4485 
   36500    292.78913    126.53546    274021.57   -76791.563    7433.2014   -84224.764    1876.6301 
   36550    289.51025    79.703952    274276.25   -76796.503    7349.9586   -84146.461    1881.7549 
   36600    289.93511   -224.84107    274810.16   -76862.303    7360.7447   -84223.048    1884.1384 
   36650    287.41309    239.09145    274854.59   -76871.943    7296.7168    -84168.66    1884.7042 
   36700     286.8429   -75.026224    274706.25   -76904.956     7282.241   -84187.197    1885.3445 
   36750     289.9966    303.70342    274354.33   -76903.431    7362.3059   -84265.737    1886.3794 
   36800    288.80045    104.88785    274143.03   -76909.269    7331.9385   -84241.208    1886.5629 
   36850    294.18676   -37.671366    274255.32   -76901.903    7468.6838   -84370.587    1891.2323 
   36900    293.88615    -15.17839    274490.25   -76892.871     7461.052   -84353.923    1893.9234 
   36950    291.99875    62.575701    274509.12   -76903.391    7413.1356   -84316.527    1894.7578 
   37000    287.31132   -66.158261    274307.91   -76907.185     7294.133   -84201.318      1896.52 
   37050    291.04855    151.27493    273930.59   -76899.737    7389.0122   -84288.749    1896.1968 
   37100    290.02839    136.92161    273821.57   -76831.022     7363.113   -84194.135    1899.0663 
   37150    295.60715    179.93249    274089.89   -76821.467    7504.7441   -84326.211    1902.1319 
   37200    291.25009   -123.22854    274918.76   -76834.764     7394.129   -84228.893    1908.2157 
   37250    288.58573   -46.631062     275377.5   -76851.188    7326.4874   -84177.676    1912.4684 
   37300    289.99029   -257.23626     275142.7   -76883.284    7362.1456   -84245.429    1913.5058 
   37350    292.23703    120.40834    274192.38   -76857.166     7419.185   -84276.351    1911.2568 
   37400     296.1903    187.95141    273541.63   -76826.937    7519.5487   -84346.485    1909.0697 
   37450    293.60387    213.69343    273920.36   -76817.194    7453.8857    -84271.08    1912.7523 
   37500    293.10599    -223.8332    274756.22    -76781.24    7441.2457   -84222.486    1917.9178 
   37550    290.11186    13.480285    275145.96   -76843.115    7365.2319   -84208.347    1921.9784 
   37600    287.63324   -288.41128    275110.43   -76854.115     7302.306   -84156.421    1922.8317 
   37650    292.24245  -0.80654831    274515.48   -76861.699    7419.3226   -84281.022    1923.9114 
[...]
   90850    286.40735   -87.101692    274594.64   -76947.073    7271.1835   -84218.256    4485.1427 
   90900    286.03531    26.858126    274267.85   -76934.679    7261.7385   -84196.417    4485.6547 
   90950    290.86216   -3.2960179     273877.7   -76934.418    7384.2802   -84318.698    4482.6532 
   91000    285.17124    30.243388    273980.26   -76958.809    7239.8018    -84198.61    4487.0116 
   91050    290.48418   -219.71522     274432.9   -76993.892    7374.6843   -84368.577    4492.5306 
   91100    286.80758   -16.684824    274680.07   -76941.581    7281.3443   -84222.925     4498.474 
   91150    292.60232   -92.717678     274811.6    -76908.25    7428.4587   -84336.709    4502.6799 
   91200    291.99463    42.556118    274619.22   -76926.814    7413.0309   -84339.845    4503.0388 
   91250    293.39691   -222.43226    274631.37   -76888.199    7448.6313    -84336.83    4509.2494 
   91300    288.82007   -295.22442    274494.55   -76896.496    7332.4366   -84228.933    4511.0125 
   91350    294.65907    229.51022    274172.18   -76915.102    7480.6747   -84395.777     4509.339 
   91400    284.47432    133.79835    274310.75    -76935.16    7222.1086   -84157.269    4514.5551 
   91450    289.77953   -89.541308    274468.02   -76879.723    7356.7949   -84236.518    4519.9767 
   91500    289.76628    50.260825    274473.08   -76932.618    7356.4586   -84289.077    4521.7821 
   91550    291.48446   -195.15143       274465   -76892.545     7400.079   -84292.624    4524.8848 
   91600    288.85228    373.91114    274111.76   -76909.925    7333.2544   -84243.179    4524.0585 
   91650     289.0701    213.84939    274061.53   -76878.046    7338.7842   -84216.831    4526.4262 
   91700    293.91487   -14.825118       274462   -76902.311    7461.7812   -84364.092    4536.5034 
   91750    287.33979    183.87353     274789.1   -76872.627     7294.856   -84167.483    4543.9363 
   91800    291.49158   -150.46041    274745.31   -76895.362    7400.2598   -84295.622    4544.9767 
   91850    289.70746     72.86267    274156.22   -76892.766    7354.9653   -84247.731    4545.1173 
   91900    291.07976    325.67641    273838.19   -76868.826    7389.8046   -84258.631    4548.2081 
   91950    291.22768    235.02862    274054.48   -76859.371    7393.5601   -84252.931    4554.2127 
   92000    288.16474   -412.66933    274600.62    -76915.03    7315.7993    -84230.83    4561.3207 
   92050    293.16448     117.1707    274811.48   -76937.102    7442.7306   -84379.832    4568.6434 
   92100    292.76009   -320.30357    274838.45    -76908.14    7432.4641   -84340.604    4569.2783 
   92150    290.35619   -110.12352    274490.94   -76936.852     7371.435   -84308.287     4567.733 
   92200    288.27956   -163.35092    274134.98   -76903.231    7318.7145   -84221.946    4566.6098 
   92250    289.80441   -67.848964    274041.69   -76873.231    7357.4266   -84230.658    4569.5194 
   92300    292.73399   -64.201155     274195.5   -76868.032    7431.8015   -84299.833    4574.2769 
   92350    292.85215   -100.12477    274536.32   -76834.799    7434.8013     -84269.6    4580.5117 
   92400    287.72367   -120.02386    274887.71   -76852.312    7304.6017   -84156.914    4589.1538 
   92450    295.74116   -148.95164    275074.46   -76869.084    7508.1461    -84377.23     4595.006 
   92500    285.87557   -74.960474    274642.21   -76911.397    7257.6829    -84169.08    4596.0851 
   92550    289.59537     23.05889    274150.84   -76945.533    7352.1196   -84297.652    4590.2344 
   92600    294.12289    154.61364    273987.75   -76922.463    7467.0622   -84389.526    4588.9203 
   92650    287.10686    193.65547    274206.74   -76888.385    7288.9424   -84177.327    4594.7104 
   92700    287.90996    83.197819    274526.71   -76890.894    7309.3313   -84200.225     4601.676 
   92750     290.5141    132.36507    274711.15   -76862.393    7375.4439   -84237.837    4607.9561 
   92800    287.86126    -4.991345    274724.26    -76853.12    7308.0948   -84161.215    4611.2056 
   92850      294.177    -14.60633    274454.06   -76818.657     7468.436   -84287.093    4609.9064 
   92900    295.33873    233.73555    274441.65    -76808.89    7497.9294    -84306.82    4612.0114 
   92950    289.35509   -228.99943    274869.42   -76778.519    7346.0195   -84124.538    4615.5319 
   93000    291.83644    168.11315    275028.22   -76714.641     7409.015   -84123.656    4617.0575 
   93050    292.42481   -239.41775    275074.53   -76690.337    7423.9523   -84114.289    4621.0698 
   93100    294.60129   -47.833024     274595.5   -76722.312    7479.2078    -84201.52    4615.8159 
   93150     294.8726    265.10968    274071.31   -76762.757    7486.0956   -84248.852    4610.9425 
   93200    294.33372   -13.518887    274443.14   -76814.781    7472.4148   -84287.196    4612.4993 
   93250    288.43537    -17.31714    274934.16   -76806.859      7322.67   -84129.529    4618.3629 
   93300    295.58802   -458.06127    274817.31   -76797.388    7504.2583   -84301.646    4618.0413 
   93350    292.53781    143.90984    274280.02   -76813.188     7426.821   -84240.009     4614.513 
   93400    294.04552    456.62565    274224.53   -76777.147     7465.098   -84242.245    4617.0059 
   93450    294.61247    141.78041    274829.47   -76794.372    7479.4915   -84273.863    4627.7089 
   93500     291.9411    -61.52106    274904.07   -76818.657     7411.672   -84230.329    4633.4574 
   93550    285.67302    163.58405     274742.8   -76767.969    7252.5407    -84020.51    4634.5077 
   93600     295.7843    95.711865    274456.56   -76760.253    7509.2415   -84269.494    4632.7057 
   93650    293.35825    133.24217     274344.3   -76741.086      7447.65   -84188.736    4632.4045 
   93700    291.03963   -64.186653    274469.07   -76700.817    7388.7859   -84089.603    4633.8113 
   93750    291.93948    18.629983    274711.45   -76748.065    7411.6307   -84159.696    4636.9369 
   93800    290.46333     30.75457    274907.81   -76769.261    7374.1551   -84143.416    4639.8958 
   93850    294.32194    54.625601    274886.22   -76776.133    7472.1156   -84248.249     4642.106 
   93900    293.28405     3.226298    274644.24   -76764.764    7445.7662    -84210.53    4639.1522 
   93950    294.18841    30.995601     274289.8   -76765.433    7468.7257   -84234.159    4635.4234 
   94000    292.61039   -98.225945    274413.26   -76813.787    7428.6636    -84242.45    4635.7489 
   94050    288.86604    126.02563    274743.48   -76880.637    7333.6037   -84214.241    4643.6084 
   94100    289.41684   -151.51234    275064.92   -76893.775    7347.5871   -84241.362    4649.2163 
   94150    289.86728    50.047954    274829.67    -76923.94    7359.0227   -84282.963     4649.541 
   94200    286.25516    385.79226    274257.17   -76889.258    7267.3198   -84156.578    4644.3995 
   94250    294.68113    24.839421    274131.03    -76847.76    7481.2347   -84328.995     4645.968 
   94300    294.29256    242.63523    274339.64   -76851.538    7471.3699   -84322.908    4649.5722 
   94350    286.53146    117.72486    274665.73   -76864.528    7274.3343   -84138.862    4659.2012 
   94400    286.90548   -249.70545    274817.72   -76861.367    7283.8299   -84145.197    4661.7957 
   94450    291.32434   -184.95361    274270.35   -76855.631    7396.0139   -84251.645    4657.5167 
   94500    293.85503    135.88841    273920.55   -76881.793    7460.2619   -84342.055    4654.7903 
   94550     293.5569    42.433155    274477.74   -76868.209    7452.6931   -84320.902    4663.5588 
   94600    288.16626   -127.82621    274760.71   -76847.438    7315.8379   -84163.276    4669.6589 
   94650    288.73259   -30.178146    274410.14   -76858.812    7330.2158   -84189.028    4669.9083 
   94700    290.63346    266.19827    274177.52   -76839.009    7378.4743   -84217.484    4671.8572 
   94750    295.84914    18.893464    274225.88   -76895.187    7510.8874   -84406.074    4675.9241 
   94800    290.30703   -64.447492    274554.56   -76934.254    7370.1868    -84304.44    4681.1451 
   94850    290.07935    182.09734    274781.18   -76977.674    7364.4067    -84342.08    4687.5031 
   94900    285.43002    13.459857    274734.42   -76972.737    7246.3716   -84219.109    4688.7305 
   94950    290.91479   -24.302536    274148.68   -76933.294    7385.6164    -84318.91    4685.4918 
   95000     293.8272      194.751    273690.74   -77004.826    7459.5554   -84464.382    4680.9936 
   95050    286.89636    289.25683    273920.45   -77024.819    7283.5983   -84308.418    4684.0668 
   95100    287.92877    29.638451    274499.25   -76991.512    7309.8087   -84301.321    4694.4345 
   95150    287.31314   -107.25904    274693.19   -76952.979    7294.1795   -84247.159    4696.4678 
   95200    288.66807    7.4262931    274523.97    -76975.77    7328.5778   -84304.348    4699.2351 
   95250    287.13896   -221.71109    274319.18   -76989.349    7289.7572   -84279.106    4698.1351 
   95300    285.19675     -37.9118    274247.96   -77017.324    7240.4495   -84257.773    4698.1316 
   95350    285.92701    245.53354    274193.03   -77018.528     7258.989   -84277.517    4698.2004 
   95400    288.70286   -61.095459     274137.2   -76966.623     7329.461   -84296.084    4701.3671 
   95450     288.7602   -149.92675    274150.64   -76957.737    7330.9167   -84288.654     4703.097 
   95500     290.2481    218.42873    274347.13   -76932.745    7368.6909   -84301.436    4706.7136 
   95550    292.85712   -218.71911     274724.9   -76880.431    7434.9275   -84315.358    4716.8988 
   95600    287.86444   -174.82498    274604.72   -76882.831    7308.1756   -84191.007    4717.0093 
   95650    297.42063   -44.308153    274214.25   -76860.914    7550.7838   -84411.698     4713.779 
   95700    292.77621    259.56894    274129.88   -76854.966    7432.8734   -84287.839    4719.0156 
   95750    287.81159    302.93537    274277.17   -76853.244    7306.8337   -84160.078     4724.535 
   95800    287.13386   -60.070801    274633.42   -76841.327    7289.6277   -84130.955    4730.4078 
   95850    290.13471     152.1353    274775.71   -76827.051    7365.8121   -84192.863    4735.9389 
   95900    291.55103   -7.0015532    274837.08   -76830.305     7401.769   -84232.074    4736.2222 
   95950    292.94539    103.38218    274627.11   -76814.052    7437.1685    -84251.22     4734.124 
   96000    290.56808   -69.156788    274380.37   -76807.457    7376.8144   -84184.271     4735.035 
   96050    294.77609   -287.31366    274183.51   -76802.707    7483.6454   -84286.352     4735.604 
   96100    291.40547   -69.195009    274162.46   -76868.338    7398.0737   -84266.412    4737.3587 
   96150    290.99085   -32.198133    274524.63   -76889.583    7387.5475    -84277.13    4743.2097 
   96200     289.9216   -174.14996    274766.38   -76876.634    7360.4017   -84237.036    4747.6804 
   96250    291.14613    78.284782    274426.88   -76903.998    7391.4896   -84295.488    4749.0258 
   96300    289.46504    70.821214    274241.37   -76878.027    7348.8109   -84226.838    4746.4513 
   96350    288.10765    206.64046    274137.85   -76897.859      7314.35   -84212.209    4748.9586 
   96400    290.66727     -40.0182     274486.5   -76921.463    7379.3324   -84300.795    4754.9304 
   96450    293.27732   -24.007887    274740.64   -76889.067    7445.5952   -84334.662    4760.2909 
   96500    290.19346   -113.03767     274570.5    -76859.46    7367.3037   -84226.763    4759.2224 
   96550    290.74712    148.16934    274177.31   -76888.489    7381.3598   -84269.849    4757.1107 
   96600    291.03173   -120.45532    273891.37   -76952.695    7388.5854    -84341.28    4758.0713 
   96650     285.5246    378.24573    273664.12   -76973.657    7248.7728   -84222.429    4762.6825 
   96700    288.25998    384.26607    273935.94   -76984.853    7318.2173    -84303.07    4769.3816 
   96750    286.95969    -124.7088    274601.79   -77011.447    7285.2062   -84296.653     4778.928 
   96800    280.62061     37.24468    274969.97   -77025.919    7124.2724   -84150.192    4784.1474 
   96850    288.07596   -269.76201    274766.41   -77010.852    7313.5456   -84324.397    4787.2382 
   96900    287.76555    100.11336    274274.07   -76989.155    7305.6648    -84294.82    4784.0879 
   96950    291.13439    80.963613    274216.63   -76982.853    7391.1917   -84374.045    4784.8115 
   97000    289.63902    -38.77321    274465.89   -76904.784    7353.2277   -84258.012    4787.8569 
   97050    290.06412   -61.593933    274416.21   -76902.141      7364.02   -84266.161    4790.1144 
   97100       287.32   -144.31992    274505.22   -76910.668    7294.3535   -84205.021    4796.0447 
   97150    290.73048   -149.89059    274325.16   -76944.659    7380.9374   -84325.597    4796.2442 
   97200    290.25699    37.604945    274119.28    -76925.73    7368.9165   -84294.646    4798.5281 
   97250     288.8737   -38.548019    274196.93   -76923.261    7333.7983   -84257.059    4803.6883 
   97300    290.51405   -199.74268    274249.32   -76872.538    7375.4426   -84247.981      4807.06 
   97350    293.29916   -290.13548    274354.35   -76841.669    7446.1499   -84287.819    4810.2577 
   97400    293.77016     150.1638    274410.43   -76819.221    7458.1074   -84277.329    4812.8253 
   97450    290.43925    104.85113    274455.82   -76812.523    7373.5435   -84186.067    4813.6454 
   97500     287.8704     110.4756    274689.13   -76823.012    7308.3268   -84131.339    4817.3276 
   97550    288.99784    65.766815    274923.28   -76817.646    7336.9498   -84154.596    4821.5006 
   97600    288.36802    82.934656    274633.03    -76796.05    7320.9603    -84117.01    4821.9474 
   97650    293.47434    153.16039    274385.25    -76780.82    7450.5971   -84231.417    4817.0458 
   97700    290.12584    -113.9505    274368.89   -76785.898    7365.5868   -84151.485    4819.5426 
   97750    290.03033   -66.922764    274579.99   -76776.795    7363.1622   -84139.957    4825.5143 
   97800    286.81544   -202.70804    274760.58   -76795.612    7281.5438   -84077.156    4832.3617 
   97850    288.42121   -64.557747    274550.03   -76817.772    7322.3105   -84140.082    4829.9662 
   97900    294.42695    29.526556    274140.09   -76809.699    7474.7816   -84284.481    4827.1757 
   97950      297.957    175.47315    274056.86   -76808.267    7564.4009   -84372.668     4827.174 
   98000    295.81815   -172.45232    274571.37   -76794.375    7510.1007   -84304.476    4834.2658 
   98050    291.05837   -122.49567    274962.29   -76807.902    7389.2615   -84197.163    4839.2059 
   98100    286.89061   -68.066917    274828.83   -76807.173    7283.4524   -84090.625    4837.3603 
   98150    291.57442    20.916839    274438.67   -76840.077    7402.3629    -84242.44     4833.543 
   98200    289.67507    17.294773    274187.55   -76812.405    7354.1429   -84166.548    4833.4487 
   98250    296.96074    58.374915    274131.77   -76760.133    7539.1084   -84299.241    4833.7144 
   98300    292.14586    101.45612    274237.89   -76754.773    7416.8702   -84171.643    4836.9609 
   98350    295.45042    211.88693    274694.23   -76714.139     7500.765   -84214.904    4842.9769 
   98400    289.44479   -148.62435    275430.25   -76735.583    7348.2966   -84083.879    4853.1398 
   98450    289.40362   -318.10455    275524.52   -76763.165    7347.2515   -84110.416    4857.8402 
   98500    290.07351    1.7406609    274732.04   -76806.818    7364.2583   -84171.076    4846.7548 
   98550    291.13592    340.26337    273916.25   -76807.885    7391.2305   -84199.116    4841.8985 
   98600    292.52561    453.57896    274145.22   -76798.094    7426.5112   -84224.605    4848.0054 
   98650    291.48238      141.578    275136.77   -76741.305    7400.0262   -84141.332    4859.0525 
   98700    299.70539      -469.47    275733.83   -76756.242    7608.7882   -84365.031    4868.2416 
   98750    298.21904   -74.393493    275145.37   -76716.306    7571.0536    -84287.36    4861.6217 
   98800    296.86903    13.698487    274287.43   -76740.132      7536.78   -84276.912    4852.4232 
   98850    295.38281    284.66238    273936.21   -76763.374    7499.0486   -84262.423    4851.9695 
   98900    294.14398    236.55289    274301.08   -76762.198    7467.5977   -84229.796    4857.5756 
   98950    297.16575   -155.08269    275000.15   -76748.989     7544.313   -84293.302    4867.4125 
   99000    297.26713   -270.58816    275266.53   -76756.648    7546.8868   -84303.534    4877.1015 
   99050    291.05802   -174.65817    274718.74   -76802.481    7389.2526   -84191.733    4873.0707 
   99100    295.50915    329.67511     273809.7   -76758.589    7502.2561   -84260.845    4864.4974 
   99150    292.84399    355.74428    273718.84   -76825.717     7434.594   -84260.311    4866.2124 
   99200    293.39382   -62.079401     274317.7   -76893.459     7448.553   -84342.012    4875.4152 
   99250    286.80607    245.65547    274531.58   -76922.047     7281.306   -84203.353    4879.4728 
   99300    285.91735   -51.981957    274499.61   -76933.345    7258.7437   -84192.089    4879.5042 
   99350    287.30878   -157.87427     274334.4   -76976.875    7294.0687   -84270.943    4876.3362 
   99400    283.81623     134.4118     274010.3   -77006.172    7205.4014   -84211.574    4875.6496 
   99450    282.42367    108.14731     274093.8   -76995.159    7170.0476   -84165.206    4878.6825 
   99500    284.93225   -86.231869    274447.29   -76993.642    7233.7344   -84227.376     4884.053 
   99550    284.38668   -154.39465    274574.19   -77020.111    7219.8837   -84239.995    4887.6609 
   99600    287.89801    224.07029    274445.57   -77034.703    7309.0278   -84343.731    4889.3668 
   99650    291.23597   -84.166514    274397.13   -76983.663    7393.7704   -84377.433    4891.2367 
   99700     287.9031    65.288427       274330   -76965.607    7309.1571   -84274.764    4895.3373 
   99750    286.33618   -158.83481    274201.59   -76935.701    7269.3768   -84205.077    4896.1725 
   99800    290.62104    177.36637    273840.46   -76959.103    7378.1589   -84337.262    4894.9072 
   99850    287.11983    290.85302    274035.37   -77008.414    7289.2716   -84297.685    4902.1086 
   99900    286.94955   -195.42816    274689.93   -76977.315    7284.9486   -84262.263    4910.8846 
   99950    289.40669    128.17831    274777.01   -76955.875    7347.3296   -84303.204    4913.6362 
  100000     286.1967   -111.80756    274510.89   -76954.667    7265.8357   -84220.503    4910.7459 
Loop time of 251.414 on 6 procs for 100000 steps with 8518 atoms

Performance: 343.656 ns/day, 0.070 hours/ns, 397.750 timesteps/s
99.5% CPU use with 6 MPI tasks x no OpenMP threads

MPI task timing breakdown:
Section |  min time  |  avg time  |  max time  |%varavg| %total
---------------------------------------------------------------
Pair    | 71.505     | 128.91     | 197.66     | 456.4 | 51.27
Neigh   | 31.404     | 36.803     | 40.772     |  64.5 | 14.64
Comm    | 7.2166     | 79.592     | 142.42     | 620.9 | 31.66
Output  | 0.13379    | 0.13622    | 0.14462    |   1.0 |  0.05
Modify  | 4.9849     | 5.0058     | 5.0539     |   1.0 |  1.99
Other   |            | 0.967      |            |       |  0.38

Nlocal:        1419.67 ave        1440 max        1392 min
Histogram: 1 0 0 1 0 1 1 0 0 2
Nghost:        2072.00 ave        2098 max        2055 min
Histogram: 1 0 2 1 0 0 1 0 0 1
Neighs:        0.00000 ave           0 max           0 min
Histogram: 6 0 0 0 0 0 0 0 0 0
FullNghs:      39736.7 ave       40599 max       39072 min
Histogram: 1 0 1 0 2 1 0 0 0 1

Total # of neighbors = 238420
Ave neighs/atom = 27.990139
Neighbor list builds = 21223
Dangerous builds = 0

# Create data file for import to other simulations
#
write_data data.${NAME}
write_data data.coexist_291K_1atm_ML
System init for write_data ...

Total wall time: 0:04:11
