
# Import phase coexistance setup
#
read_data           ../data.ice_water_1atm
Reading data file ...
  orthogonal box = (-0.037551654 -0.031298218 -0.031298218) to (113.76774 57.301808 57.301808)
  3 by 1 by 2 MPI processor grid
  reading atoms ...
  11553 atoms
  reading velocities ...
  11553 velocities
  read_data CPU = 0.076 seconds

# Define potential
#
pair_style 	    sw
pair_coeff	    * * ../ML.sw mW
Reading sw potential file ../ML.sw with DATE: 2019-02-27

# Reset velocity/set timestep
#
velocity	    all create ${TEMP} 120598 rot yes dist gaussian
velocity	    all create 291 120598 rot yes dist gaussian
timestep	    10.0

# Define output
#
compute	            1 all msd
compute             2 all orientorder/atom nnn NULL degrees 2 4 12
thermo              100
thermo_style        custom step temp press vol etotal ke pe c_1[4]

# Neighbor lists
#
neigh_modify        delay 0 every 1 check yes

# Set fixes
#
fix                 1 all momentum 10 linear 1 1 1 rescale
fix                 2 all nph iso ${PRES} ${PRES} ${PCOUPL}
fix                 2 all nph iso 0 ${PRES} ${PCOUPL}
fix                 2 all nph iso 0 0 ${PCOUPL}
fix                 2 all nph iso 0 0 10000.0
fix                 3 all temp/csvr ${TEMP} ${TEMP} ${TCOUPL} 837492
fix                 3 all temp/csvr 291 ${TEMP} ${TCOUPL} 837492
fix                 3 all temp/csvr 291 291 ${TCOUPL} 837492
fix                 3 all temp/csvr 291 291 5000.0 837492

# Run longer equilibration 0.5 ns
#
dump 1 all atom 1000 eq.${NAME}.dump
dump 1 all atom 1000 eq.Tmelt_291K_AUTO.dump
run 50000
Neighbor list info ...
  update every 1 steps, delay 0 steps, check yes
  max neighbors/atom: 2000, page size: 100000
  master list distance cutoff = 6.0032907
  ghost atom cutoff = 6.0032907
  binsize = 3.0016454, bins = 38 20 20
  2 neighbor lists, perpetual/occasional/extra = 1 1 0
  (1) pair sw, perpetual
      attributes: full, newton on
      pair build: full/bin/atomonly
      stencil: full/bin/3d
      bin: standard
  (2) compute orientorder/atom, occasional, copy from (1)
      attributes: full, newton on
      pair build: copy
      stencil: none
      bin: none
Per MPI rank memory allocation (min/avg/max) = 4.643 | 4.644 | 4.646 Mbytes
Step Temp Press Volume TotEng KinEng PotEng c_1[4] 
       0          291   -86.919193    374087.66   -103670.05    10020.386   -113690.44            0 
     100    355.86712   -326.38169    371888.41   -104130.34    12254.042   -116384.38    3.3427813 
     200    348.37668    237.24508    368015.67   -104618.77    11996.113   -116614.88    6.7602302 
     300    346.13933    155.34084    366341.28   -104909.51    11919.072   -116828.58    10.170453 
     400    341.84405    173.43954    365954.19   -105394.18    11771.167   -117165.34    13.238484 
     500    333.38961    113.46632       365460   -105738.64    11480.044   -117218.69    16.055164 
     600    330.65585   -81.450687    364943.59   -106083.74    11385.909   -117469.64    18.433291 
     700     329.5562    4.2131271    363927.14   -106356.27    11348.043   -117704.31    20.965026 
     800    321.39519   -19.869964    362709.74   -106613.62    11067.024   -117680.65    23.662234 
     900    321.16852    168.37921     361742.1   -106793.93    11059.219   -117853.14    26.192621 
    1000    316.21309   -42.427932    362123.92   -106996.45    10888.582   -117885.03    28.401828 
    1100       318.43    48.352936    362615.96   -107250.63     10964.92   -118215.55    30.611065 
    1200     312.7433    -39.20435    362180.37   -107466.18    10769.102   -118235.28     32.59802 
    1300    313.28458    176.37609     361778.4    -107680.2    10787.741   -118467.94    34.698738 
    1400    308.36573   -95.958749    362028.19   -107812.29    10618.363   -118430.65    36.574998 
    1500    303.37023    15.804305    361647.04   -107950.91    10446.347   -118397.25    38.637254 
    1600    304.36399    103.52283    360949.59   -108071.53    10480.566   -118552.09     40.69263 
    1700    306.31725    4.4590857    360669.62   -108177.78    10547.826   -118725.61    42.553391 
    1800    301.48821    125.77161    361039.64   -108263.81    10381.541   -118645.35    44.120078 
    1900    302.98954     82.51904    361061.89   -108294.62    10433.238   -118727.85     45.88571 
    2000    304.48106    81.351274    361489.57   -108329.42    10484.598   -118814.01    47.900713 
    2100    303.71843    -43.58533    361327.47   -108491.97    10458.337   -118950.31    49.564504 
    2200    301.46328   -119.71605    360483.43   -108534.11    10380.682    -118914.8    51.069173 
    2300    302.02504     181.8361    359715.53   -108554.08    10400.026   -118954.11    52.975595 
    2400    301.10591   -78.808205    360249.13   -108575.58    10368.377   -118943.96    54.774879 
    2500    300.38172   -106.05963    360752.07   -108570.14    10343.439   -118913.57    56.137706 
    2600    298.56388     39.94159    360784.64   -108643.88    10280.843   -118924.72     57.69894 
    2700    299.18448    48.241764    360802.49   -108627.41    10302.214   -118929.62    59.243276 
    2800     300.2124    110.82281    361277.64   -108736.65    10337.609   -119074.26    60.438264 
    2900    294.93539   -12.838842    361398.91   -108861.82    10155.899   -119017.72     61.87856 
    3000    299.81027   -94.849226    360681.57   -108891.47    10323.762   -119215.23    63.210832 
    3100    296.02168   -199.55824    360445.29   -108965.64    10193.305   -119158.95    64.519735 
    3200    296.56848    45.680031    360429.05   -108996.99    10212.133   -119209.12    66.129142 
    3300    296.18674   -45.365825    359982.82   -108980.68    10198.988   -119179.67    67.405248 
    3400    297.71099    233.78235    359447.82   -108986.84    10251.475   -119238.31    68.816806 
    3500    297.88861    134.03447    359737.63   -109064.08    10257.591   -119321.68    70.090837 
    3600    297.57368  -0.54313424    360087.13   -109080.39    10246.747   -119327.14     71.50859 
    3700    296.69744    14.748378    360338.41   -109139.44    10216.574   -119356.01    73.001773 
    3800    291.98106    24.765438    360770.37   -109206.62    10054.168   -119260.79    74.440926 
    3900    292.52551   -105.40321    361146.08   -109237.64    10072.916   -119310.56    76.078068 
    4000    293.63603    63.309674    360254.47   -109231.71    10111.156   -119342.87     77.80725 
    4100    296.99807    -52.75198    359689.01   -109250.41    10226.926   -119477.33    79.466656 
    4200    292.63745   -32.807888    360086.28   -109222.29    10076.771   -119299.06    80.758114 
    4300    294.39604   -183.41084    360744.09    -109240.1    10137.327   -119377.42     81.86399 
    4400    292.76487   -24.547528    360051.46   -109276.32    10081.159   -119357.48     83.22971 
    4500    292.96252    131.00142    359522.17   -109163.08    10087.964   -119251.04    84.424104 
    4600    294.69831    12.607878    360183.83   -109130.92    10147.735   -119278.66    85.221954 
    4700    294.99546   -38.611195    360667.55    -109040.2    10157.967   -119198.17    86.405564 
    4800    296.36491    138.19378    360399.98   -109087.37    10205.123   -119292.49    87.788755 
    4900    295.56007    25.742367    360022.68   -109098.46    10177.409   -119275.87    88.905293 
    5000    296.69311    5.9068892     359511.5   -109150.28    10216.425    -119366.7    89.871399 
    5100    293.52462   -98.984324    359579.56   -109187.36     10107.32   -119294.68    91.517501 
    5200     296.3667    31.223899    360522.36   -109239.12    10205.185    -119444.3     92.73972 
    5300    291.88009   -83.481523    361097.26   -109204.84    10050.692   -119255.53    93.925176 
    5400    291.43554    69.300585    360894.25   -109241.33    10035.384   -119276.71    95.102976 
    5500     292.4324   -22.850671    360632.31    -109234.4     10069.71   -119304.11    96.394621 
    5600    292.51198    15.390603    359886.83   -109373.56     10072.45   -119446.01    97.417876 
    5700     293.8317    56.592001    359334.53   -109456.14    10117.894   -119574.03    98.326872 
    5800    290.21818   -68.471499    359452.97   -109433.54    9993.4649      -119427    100.03738 
    5900    291.78042   -17.566142    360023.59    -109405.6     10047.26   -119452.85    101.26439 
    6000    288.80008   -78.088581    360665.85   -109418.22    9944.6337   -119362.85    102.27908 
    6100    295.86544    13.493616    360913.02   -109374.68    10187.925    -119562.6    103.36064 
    6200    294.10868   -89.230411    361246.07   -109392.51    10127.432   -119519.94    104.55446 
    6300    291.40821   -23.723722    361184.88   -109337.84    10034.443   -119372.28    106.10794 
    6400    293.66882   -93.050091     360884.2   -109387.97    10112.285   -119500.26    107.77994 
    6500    295.90599    57.842336    360238.55   -109341.78    10189.321    -119531.1    109.25162 
    6600      293.206    30.307839    359707.57    -109350.7    10096.349   -119447.05    110.79182 
    6700    289.70552   -67.365402    359963.78   -109421.79    9975.8119    -119397.6    112.32454 
    6800    291.27229    87.330734    360234.07      -109422    10029.762   -119451.76    113.53702 
    6900    291.96098    75.925509    360127.95    -109382.7    10053.477   -119436.18    114.86562 
    7000    289.02568    81.446896    360345.63   -109345.15    9952.4022   -119297.55    115.87749 
    7100    292.80529   -89.274401    360449.79   -109336.31     10082.55   -119418.87     117.0513 
    7200    290.57312    157.06536    359985.45   -109450.73    10005.687   -119456.42    118.23879 
    7300    290.53859    78.684244    360307.08   -109371.91    10004.498   -119376.41    119.79879 
    7400    290.05127    -121.7435    360671.47   -109313.51    9987.7176   -119301.22    120.94608 
    7500    293.65595   -180.43912    359625.72   -109362.79    10111.842   -119474.63    122.18503 
    7600    292.58274    222.19278    358690.75   -109334.48    10074.887   -119409.37    124.13325 
    7700    291.85937    55.101137    359304.75   -109324.16    10049.978   -119374.14    125.42019 
    7800    291.59567   -11.745872    360259.34   -109326.74    10040.898   -119367.64    126.81925 
    7900    293.24513   -7.9626829    360197.64    -109350.5    10097.696   -119448.19    127.93833 
    8000    292.47175   -97.204581    360325.91    -109383.8    10071.065   -119454.87    128.79385 
    8100     290.7757    10.518348    360235.19   -109399.89    10012.663   -119412.55    130.23105 
    8200    292.94576    102.37682    359714.86   -109375.81    10087.387    -119463.2    131.34703 
    8300    291.20502   -119.03749    359481.78   -109367.32    10027.446   -119394.77    132.79331 
    8400    291.23759   -9.1265115    359282.78   -109424.87    10028.568   -119453.44    134.15859 
    8500    290.91125    23.640327    359404.02   -109404.56     10017.33   -119421.89     135.3913 
    8600    290.44859   -37.508256    359934.78   -109433.51    10001.399   -119434.91    136.56697 
    8700    289.75314   -104.74506    360153.01   -109424.36    9977.4515   -119401.81      137.316 
    8800    290.61113   -83.699452    359994.56   -109390.67    10006.996   -119397.67    138.49657 
    8900    291.80428    7.6251013    359736.51      -109466    10048.081   -119514.08    139.59051 
    9000    290.68082    178.47398     359981.4   -109429.19    10009.396   -119438.58    140.58621 
    9100     287.8959   -117.64095    360695.08   -109495.99    9913.4988   -119409.49    142.07103 
    9200     291.4899   -344.29016    360768.56   -109466.07    10037.256   -119503.33    143.54074 
    9300    291.89731    108.30279    359986.32   -109569.26    10051.285   -119620.55    144.63441 
    9400    289.04742   -89.195056    359614.23   -109523.07    9953.1506   -119476.22    145.94823 
    9500    286.86986   -3.5333083    359583.29   -109493.73    9878.1679    -119371.9    147.06803 
    9600    290.39597    108.14918    359387.48   -109447.86    9999.5873   -119447.44     148.6598 
    9700    289.52928    15.724749    359485.13   -109485.02    9969.7432   -119454.76    149.99584 
    9800    289.97664    33.211074    360109.68    -109495.3    9985.1477   -119480.45    151.54387 
    9900     287.8357   -29.934522    360676.85   -109488.61     9911.426   -119400.04     152.3802 
   10000    290.26501   -217.91035    360706.57   -109452.24    9995.0776   -119447.31    153.75951 
   10100    288.99131    3.3413958    360029.58   -109422.75    9951.2186   -119373.97    154.66817 
   10200    292.26368    117.19424    359472.45   -109392.83      10063.9   -119456.73    155.85424 
   10300     289.0936   -160.06595    359637.07   -109362.62    9954.7408   -119317.36    156.78595 
   10400    287.77107    45.849735     359278.4   -109439.96    9909.2005   -119349.16    157.79757 
   10500    292.48255    144.57373    359509.52   -109410.71    10071.437   -119482.15    159.26111 
   10600    289.99923   -78.487027    360544.38   -109385.56    9985.9256   -119371.49    160.56979 
   10700    290.12012    -215.4747    361361.52      -109394    9990.0883   -119384.09    162.45513 
   10800    290.88189   -42.869287    361426.01   -109393.01    10016.319   -119409.33    163.93241 
   10900    293.62866    42.147817    361168.26    -109333.6    10110.903    -119444.5    165.28387 
   11000    291.81549   -102.61318    361155.63   -109388.03    10048.467   -119436.49    166.85385 
   11100    291.88779   -73.569433    360923.43   -109400.28    10050.957   -119451.24    168.60326 
   11200    295.37722     14.21724    360514.67   -109409.63    10171.113   -119580.75    169.18103 
   11300     291.1649    79.028428    360100.85    -109431.2    10026.065   -119457.26    170.43169 
   11400    291.86546    61.183133    359807.61   -109485.43    10050.188   -119535.62     171.5624 
   11500    288.18466    211.66202    359928.85   -109542.03     9923.442   -119465.47    172.86406 
   11600     291.8495   -130.65354    360616.21   -109560.55    10049.639   -119610.19     173.7609 
   11700    291.42282   -189.42983    360563.88      -109511    10034.946   -119545.95    174.60194 
   11800    292.82906    190.99905    359388.04   -109551.29    10083.369   -119634.66    176.19271 
   11900    291.40414    185.89996    358883.77   -109562.14    10034.303   -119596.44    177.37694 
   12000    289.21462    10.250439    360119.79    -109553.6    9958.9082   -119512.51    178.59466 
   12100    288.56335   -63.418637    360669.83   -109508.06    9936.4822   -119444.54    179.51104 
   12200    291.87547   -21.311443    360639.14   -109496.51    10050.533   -119547.04    180.98847 
   12300    291.09282   -98.628948    360569.51   -109451.41    10023.583   -119474.99    182.09436 
   12400    287.98788   -96.391388    359570.84   -109526.96    9916.6661   -119443.62    182.83397 
   12500    291.19786    229.83862    358985.25   -109450.15      10027.2   -119477.35    183.47819 
   12600    288.41567   -206.05665    360040.36    -109444.5    9931.3967    -119375.9    184.09947 
   12700    292.54127   -199.02176     359740.6   -109441.57    10073.459   -119515.03    185.67464 
   12800    291.72631    179.21415     358988.9   -109512.55    10045.397   -119557.95    186.88299 
   12900     290.8799   -31.145519    359527.07   -109481.01    10016.251   -119497.26     188.2195 
   13000    293.57736   -91.107399    360127.65   -109467.31    10109.136   -119576.45    189.62113 
   13100    290.78114    94.851992    360225.05   -109416.19     10012.85   -119429.04    191.08834 
   13200    292.27992   -270.61477    360301.42   -109460.66    10064.459   -119525.12    192.34666 
   13300    293.00226   -51.624013    360138.74   -109520.87    10089.333    -119610.2    193.44153 
   13400    292.19053     62.77154    359823.96   -109544.86    10061.382   -119606.24    194.66865 
   13500    289.26595   -46.027882    360193.03   -109529.98    9960.6756   -119490.66    195.82508 
   13600    286.17587   -9.2843957    360493.62   -109641.55    9854.2707   -119495.82    196.71492 
   13700    289.37299    4.2804829    360438.34   -109643.99    9964.3615   -119608.35    197.36979 
   13800    291.27691   -48.379687     360760.3   -109695.14    10029.922   -119725.06    198.67077 
   13900     288.9992   -23.559242     360688.6   -109648.64    9951.4904   -119600.13    199.16541 
   14000    289.33359    133.88454    360453.77   -109618.43    9963.0046   -119581.44    200.69205 
   14100    288.38565    117.45748    360884.54   -109600.19    9930.3632   -119530.55    201.74591 
   14200    291.25802   -303.29937    361243.02   -109594.63    10029.271    -119623.9    202.61434 
   14300    295.16221    16.894364    360426.86   -109548.93    10163.709   -119712.64    203.90853 
   14400    291.43842    131.77644    359711.26   -109537.51    10035.483      -119573    204.51393 
   14500    291.41131   -76.150343    360056.72   -109610.81     10034.55   -119645.35    205.22654 
   14600    288.39973   -233.71761    360789.39   -109647.89    9930.8478   -119578.74    206.37597 
   14700    289.26745    12.590788    360271.06   -109630.61    9960.7274   -119591.34    207.55139 
   14800    288.71823    286.29544    359888.48   -109711.78    9941.8153   -119653.59    208.40451 
   14900    290.91387   -56.656823    360453.74   -109726.68    10017.421    -119744.1    209.37751 
   15000    288.31456   -12.844486    360526.14   -109818.96    9927.9151   -119746.88    210.51784 
   15100    289.88432      51.7244    360784.18   -109803.27    9981.9687   -119785.24    212.07991 
   15200     287.1038    -92.50855    360889.12   -109797.04    9886.2235   -119683.26    213.08405 
   15300    290.77175   -17.019894    360277.68   -109775.38    10012.527   -119787.91    213.85628 
   15400    287.90825    110.07784    359938.64   -109729.81    9913.9242   -119643.73    215.18606 
   15500    291.46773   -107.17818    360637.65   -109736.21    10036.492    -119772.7    216.13453 
   15600    288.08345   -54.179606    360938.84   -109751.09     9919.957   -119671.05     217.1069 
   15700    290.51843    26.620167    360475.96   -109727.57    10003.804   -119731.37    217.96708 
   15800    289.60054    160.44916    360195.64   -109728.47    9972.1969   -119700.66    218.56868 
   15900     289.3751   -116.30148    360726.87   -109736.08    9964.4342   -119700.51    220.22384 
   16000    289.75344    249.61116    360212.76   -109651.84    9977.4619    -119629.3     221.4023 
   16100    288.90732   -67.620481    360486.76   -109598.78    9948.3264   -119547.11    222.71569 
   16200    293.11442   -208.98014    360550.72   -109556.44    10093.195   -119649.63    223.84252 
   16300    292.74374   -18.223377    359913.58   -109548.12    10080.431   -119628.55    224.93461 
   16400    290.16396    98.280275    359882.01   -109538.65    9991.5978   -119530.25    226.03207 
   16500     291.6582   -219.26785     360416.3    -109553.3    10043.051   -119596.35     227.3549 
   16600    292.58742    73.271417    360336.35   -109479.95    10075.048      -119555    228.89522 
   16700    291.58787    97.660195    360352.74    -109482.2    10040.629   -119522.83    229.99754 
   16800    290.85975   -58.555843    360400.77   -109528.65    10015.557   -119544.21    231.69555 
   16900    291.90788    94.061776    360057.63    -109553.6    10051.649   -119605.25    233.46266 
   17000    293.38579    114.91896    360299.07   -109555.07    10102.539   -119657.61     234.7615 
   17100    293.66377    -106.6028    361137.65   -109536.28    10112.111   -119648.39    236.52681 
   17200    290.89302   -201.47127    361434.43   -109398.07    10016.703   -119414.77    237.44412 
   17300    291.87157   -11.557542    360747.64    -109358.7    10050.398    -119409.1     238.8353 
   17400    294.58283     205.0275    359540.41   -109438.44    10143.759   -119582.19    239.41152 
   17500    293.50993     200.3319    359555.22   -109475.41    10106.814   -119582.22    240.63117 
   17600    292.47806   -58.750542    360598.42   -109503.47    10071.282   -119574.75    242.30233 
   17700    292.91599     37.60147    360750.51   -109424.49    10086.362   -119510.85    243.72145 
   17800    294.87203   -67.330449     360282.9    -109408.2    10153.717   -119561.91    244.36094 
   17900    292.04199    13.528983    359847.93   -109468.78    10056.267   -119525.05    244.96713 
   18000    291.81986    126.93697    359699.79   -109571.99    10048.618   -119620.61     246.2807 
   18100    291.50677    119.80068    360203.34   -109657.57    10037.837   -119695.41    247.69845 
   18200    293.74769   -22.949778    360833.48   -109631.21    10115.001   -119746.21    249.44061 
   18300    290.48028    148.38413    360374.98   -109557.48     10002.49   -119559.97    250.83527 
   18400    291.34208   -38.299179       360211   -109545.07    10032.166   -119577.23    252.03258 
   18500    292.84155   -24.335293    360393.57   -109553.08    10083.799   -119636.88    253.07418 
   18600    294.19177   -95.074497    360140.45   -109485.42    10130.293   -119615.71    254.28199 
   18700    293.15943       148.34    359596.69   -109533.09    10094.745   -119627.84    255.23207 
   18800    288.36038   -64.601513    360357.73   -109438.59    9929.4928   -119368.08    256.80643 
   18900    292.64042   -294.88564    360994.69   -109495.81    10076.873   -119572.68    258.57828 
   19000     293.9198    132.86877    360214.65   -109505.03    10120.928   -119625.96    259.99864 
   19100    291.52649     40.26843    359750.15   -109486.87    10038.516   -119525.38    261.04583 
   19200    291.66513    93.004909    360287.49   -109506.34     10043.29   -119549.63    262.20786 
   19300     291.6204   -280.38618    361449.99   -109511.63     10041.75   -119553.38     264.1453 
   19400    289.39765   -65.229152    361521.04   -109560.17    9965.2106   -119525.38    265.48658 
   19500    292.16386    25.021683    360865.74   -109668.06    10060.463   -119728.52    266.54655 
   19600    289.78094    84.947398     360472.8   -109592.19    9978.4088    -119570.6    267.93697 
   19700    293.57456    38.720633    360375.06   -109478.45     10109.04   -119587.49    269.25012 
   19800    292.76045  -0.38310331    360588.82    -109531.1    10081.006   -119612.11    270.84721 
   19900    292.68628   -190.19389    360896.67   -109439.42    10078.452   -119517.88    271.96373 
   20000    291.97832    195.41019     360480.8   -109410.17    10054.074   -119464.25    272.93122 
   20100    291.54411    68.810199    360135.68   -109483.88    10039.122      -119523    274.30232 
   20200    290.49829   -77.492327    360349.88   -109508.61     10003.11   -119511.72    274.86646 
   20300    292.57051   -40.052484    360394.79      -109505    10074.466   -119579.46    276.70285 
   20400    292.81174    174.94393    360020.17   -109439.46    10082.772   -119522.23    277.79804 
   20500    290.71599   -100.06042    360413.73   -109378.43    10010.607   -119389.04    278.89233 
   20600    294.74928    20.947767    360669.05   -109351.51     10149.49      -119501    280.66457 
   20700    295.30308     -62.3213    360141.53   -109388.53     10168.56   -119557.09    281.93952 
   20800    290.43092     269.4235    359672.34    -109362.7     10000.79   -119363.49     282.7594 
   20900    294.47609    16.877696    360260.87   -109275.65    10140.083   -119415.74    283.73404 
   21000    297.20757   -303.94842     361218.6   -109381.25     10234.14   -119615.39    285.11993 
   21100    294.00133    142.91965    360783.39   -109316.37    10123.735   -119440.11    285.65148 
   21200    294.94201   -129.31106    360497.84   -109395.09    10156.127   -119551.22    286.92308 
   21300    293.18973   -90.901051    360382.67   -109425.06    10095.788   -119520.85    288.40562 
   21400    291.74301    200.40729    359987.63   -109497.56    10045.971   -119543.53     289.1202 
   21500    292.93843    167.29484    360137.04   -109454.31    10087.135   -119541.44     289.6605 
   21600    291.59085    -93.44738    360774.78   -109514.77    10040.732    -119555.5    291.45505 
   21700    289.85725   -139.68699    360977.72   -109491.23    9981.0367   -119472.27    292.77783 
   21800    292.54909    45.504079    360396.11      -109515    10073.728   -119588.73    293.34131 
   21900     292.5344   -76.090965    359839.41   -109496.01    10073.222   -119569.23    294.40935 
   22000    292.43699   -156.67861    359951.88   -109450.37    10069.868   -119520.23    296.03863 
   22100    289.91755   -103.97016    360076.94   -109412.27    9983.1131   -119395.38    297.45529 
   22200    295.25304    81.372312    359748.56   -109386.18    10166.837   -119553.02    297.84181 
   22300    293.14663   -24.463446    359675.99   -109439.85    10094.304   -119534.15    299.14065 
   22400    289.99927    64.249866    360465.87   -109480.02    9985.9272   -119465.95    300.64405 
   22500    293.49523   -77.612186    361465.14   -109369.93    10106.308   -119476.24    301.58772 
   22600    290.39373   -163.12258    361433.84   -109436.31    9999.5101   -119435.82    303.04302 
   22700    292.31813    301.99543    360045.64   -109418.12    10065.775    -119483.9    303.27177 
   22800    293.16669    150.85705    359793.32    -109412.8    10094.995   -119507.79    304.27722 
   22900    293.17278    153.26574    360133.96    -109345.7    10095.205   -119440.91    305.30167 
   23000     293.3476    163.37897    360342.45   -109443.39    10101.224   -119544.62    306.62304 
   23100    292.68827   -61.025986    360337.92   -109480.86    10078.521   -119559.38    308.30302 
   23200    290.36092    47.553966    360243.61   -109430.23    9998.3803   -119428.61    309.48057 
   23300    291.60093    184.43917    360382.55   -109434.74    10041.079   -119475.82    310.81407 
   23400    290.78509    96.529621    360835.95   -109432.04    10012.986   -119445.03    312.57594 
   23500    292.68011   -175.55018    361213.98   -109487.55     10078.24   -119565.79    314.24821 
   23600    290.89445    -90.61048    360708.83   -109484.07    10016.752   -119500.82     315.6434 
   23700    291.67368    44.873886    359986.21   -109546.93    10043.584   -119590.51    315.94685 
   23800    292.21608     230.8372    359865.67   -109505.77    10062.261   -119568.03    316.60103 
   23900    287.06929   -243.97517     360677.4   -109464.74    9885.0353   -119349.77    317.46862 
   24000     290.5538   -251.66502    360567.11   -109502.92    10005.022   -119507.94    318.21237 
   24100     293.2133    21.401418    359297.32   -109501.45      10096.6   -119598.05    319.10642 
   24200     291.6668    107.85189    359063.62   -109492.11    10043.347   -119535.46     319.9131 
   24300    291.32274    52.460465    359813.28   -109441.19      10031.5   -119472.69    321.14082 
   24400    287.00111    88.155279    360288.31   -109515.26    9882.6873   -119397.95    322.29135 
   24500    293.00511    12.301256    360428.58   -109527.22    10089.431   -119616.65    323.72573 
   24600    292.21038    61.110543    360348.36   -109589.59    10062.065   -119651.66    324.65964 
   24700    292.81901   -242.56546     360368.1   -109592.58    10083.023   -119675.61    325.27317 
   24800    292.61892   -211.51585    359905.11   -109604.01    10076.133   -119680.15    325.84008 
   24900    294.45797    76.789478    359305.02   -109646.01    10139.459   -119785.46    326.99529 
   25000    291.35939    84.916042    360041.21   -109607.92    10032.762   -119640.69    328.73334 
   25100    289.16921   -19.063919    361129.48   -109611.13    9957.3444   -119568.48    330.09955 
   25200    293.13811    -124.8972    361772.96   -109539.35    10094.011   -119633.36      331.168 
   25300     294.8468    -148.3072    361478.97   -109482.39    10152.849   -119635.24    332.27258 
   25400    292.76536    123.47372    360129.17   -109534.14    10081.176   -119615.31    332.93686 
   25500    290.67801    463.44634    359538.44   -109593.01    10009.299   -119602.31     333.8214 
   25600    289.36529    -152.0376    360313.27   -109602.77    9964.0964   -119566.87    335.28308 
   25700    288.62825   -72.520686    360595.18   -109538.57     9938.717   -119477.28    336.71743 
   25800     289.8255   -138.24571    360363.81   -109546.71    9979.9435   -119526.65    338.44508 
   25900    291.13111    131.33125    360396.67    -109574.5    10024.901    -119599.4    338.82535 
   26000    291.00269   -403.53132    360735.38   -109633.99    10020.479   -119654.47    339.92046 
   26100    288.72479    374.62266    360217.73   -109639.42    9942.0413   -119581.46    341.11002 
   26200    290.47688   -26.885378    360362.82   -109552.96    10002.373   -119555.34    342.17175 
   26300    288.12287   -5.5774402    360529.09   -109512.68    9921.3144   -119433.99    343.82767 
   26400    293.43904   -121.84599    360000.22   -109472.85    10104.373   -119577.23    344.95041 
   26500    285.23516    66.075787    359666.08   -109460.88     9821.878   -119282.75    345.68183 
   26600    292.29474   -91.332825    359723.71   -109509.37     10064.97   -119574.34    347.22038 
   26700    288.48726   -95.746809    360454.52   -109589.87    9933.8621   -119523.73    348.46099 
   26800    288.18929    2.8238532     360738.4   -109616.22    9923.6017   -119539.82     350.0477 
   26900    287.08403   -76.898164    360278.91   -109695.07    9885.5429   -119580.61    350.49274 
   27000    287.40184    10.718085    360018.51   -109691.69    9896.4862   -119588.17    351.35905 
   27100    288.69821    141.37066    359929.25   -109730.73    9941.1257   -119671.86    352.48181 
   27200    291.70227    91.625342    359952.02   -109616.67    10044.569   -119661.24    353.83606 
   27300    287.95564     38.94318    359849.35   -109610.67    9915.5559   -119526.23    354.85541 
   27400    291.53007    10.264459    359845.24   -109562.17    10038.639   -119600.81    355.85549 
   27500    293.83575   -38.157672    360096.91   -109481.84    10118.033   -119599.88    356.34207 
   27600     293.2109   -57.130615    359672.65   -109420.17    10096.517   -119516.69    356.54788 
   27700    291.25219    34.154502    359048.22    -109467.1     10029.07   -119496.18    357.78208 
   27800     289.3765    184.74377    359027.29   -109473.21    9964.4822   -119437.69    358.79283 
   27900    292.66674    140.97582    359676.61   -109351.61    10077.779   -119429.39    360.44696 
   28000    291.45882    -32.71823    360501.48   -109369.37    10036.186   -119405.55    362.20348 
   28100    290.83597     71.52299    360487.43   -109334.75    10014.738   -119349.49    363.82604 
   28200    289.03856   -151.27571    360659.54    -109387.5    9952.8457   -119340.34    365.09625 
   28300    291.54446   -119.59629    360201.86   -109341.28    10039.135   -119380.42    365.42821 
   28400    295.90573    86.782305    359236.72   -109368.37    10189.312   -119557.69    366.87636 
   28500    290.03704     74.50114    359016.78   -109292.72    9987.2274   -119279.95    367.92849 
   28600    292.50357     187.1205    359019.77   -109182.32    10072.161   -119254.48    369.39672 
   28700    293.18018    41.752689    359234.92   -109136.96    10095.459   -119232.42    370.98114 
   28800    290.78293   -3.0062883    359760.68   -109271.75    10012.912   -119284.67    371.56113 
   28900    295.20705    45.584093    360228.38   -109280.41    10165.253   -119445.66     373.1321 
   29000    292.08363    -130.2441     360351.8   -109343.06      10057.7   -119400.76    373.93933 
   29100    294.11466    7.4430095    359860.54    -109324.7    10127.638   -119452.34    374.87373 
   29200    291.21315   -72.263987    359652.65   -109314.35    10027.726   -119342.08    375.61058 
   29300    292.44334   -31.254392    359466.61   -109322.99    10070.087   -119393.08    376.55689 
   29400    292.62199    117.85342    359506.98   -109382.75    10076.238   -119458.99    378.11543 
   29500    290.73182    115.50112    360182.64   -109383.27    10011.152   -119394.42    379.02232 
   29600    292.18645   -107.62741    360016.17   -109304.54    10061.241   -119365.78    381.05309 
   29700    292.57559    62.752027    359092.75   -109314.94    10074.641   -119389.58     382.4313 
   29800    291.26919    149.54697    359071.12   -109277.64    10029.656    -119307.3    383.49027 
   29900     294.8694   -21.649485    359971.07   -109221.13    10153.627   -119374.76    385.44902 
   30000    291.62966   -230.17103    360448.64   -109261.62    10042.068   -119303.69    386.92088 
   30100    293.62262   -84.547229    360162.52   -109227.27    10110.695   -119337.96    387.37392 
   30200    297.07229     4.133077    359673.51   -109232.29    10229.482   -119461.77    388.86307 
   30300    294.05466    156.74362    359539.26   -109213.17    10125.572   -119338.74    389.86122 
   30400    292.02978   -87.264385     359881.8   -109340.44    10055.846   -119396.29    390.54911 
   30500    291.98999    90.202237    360093.07   -109318.16    10054.476   -119372.63    392.11571 
   30600    291.73992   -158.40942    360522.88   -109348.42    10045.865   -119394.29    393.78196 
   30700    292.63459   -37.172803    360392.66   -109391.13    10076.672    -119467.8    394.59377 
   30800    290.72184    81.199202    360250.23   -109479.08    10010.808   -119489.88    395.84295 
   30900    292.15897      36.7156    360166.09   -109516.86    10060.295   -119577.15    396.47156 
   31000    292.47937   -143.21358    360323.77   -109537.53    10071.327   -119608.85    397.66227 
   31100    294.81122    20.445931    360165.65   -109504.88    10151.623    -119656.5    398.88617 
   31200    288.20554    -98.88808    359969.62   -109435.53    9924.1613   -119359.69    400.42228 
   31300    286.87042   -45.191699    359528.96   -109420.27    9878.1871   -119298.45    401.23602 
   31400    288.46095    276.54162    358757.37   -109492.69     9932.956   -119425.64    401.81283 
   31500    288.81724    11.948888    359300.25   -109462.44    9945.2246   -119407.66    403.46857 
   31600    290.29798   -145.79303    360301.96   -109488.26    9996.2128   -119484.48    405.38233 
   31700    289.84598    -208.2031    359720.76   -109425.37    9980.6487   -119406.02    406.48488 
   31800    290.37647     481.5306    358779.22   -109445.27    9998.9155   -119444.19    407.10231 
   31900    289.71103   -391.43004    360486.26   -109491.44    9976.0017   -119467.44    408.10616 
   32000     290.7889   -181.70384       360679   -109487.63    10013.118   -119500.75    409.75797 
   32100    290.47693    279.85532    359748.17   -109513.57    10002.375   -119515.95    410.45672 
   32200    293.17724    93.402221    360133.29      -109484    10095.358   -119579.36    411.39848 
   32300    290.90553   -55.671971    360611.01   -109498.33    10017.134   -119515.46      413.071 
   32400    290.89236    117.26429    360074.04   -109493.66     10016.68   -119510.34    413.32168 
   32500    291.22915   -2.0695073    360070.04   -109499.84    10028.277   -119528.11    414.14854 
   32600    291.50498    52.141367    359910.08   -109438.09    10037.775   -119475.86    415.71011 
   32700    292.76406    141.21223    359838.47    -109463.8     10081.13   -119544.93    416.93319 
   32800    294.38932   -245.61473    360534.68   -109467.99    10137.095   -119605.08    417.55231 
   32900     288.6966    3.6951194    360592.27   -109479.62    9941.0705    -119420.7    419.06263 
   33000    290.75026   -12.434284    360011.27   -109465.29    10011.787   -119477.08    419.97133 
   33100    289.43426   0.97042001    359589.35   -109505.69    9966.4713   -119472.16    420.53343 
   33200    290.11305   -16.067621    359575.27   -109549.65    9989.8448    -119539.5    421.56375 
   33300    293.32852    32.764745     359725.2   -109544.59    10100.568   -119645.16    422.48394 
   33400    290.98753   -103.31871    359780.52   -109564.32    10019.957   -119584.28    424.34812 
   33500    289.81336    124.71962    359685.67   -109566.34    9979.5253   -119545.86     425.8656 
   33600    290.32008   -229.67271    359886.41   -109569.07     9996.974   -119566.05    427.04213 
   33700    290.95053    20.202492    359561.17   -109527.61    10018.683   -119546.29    428.12634 
   33800    291.05242    49.196692    359742.41   -109510.41    10022.191    -119532.6    429.58452 
   33900     291.3896   -158.94663     360676.6   -109572.83    10033.802   -119606.63    431.92536 
   34000    291.21727    75.815144    360487.18   -109527.39    10027.868   -119555.26    433.07804 
   34100    289.94963   -9.9410081    360330.53   -109567.64    9984.2178   -119551.86    434.60185 
   34200      289.794    5.1066293    360602.86   -109607.29    9978.8588   -119586.15     435.4298 
   34300    288.34676   -136.71435    360804.89   -109534.57     9929.024   -119463.59    436.28621 
   34400    293.35376    117.11363    360239.12   -109633.14    10101.437   -119734.58    437.22261 
   34500    292.47048     254.3888    360001.41   -109634.95    10071.021   -119705.97    437.92864 
   34600    289.67502   -252.99061    360754.07   -109727.64    9974.7616   -119702.41    439.13606 
   34700    291.57995    81.463888    360626.71   -109672.52    10040.357   -119712.88    440.57398 
   34800    291.80141    101.30213    360495.89   -109675.53    10047.982   -119723.51    441.56262 
   34900    290.14464   -121.91568    361054.27   -109725.79    9990.9328   -119716.72    443.32613 
   35000    290.92537    -132.0213    360581.82   -109674.77    10017.817   -119692.59    444.63326 
   35100    289.22127   -24.014644    359737.68   -109690.69    9959.1371   -119649.83    444.27382 
   35200    288.80559   -22.343025    359943.52   -109693.16    9944.8235   -119637.98    444.87578 
   35300    292.17915    41.520506    360424.45    -109613.7     10060.99   -119674.69    446.40767 
   35400    291.95226   -136.83897    360780.12   -109646.88    10053.177   -119700.05    447.55989 
   35500     290.9753     22.07356    360932.84   -109595.91    10019.536   -119615.45    448.07611 
   35600    292.94388   -97.373222    360585.22   -109550.25    10087.322   -119637.57    448.36357 
   35700    290.45388    225.75312    360140.37   -109582.41    10001.581   -119583.99    449.24174 
   35800    290.83544   -17.501604    360678.17   -109607.96     10014.72   -119622.68    451.06464 
   35900    291.07864   -95.563298    361016.92   -109574.55    10023.094   -119597.64     452.6475 
   36000    293.88957   -150.30832    360688.77   -109625.86    10119.887   -119745.75    453.33754 
   36100    290.71852    207.74215    360291.75   -109634.08    10010.694   -119644.78    454.46522 
   36200    290.15924   -86.538432    361017.16   -109631.13    9991.4354   -119622.57     456.0056 
   36300     289.7345   -99.932945     360983.9   -109670.67    9976.8097   -119647.48    456.68515 
   36400    293.16422    291.65062    359802.86   -109645.84     10094.91   -119740.75     457.0618 
   36500    294.29987    199.14058    359712.25   -109623.82    10134.015   -119757.84    457.65207 
   36600    288.04995   -75.752004    360705.39   -109573.78    9918.8035   -119492.58    459.27634 
   36700    292.65071   -236.92283    361252.27   -109598.69    10077.227   -119675.92    460.65334 
   36800    292.05398    156.73156    360862.43   -109588.73    10056.679   -119645.41     462.1457 
   36900    292.66156    22.010349    360817.34   -109609.55    10077.601   -119687.15    462.82162 
   37000     286.3523 -0.017614487     360771.5    -109673.6     9860.346   -119533.94    463.72202 
   37100    292.75801   -111.71037    360179.42   -109644.53    10080.922   -119725.45    464.24865 
   37200    293.62334    181.13645    359933.65   -109677.72    10110.719   -119788.43    465.05898 
   37300    292.24078   -3.1234517    359803.32   -109693.35    10063.112   -119756.46    466.52259 
   37400    288.50368   -134.58256    359802.17   -109671.68    9934.4275   -119606.11    467.32155 
   37500     290.3959    124.62666    360210.09   -109656.69    9999.5846   -119656.28    469.48853 
   37600     291.1817   -14.191537     360994.9   -109668.43    10026.643   -119695.08    470.75967 
   37700    290.41665   -221.63242    361053.04   -109653.27    10000.299   -119653.57    471.97941 
   37800    292.09602    197.14736    360197.35   -109712.14    10058.127   -119770.27    472.71092 
   37900    290.35663    5.4807838    359683.91   -109778.31    9998.2325   -119776.55    472.89538 
   38000    288.02493    75.017214    359626.78   -109799.04     9917.942   -119716.98    473.26601 
   38100    288.80004   -23.952943    360003.98   -109833.74    9944.6322   -119778.38    474.59372 
   38200    290.72792   -41.092539    360561.97   -109802.99    10011.017   -119814.01    476.49774 
   38300    289.13863   -168.38874    360573.85   -109898.05    9956.2915   -119854.34     477.5314 
   38400    287.07865    91.340775    360037.66    -109894.8    9885.3575   -119780.16    478.28447 
   38500     288.2492    72.702533    360088.59   -109884.07    9925.6647   -119809.74    478.69142 
   38600    288.13466   -2.5334148     360168.6   -109919.58    9921.7203    -119841.3    479.24415 
   38700    289.33075    137.93107    360492.51   -109864.24    9962.9069   -119827.15    480.23883 
   38800    285.99418   -434.28071    361071.43   -109808.15    9848.0143   -119656.17    481.41598 
   38900    289.21868    152.53412    360883.46   -109790.66    9959.0479    -119749.7    482.92317 
   39000    286.66775   -243.77328    361439.39    -109781.7    9871.2083    -119652.9    485.28629 
   39100    289.52505    -110.0928    361207.61   -109766.52    9969.5976   -119736.11     486.0877 
   39200    291.82533    27.972038    359825.71   -109706.92    10048.806   -119755.73    486.38764 
   39300    286.60086    109.97323     359330.3   -109877.34    9868.9051   -119746.25     486.0144 
   39400    289.09849   -29.682869    360150.97    -109893.4    9954.9093   -119848.31    487.71868 
   39500     288.0713   -190.79228    360664.03   -109899.45    9919.5386   -119818.99     489.4484 
   39600    286.00264    138.61074    360117.21   -109920.64    9848.3058   -119768.95    490.01445 
   39700    287.37458   -40.520939    360149.58   -109958.82    9895.5477   -119854.37    491.07203 
   39800    285.63286    -167.6698    360363.68   -110002.31    9835.5725   -119837.89    493.08543 
   39900    290.00521   -51.836317    359794.59    -109913.3    9986.1314   -119899.43    494.17611 
   40000    292.25325    213.54796    359161.79   -109785.67    10063.541   -119849.22    495.70511 
   40100    289.64358    49.752559    359443.94   -109760.16    9973.6789   -119733.84    496.51523 
   40200    290.76668   -63.850868    360209.24   -109717.43    10012.352   -119729.79    498.38101 
   40300    292.23848   -38.714713    360671.86   -109645.88    10063.033   -119708.91     499.6528 
   40400    290.94553    115.01934    360941.73   -109639.05    10018.511   -119657.56    501.13224 
   40500    291.55723    35.732182    360750.42    -109687.2    10039.574   -119726.78    502.26315 
   40600    287.91907  -0.22897274    360504.64   -109698.77    9914.2967   -119613.07    503.22239 
   40700    291.72861     111.5819    359956.08   -109695.15    10045.476   -119740.63      503.677 
   40800    290.31041   -10.640726    360216.86   -109707.56    9996.6409    -119704.2    505.08771 
   40900    290.25361   -39.469031    361024.64   -109699.31     9994.685   -119693.99    507.05675 
   41000      288.962   -56.006109    361216.86    -109602.8    9950.2094   -119553.01    508.19885 
   41100    295.60728   -43.891606    361220.65   -109604.48    10179.035   -119783.51    508.16347 
   41200    291.90087    69.411365    360597.18   -109564.52    10051.407   -119615.92    508.65696 
   41300    288.46253    142.41207    359919.02    -109588.5    9933.0106   -119521.51    508.90718 
   41400    290.62109   -17.926979    360257.58    -109598.9    10007.339   -119606.24    509.91387 
   41500    288.82871   -168.53143    361038.33   -109676.16    9945.6194   -119621.78    511.52596 
   41600    291.41172   -195.36472    361412.81   -109709.26    10034.564   -119743.82    512.68198 
   41700    289.99224   -5.0528853    360499.04   -109716.82    9985.6848   -119702.51    513.28546 
   41800    289.19508    155.94596    359822.98   -109681.07    9958.2352    -119639.3    513.72216 
   41900    290.05028    16.294981    359881.03   -109701.88    9987.6836   -119689.56    514.00658 
   42000    289.13742    235.76133    359968.41   -109714.34    9956.2497   -119670.59    514.97449 
   42100    286.44674   -86.954949    360354.34   -109726.83     9863.598   -119590.42      517.166 
   42200    292.25196    162.46196    360296.87   -109640.23    10063.497   -119703.73    517.81565 
   42300    286.49249   -41.331284    360371.13   -109662.58    9865.1735   -119527.75    518.48841 
   42400    288.80531    45.032511    359724.32   -109621.22    9944.8138   -119566.03    518.32059 
   42500    292.49459      390.311    359618.63   -109637.74    10071.852   -119709.59    519.97333 
   42600    284.76091   -210.87155     360466.2   -109630.67    9805.5475   -119436.22     521.4748 
   42700    288.15374    65.427277    360462.71   -109565.03    9922.3776   -119487.41    521.58007 
   42800    291.92823    44.163891    360098.17    -109650.3    10052.349   -119702.65    520.99536 
   42900     287.6542   -79.032841    359734.14   -109660.96    9905.1762   -119566.14    521.66461 
   43000     286.7532    194.16969    359583.33   -109653.46     9874.151   -119527.61    522.56131 
   43100    285.53127    180.36047    360059.69   -109684.66    9832.0746   -119516.74    523.18085 
   43200    286.42704   -137.73059    361033.59   -109673.27    9862.9196   -119536.19    525.00748 
   43300    289.85839   -88.981557     360931.6   -109679.38    9981.0758   -119660.45    526.41711 
   43400    291.84782    246.82298    360473.35   -109599.58    10049.581   -119649.16    527.00067 
   43500    287.74165    7.0693475    360247.23   -109623.28    9908.1874   -119531.47    527.35441 
   43600    288.47851    120.92408    360135.47   -109575.05    9933.5605   -119508.61     529.0789 
   43700    289.20942    6.0771093    360303.53   -109568.45     9958.729   -119527.18    530.70821 
   43800    287.64691    28.346791    360272.19   -109532.03    9904.9251   -119436.96    531.51683 
   43900    293.08295    89.265722    359972.54   -109404.86    10092.111   -119496.97    532.77397 
   44000    289.44748    120.43918    359536.27   -109421.47    9966.9265   -119388.39    533.40827 
   44100    292.35481   -38.673931    359986.46   -109420.65    10067.038   -119487.69    534.85253 
   44200    291.87615       27.481    360420.04   -109454.07    10050.556   -119504.63    535.86473 
   44300     291.3413   -29.070059    360491.73   -109419.66    10032.139    -119451.8    537.82853 
   44400    292.98048   -109.90553    360706.42   -109453.86    10088.583   -119542.45    538.48142 
   44500    290.03302    -46.35803    360636.15   -109438.87    9987.0891   -119425.95    538.93709 
   44600    289.16067    2.6284254    359892.67   -109495.66    9957.0504   -119452.71    539.33663 
   44700    289.31519    32.251494    359661.47   -109472.41    9962.3713   -119434.78     540.2814 
   44800    291.34137    -37.30665    360063.37   -109344.99    10032.141   -119377.14    541.67565 
   44900    290.79093    15.666071    359798.78   -109337.78    10013.187   -119350.97    542.77239 
   45000    291.42957   -57.638334    359479.86   -109331.63    10035.178   -119366.81    543.41728 
   45100    290.90212   -46.336023    359544.34   -109290.89    10017.016    -119307.9    544.57688 
   45200    287.43127   -66.840898    359262.61   -109250.33    9897.4996   -119147.83    545.66687 
   45300    293.70146   -16.180043    359050.49   -109216.33     10113.41   -119329.74    546.03471 
   45400    289.97567    33.594952    359477.33   -109199.84    9985.1143   -119184.96    547.76358 
   45500    294.27748   -236.03595     360278.4    -109274.9    10133.244   -119408.14    548.71379 
   45600    289.76009    -77.70941    360093.73   -109234.56     9977.691   -119212.25    550.46864 
   45700    290.79462     180.9399    359743.31   -109253.73    10013.314   -119267.04    551.68556 
   45800    292.27926   -39.891196    360012.04    -109257.6    10064.437   -119322.04    552.79331 
   45900    291.64464    164.65901     360070.2      -109294    10042.584   -119336.58    554.80332 
   46000    288.93833   -58.154036    360078.39   -109343.38    9949.3944   -119292.77    555.48485 
   46100    291.94986   -23.564553    359966.58   -109308.32    10053.094   -119361.41    556.03839 
   46200    289.01516   -44.005224    360012.18    -109376.6    9952.0398   -119328.64    557.61931 
   46300    289.71502    -42.00564    360264.62   -109410.01     9976.139   -119386.15    559.65906 
   46400    290.09737   -149.59388    360118.09   -109437.56     9989.305   -119426.87    560.91867 
   46500    288.36128    141.74979    359290.52   -109429.54    9929.5241   -119359.06    562.04178 
   46600    290.10583    130.37889    359065.13   -109487.03    9989.5962   -119476.63    562.49815 
   46700    289.24366   -51.329723    359673.61   -109427.01    9959.9082   -119386.92    564.23307 
   46800    294.82419    17.137172    359929.25   -109354.49     10152.07   -119506.56    565.12314 
   46900    293.82385   -72.072726    359795.82    -109334.5    10117.624   -119452.12    566.40779 
   47000     291.9312    130.61833    359521.47   -109300.43    10052.452   -119352.88    567.18785 
   47100    289.60558    371.13195    359419.22    -109354.8    9972.3705   -119327.17    568.75484 
   47200    288.19411   -57.142519     360368.6   -109378.94    9923.7676   -119302.71    570.35448 
   47300    289.40591   -341.50554    361095.22   -109300.99    9965.4949   -119266.49    571.99184 
   47400     289.8477   -107.76504    360151.19   -109271.06    9980.7077   -119251.77    571.89569 
   47500    294.06857    226.25589    358848.97   -109224.42    10126.051   -119350.47     571.9892 
   47600    293.65716     151.5992    358699.19   -109275.28    10111.884   -119387.16    572.74827 
   47700    288.62927    112.41373     359315.6   -109294.66     9938.752   -119233.41    574.84808 
   47800    290.78351   -100.10698    360371.51   -109271.65    10012.932   -119284.58    576.54268 
   47900    291.50063   -256.22746    360533.34   -109206.87    10037.625    -119244.5    577.07059 
   48000    289.70317    222.77122    359218.17   -109219.29    9975.7309   -119195.03    577.24203 
   48100    294.37835     171.0133     359331.8   -109147.78    10136.718    -119284.5    579.44641 
   48200    293.75145   -30.080456     360410.8   -109111.79    10115.131   -119226.92    582.05465 
   48300    292.61536   -53.428757    360459.09   -109203.48     10076.01   -119279.49    583.79175 
   48400    288.21328    17.139269    359823.63   -109265.48    9924.4276   -119189.91    584.46117 
   48500    290.76413    114.11469    359536.61   -109236.21    10012.264   -119248.47    584.76341 
   48600     293.3069    70.064126    359678.35   -109205.71    10099.823   -119305.54    585.69739 
   48700    289.15326    114.65326    359720.15   -109216.24    9956.7954   -119173.03    587.54966 
   48800    291.69391    6.0832478    360133.74   -109140.96    10044.281   -119185.24     589.5745 
   48900    292.50926   -138.48064    360473.64   -109165.55    10072.357    -119237.9    590.79139 
   49000    292.63837    362.77217    360012.34    -109082.9    10076.803    -119159.7    591.23415 
   49100    292.75307    51.776942    360586.16   -109052.58    10080.752   -119133.33    592.41864 
   49200    294.48028   -103.18538    360829.39   -108980.76    10140.228   -119120.99    593.96736 
   49300    293.91303    114.19109    360361.95   -108929.61    10120.695    -119050.3    595.28765 
   49400    294.50552    50.949325     360445.6   -108999.52    10141.097   -119140.62    596.85207 
   49500    294.24523   -76.614241    360751.49   -109119.38    10132.134   -119251.51    597.36055 
   49600    289.55831    -109.4824    360209.08   -109132.97    9970.7428   -119103.71     598.0733 
   49700    289.17952    291.11983    359153.07   -109223.46    9957.6996   -119181.16    598.61753 
   49800    290.54131    47.129783    359099.98   -109187.06    10004.592   -119191.66    599.19702 
   49900    291.40215   -84.399976    359320.02    -109166.4    10034.234   -119200.63    600.66766 
   50000    291.60467    -32.75168    359692.53   -109115.15    10041.208   -119156.36    601.81879 
Loop time of 156.508 on 6 procs for 50000 steps with 11553 atoms

Performance: 276.024 ns/day, 0.087 hours/ns, 319.472 timesteps/s
99.5% CPU use with 6 MPI tasks x no OpenMP threads

MPI task timing breakdown:
Section |  min time  |  avg time  |  max time  |%varavg| %total
---------------------------------------------------------------
Pair    | 52.966     | 92.721     | 130.11     | 325.8 | 59.24
Neigh   | 15.482     | 17.225     | 18.751     |  31.6 | 11.01
Comm    | 3.961      | 42.865     | 84.335     | 499.1 | 27.39
Output  | 0.075821   | 0.076468   | 0.079227   |   0.4 |  0.05
Modify  | 2.9134     | 2.9554     | 2.991      |   1.8 |  1.89
Other   |            | 0.6656     |            |       |  0.43

Nlocal:        1925.50 ave        1998 max        1865 min
Histogram: 2 0 0 0 0 3 0 0 0 1
Nghost:        2489.67 ave        2563 max        2453 min
Histogram: 2 2 0 0 0 0 1 0 0 1
Neighs:        0.00000 ave           0 max           0 min
Histogram: 6 0 0 0 0 0 0 0 0 0
FullNghs:      54999.7 ave       57306 max       53116 min
Histogram: 2 0 0 0 0 3 0 0 0 1

Total # of neighbors = 329998
Ave neighs/atom = 28.563836
Neighbor list builds = 7145
Dangerous builds = 0

reset_timestep      0
undump              1

################################################
#######         Run Simulation         #########
################################################

log                 log.run_${NAME}
log                 log.run_Tmelt_291K_AUTO
