LAMMPS data file via write_data, version 29 Oct 2020, timestep = 200000

4608 atoms
1 atom types

-0.011976765260850897 57.282486765261865 xlo xhi
-0.010646013565168033 50.91776601356621 ylo yhi
-0.010646013565168033 50.91776601356621 zlo zhi

Masses

1 18.015

Atoms # atomic

5 1 1.8697205411617013 1.3965751772704045 1.5255297544702129 0 0 0
13 1 7.865865120174802 1.586606112986377 1.4820526611130878 0 0 0
18 1 12.635837898955451 2.7451544820478535 3.2868251173870404 0 0 0
21 1 14.165932923412523 1.2740017639951604 1.5481834223732645 0 0 0
19 1 16.097987292187792 0.03665142010991665 3.0579911952646897 0 0 0
50 1 0.03237155646162648 15.49850757872479 3.234973141836173 0 0 0
193 1 0.16556585465572482 0.07174044380344924 6.182110657917179 0 0 0
8 1 4.616934965289656 4.738951527420512 1.570296189449893 0 0 0
27 1 3.112655805637775 6.55844913487428 2.9637571946520325 0 0 0
35 1 9.595525665389452 6.175203436949012 3.099379082518819 0 0 0
16 1 11.259369916337935 4.302320917165051 1.4364646947990283 0 0 0
881 1 12.722245009247429 25.56084208126082 25.310131872864034 0 0 0
43 1 15.658001438530759 6.159983934021844 3.2428977429417434 0 0 0
24 1 17.07898993467441 4.713987614920349 1.463487352938025 0 0 0
29 1 1.5687774251261741 8.053201179985566 1.4662085587574367 0 0 0
820 1 2.935175253852302 15.853414282783941 25.371354078726633 0 0 0
37 1 7.837223731961268 8.115242324057348 1.4650359643953743 0 0 0
2329 1 18.486416231257195 6.093746387520663 25.214016381274963 0 0 0
45 1 14.083826269108304 8.270104336077694 1.7421319945974723 0 0 0
595 1 15.955409456065443 0.003769437407893216 22.632744684781755 0 0 0
32 1 4.786755413202487 10.844395793445521 1.3015592804074942 0 0 0
40 1 11.166029425371784 11.162648802120033 1.4363421147492332 0 0 0
59 1 9.338762836011444 12.673468111957565 2.893559677250251 0 0 0
48 1 17.64985045790522 11.613711251493218 1.6429372156826092 0 0 0
53 1 1.960056576199401 14.479090535309027 1.678426532835151 0 0 0
51 1 3.7078740687347684 12.587831158536854 3.378453876044118 0 0 0
61 1 7.750897631206115 14.297083376866404 1.7161636651106955 0 0 0
58 1 6.42434052561955 15.916170243713177 3.253186285020675 0 0 0
69 1 14.605311533556959 14.525495833343923 1.0519780016696192 0 0 0
67 1 15.984116885301756 12.918410351477432 2.9569325926293377 0 0 0
44 1 15.933657283751199 9.823437527361225 0.2529327919195872 0 0 0
75 1 3.2442228326738616 18.890067041466892 3.1270533768686324 0 0 0
56 1 5.049864609879508 17.412891456214304 1.6065749484031606 0 0 0
52 1 3.5106776059888314 16.010824090545718 0.00834107399689565 0 0 0
64 1 11.272105823644532 17.346464984444964 1.7601000924785444 0 0 0
83 1 9.573431328763846 18.923599367040605 3.371536724642517 0 0 0
26 1 0.21138113949214685 9.476026972632216 3.1891135766485887 0 0 0
72 1 17.814564341937942 17.462384491282236 1.308522658414535 0 0 0
77 1 1.5293229415140712 20.721826521802022 1.5942293753341783 0 0 0
85 1 8.407112053391774 20.819806144458152 1.7605857177637885 0 0 0
90 1 12.716265152816089 22.141329237151844 2.9847622815456436 0 0 0
93 1 14.229232476414152 20.608042999361462 1.400444532324413 0 0 0
601 1 0.12595233653784987 6.029596796413509 19.69279661462948 0 0 0
80 1 5.116673358571083 23.898883430827773 1.6321440245738954 0 0 0
99 1 3.629659437506598 25.378930705526372 3.5740101295840345 0 0 0
88 1 11.243856497160618 23.788090113139948 1.6208827883784516 0 0 0
96 1 17.293153038408207 24.050707472347103 1.4858513870345293 0 0 0
57 1 6.0776909119454094 12.693682625234453 0.3253663817628237 0 0 0
697 1 0.18542158701647843 31.531101859643822 19.212626542472442 0 0 0
101 1 1.6621630328760082 26.59480322129615 2.0489259298988607 0 0 0
9 1 6.15236188467585 50.91721943881949 0.014956147930272695 0 -1 0
106 1 6.730186579769342 28.460946264739878 3.0192849753158173 0 0 0
109 1 8.132795319481193 27.09072230285357 1.4570700024321883 0 0 0
114 1 12.803520246856186 28.504557514968283 2.9717586610101665 0 0 0
2 1 0.25109128056322727 3.0788906481296787 3.1775053450213084 0 0 0
117 1 14.514038073006892 26.9457750831773 1.5519957051512367 0 0 0
104 1 4.994825037435082 29.776947659631023 1.6874425183789152 0 0 0
112 1 11.333825196713454 30.3410960678904 1.6356075719832035 0 0 0
929 1 12.635260209355843 38.42548087067756 25.275255375710973 0 0 0
120 1 17.806416679726176 30.191119660985056 1.2748026522054277 0 0 0
766 1 14.333065767967126 49.270731745984335 23.967377045313473 0 0 0
125 1 1.6300661943928112 33.28133102060329 1.630079390868031 0 0 0
133 1 7.753290787827521 33.59461223411962 1.4649602734229101 0 0 0
131 1 9.437132994003475 32.091325270673394 3.034987868737391 0 0 0
141 1 14.733725599653381 33.67288366213167 1.3545288459935458 0 0 0
241 1 0.1916591103998764 12.50166554212071 6.522419343944793 0 0 0
128 1 4.607394729256489 36.82537938661309 1.3023953242482225 0 0 0
136 1 11.164994023351595 37.06020770698507 1.8996250071777103 0 0 0
138 1 12.705138045172408 35.08255460068608 3.042786591524829 0 0 0
144 1 17.683097990082096 36.618750245474445 1.7707124214806997 0 0 0
163 1 15.90477908758196 38.12907077323105 3.1185553306223515 0 0 0
409 1 0.1500364802870345 6.069006981539418 12.982824124500617 0 0 0
149 1 1.7280406025640478 39.35155117490807 1.5922657698634273 0 0 0
897 1 6.467892005525059 32.0908606591875 25.11007711502082 0 0 0
410 1 0.0015561341796510222 9.01002278585487 16.244783980235493 0 0 0
157 1 8.017925567812735 39.76794375503613 1.4864836663036154 0 0 0
162 1 12.677485777446657 41.466001400216356 3.5403129551862054 0 0 0
165 1 14.461435627313975 39.94635861309392 2.0379246952376424 0 0 0
171 1 3.070852420167492 44.42129329034442 3.2123580096448916 0 0 0
152 1 4.753792903599226 43.18815092669858 1.3296361796137206 0 0 0
154 1 6.305574006155517 41.36806946672873 2.928817353371563 0 0 0
179 1 9.390685163922114 44.35308017187381 3.1699267520782675 0 0 0
160 1 11.285598546705032 42.806707423318144 1.4448344052487354 0 0 0
187 1 15.899943295055948 44.63851560409786 3.392550786362235 0 0 0
177 1 6.483039912118253 44.74957531060086 0.0899488403866833 0 0 0
168 1 17.609452865061183 43.357103637077444 1.6628415521357203 0 0 0
173 1 1.9245964586022186 45.92698666169562 1.5687916841242835 0 0 0
218 1 0.12987061207719183 9.229209626087826 9.550876430307758 0 0 0
181 1 7.974422025597244 46.08073021216671 1.7436444684881174 0 0 0
189 1 14.16289747955233 46.004340966592494 1.804846729088276 0 0 0
186 1 12.440118959002183 47.697963801980606 3.192352672420833 0 0 0
587 1 9.489781258342342 0.0942200556075888 22.534664441193566 0 0 0
889 1 0.003414791778197923 31.945082542170596 25.449253343066726 0 0 0
176 1 4.650104007072489 49.34591785145345 1.65021831759354 0 0 0
178 1 6.176160346385467 47.597632642878565 3.2635823556764074 0 0 0
11 1 9.084917676857348 50.5552531152055 3.1431552223594306 0 -1 0
184 1 10.862025666215725 49.1955759728169 1.4129610173838014 0 0 0
192 1 17.48451121608839 49.28123757934925 1.3150232677913238 0 0 0
3 1 3.0830414686646463 50.63110379740536 3.6989979014488554 0 -1 0
7 1 4.6921919709190405 1.548882451785029 4.763062504622598 0 0 0
10 1 6.4262701333089325 3.3555345504125995 3.1000425856203933 0 0 0
15 1 10.901856348176233 1.2733113397666234 4.727482729036442 0 0 0
212 1 15.555811719852304 3.014411231267174 6.1704639163275266 0 0 0
23 1 17.373262624166887 1.7305250077390688 4.429129525579937 0 0 0
6 1 1.647974782133354 4.775942593701694 4.6797020240083995 0 0 0
225 1 6.349578178098443 6.377064173808457 6.221314822882859 0 0 0
14 1 7.9252142722115435 4.626038161848899 4.779205280499052 0 0 0
22 1 13.888315224421852 4.621715538736969 4.974536533747818 0 0 0
220 1 3.205848420297482 9.480628495160778 6.384898652012733 0 0 0
31 1 4.628705456506377 7.730592286736225 4.895901085096527 0 0 0
39 1 10.882620990207037 7.776615219657643 5.0146395792225835 0 0 0
228 1 9.56122856995625 9.653395355676768 6.352108565182194 0 0 0
47 1 17.197732074632345 8.043754495146567 4.878458462879659 0 0 0
30 1 1.8051369172413947 11.089731608729924 4.87068247651772 0 0 0
34 1 6.280186505563812 9.212237188565407 3.267530531893369 0 0 0
38 1 7.880250591718386 10.84615709954891 4.730374492982353 0 0 0
42 1 12.586257826774803 9.617379761769435 3.526647732344411 0 0 0
46 1 14.411186128661056 11.499259857036161 4.799706704279769 0 0 0
257 1 12.800669562844671 12.806436440437304 6.242672694904689 0 0 0
55 1 4.999578919203276 14.379663421886276 4.880377798047213 0 0 0
249 1 6.387477856642962 12.598333628707309 6.692611180304738 0 0 0
63 1 11.15052905645221 14.222305438293203 4.616695962311382 0 0 0
71 1 17.648648689000254 14.201304771284645 4.800547078471054 0 0 0
260 1 15.828386917307846 15.94367049830631 6.4841583831133915 0 0 0
54 1 1.7386682219719114 17.276914634775107 4.626558695509665 0 0 0
62 1 7.877534573480505 17.423517825068952 4.86707190050384 0 0 0
66 1 13.030469696839441 15.464277282212501 3.1204519680268934 0 0 0
252 1 9.633629171223742 15.850281379463578 6.036203123514329 0 0 0
70 1 14.469515333361889 17.382713886002502 4.489342290559806 0 0 0
91 1 16.126938786935575 19.015371372987865 2.885541629738471 0 0 0
758 1 7.882946244491608 49.36847834016096 24.126750627381046 0 0 0
746 1 0.24904920193175684 47.6933019690743 22.26104425797288 0 0 0
79 1 4.934352066321365 20.522929157684572 4.8298628524740135 0 0 0
82 1 6.467808976018804 21.97730442014219 3.370592365435986 0 0 0
273 1 6.518594108369884 18.946326449034032 6.3988376798479685 0 0 0
276 1 9.787013477150875 22.362319255490103 6.575367111731357 0 0 0
87 1 11.251736354292023 20.649974073196038 5.003773358500296 0 0 0
284 1 15.578934648659883 22.096377037679424 6.128144580487076 0 0 0
95 1 17.712061974621694 20.81110603182726 4.774232567550177 0 0 0
78 1 1.9017955689013955 23.68836738558278 4.945193379180744 0 0 0
86 1 8.085836415211256 23.552823138882427 4.650027121283555 0 0 0
94 1 14.516999163105478 23.791400838557 4.4280237763399475 0 0 0
115 1 16.035316478459126 25.465609391372375 3.204209912388176 0 0 0
103 1 4.947475006601438 27.48471671483277 4.736915758322502 0 0 0
107 1 9.561822650548866 25.486441692784606 3.167949687572022 0 0 0
300 1 9.330807870378925 28.706430503597264 6.5712979552711195 0 0 0
111 1 11.103701034667925 27.04169552405482 5.145441571381535 0 0 0
119 1 17.604211727494423 27.02214567025493 4.733417826957038 0 0 0
308 1 16.09091149558193 28.64143444361233 6.368214400710194 0 0 0
102 1 1.1963263232965435 30.01041060085982 4.8391120876601 0 0 0
292 1 2.9627947847626968 28.618576099038133 6.324549385946225 0 0 0
110 1 8.119305701876923 30.126191393676248 4.761894409142594 0 0 0
139 1 16.127040196408352 31.78666409649976 2.981456065106332 0 0 0
118 1 14.302786548792932 30.00386133307216 4.505165500724317 0 0 0
329 1 12.795386674650006 31.836046241953287 5.888407892483495 0 0 0
123 1 2.9752020523406086 31.633477391435925 3.6681109070963864 0 0 0
127 1 4.749102641197104 33.1797242561219 4.656507593156513 0 0 0
321 1 6.435043580228771 31.721657123609177 6.075082633670748 0 0 0
135 1 11.065405363482125 33.62160209434087 4.327087243040852 0 0 0
332 1 16.094246208303044 34.83847965455564 6.267324145309703 0 0 0
143 1 17.571334457325047 33.251439316495876 4.960061375462325 0 0 0
126 1 1.701986829153322 36.27426615153698 4.959708558637794 0 0 0
130 1 6.181995505838335 35.1801997372651 2.9475558946567877 0 0 0
134 1 7.755539019329659 36.68824190210236 4.598959320144382 0 0 0
155 1 9.367593559926224 38.52045518271733 3.3458034038980706 0 0 0
142 1 14.47861479996022 36.45028188934181 4.797383250141109 0 0 0
353 1 12.600356160746651 38.030365185312945 6.309912069087703 0 0 0
754 1 6.502897255909218 48.068437327002314 22.067507755943055 0 0 0
147 1 3.268118690991095 38.04388579614789 3.3979112767399173 0 0 0
151 1 4.641781928128435 39.83254681465134 4.665019365490047 0 0 0
345 1 6.361849191343544 38.04123875079874 6.035612844248406 0 0 0
159 1 11.071379079668567 39.880670389301045 5.118893889836011 0 0 0
167 1 17.452615730943993 39.81679627856879 4.467313020146444 0 0 0
356 1 16.07311435784855 41.12960226675257 6.521337005591654 0 0 0
150 1 1.4937254095798458 42.922733852018595 4.95401148681127 0 0 0
369 1 6.078634538334727 44.6632076515249 6.229326843979592 0 0 0
348 1 8.99862972263001 41.16842764167272 6.225505194507856 0 0 0
158 1 7.444793365978542 42.8963546135422 4.740135194370352 0 0 0
166 1 14.744405795605127 42.93994122055261 4.9070397498157075 0 0 0
377 1 12.801030056595678 44.2717974469473 6.446019763079872 0 0 0
650 1 0.4289859179005943 22.274416570439502 22.604264657039842 0 0 0
175 1 4.47009685583775 46.08183626349452 4.795252599580817 0 0 0
364 1 2.8499083179367464 47.54459451843498 6.66134830189419 0 0 0
372 1 9.369019850043127 47.75336877925176 6.2325656646998375 0 0 0
183 1 11.072930672495643 45.997868249661536 4.611750102679957 0 0 0
191 1 17.72124898775825 46.19528392714399 4.589784773339653 0 0 0
174 1 1.5039161265602106 49.16697672149233 4.969807197327778 0 0 0
182 1 7.482512440896156 49.34316617701691 4.872928644915338 0 0 0
380 1 16.117087573237182 47.8457396748649 6.204070156656242 0 0 0
190 1 14.439796435532863 49.33529597734095 4.462687118568373 0 0 0
338 1 0.1182338541506942 41.42069449455636 9.820938311242426 0 0 0
196 1 3.0586275406843604 3.1301844252804876 6.3673352704290505 0 0 0
197 1 1.4594089049405206 1.5723499319933192 7.877519051514851 0 0 0
195 1 2.8004510988757727 0.17279931898625983 9.682400441270198 0 0 0
205 1 7.6870782367138215 1.7537014340767216 8.17956720182124 0 0 0
204 1 9.76271499242956 3.117510701334573 6.29291094942072 0 0 0
213 1 14.502745947389192 1.139081880996874 8.000897744434065 0 0 0
219 1 3.102319091870465 6.4849800118444625 9.428486532185495 0 0 0
200 1 4.606576734310526 4.8239898122349345 8.010532936943559 0 0 0
227 1 9.604654085078673 6.441293079371268 9.354191089908259 0 0 0
208 1 10.976894853255073 4.370250848537999 8.207095263867425 0 0 0
233 1 12.345014893795057 6.203359777985375 6.812328135088278 0 0 0
216 1 17.27332567842242 4.733963224165593 7.8942253045017345 0 0 0
482 1 0.1024081995354577 28.773676972598548 16.165404846528734 0 0 0
221 1 1.4254094647593472 7.764291780255419 7.8490467700642865 0 0 0
226 1 6.5052800945098 9.724984528149502 9.332922353750812 0 0 0
229 1 7.948878171698733 8.091866536757447 7.635672984409048 0 0 0
237 1 14.022240219913092 8.175771562023872 7.94557438323378 0 0 0
236 1 15.58320383909714 9.726822502664854 6.498546008694282 0 0 0
234 1 12.578193641134181 9.70102908535806 9.590144928263323 0 0 0
243 1 2.9894773942875297 12.541530388131026 10.010857326066038 0 0 0
224 1 4.52897792266837 11.112533127380464 8.317631321249529 0 0 0
232 1 11.178019415359957 11.27735077848184 7.748726856803187 0 0 0
240 1 17.452897792996357 11.381089309849726 7.677891068514415 0 0 0
259 1 16.217304291525668 12.840178947418018 9.700541277670284 0 0 0
161 1 12.896751483223044 38.46920655657861 0.12880232953353057 0 0 0
386 1 0.02397697949519978 3.0287756523374214 15.850954064928834 0 0 0
245 1 1.5453752117737731 14.177125085149877 8.124174735046038 0 0 0
253 1 8.338421233131621 14.222697620233568 7.86418058787617 0 0 0
261 1 14.2518971586806 14.362901635106807 8.102001178981137 0 0 0
258 1 12.568465803055243 15.81217674414504 9.846151384545808 0 0 0
244 1 3.1353511017232494 15.604777064786063 6.278654162177312 0 0 0
248 1 4.759489887113969 17.424509697609853 7.664960692715092 0 0 0
256 1 11.279721174711451 17.509110553065636 7.810993899230728 0 0 0
283 1 15.62594795776714 18.901292756271808 9.799045481947529 0 0 0
264 1 17.424397081375194 17.49224885949447 8.041139632706583 0 0 0
269 1 1.8715149506182975 20.337951845862445 8.056361955105519 0 0 0
267 1 3.533591485444233 18.88931643604988 9.787477078053412 0 0 0
268 1 3.4612369712239768 22.389249626606976 6.670239147864978 0 0 0
277 1 7.990076158793249 20.654661057391603 7.904771993847277 0 0 0
281 1 12.817671114764137 18.941678427102943 6.135376302747858 0 0 0
285 1 14.254514499265758 20.34706747912747 7.917691329702739 0 0 0
750 1 1.438707824531187 49.350983739691216 23.807876540352762 0 0 0
272 1 5.11923187252764 24.01802691118216 7.898986985659602 0 0 0
297 1 6.650873443068612 25.659639177733947 6.359624639231329 0 0 0
280 1 11.150259237613252 23.88753455674722 8.318390268681641 0 0 0
305 1 12.84954720299997 25.137587538757295 6.60364644413378 0 0 0
288 1 17.485250238657958 23.573246742417012 7.557766536840592 0 0 0
674 1 0.1911393117153149 28.71787920489941 22.250706233331716 0 0 0
293 1 1.5260723553539728 26.72422666007039 8.187206468159669 0 0 0
301 1 8.020198744417634 27.220827725815536 8.20248812689452 0 0 0
306 1 12.552732594220133 29.103147082268354 9.38207324951634 0 0 0
309 1 14.104796220369497 27.31550124604084 7.759668076901432 0 0 0
505 1 0.20381919519453326 32.015107870101644 12.892809110818929 0 0 0
296 1 4.835789772904523 30.09874776149856 7.533620716036208 0 0 0
315 1 3.3115666611041052 31.647625688734045 9.361037565332824 0 0 0
298 1 6.233717494773779 28.3351468996966 9.56974658252893 0 0 0
304 1 10.975459882741399 30.655408331484523 7.943994273640082 0 0 0
323 1 9.194104291137752 32.08459367114999 9.553761533296921 0 0 0
312 1 17.865568686473953 30.043969902116157 7.81938918577633 0 0 0
331 1 16.339209909789492 31.686310347261063 9.367899663561596 0 0 0
317 1 1.0697380510660013 33.026195320921815 8.374201020331839 0 0 0
325 1 7.813353526629968 33.597779665045906 7.589186396884875 0 0 0
324 1 9.4136238564628 34.931411071868965 6.140492834233529 0 0 0
333 1 14.441722369687776 33.10045886744575 7.663344643120143 0 0 0
330 1 12.797097888976312 34.93651846427642 9.37119737231631 0 0 0
316 1 3.0866884818331797 34.3941756166556 6.670971329531746 0 0 0
320 1 4.833083758759601 36.57211724399379 7.6207354975576225 0 0 0
322 1 6.242671231186138 34.88574887054662 9.273284138969647 0 0 0
328 1 10.740499192255083 36.4290918447538 7.8282107115797395 0 0 0
336 1 17.770410954234208 36.60633079339705 7.757294330320673 0 0 0
341 1 1.4775368941192832 39.80320190926102 7.861150323246993 0 0 0
340 1 3.3375657397194725 41.20683184025606 6.378744754395659 0 0 0
349 1 7.909346934143844 39.55712844579415 8.007441280471221 0 0 0
357 1 14.319913078095649 39.52383620057745 7.968368209438157 0 0 0
354 1 12.553966748734247 41.443922804571926 9.372127718276044 0 0 0
363 1 3.036827560985441 44.53671412852076 9.477084908402365 0 0 0
346 1 6.325208128701451 41.54688128134633 9.414174274093233 0 0 0
344 1 4.806968506830383 42.88866135290763 7.875902689726417 0 0 0
371 1 9.054861312913507 44.34153370560577 9.389812775857008 0 0 0
352 1 10.69911451597627 42.65214658330423 7.6708081299539055 0 0 0
360 1 17.95390762335956 42.96670459596241 7.932420888500034 0 0 0
365 1 1.1974678247053314 46.2430513286787 8.472854756527795 0 0 0
370 1 6.181801795899327 47.75909604890117 9.581248972213121 0 0 0
373 1 7.822790254746712 46.086236588480034 8.048921324686695 0 0 0
381 1 14.323819740532796 46.272616986925726 7.5713650844371045 0 0 0
378 1 12.490748377533556 47.54506611782388 9.377319800977418 0 0 0
673 1 0.119961727242021 25.27279851511886 19.10841836194942 0 0 0
368 1 4.327253637774745 49.465854195360194 8.01195815848987 0 0 0
201 1 6.076776987669199 0.15168218301580963 6.362990691667677 0 0 0
376 1 11.154693103935422 49.412638738818885 7.9927278902246215 0 0 0
209 1 12.769217370332571 50.557880669554606 6.263192236372325 0 -1 0
211 1 15.981334015269974 50.395971697545065 9.407432365620007 0 -1 0
384 1 17.738616687312035 49.12015874930465 8.020267239896956 0 0 0
199 1 4.638244253236342 1.3970323592625096 11.330144245096722 0 0 0
202 1 6.0698220556401825 3.2423481803642376 9.76852014636873 0 0 0
396 1 9.359033708353124 3.5688333277207382 12.767054350096712 0 0 0
207 1 11.055040695743603 1.9984710681154172 11.353849055480032 0 0 0
215 1 17.394708856562783 1.6511918156133707 10.849070098276012 0 0 0
649 1 0.16850537618748268 19.184460998792936 19.226753889876953 0 0 0
198 1 1.5231100748772415 4.763589492750576 10.990773536594283 0 0 0
417 1 6.189292789605913 6.572950105171503 12.532546882233316 0 0 0
206 1 7.943482080708169 5.047071533941163 11.001417837777057 0 0 0
210 1 12.91210115957067 3.054785905693728 9.720725218042396 0 0 0
214 1 14.464653948313236 4.869250704580074 11.158691352147937 0 0 0
235 1 15.687297213962006 6.389321826388363 9.169488697114637 0 0 0
223 1 4.850346304280113 8.062978267734735 10.896991799536464 0 0 0
420 1 9.334604649375507 9.54596148812877 13.000620614730888 0 0 0
231 1 10.719865265916411 8.258199894558642 11.063971767905235 0 0 0
425 1 12.644068215759344 6.745483536024642 12.51852265446044 0 0 0
767 1 17.433093553288398 46.20382636641476 24.177834895182304 0 0 0
239 1 17.13293308474139 7.954572057281511 10.642852309839828 0 0 0
222 1 1.5878352333172938 10.939412100967116 11.681744850259413 0 0 0
412 1 3.4037086187940764 9.407306519757222 12.855255250531117 0 0 0
230 1 7.790142095395365 11.134796771691365 11.19140603104006 0 0 0
251 1 9.890352756379313 12.495121522421448 9.659146329618654 0 0 0
238 1 14.306603666670902 11.25146780710755 10.919509446463893 0 0 0
449 1 12.716252026940401 12.826997733951771 12.777161305854909 0 0 0
759 1 11.35305641090788 46.419549092984866 23.85997080498702 0 0 0
41 1 12.811019132490951 6.256783090024122 0.1310363743320454 0 0 0
247 1 4.821124959746431 14.348412939711775 11.452783772511658 0 0 0
250 1 6.3312003085629796 15.50822471993184 9.343822622211086 0 0 0
255 1 10.879654326751483 14.306260318941437 11.363965513921807 0 0 0
263 1 17.831235591324056 14.26883910711528 11.37273128369983 0 0 0
246 1 1.5102166384123126 17.442268679674378 11.323585261898288 0 0 0
436 1 3.220804483310458 16.004220077698008 12.802569512098922 0 0 0
254 1 7.634000125237091 17.55372228442438 10.901434533295449 0 0 0
262 1 14.25894783444657 17.13079142556535 11.235501404968177 0 0 0
473 1 12.809927171875533 18.5742544955013 12.894692547730797 0 0 0
755 1 9.788091103751064 44.67185462833075 22.226287635901297 0 0 0
271 1 4.8298077224128875 20.72620464412367 11.12139274752281 0 0 0
275 1 9.278533871020663 18.83462548065802 9.115615443330052 0 0 0
274 1 6.608022983456811 22.139780754887166 9.678570764823853 0 0 0
279 1 10.67827055003088 20.299126691363686 11.180618523956307 0 0 0
282 1 12.52836487825459 21.689314778783555 9.635977026702394 0 0 0
287 1 17.409987886186215 20.68006207178166 11.395867467421617 0 0 0
270 1 1.1069300267502094 23.643772044914332 11.287890543797802 0 0 0
460 1 2.8986982975831324 22.251542645722957 12.731508193870111 0 0 0
299 1 9.901629113567209 25.712761276686027 9.889486642137685 0 0 0
278 1 8.178255984022659 23.990299755660747 11.027679128517526 0 0 0
286 1 14.33822690699491 23.879438221928183 10.761129325242347 0 0 0
476 1 15.899651439589361 22.5437718915909 12.826287176573528 0 0 0
307 1 15.778680806175444 25.446407450764895 8.829516245061994 0 0 0
2090 1 18.93641162661162 47.5706410461019 15.904190668444206 0 0 0
291 1 2.8668860351113454 24.92490667910476 9.543096109510225 0 0 0
295 1 4.199448806178099 26.80256224745407 10.981855664500513 0 0 0
303 1 11.445213297779949 27.443903317064393 11.179370028266982 0 0 0
311 1 17.237015494077394 26.80568761314675 10.564993900918882 0 0 0
500 1 15.845313161914838 28.513944838834036 12.615064500790156 0 0 0
294 1 1.6854846029995703 30.267229902497487 11.318375589525036 0 0 0
302 1 7.73284867948613 30.254624035047996 11.033602474669058 0 0 0
521 1 12.830188051811403 31.760143519220712 12.591398053763 0 0 0
310 1 14.42042642576223 30.34234901468832 10.909349533549998 0 0 0
751 1 5.117005321606807 46.481922887432916 23.512982665899973 0 0 0
319 1 4.794604110982907 33.22415848436823 10.865814722671914 0 0 0
513 1 6.553610420008856 31.952220473916586 12.651558400674533 0 0 0
327 1 11.220729400729368 33.36344278572446 11.080658807982347 0 0 0
335 1 17.79349543107876 33.37391972357787 11.193019987035676 0 0 0
318 1 1.6254707851145371 36.67257723316054 11.065447399437476 0 0 0
326 1 8.304447190776079 36.09304801179972 11.01890714165379 0 0 0
347 1 9.578281951975455 37.96227531388253 9.552998919479924 0 0 0
334 1 14.501310981646569 36.34189259469572 10.806656060138446 0 0 0
524 1 15.95325926231661 34.902957839879534 12.821183120461075 0 0 0
355 1 16.078086427935425 38.067695652786995 9.224193388205517 0 0 0
742 1 14.303108083124325 43.264839235738535 24.00591921093312 0 0 0
339 1 3.2547126788724956 38.056437320237706 9.287078299219464 0 0 0
343 1 4.870662344979091 39.61026708160436 10.946135325085999 0 0 0
351 1 11.097187893640754 39.77232516663723 11.120284568802022 0 0 0
540 1 9.760782279503154 41.00430849995887 12.946409565031537 0 0 0
359 1 17.368409549710538 39.672057056288295 10.989361070704579 0 0 0
738 1 12.60839750666579 41.76851786958447 22.25487861349154 0 0 0
342 1 1.6053219796561162 43.1159796806093 11.367460008276591 0 0 0
350 1 7.7849660598738515 42.81334267896783 11.209036412497642 0 0 0
569 1 12.622613692168425 44.52288810134674 12.538407044781025 0 0 0
379 1 16.101804632371948 44.6712218700645 9.2661157664516 0 0 0
358 1 14.337403387344965 43.13786519849124 10.85285561488125 0 0 0
529 1 0.21259438717559997 38.34208798646738 12.656061354601299 0 0 0
367 1 4.493551711411156 46.22383499749081 11.19068625977404 0 0 0
375 1 10.88890882592051 46.08039226521733 10.905946860768168 0 0 0
383 1 17.180123212034278 46.192099972016166 11.381680749909137 0 0 0
366 1 1.3628522080674392 49.35513243005214 11.15002465543648 0 0 0
374 1 7.715865423071149 49.25240092010709 11.47114965322114 0 0 0
203 1 9.425238987612154 0.0017774344200082674 9.917284335364677 0 0 0
382 1 13.922182444337944 49.39213908222719 11.179528840277634 0 0 0
1730 1 18.9918902479152 3.2152800143148754 9.0977203241479 0 0 0
389 1 1.5848150596913333 1.393204967500621 14.010985908252007 0 0 0
388 1 3.138485617590851 3.0732380189802977 12.584253784173228 0 0 0
397 1 8.098584270569583 1.6724888935371063 14.34994324133932 0 0 0
405 1 14.073447616020301 1.7677003089508072 14.28516488837717 0 0 0
392 1 4.953716985799127 4.715898418898158 14.11774519991991 0 0 0
419 1 9.327778338090463 6.476402998086168 15.876686564699996 0 0 0
400 1 11.071910917552886 5.102919017332433 14.471654355990715 0 0 0
404 1 16.06201758154359 3.3176644977641936 13.015799050140915 0 0 0
408 1 17.732034645456157 4.557258677198439 14.42641869414695 0 0 0
734 1 8.327149975070755 43.39038517231354 24.170368875412425 0 0 0
413 1 1.7065020345821693 7.861018976227434 14.518447177465813 0 0 0
418 1 6.323357330145373 9.627722100329462 16.24370353012167 0 0 0
411 1 3.1860218712630437 6.123782007090485 15.805407092243106 0 0 0
421 1 7.605128984689503 7.804645430016765 14.383925584493285 0 0 0
426 1 12.677403190045775 9.137513755145243 15.968892012553342 0 0 0
429 1 14.407432723482854 7.854400074490779 14.346784483624493 0 0 0
428 1 15.934817426124944 9.529073427896703 12.52048528461615 0 0 0
416 1 4.604091354388313 11.278738835736439 14.658968716306124 0 0 0
424 1 11.095627526236974 11.060632349999471 14.432293495246663 0 0 0
432 1 17.071547980915334 10.925821182489505 14.544732001733223 0 0 0
437 1 1.4564619481737102 14.537740037795027 14.620924409699759 0 0 0
435 1 2.810955253608354 12.627256813048573 16.305505710962535 0 0 0
441 1 6.089395770918737 12.579454349586719 12.864766951268829 0 0 0
445 1 7.528137315224149 14.4657279659354 14.529545095346617 0 0 0
444 1 9.529349888450065 15.795970073471084 12.794993471512699 0 0 0
452 1 15.777214377504373 15.686336132716537 12.824835934784074 0 0 0
453 1 14.261355071421455 14.172453689743383 14.652449334065933 0 0 0
440 1 5.002970837990173 17.420638574351457 14.440181239958145 0 0 0
465 1 6.383985220622359 18.975858855828506 12.721906941015272 0 0 0
442 1 6.3341468090620054 15.916148363453404 16.53385812911074 0 0 0
448 1 11.302286066783063 17.142164862222803 14.643000366351597 0 0 0
456 1 17.243619517808295 17.271594266854393 14.447671018776285 0 0 0
804 1 9.465723226414974 10.029929589288354 25.303488617468695 0 0 0
461 1 1.7099725179376208 20.591046613596554 14.62006452464157 0 0 0
466 1 6.339797104885989 22.5646243841206 15.859893850614773 0 0 0
469 1 7.931708443729234 20.591239391052483 14.441865411394776 0 0 0
468 1 9.472351541772449 22.379032601181354 12.801135641973831 0 0 0
477 1 14.248962182811393 20.771892859672196 14.205816971848664 0 0 0
475 1 15.79880077135038 19.198169386243617 15.958325735886321 0 0 0
489 1 6.358484039973555 25.56491634386815 12.426213882558015 0 0 0
464 1 4.682893805664418 23.917687728967767 14.037905292112713 0 0 0
472 1 11.29598602862932 23.834905433398994 14.187024018906182 0 0 0
499 1 15.634415509140707 25.389869926742676 15.903317197002119 0 0 0
480 1 17.547425784556623 23.896923538870833 14.189216839405976 0 0 0
2065 1 18.90887628181208 38.0073534182077 12.804398990810279 0 0 0
485 1 1.3829658214759144 27.306824861391167 14.503672501246896 0 0 0
483 1 3.429152772897456 25.692901291004507 15.71933199728976 0 0 0
493 1 7.906789864726881 27.143826665834055 14.363073667027695 0 0 0
492 1 9.391630407112176 28.718560447700455 12.623169460048647 0 0 0
497 1 12.731810439829273 25.268334962766474 12.51945309900971 0 0 0
498 1 12.849578806912115 28.651652609903966 15.664967035095776 0 0 0
501 1 14.161044902696789 27.02204541358267 14.001467127729534 0 0 0
484 1 3.1631096687691977 28.799714798405944 12.894586858305408 0 0 0
488 1 5.025739288463536 30.52862895616011 14.047643427844212 0 0 0
507 1 3.3209947042429437 31.871681652759456 15.789586970252852 0 0 0
496 1 11.308987763876292 30.40118779178953 14.40859623522275 0 0 0
515 1 9.715174584215479 32.088640966379785 15.937686189169774 0 0 0
504 1 17.292747777927854 29.741348724217634 14.548358315591475 0 0 0
509 1 1.7639016972228212 33.43346531127692 14.316141862468278 0 0 0
516 1 9.719227099214194 34.769003166767575 12.900419586013923 0 0 0
517 1 7.9471668945184435 33.52669520531481 14.483666005229988 0 0 0
525 1 14.051026982766562 33.518315791284564 14.298782707673038 0 0 0
523 1 15.951122048915638 32.027952564612534 15.77588974406145 0 0 0
747 1 3.4742433851698915 44.65278554684913 22.20611365121104 0 0 0
508 1 3.3463282010073154 34.76544631160945 12.614874443070748 0 0 0
512 1 4.724364727674653 36.591354277707865 13.835864005492768 0 0 0