LAMMPS data file via write_data, version 29 Oct 2020, timestep = 200000

4608 atoms
1 atom types

0.05290863167703108 53.34709136832031 xlo xhi
0.023010092969414586 50.884109907032446 ylo yhi
0.023010092969414586 50.884109907032446 zlo zhi

Masses

1 18.015

Atoms # atomic

964 1 0.5467570685356966 2.8216207259438506 2.970996729120142 1 0 0
1379 1 4.308525520936062 1.8615415955021717 1.525780866499862 1 0 1
2497 1 7.0815649513713295 0.9766924868390185 2.1985837156635517 1 0 1
214 1 10.574517415325627 2.260633054432788 1.4263030212289554 -1 1 1
2048 1 17.296101184337076 3.066818116142227 2.7104065843940095 1 0 0
3816 1 14.37965773181576 3.0434298381688296 3.134145222148958 0 0 0
3779 1 16.277340509111323 2.0942370818143266 0.1618715316079502 1 1 1
413 1 3.0707029518302864 6.229374886917804 1.573353675850508 0 0 1
796 1 0.277570955869457 3.2681441478077877 0.4138633849190774 0 1 0
3390 1 5.182945089410312 4.644499071879686 2.2424565493181126 0 0 -1
4490 1 8.172663067386225 3.4554536024870943 0.5887061924991317 1 2 1
3470 1 8.316577627099104 5.619131946193882 2.3357778378327647 1 0 -1
2370 1 12.687059337832181 6.290915697729545 0.8266299904827382 1 0 0
2304 1 11.999574084469424 4.225687162284218 3.012590823960715 0 0 1
3529 1 15.376013004414984 5.011779346538607 0.14350349257604506 0 0 -1
993 1 0.1523507984389414 8.026799854749598 2.805784873722083 1 0 0
30 1 4.595546584702235 8.43519739893132 2.4172399239329367 0 1 1
2454 1 6.0727192167982835 9.462564663558762 0.20975837701509836 0 1 1
4451 1 8.737771969858505 8.257491950759972 1.2147178730695105 1 -1 2
2847 1 11.538437354176475 8.897371020973186 0.6750518520890642 -1 -1 1
2658 1 15.598654179253415 7.49675465666716 1.5823716662463423 0 0 2
211 1 17.792982714976905 9.54371701553615 2.7003613949944794 0 0 1
752 1 2.1723934447117976 10.884826607637397 0.8740698927271034 1 0 0
996 1 4.55750332517011 12.467483323660714 2.138624469520439 2 2 0
4277 1 7.3031045532032275 12.313028384168662 1.7861090431639532 1 1 0
954 1 9.481679940819587 12.66708573401264 0.03934732082908912 2 -1 0
1151 1 11.238450942733525 11.349670014074812 2.4250930033805247 0 0 -1
202 1 14.257875498223232 9.937209161032694 0.3115207813448214 -1 0 -1
931 1 15.576875904780007 11.927264052067851 2.7611547161252554 0 0 1
941 1 0.9781595728499988 15.768750148483335 1.5460116549102445 1 1 0
2806 1 4.959300253530433 15.579028978077178 2.710002953907869 0 0 1
2714 1 7.8888114281309285 15.100291941387368 2.695371990450537 -1 0 0
585 1 10.116280414066512 14.786075846777864 1.4817349776841267 0 0 0
45 1 12.893992023198164 13.224201218576015 0.5909912681238637 0 0 0
404 1 2.2947549664368956 18.36930420776503 2.506716833081671 1 0 0
3796 1 4.4512618862564555 17.60067409635084 0.5056375507397225 0 -1 0
686 1 7.384914436490703 17.85419125439887 1.5028316405448643 0 0 -1
1455 1 13.69152516012803 16.164637859067533 0.5804150856824921 1 0 0
1079 1 11.75320764572642 18.894668515833622 1.2961683832627053 0 0 2
2840 1 17.10790794287221 16.168137609729325 2.9441620088728984 0 0 0
3355 1 1.7726103056037974 20.637274264253037 0.9325437559745641 0 0 1
2361 1 6.100688556032376 20.709804355447098 2.2609705977260584 -1 0 0
3233 1 3.8547686271166044 21.950910719266364 1.7290679818222414 0 -1 -1
506 1 9.491638332887035 20.690215903559558 0.6782732002345144 0 1 0
287 1 13.50179784650678 20.707667834654384 0.39574790075515104 -1 0 -1
2279 1 14.684375090249322 22.05128817607077 2.8155011375563848 1 0 0
2131 1 16.027962233031246 19.597304773558356 0.5514278483078275 0 0 1
1054 1 1.2652500868815015 25.40986044156491 2.3796382234714564 0 0 0
437 1 7.867673618544884 24.682022520201183 1.344815936023163 0 0 1
4200 1 8.249365761018646 22.28630701281452 2.314735186734947 0 0 0
1855 1 10.956649308756374 24.710903994104065 2.58642072144481 1 0 0
3163 1 11.62279309905033 22.813045507992133 0.25515958040978337 1 0 0
915 1 16.602193564450893 24.26026240015234 2.677036817816304 1 0 2
73 1 3.010347578667081 27.74890599023101 3.1376187733507495 1 1 0
952 1 5.671056258812928 25.802086281770396 0.22597228216989998 0 0 0
1628 1 8.216871493928512 27.658618367832403 0.8094334604410665 1 1 1
3877 1 10.835167081898163 26.975964219632218 1.0336543232962188 1 -1 0
223 1 17.397100702843055 28.61937045689094 0.3394473307533758 -1 1 0
3803 1 1.554391704246818 31.59246363377483 1.2003337561645488 0 -1 2
1009 1 3.428008227211179 29.46356232721495 1.1734417176443646 0 0 0
4123 1 7.77262037488288 30.172387743298696 2.3421753802260854 1 -1 -1
244 1 11.757197453939776 31.420007998812956 0.18796786299920565 -1 -1 0
54 1 14.805491991403528 29.305310160756154 1.6146287134515145 0 0 0
526 1 3.566993705327198 33.14181560316615 2.5108216649920188 -1 1 1
427 1 6.317304419848215 34.112833175477505 3.001585233180125 -1 -1 0
4260 1 9.036640709155568 32.805343786587954 2.3043344255516907 1 1 1
2495 1 13.901398717431684 33.50148020787322 0.8452515622235683 1 -1 0
2272 1 11.787642021868038 32.91945708571505 2.943118838808168 0 0 1
746 1 15.504590859691756 31.932456498845315 2.6772845895720976 0 -1 -1
67 1 17.74032795761766 32.579743151386474 1.5456835548797325 1 0 0
3458 1 2.5133200191128346 37.17652612755757 2.3852842690540235 1 0 -1
213 1 3.076475010919393 35.341893417014596 0.41572407468066713 0 1 0
4029 1 7.0514986669705735 36.51142341082748 1.7373173396233363 1 0 1
3343 1 9.50533896290777 35.77635982889507 0.5977048395683905 0 0 0
2925 1 13.445992946739883 36.534766076062354 1.8447445215224025 0 1 1
449 1 17.302573159393436 35.375010491196335 1.2221230569467323 0 0 0
4489 1 0.5876036647877168 39.141166211800645 1.7820657790862227 2 -1 1
3376 1 1.5311864126186334 41.24825949136063 3.142324225252798 1 -1 0
4572 1 4.940570721295872 38.23451939532229 2.894899723343736 1 -1 1
1706 1 4.894610085651226 40.53660430518132 0.9129208488812711 1 0 0
892 1 8.252753054620158 39.03115218249345 2.6480488593657734 0 0 0
2244 1 7.6581749670538155 41.321709870218285 1.1139948177489307 0 -1 0
1593 1 11.07421391659471 39.08531687140572 2.417905544156518 -1 -1 0
2400 1 12.697878301320708 39.702829893113645 0.4588156657896221 1 0 0
145 1 14.805652410874195 41.14404167475449 1.5273982521827503 0 0 0
3799 1 17.38240511242469 39.16821875217869 0.48871044583060297 1 -1 0
237 1 3.416457347478233 42.71871174694071 1.4130733152944175 0 1 -1
1853 1 0.5471176266097122 44.10134463040051 0.6772113687666058 1 -1 0
3679 1 7.4482761990497846 43.85184420366043 2.1436888738450213 0 1 -1
1230 1 10.444973682922878 43.52393138793688 1.2180466987453464 -1 0 1
456 1 11.838987238352583 41.75570096623878 3.0923638253599868 0 -1 0
1590 1 14.302789390905271 43.916243611420235 2.865751954646214 1 -1 0
418 1 4.517805378513474 46.919570879222746 0.9306205065187374 0 -2 0
2127 1 17.071412461575832 45.80995369439419 1.128875525198925 0 -1 1
232 1 14.506903885962545 45.306052798415216 0.42313708635418434 0 0 -1
3257 1 1.6274129859718585 50.786062963016725 2.257624730247491 1 0 1
192 1 6.575749192756369 49.454277555947925 0.9301492020039483 -1 1 0
2809 1 4.285162075021693 49.614197443545756 2.678985154759102 1 0 1
25 1 9.940813931415116 50.5795032125278 2.5213626099892967 0 -1 0
809 1 9.017684383829303 47.79137569673598 1.4013532941045748 0 -2 2
2330 1 11.724756586389399 49.166534170600265 0.6768359459852257 1 -1 1
3977 1 14.240243905455022 49.068882925561546 1.7112063568373064 1 -2 1
903 1 17.180159027205924 48.47921585652861 0.45703547099990127 0 0 1
1402 1 1.4165118426404661 2.149942133735961 5.9569102107917296 0 0 2
1278 1 3.6864674750348065 2.0055203715501726 4.322520874275931 1 1 1
2410 1 14.984236390124627 1.57431930060675 5.712213001827932 1 2 1
4417 1 2.0501029437355496 5.096217296836808 3.8112650387353093 1 0 0
2112 1 5.331425368921454 3.484771167085127 6.328000516606413 0 0 0
2846 1 7.117441652426895 5.737839624042866 5.175247345438816 1 0 1
2389 1 10.337911829465046 3.2887572932729894 5.537765569383554 0 0 1
1274 1 14.981967035247257 5.399433570829689 4.928931213230868 0 -1 1
3411 1 1.7331429352009198 7.61824319841819 5.3702881039258346 1 0 0
212 1 5.108578987237426 7.790542844442668 5.094997054707956 0 1 -2
2976 1 10.630404730728161 6.694412529348567 4.041484688509115 1 1 1
4411 1 8.911169337047596 9.45879093614614 3.8259398880861712 0 0 0
3948 1 11.776006416031066 9.287054616218931 4.812595553518318 1 0 0
3255 1 13.190719276278895 7.350506610989813 6.142191793971053 1 1 -1
16 1 14.633343874468533 9.261952984689133 3.867640799902646 1 1 0
2012 1 16.999990680538172 9.423986133027064 5.671303569186632 0 0 1
4418 1 2.7782560459300636 9.99868184016731 3.3845624035944 1 0 1
1008 1 3.940306858031039 11.727014763233806 5.096179657439508 0 1 0
4063 1 6.756090227250232 11.379101351621419 4.448085599312374 1 2 0
4559 1 7.872482187348542 13.61326889042255 5.384696238527446 1 1 0
2399 1 10.670165576971463 13.33182541902922 5.154759384874581 0 0 0
567 1 13.212826899666165 13.85918111834089 3.347482411895098 0 1 0
1825 1 14.77840604227972 13.3253039123429 5.852607704167196 0 -1 0
1331 1 17.399674796507103 13.885355458368627 4.573134610476739 -1 0 1
2371 1 1.5661221883928815 16.185037652253538 6.158998166095183 -1 0 0
4166 1 6.317956813969268 18.68904251799252 4.5337288037826555 0 0 0
3637 1 3.6975162640285615 17.374476681705158 4.761538596162373 0 0 0
4391 1 8.777661251349949 17.300327284658437 4.596258016369678 0 2 1
1041 1 13.223143208321455 16.956079815337542 3.328969999575555 1 -1 2
2792 1 11.162154754508084 15.990271966969958 5.289836287349748 0 0 0
1640 1 15.83523915346803 18.109929858155134 4.433039368031261 0 0 1
138 1 1.6097392201369118 19.573028872080478 5.374475043149335 0 -2 1
3031 1 4.717625384222066 21.34409567857251 5.107056224143963 0 1 1
1981 1 9.025440880081543 21.48774810207045 4.913191738198338 0 0 0
1444 1 10.842009909047333 19.473919402192905 4.0640761849357485 0 0 0
3962 1 13.40637683692098 20.161912757826293 4.568586615093154 1 0 1
2278 1 16.889338859113398 20.722835754198794 3.2985865427636734 -1 1 -1
505 1 16.06058042684991 21.075797383469208 6.3728926777741215 0 -1 -1
1934 1 3.171982161611 23.859860841330217 3.5769499004819827 1 1 1
4467 1 6.463431283358494 23.54913484302634 5.153615806173774 1 0 1
692 1 8.886830077918779 25.398345248718503 4.710784406472066 0 0 1
2125 1 12.799761496729166 23.673665464271032 4.241858436539606 1 1 0
3140 1 17.73240549167105 23.177065710790277 6.234516339644617 -1 0 0
1916 1 1.1749538643704123 26.24983220723819 6.1934243969824285 0 1 0
4036 1 5.214060464566575 25.565541075099734 3.42934226003791 1 1 1
317 1 7.240856528484498 27.459067777739833 3.7616786708383754 1 0 0
1969 1 10.113902926902211 27.672099417687782 5.48058695274155 0 1 0
3650 1 13.694346098793476 28.373332870540924 4.01712814920755 0 0 1
3766 1 12.579896533220861 26.140019918288345 5.459167482738962 1 1 0
3313 1 17.32750042291333 28.288686697276336 5.192952927502993 0 1 -1
918 1 15.589097967721262 26.41874297026664 4.22616637103959 -1 0 0
4209 1 2.0950545643298972 29.022355109494434 5.587034158703774 1 0 0
1852 1 6.593389976217834 31.5487433337047 4.689374688080453 0 -1 0
3169 1 6.245510058422586 28.849972263969516 5.912963468448281 2 0 1
4530 1 10.696914034163733 29.292278498533538 3.2542674213973015 0 0 0
534 1 11.104901303970372 31.26142740650366 4.896281810255529 1 0 0
4002 1 13.593509386523506 30.64224031893295 6.225876740140162 0 -1 1
1236 1 16.25697960321261 30.87237928183837 5.489509191810383 0 0 0
2742 1 2.6836352487201602 34.59196355822794 4.386937848356802 0 0 0
3311 1 8.994599121853327 32.49811076147246 5.9774086614111575 1 1 0
2157 1 13.981281194195079 34.360732681264764 4.127031027053885 0 -1 1
948 1 0.5072978362228617 36.74424766938233 5.004207811146636 0 -2 1
2227 1 4.860314874282973 35.79558938379546 5.247595680348543 0 0 0
958 1 8.726808732148127 35.010862575932 5.331381495923747 0 0 1
770 1 10.665265736079624 36.72760275882466 6.2284507305236945 0 -1 -1
4225 1 10.789739977107512 35.931720163537676 3.2241624652503043 0 -1 1
2261 1 16.235804788437953 36.40056572409957 4.176983590293636 0 -1 1
3047 1 1.9785564218263942 39.30265223917265 5.343852221265223 -1 -1 0
179 1 4.860918976966779 38.83600694491461 5.918219990382745 1 0 0
227 1 10.258025444348586 39.54476893697891 5.670066200829155 -1 0 1
2419 1 7.27328841965396 40.1633386584733 5.3885725265144675 1 0 1
774 1 14.058384303993217 38.65549099037648 3.7142273986845904 0 -1 0
4035 1 16.78762616465996 39.266610113407204 3.3447437053335007 2 -1 2
4254 1 2.067345223811914 43.06063190917948 5.286836008225909 1 -1 0
1672 1 4.827938414088393 43.958774345128376 3.337332747875404 1 2 0
4536 1 6.638725444641334 42.88645399427868 5.51860556080272 0 0 1
1685 1 13.64792243854056 41.43021310193978 5.3749848237048665 -1 0 0
2566 1 15.75595606865704 43.81225929163458 4.992504562218377 1 0 1
2668 1 1.666942577131234 45.951844563972706 5.224821964230523 1 1 1
90 1 4.3890667276046145 46.808088220565814 4.165600866749184 1 -2 0
2096 1 7.182816951737913 47.11971848400725 5.014524094137755 0 -1 1
2130 1 9.271319859148068 46.06739218160027 3.46401766376011 0 0 0
797 1 11.780526920842618 44.845659218037255 3.9964147308744375 -1 -1 0
1596 1 12.963141927327726 47.40066795319227 3.7034539695244595 1 -2 0
2786 1 17.29022104017099 46.304832731648546 3.8327987474493455 1 -1 1
3513 1 2.187500231887778 48.921228203460295 6.269557849013917 1 -1 0
3865 1 0.5383597517305374 49.67289747909654 4.364441580344959 1 -1 3
1076 1 4.555058130305818 50.36363400134051 5.377180587693781 0 0 0
3980 1 7.552605984393531 49.96783726547198 4.704283078966083 0 0 0
1923 1 10.138851591679298 47.96788007434633 6.149030957487492 0 0 0
4020 1 11.63312701862713 49.651541781515746 4.735328315180201 1 0 1
4518 1 15.717597680632096 50.302231733409116 3.7527208607595277 1 -1 1
1626 1 15.290539759656324 47.9156785717804 5.235937280991814 1 -1 -1
950 1 3.3967952874869516 1.7498659163644246 8.330798650080323 1 0 -1
1311 1 6.690242866886987 2.1224811327226654 8.319697950481883 0 1 0
2914 1 9.274109860708522 0.6761545148429504 6.503272779548565 1 0 0
1003 1 11.660431645470338 0.985920270846982 8.854261410182678 0 1 0
2489 1 17.369834944284065 3.1440180403527522 9.545693620724748 0 1 0
1928 1 17.383330900232632 2.6693904548301326 6.92441566179104 1 1 1
2719 1 3.464028204411769 5.76180319356791 6.5084916735120775 0 0 1
3007 1 9.45650512888094 5.944838990140519 6.5729697794681305 0 0 1
62 1 9.056021343733782 3.642123480086948 9.509758970952097 -1 -1 0
3798 1 11.555363449373273 3.871734376967226 8.099861208393815 1 0 1
4546 1 14.236110952731037 3.816374701260689 7.465528316767476 0 1 1
896 1 15.722745328835487 5.830581257534217 9.36532428019733 -1 -1 1
1684 1 1.0167593607929517 8.417875476097258 8.564027122445726 1 -1 1
4405 1 3.1784406312925944 6.528374912851797 9.070494876189777 0 0 1
1691 1 5.112679884739459 9.450349406788769 7.696303595918587 0 1 1
3698 1 10.273832168892202 6.811916076754112 9.312749851088473 1 1 1
908 1 7.81705002117521 8.878913699110736 6.7855808757700915 0 1 0
1805 1 13.298269465039668 7.592057170745811 9.140740460437003 1 1 0
1782 1 17.43605124467922 6.9608221798896475 7.292475415185947 0 0 -1
4465 1 2.223175785583157 10.024177307475158 6.699608309582158 1 2 0
197 1 5.363908080876548 12.293296903538153 9.006826816348209 0 -1 0
3429 1 7.885761572391663 12.054500983309504 7.817820141830897 0 0 1
3001 1 12.514743335949296 11.802234531755994 9.388715072596897 -1 0 1
1048 1 12.310219670793234 11.694882258997438 6.560841470315253 0 -1 1
4307 1 15.897395711835488 11.264296395032387 7.5071055376408085 -1 0 1
3262 1 1.2875252407859 13.787989679608438 8.307084938539615 1 1 0
1304 1 3.677402020374824 13.89858868424969 6.850105399163572 0 -1 1
3535 1 9.990363226129103 13.7198554009524 8.619878353143147 1 1 0
284 1 14.185804058350465 15.731214233703204 7.1110892369694065 0 1 -1
2019 1 5.402403477804943 16.62973806799953 7.648815961850777 1 1 0
768 1 4.309152970920241 18.574005882092663 9.027911995197227 0 0 0
272 1 8.262346807713854 15.982182386696854 7.241554989834206 0 0 0
660 1 8.523691825155794 18.453789723469686 8.709957311516813 0 -1 0
2697 1 11.184593345145746 18.713512038346053 6.812708202912244 0 1 1
2137 1 11.60514394523318 16.165476007754283 8.273304911844948 0 0 0
482 1 15.791648295799801 17.906075728342795 7.096457231058244 0 -1 0
2314 1 0.7246676384830828 21.866680231684693 9.3623606645467 0 0 0
2660 1 2.3597253649401573 21.913414480868703 6.81896401995651 0 -1 1
3059 1 1.7095699749911388 19.126313673614245 8.29574417967153 1 0 0
3006 1 7.069136027768417 20.10840779284039 6.735008682953723 -1 1 0
1818 1 5.158470608647599 21.32047730751261 8.257329207016841 0 0 0
3459 1 10.557318302742395 20.368521591626575 9.485175457860306 0 0 1
188 1 13.210811891227348 21.75341476625744 6.835377171212458 0 0 0
1634 1 16.829359422726437 21.15631076370277 9.282635846181282 0 1 0
3148 1 2.697595296388285 24.561810008768276 7.776033628642091 1 1 0
4606 1 5.686034445085344 24.39267169238459 7.918624277184706 0 1 0
1528 1 9.330795984962409 24.988484084305536 7.8452837545126215 0 0 1
4073 1 9.277168146729016 22.679736096181127 9.49513919909678 -1 -1 0
2911 1 10.778442037202792 23.174866385217022 6.541765815942758 1 0 1
40 1 13.791035026251457 24.17199670153072 8.418354169759656 -2 1 0
761 1 15.927185462838747 25.376064797132784 6.821172724300878 0 0 0
3604 1 3.153865314157531 27.697800709760546 9.129139739734427 1 0 -1
1885 1 4.450537298753874 26.538410640040215 6.430489175439424 1 0 1
1081 1 7.1445319760937345 26.51614837117437 8.912148679867789 0 -1 0
3705 1 12.006864606804236 26.27031606932937 8.392843475735795 1 1 0
2493 1 3.9800911626408184 30.009456729600977 7.3907471120229475 1 -1 1
3232 1 8.319909495794269 28.727971326564635 7.51660329724906 1 -1 1
2519 1 7.709227409184292 31.132253598653502 8.813132512597983 0 -1 1
2963 1 13.300059757408851 28.688622209470992 8.414560766612178 1 0 1
2586 1 15.807234146997674 28.83250736594754 9.360274803863117 0 -1 2
3602 1 2.5170769734121743 32.86014425773734 6.658499449384739 2 0 0
1708 1 1.1578030034603188 33.98872365558369 9.048882891706425 0 -1 0
1373 1 5.233720523774619 32.38343854323112 9.159949488519942 0 0 0
1303 1 10.033536564425342 32.75221169007072 8.436408788818696 0 0 0
2843 1 12.955070004844387 32.765609564960506 8.034590806567923 0 0 0
3729 1 17.604840830269247 32.14769584524479 8.008264363078467 0 0 0
3236 1 0.6839000191989058 36.65313144669053 7.764392798404951 1 0 0
2443 1 3.1019640224807414 36.69368615190337 9.393851562035147 0 0 0
4356 1 4.903164147885284 35.04041776476106 8.146157325206923 0 0 1
2144 1 9.612653985524949 35.507792960239975 8.773550034702987 0 -1 0
1116 1 7.1594411954711585 36.806940548493806 9.10561862358252 1 0 2
1117 1 13.36017243443536 35.23286677969334 6.686088307942846 -1 1 -1
570 1 12.5775366552897 37.03410190907487 8.939593564197514 1 1 1
3277 1 15.507670199651983 37.014032152463706 6.520504742594019 0 0 1
4400 1 16.545444822962065 35.1970004381248 8.750479808521026 1 -2 0
3112 1 2.525114956376281 41.02508971869475 9.238872158728373 1 0 0
1336 1 0.7810559637763286 40.656676448206326 7.166612395346563 1 0 1
261 1 4.341675126631818 39.120532467847404 8.559483146548155 2 1 0
2957 1 7.9536813608852786 39.655398098628375 8.069017941494671 0 -1 0
2186 1 10.748512918278234 39.21375311228962 8.663784699730595 0 0 1
2134 1 15.785437666562641 39.879810835498624 6.946969701889746 1 -1 0
1386 1 0.10292176350185152 43.54007707435525 9.529674733607925 0 0 1
732 1 4.000380819907358 42.9047319342785 7.36552310557645 1 -2 0
2449 1 10.669258466294046 43.88477675622249 7.746061743865845 -1 0 0
460 1 7.352765775866333 42.683799263179814 8.47851269046755 1 0 0
1142 1 11.910477870307927 41.34862077168335 7.544628453235588 0 0 2
2205 1 13.941675566805468 41.760987379023504 9.261697401195601 1 -1 0
2747 1 17.412718317706947 41.952944674258625 8.671729374349095 0 -2 0
771 1 15.186832583726591 43.953545562341056 7.829137137897365 0 1 1
4208 1 2.1239255237738135 45.37458272227282 8.161235008446782 0 1 0
2644 1 4.927882596843509 47.213331970694135 7.340803627197899 0 -1 1
3033 1 8.609945075424644 44.79977620864045 6.492406669217696 0 0 0
1761 1 7.406061204507721 47.15617952998713 8.33469200112305 0 -1 0
3109 1 12.936775567116278 47.674633803281736 7.363059118426336 0 -2 1
651 1 12.903607628697749 45.01184348310982 6.526218370731909 1 1 0
754 1 16.17487292078989 46.70010573718022 8.623751299764105 0 -1 0
2014 1 0.11658387904797962 50.204456885677935 8.65552508153471 0 0 0
1545 1 4.563328309429821 50.02488426780782 8.629856047623802 0 -1 0
4336 1 9.945841643908246 49.517086319719915 8.60074959384418 2 -1 -1
2865 1 7.3365466100274705 50.13671630973273 9.505891769344526 0 0 1
3223 1 13.363789565024593 50.735354349641945 7.095559488081177 0 -1 0
790 1 16.002261269299467 49.61394637401562 7.383987652538033 0 -1 1
2116 1 1.47501416783774 1.7210076122146887 10.628673815273913 1 -1 -1
4522 1 3.6817241566868546 2.0653017607398234 12.341821656537842 1 -1 2
3886 1 6.886416265487867 2.5035848707767037 12.060300229457658 2 1 0
4367 1 9.483189137116142 1.3894785127667755 11.06950056959475 0 -1 0
974 1 12.234657439810716 0.3484618633010912 11.970495077836567 -1 0 2
3216 1 14.698494777283555 1.8604764074827114 9.967814931556775 2 0 -1
307 1 1.780504696945826 5.160599307582538 11.224644444363568 -1 0 1
3342 1 4.521643399295525 3.932730905074173 10.043357999021714 1 -1 2
4174 1 6.957125924441361 5.2352356375891045 10.65146837793349 1 1 1
3846 1 10.645740835269104 5.662323252866846 11.89744344409587 1 0 0
141 1 13.843338662890716 3.3473730934060266 11.91635628834869 0 0 1
1401 1 15.418789852801053 5.686941114594148 12.307285800559608 0 0 0
2299 1 0.48392275114535394 7.520083919251521 12.150618636051593 0 -1 1
2826 1 4.970447564771451 8.345530341687981 10.561506346351374 0 0 0
2972 1 7.69250540627448 8.21686762727288 9.944514854564963 0 0 1
1936 1 12.707071690494544 7.322973896220571 12.196934781045496 -1 0 -1
495 1 15.767916524840633 8.791482173001675 12.101443084422394 0 0 2
1510 1 2.0296711943596764 11.374446275320794 12.372210254347621 1 1 1
1245 1 0.20935397698793204 10.337013276905154 10.813388821276284 0 1 1
3593 1 4.486846908620252 11.112886083352878 11.215194324370481 1 1 0
175 1 8.468721065160668 9.689338636251168 12.164307154173052 0 0 0
672 1 11.114873546463029 10.836886045804494 11.838566910745195 0 1 0
3900 1 14.595354784859213 10.121612089174473 9.718492485017716 0 1 1
109 1 1.5558511830432389 13.7721783590908 11.339847570690399 0 0 0
759 1 5.482854272778039 15.055089767422512 9.958860740922308 1 2 0
2364 1 4.138191943483678 14.862571569797684 12.267622343682053 0 0 0
332 1 10.563492058259973 13.480281930865742 11.901055633156853 0 -1 0
2199 1 8.240639233028844 15.282758995291555 10.662538506025813 0 -1 -1
1351 1 14.182688904732665 14.10838617247325 9.819118991363693 1 -1 0
91 1 13.060173246932498 14.96409548708083 12.002172363379671 0 -1 0
3743 1 16.19254518679252 12.999578873960608 11.695173851142433 1 1 0
439 1 3.4218593105620325 17.979948390992863 11.634767120317662 0 -2 1
405 1 0.6310148971951216 16.987963613949944 11.683410393468106 -1 0 0
851 1 10.554515414969869 17.32929856385998 10.623547503053631 0 1 -1
3379 1 13.222594967464138 17.577320099519525 11.451537395609698 1 1 0
2750 1 16.81700440322329 18.910937449939254 12.37171988305576 1 -2 1
3577 1 15.822250383168152 18.505840184385253 9.969793526153902 1 1 0
3027 1 1.346863402493006 19.91903972763862 11.57560182819308 0 -2 1
1986 1 7.059727534743962 19.248649660856994 11.407334169511357 0 0 0
810 1 6.781740078141812 22.109824591753263 10.769664019586957 0 0 1
1902 1 10.281600689177123 20.28297809949228 12.25768927105114 0 1 0
989 1 13.557177606554422 20.94142050533793 9.642234445710992 1 1 0
527 1 13.367613688286001 21.87136632741661 12.25626722885789 0 1 0
1218 1 2.1415427569353334 24.824173719746902 10.546959880274585 1 2 0
1012 1 3.5628301777682845 22.35055873494712 10.993208988263296 -1 1 1
769 1 5.99309562564202 23.970310481574003 12.46669485165946 0 0 1
4607 1 10.828070156341925 23.352869315935674 11.67094601567906 1 0 1
3218 1 14.953015014783656 24.186871294798838 11.005508820261955 0 0 0
1002 1 17.58764139992821 22.944351980339228 11.333183518254337 1 -1 1
3744 1 4.345671302101194 26.146963330686113 12.448927239463469 0 -1 0
855 1 5.156763457581199 28.191934396600686 10.969696645392743 0 0 0
375 1 8.464468331357253 25.775856545997325 11.51460692168184 0 1 -1
838 1 9.630869052577024 28.504070907413176 10.2983837527719 1 0 1
3985 1 11.691466315576857 26.465100881052482 11.446616583462843 0 -1 1
3225 1 16.028668263913698 26.668131283978376 11.500456423730304 1 0 0
4006 1 2.5175247084129726 31.45573486041842 10.314289975343861 1 0 1
356 1 0.9522775057220775 28.93915802025145 10.645357788609099 1 0 1
1082 1 3.9010951929661064 30.738998432270407 12.336385230015997 0 0 2
760 1 7.585351534149362 29.991812103622916 11.133999324244577 1 -1 0
92 1 11.834968732729866 30.306234466507256 10.146563035125828 0 -1 -1
4335 1 13.573563503154743 28.88003396478888 11.99228023049458 0 0 1
2810 1 16.379153078966183 31.306846637119758 10.840124298652787 0 0 1
2656 1 0.9098581748427234 33.56272305364536 11.783991894310066 0 0 1
4237 1 5.989758210617254 32.4728972711038 12.089361555967791 1 -1 3
2202 1 11.268166548774175 32.82553833628497 11.181114593216087 0 -1 1
3314 1 14.873680211362668 33.37156709562962 10.020657273386934 0 0 0
125 1 2.6206867042571518 35.900085558830355 11.9606428732733 0 0 0
333 1 0.07013940990518108 37.244244373537946 10.867797710139843 0 0 -1
1335 1 6.595325130417193 38.07527051070342 11.706988782651097 -1 -1 1
3654 1 5.643216648249879 35.26770849267414 11.876100051263032 1 0 0
3599 1 11.662197753369286 35.73010566999172 11.124719100970918 1 -1 0
1389 1 14.259239701578563 35.27508451652127 11.627244127580424 1 -1 0
2170 1 16.332553210399237 36.87835388398193 10.965809747209175 0 0 0
3425 1 1.715342794627649 40.1756754958634 11.805546752767356 0 -1 0
3456 1 6.213098615706676 40.445144591203324 10.471700089031442 1 -1 0
2150 1 10.10621694091863 40.877591701648726 10.866236217793492 1 1 0
4600 1 14.786545501769607 38.80821622725238 9.633579336568587 1 0 0
4365 1 4.30092079048834 42.435150998444406 11.092507058728792 2 0 -1
2135 1 9.783460069400812 43.63767766036627 10.737939114235632 1 -2 0
1899 1 13.837575362165243 42.65752212639952 12.061892878008427 0 0 1
2083 1 16.557539081971523 41.388210087841784 11.255906314546602 0 -1 0
4147 1 2.7012491511816634 46.150173974261286 11.190665313925761 0 -1 2
1983 1 0.8264405440730207 44.69086881043624 12.201865957483822 0 -1 -1
3533 1 4.858823773225529 44.761529758819265 9.568828938823465 1 0 1
3450 1 7.60204436022132 45.375619918232005 10.524592925908482 1 -1 0
967 1 13.305326346291901 47.09739051178755 10.09678912035729 0 -1 0
2183 1 12.335610431700612 44.98737296915685 11.530450273474099 0 0 0
2839 1 0.8855399800205561 50.13154310965271 12.558853262837609 1 0 0
4423 1 3.4108572971626114 48.99141966686578 11.113038924506572 1 -1 0
1740 1 5.224060375289931 50.48588145015038 12.124754046491017 0 -1 1
804 1 8.586082376314819 49.47632402293049 12.225811766829823 0 -1 0
3547 1 11.385383928903957 48.711582763519246 10.959454664094897 0 0 0
2217 1 16.326713297973313 50.18952008367694 10.073906977195538 0 -1 1
2790 1 15.559359297195673 47.85791267479767 11.537745636488555 1 0 1
3792 1 2.192639538559617 2.570529628396458 14.931906036910984 1 1 1
1739 1 7.595874128592261 0.9394130143043447 14.697511361332465 0 0 0
2813 1 11.094900016543482 2.8981650161803825 13.084987126113372 0 1 1
4504 1 15.079947810455822 1.8269309275539187 14.058261816182286 0 2 0
525 1 1.3741891207504733 5.474306040084134 14.87532266484654 0 1 -1
1987 1 3.72052012359383 5.453471271096385 13.602253671438634 0 1 0
2460 1 5.915184478838002 3.3078694203883834 14.945447467190608 0 0 0
1398 1 8.369349939645101 6.281232108020742 13.078138413009803 0 0 0
3275 1 9.346004513625623 3.5371700692821197 15.160981439349372 0 1 1
3623 1 17.220021653998067 4.866249194727247 14.60670911147542 0 0 0
1470 1 4.773509803112357 7.989355135071978 13.531734194814598 0 0 0
1508 1 8.21933216186221 8.261187271859116 14.927638317467752 1 0 1
1504 1 12.62259427783414 7.455707321481453 15.027573969891165 0 1 0
2331 1 16.734609793600434 8.687282068403107 14.876361818824558 0 0 1
1240 1 0.8416140572847765 12.442024086687617 14.955884222339183 0 1 1
1192 1 6.1869899587325845 10.710505498199511 13.457224724398358 -1 0 0
970 1 12.581762400322763 10.247796126175373 13.887166280510451 0 1 0
4297 1 10.825570021721044 11.905760522202511 15.707562423246396 0 0 -1
4442 1 15.072492537529241 11.152735339612978 13.70715327115321 -1 1 1
4096 1 5.7315707503682365 13.676218749792012 14.294181917843016 0 1 1
1015 1 8.188068740050637 14.774225200724056 13.459610268790522 0 1 0
824 1 9.415078531023699 15.828798718413061 15.762961480842193 1 0 1
782 1 14.992071359522104 14.83046081607561 14.124376667503473 0 0 0
3208 1 16.11869816276542 12.880982080462237 15.910019198423395 0 0 0
4001 1 6.277667216828317 17.132709640130972 12.765413937746256 0 0 0
4028 1 6.7725320135550175 16.992965484511764 15.667247727004556 0 0 1
4493 1 11.041215138767614 18.205522314174374 15.746532697574166 0 1 0
2110 1 17.03797341413156 16.67303664176005 14.063796227690599 0 0 0
115 1 1.7727965485533141 20.658087484784616 14.353270850722236 0 -1 0
1185 1 4.458436208247814 20.183346036731894 13.346230761914926 1 0 1
2539 1 8.256536827131967 21.42360403698157 13.529852026789838 0 1 0
3078 1 8.165107769597745 19.612497118464336 15.594207574143963 -1 0 0
2169 1 12.416408230620936 19.504787605880654 13.824584467144778 0 0 0
4232 1 15.8728409884589 21.165734071505707 13.528456624402693 1 -1 1
676 1 14.76851837157097 19.581923041016815 15.614689768460595 1 -1 -1
2721 1 1.7908648664703226 23.28527547630102 13.363493000741077 1 1 0
1788 1 3.198422971971996 24.604044898313973 15.612615128600254 0 -1 0
909 1 5.328462552029581 22.75323696278685 14.760020215188234 0 -1 1
2347 1 8.983968190129959 24.089529706112774 14.147306897244384 0 -1 1
1658 1 13.54846658778772 24.632532868123818 13.677961638310954 1 -1 0
3610 1 17.627322151719397 23.056180970379994 14.765422641069973 1 1 1