LAMMPS data file via write_data, version 29 Oct 2020, timestep = 100000

8521 atoms
1 atom types

-0.2009485076076558 104.45382912423278 xlo xhi
-0.10293909893153952 51.010059098935116 ylo yhi
-0.10293909893153952 51.010059098935116 zlo zhi

Masses

1 18.015

Atoms # atomic

1482 1 1.2148633550888177 0.39895271374185537 2.1889944146608236 0 1 1
2049 1 2.9515344001999857 1.9966270553324423 0.465535704398242 0 0 1
1469 1 7.555266740938113 0.5722075809576738 2.1677951970353306 0 1 1
2052 1 9.261398549030053 1.9121777401517805 0.4728422877416292 0 0 1
2055 1 15.73311387801189 1.446700192580967 0.8024686478004902 0 0 1
2718 1 21.872222078984745 2.1998530592791803 0.6847617688843047 0 0 1
2282 1 20.06835650731184 0.3143749050079113 1.8687919301207585 0 1 1
2196 1 26.75260645643207 0.6048080713400479 2.172959244814114 0 1 1
2724 1 28.322928898908 1.995880695709876 0.6756668021727364 0 0 1
2187 1 33.30069201402173 0.48020785069060745 2.053911936971232 0 1 1
1769 1 -0.07361717993698347 5.040788837595084 0.496949897456161 0 0 1
2060 1 4.8486332590517955 3.8971059692277654 1.7945422310354227 0 0 1
1959 1 6.205129517300532 5.124016838001039 0.15394128170857563 0 0 1
1960 1 12.217660763782723 4.8698908785070945 0.48845793734121246 0 0 1
2063 1 10.657711394953111 3.4515480025213865 2.1365573967963067 0 0 1
2114 1 18.66665934551505 5.417077942527697 0.6719010999476042 0 0 1
2065 1 17.157327971208762 3.473401437682249 2.084802997458568 0 0 1
2722 1 23.447269531976534 3.631494840027515 2.1513293898429824 0 0 1
2723 1 25.353374121723366 5.004973589249219 0.5997040525511196 0 0 1
2725 1 30.036354591380807 3.4131830320479106 2.264957387265202 0 0 1
2726 1 31.512842187386205 5.15850573320903 0.9823171544620777 0 0 1
2066 1 1.147400985631953 6.907958767599114 2.0243484231744193 0 0 1
1965 1 3.1304770550411676 8.224561156315763 0.4247721754145588 0 0 1
2068 1 7.6319681537790505 6.7832125014237326 2.048345592631074 0 0 1
2067 1 9.588758339634046 8.209799775911707 0.5928938591095814 0 0 1
2069 1 14.343722424487458 6.736857132389309 1.72611492521301 0 0 1
1968 1 15.499536628306698 8.70886964644757 0.18866589768117104 0 0 1
2728 1 21.906094142806598 8.364534019215377 0.4856003552952566 0 0 1
2727 1 20.00453305292895 7.269747105451722 2.2427954283961404 0 0 1
2729 1 26.71403156848694 6.676085304221293 2.4244024354148532 0 0 1
2641 1 28.355305737698107 8.299507905274433 0.9037918595423236 0 0 1
2730 1 33.38048614761683 6.456073158571621 2.463379371166182 0 0 1
6248 1 0.2628514948416255 36.23359152525589 14.957008140333674 1 2 -1
2074 1 4.7604805402055295 9.823486730939475 1.769615521233979 0 0 1
2073 1 6.589673127055229 11.598264111522647 0.36232529424218596 0 0 1
2075 1 12.28006477413839 11.986212208620644 0.4468356487177506 0 0 1
2076 1 11.278261441001048 9.860304953630862 2.1610642764638204 0 0 1
2078 1 16.868731866363103 10.177174164215254 1.8495530880363888 0 0 1
1974 1 18.760055052534447 11.820911805184407 0.7779001627619024 0 0 1
2731 1 23.589329777931557 10.369645476007365 1.8912550410209896 0 0 1
2734 1 25.327558652042786 11.711512101147674 0.27969222900207064 0 0 1
2732 1 30.24130800898562 9.898728358085945 2.0594424802973372 0 0 1
2736 1 31.662530389969593 11.61452823877914 0.4501443832903975 0 0 1
1981 1 2.8150399959571146 14.572413312558604 0.6733360802853854 0 0 1
2079 1 1.1711986353443358 12.969106674832819 2.12188752606414 0 0 1
2082 1 7.920725218776887 13.42748172300093 2.1135523600262056 0 0 1
2083 1 14.292124314542436 13.46600455938117 2.0625271412716337 0 0 1
1985 1 16.03001509600463 14.764758024555276 0.37488985682134573 0 0 1
2733 1 20.263224529509923 13.746483120405054 1.8996709325374637 0 0 1
2735 1 26.712431205786075 13.370310936785213 1.8577484642983724 0 0 1
2656 1 28.49337722802566 15.113220403391391 0.29398348187625845 0 0 1
2737 1 33.46518144420163 13.170008891064708 1.8117697995883135 0 0 1
1432 1 -0.1719961987968742 17.757931480386087 0.9579578415839287 0 0 1
2095 1 5.739233446123637 18.22037514282894 0.9550305529712675 0 0 1
2086 1 4.560446999632172 16.27513730679818 2.115483260329373 0 0 1
1983 1 9.13289802722704 15.268741013377237 0.43358391504999594 0 0 1
2088 1 10.885467291031507 16.27683331603405 1.9883067760824682 0 0 1
1989 1 12.449958465486693 17.78752400427082 0.5984006395540111 0 0 1
2090 1 17.705597156490832 16.453451146736626 2.025200945964434 0 0 1
2654 1 22.219005356493366 15.368389244809277 0.3875354913709273 0 0 1
2738 1 23.69965918414832 16.910758395556968 2.1751016224619497 0 0 1
2739 1 25.395629234828775 18.21501437771466 0.42923372727142917 0 0 1
2740 1 30.23738551255014 16.583322003838386 2.1131519556538567 0 0 1
2741 1 31.785668915750225 17.96074206679171 0.049118397883383735 0 0 1
1988 1 9.172201333333366 21.12577283734031 0.44621703507123245 0 0 1
2096 1 7.605386796893354 19.7743262861765 2.3167166546703033 0 0 1
2097 1 14.38225173708764 19.61014081274287 1.752075087212173 0 0 1
2116 1 18.650605989090533 18.30764022960448 0.09763507696964788 0 0 1
2743 1 20.631528787052464 19.710160475265226 1.8251247904200159 0 0 1
2663 1 22.30509730913651 21.07041040347466 -0.0846860933830523 0 0 1
2744 1 26.86135723095426 19.811984537525063 1.901559681228496 0 0 1
2746 1 33.223457542148935 19.473391167883236 2.008898806185114 0 0 1
2094 1 2.8344099701740224 21.40818874447156 0.7192720034938778 0 0 1
1419 1 -0.12005106114833156 24.03438157963716 0.6212992036429682 0 0 1
2098 1 4.5949062217627645 22.845345781505685 2.17973100445232 0 0 1
2100 1 10.949896799564696 22.570190877161835 1.943461138160167 0 0 1
2101 1 15.563407222399626 21.490749800713772 0.08416448845252414 0 0 1
2102 1 17.253595777043756 22.470820049047713 1.8007652290944618 0 0 1
2748 1 23.751058504015553 22.925177794561456 1.6741926097057453 0 0 1
2665 1 28.55417811014311 21.369237265824758 0.2453316256797804 0 0 1
2751 1 30.29911675781505 22.668038407255526 1.6579968586183347 0 0 1
2103 1 1.6275369432207616 25.61441663165382 2.0562225935739096 0 0 1
2099 1 6.125596690018875 24.511135215669327 0.5921672838343334 0 0 1
2105 1 7.981458079052656 25.961217917513792 2.2153921448120424 0 0 1
1997 1 12.5230924734334 24.458480414375764 0.35474686350384593 0 0 1
2107 1 14.18984795238792 25.94048963846076 2.1130955344686506 0 0 1
2132 1 18.835527050844824 24.464758641314383 0.32811710478504785 0 0 1
2754 1 20.48352341187817 26.140537726201494 1.6030952990793523 0 0 1
2670 1 25.42094556839736 24.498482666458393 0.3600624686472675 0 0 1
2755 1 27.09470919203499 25.84760093101557 1.92074992192661 0 0 1
2750 1 31.7424673074126 24.31538542369652 0.2779927307773762 0 0 1
2756 1 33.31629248517695 25.850352187456757 1.7699035166319224 0 0 1
4356 1 -0.10808282771899719 46.503820635200896 16.75020664391612 2 2 -2
2005 1 3.2228264532609754 27.343610400814367 0.7339212649737766 0 0 1
2109 1 4.534764315709099 28.89715185345667 2.3296205732052244 0 0 1
2007 1 9.330285253491436 27.68664842402739 0.7581915805127257 0 0 1
2110 1 11.088869954471491 29.0773545471645 2.0092000027509056 0 0 1
2010 1 15.766806393840005 27.614790096588454 0.5487070125263833 0 0 1
2111 1 17.480890321797688 29.04808946026329 1.98171061113456 0 0 1
2674 1 22.18772666209065 27.407852835711502 -0.015212441583477551 0 0 1
2757 1 23.694221700879968 29.115252235315257 1.762427429725843 0 0 1
2672 1 28.62895184686837 27.660878409725925 0.5153763482655099 0 0 1
2759 1 30.07817282207384 29.408069345393052 2.0451998123345785 0 0 1
2112 1 1.4452845864169657 32.10638245384675 2.314151562386665 0 0 1
2081 1 5.943842150741134 30.62397538042125 0.9276976502690262 0 0 1
2113 1 7.689089896903213 32.257673351919166 2.3673353895457363 0 0 1
2015 1 12.679997398736765 30.739941498156387 0.33144251432503763 0 0 1
2104 1 14.365958934760723 32.16941352365433 2.201775671639972 0 0 1
2085 1 18.797368344044738 30.71935968851305 0.41093577556512917 0 0 1
2760 1 20.61726848263537 32.36305012442509 1.836309138194339 0 0 1
2683 1 25.330358951700067 30.715458155675165 0.042329186016178216 0 0 1
2761 1 26.667566686752135 31.909611730204656 2.3757347440975076 0 0 1
2684 1 32.06761018709697 30.779543476682466 0.4961315924037093 0 0 1
2762 1 33.24074802249997 32.40343768443458 2.3695184736961905 0 0 1
2020 1 2.5622592995159437 33.80546579007749 0.4610233840744009 0 0 1
2992 1 34.64272863205827 11.850753306792079 10.15228279600007 0 0 0
2058 1 4.34966341067437 35.4900155801847 1.9135143136818393 0 0 1
3268 1 34.6558059992173 1.7081392270068683 19.787662293518636 0 0 0
1901 1 9.845465140023107 33.6848507935682 0.9293892064062417 0 0 1
2106 1 11.102619475610089 35.81852113206088 2.2636543676366716 0 0 1
2024 1 15.571977689396618 34.11492593552988 0.6826357945017332 0 0 1
2087 1 17.583776315563235 35.724109607242696 2.0854545890840486 0 0 1
2681 1 21.861846722738118 34.172537035332965 0.4576696091844552 0 0 1
2752 1 23.427254849251693 35.7620360365398 2.0263693775659815 0 0 1
2688 1 28.286658612123656 33.36427480297803 0.46886861772511523 0 0 1
2749 1 29.840114172016072 35.250831436168895 1.9116834681069208 0 0 1
2025 1 0.8163830541335895 38.476005140515554 1.6330722070050514 0 0 1
1963 1 6.0945331852733915 37.259559690980765 0.6207768973690581 0 0 1
2091 1 7.736118839859954 38.78961341655473 2.136433457719023 0 0 1
2072 1 12.440027018373712 37.4083708062397 0.44404851447746063 0 0 1
1992 1 14.150139929542615 38.96126867594687 2.366329976746753 0 0 1
2128 1 18.815916261148782 37.852535746061946 0.9053005730443378 0 0 1
2708 1 20.487456699525126 39.132147849815254 2.2934269408159937 0 0 1
2692 1 25.39617943457163 37.29213788680393 0.7944833525023911 0 0 1
2758 1 27.059644567053333 39.014877251961224 1.896640604157261 0 0 1
2694 1 31.374687209912533 36.82283087575358 0.39298090041687134 0 0 1
2753 1 33.4751508969057 38.55800153723487 1.7003890500520997 0 0 1
2032 1 2.916059331291764 40.19209977868246 0.6518410090449968 0 0 1
1979 1 4.669351119221571 41.62175847585726 2.0589530259657005 0 0 1
2034 1 9.2579215474692 40.82555613087672 0.6239170580628494 0 0 1
1909 1 11.12805349842843 42.21088368671127 2.0285732116043356 0 0 1
1841 1 15.433909771094038 40.764887866517824 0.89075777184831 0 0 1
2699 1 21.932870107549373 40.65892412821502 0.476405246743562 0 0 1
2661 1 23.69274466324364 42.25045867151866 2.135277313563691 0 0 1
2693 1 28.33468715521344 40.653573865048045 0.37113481224123007 0 0 1
2599 1 30.094881193325534 41.740943444735464 2.333706106494048 0 0 1
2033 1 6.043962358299393 43.473689356020515 0.7920260546330646 0 0 1
2036 1 12.67490744922926 44.06633962394092 0.37782037931912915 0 0 1
1847 1 17.209532509633384 42.384674539050636 1.9813008499736156 0 0 1
1708 1 18.89176362219183 43.64493953061664 0.13500252786628072 0 0 1
2554 1 20.36583255767584 45.281539759365444 1.5980732166344271 0 0 1
2704 1 25.377381349351136 43.7534872173356 0.4225074833253938 0 0 1
2707 1 31.59686329152411 43.280717006380925 0.841096328023375 0 0 1
2399 1 33.37574913299278 44.91006860553077 2.2194308981254336 0 0 1
1242 1 31.53131315365593 46.59250080907985 23.010154312055775 0 0 0
1599 1 2.8851851004570603 45.937709599746384 0.8828779794595911 0 0 1
1567 1 4.855231808969927 48.143388274662186 1.9414322799654706 0 0 1
2040 1 9.008909978795357 46.769632773379485 0.7439251028139143 0 0 1
1653 1 14.167270937691171 45.38302469128146 1.995024621675149 0 0 1
2042 1 16.017486434877895 46.7581551530958 0.24300805306561918 0 0 1
1505 1 17.526946836216556 48.07474324349137 2.3018960376148145 0 0 1
2372 1 22.370015634762947 46.46875656675172 0.03886167898389711 0 0 1
2437 1 27.053575693036862 45.346827630619245 1.8628788170757946 0 0 1
2713 1 29.034293961027014 46.706813294422176 0.5144222140211735 0 0 1
1459 1 -0.07120193628764446 49.74590566133325 0.8996053173132872 0 0 1
1560 1 6.370956964268813 49.82335850784821 0.6659656534419575 0 0 1
1553 1 10.809287803243842 48.35999726085241 2.458737781489398 0 0 1
2048 1 12.814204231007006 49.42537799934763 0.7094545333710994 0 0 1
1430 1 14.140185007081762 50.96375201418027 2.4624932853700865 0 0 1
2136 1 18.826778775080193 49.49101788238198 0.2871984439767477 0 0 1
2308 1 23.474167910506047 48.41094604470305 1.6714181441740412 0 0 1
2711 1 25.555841202429654 49.92083026910163 0.4162576164333386 0 0 1
2302 1 30.59998537779222 48.345929748835175 2.1645913757546493 0 0 1
2715 1 31.845067385460666 50.19187016425494 0.352243235262682 0 0 1
3256 1 34.663041023720766 49.86251562332312 16.366968792840712 0 0 0
51 1 5.9148748393098804 1.9161132057409862 3.746953939890014 0 0 0
94 1 4.407172141849158 0.3391165548231815 5.388142993391433 0 1 0
1421 1 12.309435215705593 1.7526264318812619 3.6063383268022697 0 0 0
4 1 13.957490459117528 3.205965647603453 5.285738280424456 0 0 0
98 1 17.28809668737747 0.2742018539728883 5.051733054527678 0 1 0
1382 1 18.907404336398013 2.1106510438919135 3.775377138732397 0 0 0
805 1 24.94348255297636 1.9014850919692257 3.7705296319737713 0 0 0
987 1 31.58574386133459 1.7637177575654999 3.874717435645677 0 0 0
783 1 33.334961421797864 3.0286673387180776 5.549708218103463 0 0 0
1458 1 2.905217526089543 5.360282106906963 3.4048707698961906 0 0 0
1 1 1.616711386726113 3.3289833189283384 5.2630025060181245 0 0 0
2 1 7.634588537459683 3.519703007372671 5.219367833230165 0 0 0
2153 1 9.155999019827624 5.05272942573769 3.5916116475979787 0 0 0
750 1 15.305373819756557 4.947954566854992 3.8112211227547372 0 0 0
2192 1 21.666621245410017 5.094319445450899 3.5138272446734793 0 0 0
778 1 20.25815304057236 3.704177136901534 5.192173801520015 0 0 0
780 1 26.49013256935102 3.7244758328297713 5.509281030936082 0 0 0
854 1 28.37561978669312 5.06999564869027 3.7936390940295905 0 0 0
8 1 4.373882881388044 6.683473858920111 5.307931193550655 0 0 0
777 1 6.117049614555296 8.520450593390532 3.780451152745004 0 0 0
11 1 11.040392834643272 6.245260714099567 5.173614636786227 0 0 0
310 1 12.597665885817525 8.206806687021196 3.8634548902779677 0 0 0
2156 1 18.262909484783098 8.781091281730202 3.653569659908702 0 0 0
14 1 16.881105624804448 6.65841946661071 5.200735236502733 0 0 0
785 1 23.06676410458769 6.908068660570206 4.865073368145311 0 0 0
2767 1 25.059879432256032 8.59020611254853 3.5697824142920047 0 0 0
787 1 30.490306238566877 6.412002785949244 4.928577424721635 0 0 0
1377 1 32.11186563899832 8.35506058369054 3.7624475286935297 0 0 0
2071 1 2.896981126508591 11.498985662054768 3.44139075998358 0 0 0
15 1 1.3146775251679412 10.009735758241755 5.203466305126103 0 0 0
17 1 7.605843340704595 10.072001765739353 5.202289460785575 0 0 0
2115 1 9.521403296997626 11.497641551871666 3.6688337279910757 0 0 0
19 1 13.87508621546528 10.227425063389383 5.480389804553676 0 0 0
31 1 15.731621802465865 11.786388193134758 3.9857931121964256 0 0 0
791 1 19.985033002860973 10.153236097761106 4.998013133543211 0 0 0
2770 1 21.743444871425957 11.712177251588374 3.455917387050368 0 0 0
793 1 26.577724084007937 10.103617839077266 5.02765615070557 0 0 0
2232 1 28.426448970099077 11.636654333656727 3.422909490007314 0 0 0
795 1 33.51404298209794 10.12568920277087 5.297320194220659 0 0 0
521 1 0.23771095272617698 14.63774920860929 3.9566131695627513 0 0 0
21 1 4.544318830647669 12.81104684510001 5.038220267942509 0 0 0
48 1 5.839933227296128 14.667036276896212 4.058489232097632 0 0 0
22 1 10.946714038140204 13.13045333769046 5.173491612454369 0 0 0
2121 1 12.580127499374749 14.721854908909949 3.3983473946172404 0 0 0
24 1 17.454035188749586 13.583150628736407 5.380835501678033 0 0 0
818 1 19.299083474257564 15.148799602965745 3.8902849527645813 0 0 0
797 1 23.696493509063142 13.180461273985967 4.959156999872086 0 0 0
2768 1 25.135868785875545 14.929371223778087 3.427495506056774 0 0 0
799 1 30.133025968741144 13.436325862586202 4.956543478577986 0 0 0
2648 1 32.013870721348454 14.981497357402967 3.706048413164882 0 0 0
25 1 1.7073748378783276 16.458915262667656 5.416453447171809 0 0 0
34 1 3.263615976105324 17.996200470120417 3.7403148901221526 0 0 0
27 1 7.51920435753788 16.27624843306786 5.454327354824158 0 0 0
771 1 9.263090852217342 17.96167512000309 3.9250014704918597 0 0 0
29 1 14.39846156374449 16.505488753189333 4.78773440076884 0 0 0
1999 1 15.890719408372377 18.224791041879993 3.3399611650633334 0 0 0
800 1 20.924483902907387 16.81120714168432 5.288262813239481 0 0 0
2400 1 28.25020875376133 18.00858558261079 3.690622376148602 0 0 0
802 1 26.85780889850018 16.077180729959796 5.19813547405825 0 0 0
804 1 33.53400578608913 16.704566690857575 5.304437408943602 0 0 0
2093 1 1.5388853593929686 19.66670280101058 2.5428700124261887 0 0 1
33 1 4.8083816466733005 19.403349522727186 5.34434144211647 0 0 0
35 1 11.053174902281457 19.336682293244515 5.4984230264443354 0 0 0
2152 1 12.657938289035442 20.702152059722074 3.443194169629389 0 0 0
38 1 17.619346065775236 19.453021941551633 5.0452088841843326 0 0 0
2213 1 19.07663982373322 20.97041405370779 3.2481011821671903 0 0 0
2709 1 22.129254160093158 18.47062468209793 3.5859119630882725 0 0 0
808 1 23.903679684259338 19.8607431465024 5.147627119169069 0 0 0
810 1 30.126809189191523 19.49791612410327 4.961878236325392 0 0 0
2175 1 31.870138399549155 21.06472662051995 3.6090384575399135 0 0 0
39 1 1.2750800417691872 22.724277572754577 5.331951123452948 0 0 0
731 1 6.186878498762917 21.58377038654657 3.938423600021678 0 0 0
40 1 8.17779717917802 22.82261231512981 5.49891041184131 0 0 0
42 1 14.021019436552873 22.610081650557746 5.137463921962096 0 0 0
2138 1 15.63403223281198 24.10572310665218 3.508215148486144 0 0 0
813 1 20.382274273652968 22.574324744674225 4.894500650361688 0 0 0
2562 1 25.392887796626518 21.366226047546924 3.5152757772213596 0 0 0
816 1 27.070829377166998 22.64231009686563 5.085487218315473 0 0 0
2745 1 28.7938900529321 24.1902919618651 3.3679889624672867 0 0 0
819 1 33.23182387214461 22.691141751229367 5.315868267558637 0 0 0
669 1 0.17214034269184886 27.27444287301048 3.9564963744798085 0 0 0
768 1 3.0953267946011094 24.285135094140944 3.9916825139985113 0 0 0
44 1 4.875432538612202 25.91284948383344 5.370003191465963 0 0 0
2151 1 9.601561400690684 24.395272407880178 3.6378617667011652 0 0 0
46 1 11.024823188253867 25.8016546041585 5.3587011397729505 0 0 0
47 1 17.096044946481452 26.06522380008671 5.223180327346172 0 0 0
2486 1 21.92750747867528 24.409932974809635 3.234367038442647 0 0 0
1380 1 19.03606684882637 27.245514189633777 3.80941681928542 0 0 0
821 1 23.799487048980563 25.969383444820927 4.956971754441655 0 0 0
822 1 30.34726648874472 25.577318403894143 5.180422451326255 0 0 0
730 1 2.721895109042767 30.216535960402943 3.8850419216359278 0 0 0
1414 1 6.168149835045412 27.39792078897225 3.45666081872974 0 0 0
53 1 7.902486205049392 29.116256934015322 5.194294626796085 0 0 0
769 1 12.714749096738831 27.366128355868824 3.7840132632583336 0 0 0
56 1 14.306857289452177 28.970784364125528 5.28956438053242 0 0 0
824 1 20.542423873505378 29.253882797665966 5.194169197063273 0 0 0
2395 1 25.460790995225988 27.364438631061432 3.3701867808011445 0 0 0
827 1 26.891116994282793 29.110779191927257 5.076999973297825 0 0 0
2766 1 31.548248240965833 27.37192861025978 3.359828077851785 0 0 0
831 1 32.98078673434762 29.204322450813592 5.012784975057743 0 0 0
1251 1 34.474657616765 49.618944558735436 22.796429461525005 0 0 0
57 1 4.753142587468334 31.81221831107511 5.425502110472302 0 0 0
776 1 9.585565236137054 30.670517026543195 3.8051511147196853 0 0 0
58 1 11.11511797254159 32.378411432494644 5.373479292240576 0 0 0
1464 1 16.028004630491093 30.562973880376244 3.6746786986348505 0 0 0
60 1 17.61116887297868 32.227891447466064 5.0113666623679665 0 0 0
1381 1 22.123821456422874 30.891937210017623 3.72938424621791 0 0 0
833 1 23.67238931229561 32.42594544216236 5.198357968523915 0 0 0
782 1 28.389585943641627 30.80717214341775 3.845312052206664 0 0 0
834 1 29.89747341059216 32.32569660991702 5.5793923315058604 0 0 0
62 1 1.376188430935092 35.3293030440265 5.367931074652625 0 0 0
688 1 5.980516736337834 33.62847477275534 3.769877882823393 0 0 0
63 1 7.521606187974541 35.64371972156357 5.202213495476124 0 0 0
765 1 12.817788803839225 33.933097033896374 3.951222903372239 0 0 0
65 1 14.527341056894327 35.722274838435496 5.091381817704917 0 0 0
2223 1 19.008988318225388 33.93880850198627 3.4971668229134196 0 0 0
836 1 20.46352744078865 35.63802531550985 5.2151695557939455 0 0 0
2179 1 24.99376685381974 33.99303273381881 3.554356957231776 0 0 0
838 1 26.72669067740993 35.720281510811745 5.183152328638225 0 0 0
928 1 31.448841366226965 33.93070525916677 3.887887693467033 0 0 0
841 1 33.17346583547268 35.60307338978065 5.168644090549522 0 0 0
1945 1 2.9122356379839744 36.816984455986315 3.6824899492991765 0 0 0
67 1 4.3643080674921535 38.886196544818574 5.039059341960401 0 0 0
2155 1 9.68515207994238 37.321771553213665 3.5908074344938736 0 0 0
68 1 10.945674883383079 39.12187598264249 5.638453638625156 0 0 0
2126 1 16.14687676284954 37.342944887614706 3.651410913343582 0 0 0
70 1 17.487403224087288 38.678818492009455 5.50907381902809 0 0 0
1378 1 22.105438974432797 37.71587295172297 4.1159611945996515 0 0 0
845 1 24.04962238913668 39.18509063061174 5.3616644039580175 0 0 0
2558 1 28.554145464154335 37.22591312279023 3.588165496084685 0 0 0
847 1 30.373570332665015 38.67540185358857 5.278972009788381 0 0 0
738 1 -0.07584051245110218 39.89957267098828 3.800437764941518 0 0 0
73 1 1.4745179399256505 41.42152425136091 5.329980401042556 0 0 0
772 1 6.143977856084832 40.34309632297338 3.74962343014545 0 0 0
76 1 7.7872001166692595 41.83942601484699 5.223814898263222 0 0 0
216 1 12.683708966959077 40.53598164181379 3.8612127483549052 0 0 0
2154 1 18.699007121697743 40.91207178024398 3.6640807415374583 0 0 0
848 1 20.714650646491307 42.15624833034886 4.865935521271644 0 0 0
2765 1 25.387599685065652 40.36540859564259 3.4597441657568133 0 0 0
850 1 27.259657971639676 41.90577227104936 4.976320779987612 0 0 0
2174 1 31.83255185080378 39.95502461508971 3.4859032402158854 0 0 0
852 1 33.22273951314643 41.328614872499145 5.268179002710504 0 0 0
1818 1 0.8464814960010494 44.64441819019896 2.5719881365028585 0 0 1
729 1 3.1788323653257913 43.21682666193685 3.865040614769837 0 0 0
80 1 4.51123685092553 45.27202946826867 5.06639892974244 0 0 0
1744 1 7.455464771759847 44.945728838849234 2.670104351471423 0 0 1
773 1 9.352995425786029 43.51137444136809 3.887153153341361 0 0 0
83 1 11.06671652869428 44.88920345180921 5.182014682617543 0 0 0
548 1 15.76713743462909 43.87150730110858 4.024091359629719 0 0 0
2763 1 21.890741112835 44.09007568381978 3.64091397315281 0 0 0
1379 1 28.72147100135709 43.712925125244126 3.73109102623825 0 0 0
856 1 30.618852884935965 44.8244062507178 5.306937036422466 0 0 0
87 1 1.6717861977716089 48.0207919058704 5.306421235258471 0 0 0
563 1 15.338558512661807 50.29402293292229 22.941952235410195 0 0 0
85 1 6.246751384208285 46.8391131165464 3.8222184376801316 0 0 0
89 1 7.743538899160834 48.17509268819467 5.481907760291145 0 0 0
681 1 12.30460131931386 46.840454877795906 3.853483058974303 0 0 0
90 1 13.954444013520776 48.09842657558954 5.543331843848055 0 0 0
86 1 17.413491177890926 45.44159453493947 5.400811979890586 0 0 0
862 1 19.18605188837771 46.66354968834375 3.747159275072657 0 0 0
858 1 20.87079805692871 48.22648185892453 5.144794887231755 0 0 0
853 1 23.422986638608588 45.41000245667816 5.1025021186319695 0 0 0
2570 1 25.221386272441066 46.8550379601254 3.1150271019193156 0 0 0
859 1 27.058346234353806 48.204325451307085 5.213038494249524 0 0 0
2775 1 32.06581133753945 46.57828805019484 3.717658620516526 0 0 0
860 1 33.60929389083889 48.01116786227654 5.338133717682715 0 0 0
1718 1 3.195615087071322 49.68754830158099 3.7020033239880696 0 0 0
732 1 8.895376911808807 49.968847076164266 3.9206895876745484 0 0 0
97 1 10.641608440391503 0.18822977343706454 5.1500257720733185 0 1 0
2147 1 15.694502066523144 49.14372226230452 3.6831168545075137 0 0 0
863 1 23.3998667617765 0.1865259387121494 5.012897476969205 0 1 0
2334 1 21.998319783925876 49.903559154534776 3.5291732034655814 0 0 0
2162 1 28.384122359290256 49.64485916648238 3.4983325139014863 0 0 0
866 1 29.798918314010706 0.025804040246499405 5.51307046275424 0 1 0
99 1 2.834429904001763 1.6289605598613852 7.444348223619655 0 0 0
96 1 8.858059457771072 1.5528349626116804 6.886490934854076 0 0 0
188 1 7.249846425440353 0.33635490715217947 8.622533790121045 0 1 0
102 1 10.681583485641061 3.205272720984419 8.476560716539913 0 0 0
190 1 14.232346568787516 0.3284561825312241 8.210805374444206 0 1 0
5 1 15.896547412567308 1.9641306211466913 6.8010182371953425 0 0 0
943 1 20.18714520836152 0.43054701717844057 8.225050341227822 0 1 0
869 1 22.072369443907835 1.9550181257414883 6.713756299466959 0 0 0
781 1 28.028686580580928 1.827077964151672 7.014079434682546 0 0 0
945 1 26.49364036336721 0.28329481655261746 8.509556738367179 0 1 0
55 1 -0.007784472989738306 5.017396214749164 6.920965556932628 0 0 0
100 1 4.4494126503322695 3.481842619619546 8.512269448326656 0 0 0
101 1 6.189775847637095 5.295042791895215 6.843222039629309 0 0 0
3 1 12.421849721173567 4.682450447218888 7.03068155053065 0 0 0
104 1 17.17644488336354 3.664143525255496 8.177126154502982 0 0 0
748 1 18.7454311816666 5.364284448803498 6.642481355073499 0 0 0
870 1 23.50184128337774 3.8682562466177766 7.904884335887443 0 0 0
786 1 25.049293693782772 5.663927260423328 6.499124389595309 0 0 0
871 1 29.773050818601487 3.548878897147792 8.61213633656914 0 0 0
872 1 31.923835677095383 4.865233194940476 7.188221245760077 0 0 0
9 1 2.8641515758955496 8.50956609759435 6.70644269258734 0 0 0
105 1 1.3941619269950984 6.720598996517969 8.428606833966871 0 0 0
107 1 7.6941527960016 6.570151247409339 8.528470732471687 0 0 0
10 1 9.370518106270698 8.124931354674667 6.84255613171118 0 0 0
13 1 15.454966863520013 8.109656689811784 6.986594964644817 0 0 0
108 1 13.678866555810151 6.5658129572780854 8.72450994904859 0 0 0
873 1 20.202700887447726 6.956282731212695 8.11233368050779 0 0 0
880 1 21.56824503683026 8.500260156262147 6.290196276866533 0 0 0
875 1 26.875853684391863 7.318801358222618 8.076932213902511 0 0 0
788 1 28.374821428128925 8.364149665181444 5.93605508688733 0 0 0
877 1 33.55591778324322 6.693463468755705 8.62534362729435 0 0 0
37 1 -0.047638540458450035 11.437718475171923 6.932615861715871 0 0 0
115 1 6.043162750851332 11.172972605018368 7.01131703327355 0 0 0
110 1 4.385696033858247 9.685957593501783 8.645589492171224 0 0 0
117 1 12.372089949777985 11.579583586782974 7.2713733843849635 0 0 0
111 1 10.662278410575027 9.732147333056696 8.764758344973382 0 0 0
734 1 18.62489102937865 11.632841506835979 6.95729401916921 0 0 0
113 1 17.0002781366526 10.000254834609603 8.628083650491476 0 0 0
883 1 23.300963268798576 9.80959225144667 7.979257900897435 0 0 0
798 1 24.99412303478161 11.58945493920015 6.910587914756378 0 0 0
885 1 29.837629779781576 9.80708383053168 7.9164496342210775 0 0 0
890 1 31.478975156586117 11.45808000562003 6.653743435622846 0 0 0
114 1 1.551893684354094 13.057271861458123 8.620279480656286 0 0 0
26 1 3.461527162489649 14.560801159577949 7.122642410680951 0 0 0
23 1 9.112824659471473 14.646748497647838 6.635990749602424 0 0 0
116 1 7.649026148054961 12.812814534923683 8.479462961464947 0 0 0
118 1 14.203632566026078 13.46828441387167 8.549046462109446 0 0 0
30 1 15.782264291018766 14.892578511756232 6.699593355311841 0 0 0
887 1 20.590485965224104 13.185888380693832 8.302552142012503 0 0 0
801 1 22.394921243797974 14.800055051470984 6.66356517344897 0 0 0
888 1 26.599141350504635 13.05739544482221 8.410717094080624 0 0 0
894 1 28.585356848029914 14.611801738251126 6.818205865687917 0 0 0
892 1 33.031375745052586 13.069558903566186 8.084436639744643 0 0 0
6217 1 0.21574244395190567 43.69797116941952 6.561660263007712 1 0 1
120 1 4.7579136993211 16.3591277832049 8.630009942144351 0 0 0
28 1 6.187839246230665 17.901203557592524 6.996920796764918 0 0 0
122 1 10.931157489307212 16.20119946752285 8.365372411572828 0 0 0
127 1 12.817911832109736 17.447672744290415 6.863705394296325 0 0 0
123 1 17.45282906412415 16.180122685188067 8.54988988217334 0 0 0
839 1 19.039560751319964 18.187615880970785 7.048747367613441 0 0 0
893 1 23.569712136561762 16.509547614986165 8.567598895554019 0 0 0
809 1 25.214476707211197 17.857057388199372 6.824316060626284 0 0 0
895 1 30.10137208437933 16.19878816673682 8.152746486489555 0 0 0
896 1 31.582205624822265 17.928606087913963 6.877767407975528 0 0 0
125 1 1.4851840783347927 19.266879863600934 8.375270891500268 0 0 0
32 1 2.996195457652883 20.885879018967923 6.870330729443975 0 0 0
126 1 7.6463002858154505 19.414014406050104 8.616655818382961 0 0 0
36 1 9.348343690395534 20.919532879914836 7.115700188588229 0 0 0
129 1 14.262173180510109 19.373062576198922 8.237557156087428 0 0 0
130 1 15.925603839815189 21.01163750654572 6.627943641284831 0 0 0
897 1 20.337539137814336 19.76728608037532 8.595678368176165 0 0 0
899 1 26.842707887974132 19.359237250893848 8.193480481447741 0 0 0
903 1 28.396617335902118 21.105647569205935 6.840083711032573 0 0 0
900 1 33.15955042044845 19.510135802924157 8.340326330779462 0 0 0
656 1 9.454690577793874 50.44811735498203 22.706616859364047 0 0 0
133 1 4.692450436652879 22.524659320210322 8.579311908977907 0 0 0
134 1 6.231465244734745 23.984305855613545 7.114752406623424 0 0 0
137 1 11.032731605330545 22.652164700392458 8.753852740457145 0 0 0
41 1 12.502568477522265 24.148925168144782 6.727523910827032 0 0 0
139 1 17.516472186395607 22.813880669599797 8.523479996301475 0 0 0
814 1 22.105563243840717 21.37062305462295 6.829146629976852 0 0 0
902 1 23.975987730388272 22.654536148357828 8.170630078197883 0 0 0
815 1 25.391152802189477 24.136360566235044 6.54057722907891 0 0 0
904 1 29.974460005786167 22.522100774113255 8.718997615454052 0 0 0
817 1 31.80371197090348 24.103146988095965 7.001665738107505 0 0 0
140 1 1.6489026679737018 25.701570439131505 8.695060442440406 0 0 0
141 1 7.855357101789252 25.56553492257816 8.398824376805802 0 0 0
142 1 14.309829111796533 25.804977329049134 8.176016397558543 0 0 0
755 1 18.870038033218243 24.50689031885151 6.726485939619147 0 0 0