

read_data data.ice_${TEMP}K_${PRES}atm_ML group ice
read_data data.ice_289K_${PRES}atm_ML group ice
read_data data.ice_289K_1atm_ML group ice
Reading data file ...
  orthogonal box = (-0.011976765 -0.010646014 -0.010646014) to (57.282487 50.917766 50.917766)
  3 by 1 by 2 MPI processor grid
  reading atoms ...
  4608 atoms
  reading velocities ...
  4608 velocities
  read_data CPU = 0.037 seconds
read_data data.liq_${TEMP}K_${PRES}atm_ML add append shift ${X_HI} ${YZ_LO} ${YZ_LO} group water
read_data data.liq_289K_${PRES}atm_ML add append shift ${X_HI} ${YZ_LO} ${YZ_LO} group water
read_data data.liq_289K_1atm_ML add append shift ${X_HI} ${YZ_LO} ${YZ_LO} group water
read_data data.liq_289K_1atm_ML add append shift 50.9177660135662 ${YZ_LO} ${YZ_LO} group water
read_data data.liq_289K_1atm_ML add append shift 50.9177660135662 0.010646013565168 ${YZ_LO} group water
read_data data.liq_289K_1atm_ML add append shift 50.9177660135662 0.010646013565168 0.010646013565168 group water
Reading data file ...
  orthogonal box = (-0.011976765 -0.010646014 -0.010646014) to (104.26486 50.917766 50.917766)
  3 by 1 by 2 MPI processor grid
  reading atoms ...
  4608 atoms
  reading velocities ...
  4608 velocities
  read_data CPU = 0.032 seconds

write_data data.icewater_test
System init for write_data ...
WARNING: Communication cutoff is 0.0. No ghost atoms will be generated. Atoms may get lost. (../comm_brick.cpp:167)

# Define potential
#
pair_style sw
pair_coeff * * /data/emrosky-sim/Freezing_Simulations/Melting/MLmW_fancy/ML_mW.sw mW
Reading sw potential file /data/emrosky-sim/Freezing_Simulations/Melting/MLmW_fancy/ML_mW.sw with DATE: 2019-02-27

# Delete water and ice atoms that are overlapping
#
delete_atoms overlap 2.5 water ice
System init for delete_atoms ...
Neighbor list info ...
  update every 1 steps, delay 10 steps, check yes
  max neighbors/atom: 2000, page size: 100000
  master list distance cutoff = 6.0032907
  ghost atom cutoff = 6.0032907
  binsize = 3.0016454, bins = 35 17 17
  2 neighbor lists, perpetual/occasional/extra = 1 1 0
  (1) command delete_atoms, occasional, copy from (2)
      attributes: full, newton on
      pair build: copy
      stencil: none
      bin: none
  (2) pair sw, perpetual
      attributes: full, newton on
      pair build: full/bin/atomonly
      stencil: full/bin/3d
      bin: standard
Deleted 695 atoms, new total = 8521

# set timestep
#
timestep 10.0

# Define output
#
compute 1 all msd
thermo 50
thermo_style custom step temp press vol etotal ke pe c_1[4]

# Neighbor lists
#
neigh_modify delay 0 every 1 check yes

# Set fixes
#
fix 1 all momentum 10 linear 1 1 1 rescale
fix 2 all nph iso ${PRES} ${PRES} ${PCOUPL}
fix 2 all nph iso 1 ${PRES} ${PCOUPL}
fix 2 all nph iso 1 1 ${PCOUPL}
fix 2 all nph iso 1 1 10000.0
fix 3 all temp/csvr ${TEMP} ${TEMP} ${TCOUPL} 837492
fix 3 all temp/csvr 289 ${TEMP} ${TCOUPL} 837492
fix 3 all temp/csvr 289 289 ${TCOUPL} 837492
fix 3 all temp/csvr 289 289 5000.0 837492


# Fix ice atoms in place
#
velocity ice set 0.0 0.0 0.0
fix 4 ice setforce 0.0 0.0 0.0

# Run 1.0 ns equilibration of water
#
dump 1 all atom 1000 eq.all.${NAME}.dump
dump 1 all atom 1000 eq.all.coexist_289K_1atm_ML.dump
run 100000
Neighbor list info ...
  update every 1 steps, delay 0 steps, check yes
  max neighbors/atom: 2000, page size: 100000
  master list distance cutoff = 6.0032907
  ghost atom cutoff = 6.0032907
  binsize = 3.0016454, bins = 35 17 17
  1 neighbor lists, perpetual/occasional/extra = 1 0 0
  (1) pair sw, perpetual
      attributes: full, newton on
      pair build: full/bin/atomonly
      stencil: full/bin/3d
      bin: standard
Per MPI rank memory allocation (min/avg/max) = 4.590 | 4.598 | 4.605 Mbytes
Step Temp Press Volume TotEng KinEng PotEng c_1[4] 
       0    136.01082   -657.95258    270463.15   -84460.773    3454.1991   -87914.972            0 
      50    157.04317   -296.90663    269492.56     -84131.2    3988.3472   -88119.548   0.85975736 
     100    167.86934    143.96516    267581.54   -83778.917     4263.294   -88042.211    1.7877822 
     150    173.06217    681.97369    266646.56    -83430.27    4395.1738   -87825.444    2.8651867 
     200    177.82484    329.59431    267657.99    -83215.85    4516.1289   -87731.979    3.9182617 
     250     180.7799   -422.96866    269111.17   -82928.186    4591.1769   -87519.363    4.9839924 
     300    186.38821   -68.427997    269480.33   -82596.922    4733.6084    -87330.53    6.1707906 
     350    192.65251   -68.906491    269202.43   -82383.982    4892.6997   -87276.681    7.4517337 
     400    194.36556   -90.961218    268923.75   -82168.032    4936.2052   -87104.237    8.8801395 
     450    199.69727    200.80688    268865.75   -81912.667    5071.6122   -86984.279    10.353248 
     500    200.80297     85.64708    269393.28    -81715.43    5099.6931   -86815.123    11.844206 
     550    204.96899    30.118715    269991.93   -81526.966    5205.4952   -86732.461    13.383876 
     600    204.96308    188.60858    270119.24   -81333.491    5205.3452   -86538.836    15.207015 
     650    210.96514    -135.5488    269946.43   -81133.153    5357.7765    -86490.93     16.88247 
     700    220.72529    356.45288    269679.23   -80948.325    5605.6503   -86553.976    18.697356 
     750    222.68979    99.551232    269992.47    -80793.93    5655.5416   -86449.472    20.380974 
     800    222.29618    -178.8063    270742.15   -80608.625    5645.5452    -86254.17    22.372713 
     850    225.67265   -258.88363     270908.3   -80421.322    5731.2958   -86152.617    24.236408 
     900    225.10969    213.97859    270633.42   -80253.933    5716.9986   -85970.931    25.954402 
     950    229.40159    24.874603    270695.05    -80096.11    5825.9979   -85922.108    27.819726 
    1000    233.92145   -35.042064    270976.52   -79958.501    5940.7864   -85899.288    29.793538 
    1050    236.56004   -193.86594    271190.92   -79834.221    6007.7973   -85842.019    32.063988 
    1100    239.61319    107.78618    271170.01    -79732.91    6085.3368   -85818.247     34.25318 
    1150    239.08112   -300.68581    271506.89   -79607.933    6071.8241   -85679.757    36.284995 
    1200    241.02021   -218.09901     271638.7   -79508.342    6121.0702   -85629.412     38.48474 
    1250    242.52607   -83.240685    271646.61   -79403.821    6159.3137   -85563.134    40.839051 
    1300    242.06019    47.838911    271479.68   -79312.091    6147.4819   -85459.573    43.266974 
    1350     243.9358    342.82469    271535.65   -79220.846     6195.116   -85415.962    45.577351 
    1400    250.15329   -115.37278    271989.22   -79099.967    6353.0186   -85452.986    48.135857 
    1450    247.44795   -333.11141       272301   -78987.943    6284.3124   -85272.255    50.755756 
    1500    254.70888   -291.86307    272114.57   -78912.042    6468.7145   -85380.757    53.245659 
    1550    251.17431   -46.683477    271746.62   -78830.658    6378.9488   -85209.607    55.785714 
    1600    256.25458   -114.86106     271660.6   -78740.308    6507.9699   -85248.278    57.778432 
    1650    257.35874    242.00116    272031.65   -78677.401    6536.0116   -85213.413    60.137921 
    1700    256.45132    64.250146    272645.17   -78579.392    6512.9664   -85092.358    62.545517 
    1750    256.87708   -62.569633    273127.78   -78511.239    6523.7792   -85035.018    64.787402 
    1800    257.58147   -119.86569    273124.39   -78410.086    6541.6682   -84951.754    66.931216 
    1850    266.96814    132.25494       272633   -78326.945    6780.0569   -85107.002    69.311842 
    1900    270.71549   -18.402496    272592.19   -78236.573    6875.2263   -85111.799    72.001437 
    1950    271.61152    -72.73492    272978.43   -78163.783    6897.9824   -85061.765    74.736656 
    2000    265.31667   -74.099094     273418.9    -78070.44    6738.1152   -84808.555    77.295499 
    2050    265.82655   -75.311728    273401.84   -78054.392    6751.0643   -84805.456    80.337666 
    2100    266.65761    76.648119    273046.05     -78021.1    6772.1705   -84793.271    83.432114 
    2150    273.08094     96.97033    272666.23     -77964.3    6935.3006   -84899.601    86.025091 
    2200    269.30945    55.982079     272578.6   -77903.327    6839.5179   -84742.845    88.578628 
    2250    270.01442    56.695987    272987.13    -77866.86    6857.4217   -84724.282    91.336702 
    2300    270.58094  -0.19112836     273576.9   -77770.072    6871.8093   -84641.881    94.226366 
    2350    273.28822    54.232467    273688.19   -77685.426    6940.5648   -84625.991    97.422331 
    2400    272.78923    67.032014    273383.92   -77656.822     6927.892   -84584.714    99.708519 
    2450    275.10994     175.1899    273176.72   -77600.485    6986.8301   -84587.315    102.14075 
    2500    275.69006    209.51767    273056.72   -77527.725    7001.5631   -84529.288    104.91468 
    2550    278.42268    53.351031     273362.2   -77498.865    7070.9621   -84569.828     107.6334 
    2600    277.29647   -164.92162    273635.93   -77483.414    7042.3603   -84525.774    110.25338 
    2650    281.64813    10.024592    273907.13   -77405.971    7152.8771   -84558.849    113.48562 
    2700     282.0905    35.064375     274252.2   -77374.286     7164.112   -84538.398    116.44565 
    2750    280.07256   -144.44895    274476.76   -77387.117    7112.8633   -84499.981       119.27 
    2800     280.7077   -16.877335    274243.66    -77356.25    7128.9935   -84485.243    121.99837 
    2850    283.16075   -26.194715    273836.79   -77368.289    7191.2923   -84559.582     124.8291 
    2900    280.90685    66.070874     273330.1   -77381.055    7134.0512   -84515.106    128.00539 
    2950    283.11355    -24.57939    273336.85    -77378.62    7190.0937   -84568.713    131.03295 
    3000    283.77831   -85.044508    273360.21   -77338.411    7206.9762   -84545.387    133.71961 
    3050    283.86451    252.90317    273500.39   -77345.981    7209.1655   -84555.147    136.75674 
    3100    282.15419   -137.68455     273960.4   -77329.426    7165.7294   -84495.155    139.55648 
    3150    283.71413   -160.13599    274046.44   -77328.481    7205.3464   -84533.828    142.70942 
    3200    283.12732    25.062309    273833.49    -77294.17    7190.4435   -84484.614    145.55969 
    3250    285.52928    323.48042     273544.6   -77268.798    7251.4448   -84520.243    148.93246 
    3300    284.94828    -35.00394     273613.5   -77221.653    7236.6894   -84458.343    151.75485 
    3350     285.9025    195.35848     273786.9   -77121.434    7260.9233   -84382.357    154.94395 
    3400    286.27639   -178.48779     274095.4   -77172.864    7270.4187   -84443.283    157.95564 
    3450    283.12079     156.9358    273898.56   -77191.973    7190.2776    -84382.25    160.51101 
    3500    289.61868    53.274278    273809.84   -77184.903    7355.3012   -84540.204    163.86027 
    3550    282.99685    102.87233     273932.4   -77138.041      7187.13   -84325.171    166.44042 
    3600    286.69114    12.259325    273961.44   -77154.399    7280.9519   -84435.351    169.14923 
    3650    287.19339    243.84243    273825.35   -77160.143    7293.7074   -84453.851    171.85717 
    3700     289.5312    7.5533051    273886.79   -77155.265    7353.0795   -84508.344    174.33943 
    3750    287.12471   -161.59014    274126.78    -77180.92    7291.9632   -84472.884    177.31049 
    3800    285.03282   -161.62364    274147.27    -77180.55    7238.8364   -84419.386    180.41077 
    3850    287.58536   -147.04617    273918.94   -77169.266    7303.6622   -84472.928    183.49486 
    3900    285.34986    331.87762    273782.13    -77176.06    7246.8882   -84422.949     186.2576 
    3950    283.62635    55.319409    273941.55   -77131.848     7203.117   -84334.965    189.36899 
    4000    282.73049   -130.09658    274083.72   -77139.145    7180.3653    -84319.51    192.13561 
    4050    287.57006    27.070141    274048.53   -77129.168    7303.2736   -84432.442     195.1618 
    4100    286.18653   -28.685286    273923.69   -77119.494    7268.1366    -84387.63    198.04914 
    4150    288.56407    191.31789       273632   -77085.036     7328.518   -84413.554    201.26991 
    4200    287.45753    160.07805    273628.64   -77077.013    7300.4156   -84377.429     204.3364 
    4250    284.96574   -194.72281    274179.29   -77051.268    7237.1328   -84288.401    207.71465 
    4300    285.96115   -228.09369    274621.08   -77065.705    7262.4128   -84328.118    211.54874 
    4350    285.40842    -92.96243    274429.29   -77075.586    7248.3753   -84323.961    213.85785 
    4400     292.8075    70.344711    273831.17   -77072.662    7436.2861   -84508.948    215.91629 
    4450    289.68933    330.38716    273545.11   -77005.478    7357.0956   -84362.574    218.72949 
    4500    287.96637    248.16436    273773.56   -76960.352    7313.3383    -84273.69    222.38992 
    4550    291.09002   -161.04353    274311.42   -76919.099    7392.6682   -84311.767    225.35585 
    4600    288.07397   -139.71227    274676.94   -76915.742    7316.0711   -84231.813    227.89622 
    4650    291.58639   -335.60137    274507.98   -76854.877    7405.2743   -84260.151    230.90519 
    4700    291.67265   -222.55042    274050.19   -76841.083    7407.4649   -84248.548    233.96306 
    4750    289.20012    48.799703    273651.08    -76858.06    7344.6713   -84202.732     237.1165 
    4800    289.06868    421.15056    273780.93   -76866.083    7341.3333   -84207.416     239.9596 
    4850     287.5652   -173.70753    274739.29   -76872.599    7303.1501   -84175.749    243.39772 
    4900    290.87899   -316.60878    275101.27   -76868.618    7387.3088   -84255.926    247.05544 
    4950    287.81726   -234.66107    274724.02   -76876.944    7309.5515   -84186.495    249.76849 
    5000    293.19435   -105.46608    274100.06     -76897.6    7446.1108   -84343.711    252.66776 
    5050    292.35231    112.58317    273807.22   -76914.483    7424.7259   -84339.209     255.2695 
    5100    294.50492    42.346921    273958.69   -76927.134    7479.3947   -84406.529    258.31953 
    5150    293.24043    55.791072     274399.6   -76952.748     7447.281   -84400.029     261.4999 
    5200    291.33421   -362.22383    274717.51   -76945.875    7398.8697   -84344.745    264.59228 
    5250    289.50044    120.51081    274331.69   -76920.955    7352.2985   -84273.254    268.41791 
    5300    296.41188   -82.896116    273877.47   -76920.505    7527.8247    -84448.33     270.0832 
    5350    285.88322    345.40902    273426.28   -76882.982    7260.4338   -84143.416    272.65336 
    5400    289.48317    138.62668    273722.57   -76937.032    7351.8598   -84288.892    275.95291 
    5450    287.86852   -9.3752301    274215.63    -76919.06    7310.8534   -84229.913    279.65242 
    5500    290.40329    117.25934    274527.46   -76917.446    7375.2276   -84292.674    282.84371 
    5550     288.3664     7.292447    274482.22   -76964.914    7323.4978   -84288.412    285.90184 
    5600    290.36736    140.57394    274205.46   -77021.408    7374.3151   -84395.723     288.3714 
    5650    286.98607   -129.44486    273963.71   -77103.963    7288.4421   -84392.405    291.42802 
    5700    285.28821    180.56265    273718.52   -77082.007    7245.3225   -84327.329    294.43916 
    5750    290.90297    110.23988    273590.85   -77066.395    7387.9178   -84454.312    297.25042 
    5800    288.77603    295.07543    273880.32   -77063.563     7333.901   -84397.464    300.07574 
    5850    291.90964   -294.78613    274491.09   -77005.021    7413.4836   -84418.504    302.83486 
    5900    286.53528   -19.274264    274527.63   -77030.317    7276.9936   -84307.311    305.58554 
    5950    286.12657    206.36678    273936.01   -77046.496    7266.6138    -84313.11    307.66783 
    6000    295.40068   -367.66379    273641.21   -77049.085    7502.1439   -84551.228    309.52435 
    6050    289.87234    99.180402    273598.09   -76997.728    7361.7433   -84359.471    312.96641 
    6100    290.76922   -31.153804    273896.51   -77000.437    7384.5211   -84384.958     316.6548 
    6150    287.61098   -130.97678    274424.76   -76984.383    7304.3128   -84288.696    320.86883 
    6200     292.9156    -333.3909    274653.62   -77005.361    7439.0316   -84444.393    323.69873 
    6250    287.49077   -76.685615    274299.92   -76980.146    7301.2598   -84281.406    325.46297 
    6300    288.90777    275.04501    273830.76   -76939.585    7337.2466   -84276.832    327.70086 
    6350    291.97224    81.169378     273865.5   -76912.455    7415.0734   -84327.529    330.66115 
    6400    288.03056    162.09459    273981.02   -76979.527    7314.9686   -84294.495    333.78321 
    6450    287.23622    100.82644    274119.45   -76981.771    7294.7952   -84276.566    336.61344 
    6500    290.14427    50.733236     274151.6   -76932.525    7368.6494   -84301.174     339.0991 
    6550     288.0059    14.009788    274237.32   -76918.776    7314.3424   -84233.118    342.50593 
    6600    287.47838    79.919139    274406.73   -76932.779     7300.945   -84233.724     345.1924 
    6650    288.84787    38.953492    274378.11   -76974.486    7335.7253   -84310.211    347.60508 
    6700    293.46679   -265.97888    274094.25   -76994.669    7453.0299   -84447.699    349.83587 
    6750    289.49294    213.20222    273516.54   -77021.103     7352.108   -84373.211    352.01115 
    6800    291.78942   -169.12298    273726.56    -76994.06    7410.4305    -84404.49    354.91255 
    6850    286.41099    101.98711    274179.75   -76987.966    7273.8371   -84261.803    358.42612 
    6900    290.68615   -155.25184    274618.97   -76958.665    7382.4113   -84341.076    362.10475 
    6950    290.11276   -135.29862     274425.4   -76955.431    7367.8493    -84323.28    364.58302 
    7000    292.66154    11.984189    274025.95   -76931.866    7432.5793   -84364.445    366.69638 
    7050    292.19997   -122.59862    273911.11   -76918.141    7420.8569   -84338.998    368.89674 
    7100    293.01399    63.317218    274024.43   -76925.079    7441.5303   -84366.609    370.98238 
    7150     289.5312    166.80855    274379.33   -76982.421    7353.0795   -84335.501    373.08291 
    7200    288.85068   -315.83712    274650.43   -77018.425    7335.7967   -84354.222    375.51509 
    7250    291.86099   -22.657766    274460.14   -76964.872     7412.248    -84377.12    378.23796 
    7300    292.86502   -44.594299    273915.32    -76949.45     7437.747   -84387.197    380.80188 
    7350    293.07099    70.416893     273641.5   -76939.753     7442.978   -84382.731    383.59638 
    7400    293.80243    270.52475    273762.86   -76902.212    7461.5539   -84363.766    386.75747 
    7450    290.18655    171.71719    273964.12   -76874.318    7369.7232   -84244.041    389.62143 
    7500    290.00416   -108.75979    274175.63   -76938.301    7365.0912   -84303.392    392.94464 
    7550    290.90033    44.953661    274057.92   -76973.605    7387.8508   -84361.455    395.78903 
    7600    288.65111   -35.759706     274011.3   -76916.104    7330.7283   -84246.832    399.15305 
    7650    287.56888    157.66062    274320.04   -76928.428    7303.2435   -84231.671     402.5308 
    7700    292.12374   -230.03318    274322.95   -76913.537    7418.9209   -84332.458    405.04177 
    7750    295.34735    61.978827       274026   -76883.847    7500.7895   -84384.637    407.17676 
    7800    292.65061   -40.686168    273879.31   -76915.148    7432.3018    -84347.45    409.11103 
    7850    297.36745   -41.718019    273998.71   -76890.466    7552.0929   -84442.559     411.6074 
    7900    286.65747    9.9487893    274084.48   -76922.935     7280.097   -84203.032    414.09795 
    7950    291.83846   -127.00128    274289.23   -76970.098    7411.6759   -84381.774    417.13957 
    8000    297.28626   -314.87585    274387.33    -76962.84    7550.0311   -84512.871    420.16251 
    8050    300.61172   -285.39622    274249.31     -76950.6     7634.486   -84585.086    423.32561 
    8100    285.71655    364.29266    274002.48   -76986.276    7256.2008   -84242.477    426.00441 
    8150    289.31268     5.565335    274065.45   -76934.456    7347.5299   -84281.986    428.90475 
    8200    286.89011   -134.21063    274105.79   -76955.556    7286.0052   -84241.561    432.71613 
    8250    289.23315    233.41608    274144.08   -76956.845    7345.5102   -84302.355    437.41566 
    8300    288.94395    67.577088    274239.71   -76941.599    7338.1655   -84279.764    440.05697 
    8350    290.30707   -219.84722    274164.24   -76993.083    7372.7841   -84365.867    442.77861 
    8400    290.48495    36.238864    273823.04   -76999.532    7377.3016   -84376.833    444.97391 
    8450    298.05722   -103.18561    273795.11   -77008.325    7569.6107   -84577.935    447.47323 
    8500     290.8541   -84.904775    274166.41    -76989.93    7386.6766   -84376.606    451.50483 
    8550    287.19109   -264.63072    274634.53   -77015.336    7293.6489   -84308.985    454.28807 
    8600    289.38865   -25.683373    274413.74   -77005.828    7349.4593   -84355.287    455.91322 
    8650     289.8842    80.109514    273878.99   -77001.611    7362.0446   -84363.655    459.57504 
    8700    292.73251    260.46761    273627.17   -77003.301    7434.3818   -84437.683     462.1356 
    8750    290.69718   -155.44241    274033.93   -76971.387    7382.6915   -84354.079    465.26805 
    8800    288.44942   -170.63163    274612.06   -76993.874    7325.6061   -84319.481    468.84463 
    8850     289.6604   -338.66888    274423.15   -77029.674    7356.3608   -84386.035    471.57819 
    8900    293.87669    -43.18981    273526.16   -77059.591    7463.4399   -84523.031    473.71959 
    8950    294.88073    203.74276    273066.77   -77041.485    7488.9389   -84530.424    475.15605 
    9000    287.49205    47.167598    273561.99   -77029.544    7301.2924   -84330.836    478.24297 
    9050    286.92408   -155.86739     274497.7    -77030.33    7286.8679   -84317.198    482.81016 
    9100    285.17006    -96.57286    274656.45   -77091.008    7242.3219    -84333.33     486.3703 
    9150    290.86279    -268.6678    274128.12   -77050.393    7386.8973    -84437.29    487.45872 
    9200    285.44364    67.720195    273485.53   -77047.789      7249.27   -84297.059    488.76466 
    9250    291.23681    92.703589     273275.9   -77091.484    7396.3962   -84487.881    491.22384 
    9300    288.66559   -1.0198326    273568.38   -77144.227    7331.0961   -84475.323    493.94511 
    9350    283.52852    159.73295    274038.52   -77115.935    7200.6326   -84316.567    497.03489 
    9400    292.38946    152.39142    274284.58   -77115.053    7425.6695   -84540.723    500.46026 
    9450    290.46065   -239.40332    274252.82   -77065.824    7376.6843   -84442.509    504.34498 
    9500    286.40742    82.419629    273773.73   -77086.103    7273.7466    -84359.85    506.14932 
    9550    294.47617    158.35011    273423.92   -77072.538    7478.6645   -84551.203    508.14646 
    9600    292.51947    101.75071    273386.77   -77055.286    7428.9712   -84484.257    510.32613 
    9650    289.57703    37.563582    273871.86   -77094.438    7354.2436   -84448.682    513.44264 
    9700    287.07445   -42.799221    274350.14   -77096.461    7290.6867   -84387.148    515.70853 
    9750    291.55239   -209.00325    274429.57   -77099.417    7404.4107   -84503.828    518.47881 
    9800    291.47092   -273.49136    274184.08   -77103.823    7402.3418   -84506.165    519.89132 
    9850    288.60126    74.758843    273858.03   -77099.342    7329.4623   -84428.804    521.77187 
    9900    286.76502    150.82964    273876.75   -77097.504    7282.8282   -84380.332    524.58498 
    9950    291.39681    36.136464     274114.6   -77075.955    7400.4594   -84476.414    528.72012 
   10000    290.06426    61.495669    274221.05    -77071.98    7366.6175   -84438.598    530.61902 
   10050    283.90809    85.762752    274160.89   -77064.346    7210.2724   -84274.618    533.16335 
   10100    295.15932   -11.512288    273987.22   -77041.067    7496.0142   -84537.081    535.39371 
   10150     286.7052    111.67984    273753.68    -77020.44    7281.3091   -84301.749     535.8081 
   10200    295.15818    170.14878    273657.14   -77012.173    7495.9851   -84508.158    538.03989 
   10250    292.96861    48.356157    274060.78   -77023.543    7440.3777   -84463.921    540.44832 
   10300    289.91468    115.53689    274308.15   -76995.536    7362.8186   -84358.354    542.77444 
   10350    291.00814   -278.61736    274222.56   -76997.945    7390.5887   -84388.533    545.10997 
   10400    289.59729    139.73329    273885.23   -77070.661     7354.758   -84425.419    546.93418 
   10450    292.30517   -15.590209    273725.06   -77049.589    7423.5286   -84473.117    548.98348 
   10500    288.24679   -180.75596       273992   -77048.471    7320.4601   -84368.931    551.85897 
   10550    285.56044   -315.02827    274407.24   -77028.735    7252.2363   -84280.971     555.8594 
   10600    288.13592   -37.013605    274550.59   -77029.293    7317.6444   -84346.937    558.26067 
   10650    289.45701   -110.52312    274395.24   -77001.888    7351.1954   -84353.083      559.578 
   10700      292.833    22.288077    274053.75   -77033.685    7436.9338   -84470.619    561.95338 
   10750    288.92799     246.6416    273714.64   -77006.367    7337.7601   -84344.127    565.31341 
   10800    287.62607    65.984486    273832.53   -77026.236    7304.6959   -84330.932    568.10378 
   10850    288.74838   -387.98136    274290.68   -76967.336    7333.1988   -84300.535    571.74039 
   10900    291.67747    246.73982    274404.21   -76971.233    7407.5874    -84378.82    574.06195 
   10950      289.404    17.736006    274440.29    -76973.49    7349.8492    -84323.34    576.64689 
   11000    287.20394   -45.235471    274359.59    -77013.05    7293.9753   -84307.025    579.08135 
   11050    289.98341   -181.70459    273893.03   -77038.518    7364.5641   -84403.082     580.6558 
   11100    290.30516    83.553054    273309.55   -77022.338    7372.7355   -84395.074    582.16828 
   11150    290.70609    117.90653    273350.15   -77020.624    7382.9176   -84403.542    583.78954 
   11200    291.75845    37.426332    274087.06   -77013.572    7409.6439   -84423.216    587.11486 
   11250    289.17681     -258.482    274521.48   -77041.489    7344.0793   -84385.569    591.14884 
   11300    289.85696    319.08379     274076.1    -77031.72    7361.3529   -84393.073    591.99102 
   11350    289.51628    153.86184    273814.27   -77069.162    7352.7008   -84421.862    593.70578 
   11400    286.74069    46.284969     273899.9   -77064.444    7282.2104   -84346.655    596.53219 
   11450     284.3022   -43.725179    274229.55   -77119.389    7220.2813    -84339.67    600.31058 
   11500    290.88478   -263.02163    274074.48   -77114.156    7387.4558   -84501.612    602.61509 
   11550    286.27617    93.579953    273626.52   -77135.968    7270.4132   -84406.381    603.45087 
   11600     287.1061    271.44561    273355.49   -77118.654    7291.4906   -84410.145    605.03756 
   11650    290.36433    270.88408    273622.04   -77108.592    7374.2381    -84482.83    607.04539 
   11700    280.61119     158.6566     274241.4   -77064.468    7126.5425   -84191.011    610.68524 
   11750    285.09998    -371.1889    274628.88   -77081.345    7240.5421   -84321.887    613.49585 
   11800    287.59948   -37.745896    274291.01   -77106.008    7304.0206   -84410.028    615.75408 
   11850    288.33148    112.87531     273897.8   -77026.842    7322.6109   -84349.453    618.40565 
   11900    288.59912   -52.635094    273649.22   -77108.459    7329.4081   -84437.867    620.45946 
   11950    285.06767     252.4606    273510.55   -77099.313    7239.7215   -84339.035    623.45029 
   12000    293.69994    68.803294    273851.03   -77119.499    7458.9511    -84578.45    625.95693 
   12050    284.96659   -163.24612    274522.88   -77103.664    7237.1544   -84340.819    629.59746 
   12100    289.71657   -276.80476    274573.39   -77071.918    7357.7873   -84429.705     631.7356 
   12150    291.86853   -266.19168    274087.99   -77064.876    7412.4396   -84477.316    633.85283 
   12200    288.97875    176.45869    273524.62   -77052.526    7339.0492   -84391.575    635.17535 
   12250     288.5157    334.39602    273435.31   -77020.529    7327.2894   -84347.819    637.94524 
   12300    290.48945     64.68042    274032.69   -77036.171    7377.4158   -84413.587    641.50009 
   12350    281.54641    68.704016    274684.32   -77060.175    7150.2938   -84210.468    645.72578 
   12400    286.69601   -419.48928    274762.71   -77095.161    7281.0756   -84376.237    648.44738 
   12450    287.78716    194.94308    274121.11   -77065.388     7308.787   -84374.175    649.88734 
   12500    290.72766   -54.312481    273680.56   -77036.378    7383.4656   -84419.844    651.67851 
   12550    289.49229   -11.977868    273477.32   -77091.994    7352.0915   -84444.085    655.58854 
   12600    290.76566    99.040016    273691.71   -77033.808    7384.4305   -84418.239    658.89255 
   12650    287.52484    53.186491    274317.34   -77048.521    7302.1252   -84350.646    661.52411 
   12700    289.99488   -58.181665     274568.2   -77029.553    7364.8554   -84394.408    664.77045 
   12750     291.1077   -177.39878    274224.91   -77078.763    7393.1171    -84471.88    666.59971 
   12800    288.18097     286.3476    273592.06   -77095.656    7318.7886   -84414.445    668.09855 
   12850    288.07625    254.59018    273621.51   -77081.887     7316.129   -84398.016    670.74493 
   12900    291.00856   -39.668233    273820.56   -77069.687    7390.5993   -84460.286    673.52481 
   12950    289.15044    119.54614    273650.44   -77076.873    7343.4096   -84420.283    675.28727 
   13000    292.97453    272.61207    273552.23   -77052.221    7440.5282   -84492.749    677.56155 
   13050    290.59483   -254.95432    274063.77   -77040.046    7380.0921   -84420.138    681.87898 
   13100    291.47704    44.861069     274249.1   -77017.271    7402.4972   -84419.769    685.14766 
   13150    285.59112    2.7397071    274206.03    -77033.51    7253.0153   -84286.525    687.58363 
   13200     288.6463    47.795656    274030.07   -77060.263    7330.6062   -84390.869      689.527 
   13250    288.75129    86.673823    273933.79   -77107.624    7333.2725   -84440.896    691.52877 
   13300    290.17389    28.896088    273823.08   -77109.861    7369.4016   -84479.262    693.26212 
   13350    288.10662   -38.807717    273801.54   -77081.436    7316.9003   -84398.336    695.86395 
   13400    288.93123    45.546168    273673.81    -77105.93    7337.8424   -84443.772    698.90946 
   13450     283.2382   -39.316019    273784.78   -77130.129    7193.2593   -84323.388     701.8889 
   13500    282.23333    92.158765    274112.02   -77089.794    7167.7393   -84257.533    704.93571 
   13550    282.37545   -14.540724    274245.75   -77170.684    7171.3485   -84342.033    706.54569 
   13600    282.47128   -14.264189    274046.86   -77176.245    7173.7823   -84350.027    708.00623 
   13650    284.01431    255.04209    273631.29   -77183.283    7212.9698   -84396.253    709.93462 
   13700    290.41019    95.355779    273608.91   -77175.304    7375.4029   -84550.707    713.86422 
   13750    287.44835    49.517912    273799.67   -77156.435    7300.1825   -84456.617     717.0474 
   13800    286.07947   -53.643752     273785.7   -77207.072    7265.4176    -84472.49    719.08888 
   13850    286.42554    32.184875    273709.42   -77196.183    7274.2066    -84470.39     722.4748 
   13900    283.46059   -105.56114    273874.21   -77159.871    7198.9074   -84358.779    725.19129 
   13950    285.60522    160.05688    274149.81   -77176.019    7253.3734   -84429.393    727.88678 
   14000    286.11524   -138.82376    274523.11   -77125.886    7266.3262   -84392.212      731.631 
   14050    290.45478    213.80768    274262.22   -77112.287    7376.5352   -84488.822    733.51479 
   14100    289.25542   -57.787203    273886.15   -77102.115    7346.0758   -84448.191    735.63666 
   14150    283.96114     190.4545    273483.96   -77101.874    7211.6194   -84313.494    737.15489 
   14200    283.98661     247.9745    273597.34   -77092.401    7212.2664   -84304.668    740.50278 
   14250     287.6788    57.466027    274321.78   -77017.919    7306.0352   -84323.954     744.3408 
   14300    288.48399   -64.249476    274873.91   -77047.787    7326.4842   -84374.271    746.98795 
   14350    289.77139   -5.3845706    274773.59   -77051.469    7359.1797   -84410.649    748.38498 
   14400    291.00349    83.866798    274044.91   -77027.473    7390.4707   -84417.944    749.41065 
   14450    288.08779    265.57899    273477.09   -77073.739    7316.4221   -84390.161    750.48464 
   14500    287.85355    130.69022    273481.91    -77089.59    7310.4732   -84400.063    753.38774 
   14550     291.6379    162.31335     273793.5   -77136.273    7406.5823   -84542.856    755.04368 
   14600    290.87977    -234.4469    274144.29   -77123.756    7387.3286   -84511.085    758.04935 
   14650    284.74905    132.63791    274108.28   -77134.279    7231.6298   -84365.909    760.72602 
   14700    288.41393   -120.85568    273740.69   -77097.095    7324.7048     -84421.8     762.1489 
   14750     288.4302    171.83364    273531.97   -77105.883    7325.1179   -84431.001    766.31823 
   14800    287.44542    128.51491    273795.14   -77157.235    7300.1081   -84457.343    768.48923 
   14850    286.70036   -224.43447    274100.23   -77166.891    7281.1862   -84448.077    770.99016 
   14900    284.17382   -128.29407    273998.77   -77173.987     7217.021   -84391.008    772.97084 
   14950    284.48223   -71.139563    273838.79   -77249.211    7224.8533   -84474.064    774.35114 
   15000    281.01599   -22.346341    273772.42   -77237.955    7136.8232   -84374.778    776.82786 
   15050    287.81381   -59.107588     273700.8   -77240.776    7309.4639    -84550.24    778.61297 
   15100    289.54776   -196.82876    273778.24   -77218.095    7353.5002   -84571.595    780.80426 
   15150    285.57651    8.2922274    273868.61   -77229.329    7252.6443   -84481.974    785.02661 
   15200    288.29721   -69.670528    273963.51   -77219.798    7321.7405   -84541.539    787.89506 
   15250    285.12498   -27.490075    274004.43   -77225.095     7241.177   -84466.272    789.72728 
   15300    288.66548   -12.714986    274014.13   -77185.263    7331.0934   -84516.356    793.23006 
   15350    285.33177    206.03781    273956.21   -77187.254    7246.4287   -84433.683    795.35125 
   15400    288.14475    143.65082     273656.8   -77159.901    7317.8687   -84477.769    797.50761 
   15450     289.5206    75.312206    273513.65    -77164.93    7352.8104   -84517.741    799.53405 
   15500    284.30998    126.53291    273835.78   -77149.976    7220.4789   -84370.455    802.38141 
   15550     284.7892    -184.1788     274138.9   -77156.317    7232.6495   -84388.966     804.7448 
   15600    290.64198    155.49332    274143.84   -77157.718    7381.2896   -84539.008    807.12871 
   15650    286.19681   -66.985172    274051.29   -77161.724    7268.3978   -84430.121    810.05073 
   15700    289.52196    55.541018    273674.33   -77139.298     7352.845   -84492.143    811.16931 
   15750    286.87678   -19.157118    273768.95   -77148.184    7285.6666   -84433.851    812.93696 
   15800    290.27857    61.663143    274231.98   -77142.659    7372.0601   -84514.719    814.86604 
   15850    286.30647   -277.44117    274432.58   -77114.573    7271.1828   -84385.756    818.39385 
   15900    286.16384     75.21125    273983.79   -77121.558    7267.5605   -84389.119    819.89261 
   15950     293.1665    190.41346    273437.61   -77100.622    7445.4036   -84546.025    821.27689 
   16000    291.86275    2.1800353    273655.94   -77075.984    7412.2928   -84488.277    823.39477 
   16050    291.55762   -262.04955     274134.5   -77034.391    7404.5435   -84438.935    827.01567 
   16100    288.64791    -283.9671    274479.15   -77028.106    7330.6472   -84358.754    831.29463 
   16150    288.25365    62.588833    274325.87   -77028.339    7320.6342   -84348.973    833.43241 
   16200    294.38651   -57.168417    274054.38   -76981.768    7476.3874   -84458.155     835.3473 
   16250    290.77763   -42.867105    274057.45   -76962.319    7384.7347   -84347.053    836.91711 
   16300    293.57526    121.69278    274012.63   -76982.344    7455.7845   -84438.128    838.76707 
   16350    291.18385   -101.52011    274191.31   -77005.581    7395.0511   -84400.632    841.17772 
   16400    291.08741    62.177675    274185.58   -76986.715     7392.602   -84379.317    843.19326 
   16450    290.34356    106.37196    273990.01   -77019.712    7373.7107   -84393.422     846.8352 
   16500    289.68111    25.753738    273772.99   -76991.462    7356.8868   -84348.349    849.48092 
   16550    288.98949     344.3882     273832.7   -76952.423    7339.3221   -84291.745    851.37774 
   16600    290.12038   -252.93737    274280.19   -76936.778    7368.0427   -84304.821    852.21665 
   16650    293.21379   -12.546149    274414.31   -76881.866    7446.6045   -84328.471    854.67843 
   16700     286.5499    55.514691    274324.75   -76959.183    7277.3649   -84236.548    855.66263 
   16750       288.95    250.72174    274103.35   -76980.977    7338.3191   -84319.296    857.17423 
   16800    287.89744       312.03    274045.73   -76998.804    7311.5878   -84310.392    857.65696 
   16850    289.73242   -81.023205    274125.94   -77040.567    7358.1898   -84398.756    859.06255 
   16900    284.97154    17.812517    273928.47   -77030.212    7237.2801   -84267.492    859.57199 
   16950    290.62941    412.25849    273763.67   -76996.104    7380.9702   -84377.074    861.13957 
   17000    289.04681   -199.50571    274084.44    -77027.45    7340.7778   -84368.228    862.18424 
   17050    287.83643   -239.44205     274098.7   -76998.424    7310.0383   -84308.462    866.32973 
   17100    291.16816    254.56773    273668.26   -76995.462    7394.6527   -84390.115     866.7677 
   17150    298.00835   -227.45706    273521.81   -76946.529    7568.3695   -84514.898    868.12595 
   17200     292.7879      137.109    273681.73   -76907.432    7435.7885   -84343.221    869.80274 
   17250    285.71285    300.17338    274058.55   -76908.171    7256.1068   -84164.277    873.19213 
   17300    295.71806   -155.86603    274444.54    -76860.56    7510.2042   -84370.764    876.62366 
   17350    295.47073   -48.138796    274507.85   -76910.728    7503.9229   -84414.651    879.65944 
   17400    293.28609   -138.93723    274560.79   -76932.695    7448.4405   -84381.136    881.76077 
   17450    297.11792   -153.83162     274283.9    -76893.48    7545.7556   -84439.235    883.19976 
   17500    290.88219    354.38039    273994.57    -76942.23      7387.39    -84329.62    885.74097 
   17550    293.25919   -227.22299    274153.04    -76992.46    7447.7574   -84440.218    889.62089 
   17600    290.13317   -63.669319    274273.14   -76967.878    7368.3676   -84336.246    892.30993 
   17650    291.88923    235.51947     274192.8   -76922.344    7412.9654   -84335.309    893.96557 
   17700    286.83464    6.3729971    274243.58   -76897.104    7284.5965   -84181.701    897.85372 
   17750    297.28717   -3.4860825    274194.57   -76892.382     7550.054   -84442.436    900.68064 
   17800    284.01769   -9.9718709    274109.01   -76880.118    7213.0557   -84093.173    903.28035 
   17850    289.24974    126.51505     273972.9   -76910.132    7345.9315   -84256.064    907.72544 
   17900    289.74039     49.94796    273895.11   -76934.793    7358.3924   -84293.186    910.76622 
   17950    290.68033   -42.619492    273939.34   -76950.922    7382.2634   -84333.186    913.88955 
   18000    292.42289   -344.06476    274191.19     -77009.8    7426.5185   -84436.319    916.48609 
   18050     291.8396   -100.89095    274408.48   -77049.282    7411.7049   -84460.987     918.6388 
   18100    288.23448   -47.539007    274429.65   -77078.959    7320.1475   -84399.107    921.17295 
   18150    288.31961   -259.90104    274075.02   -77104.625    7322.3093   -84426.934    924.05158 
   18200    291.72937    46.519777    273536.25   -77053.324    7408.9053    -84462.23    926.68484 
   18250    288.68824    252.86702     273357.1   -77003.093    7331.6713   -84334.764    929.23191 
   18300    285.45897   -12.322186    274093.07   -76983.305    7249.6592   -84232.964     933.6505 
   18350    291.35792   -75.422767    274725.65   -76978.867    7399.4718   -84378.338    936.41188 
   18400     291.4874   -234.21121    274821.48   -76989.801    7402.7603   -84392.561    940.17287 
   18450    292.67625   -101.08125     274152.2   -77014.307    7432.9529    -84447.26    941.79245 
   18500    298.18598    271.52247    273202.21   -76983.105    7572.8808   -84555.986    940.78646 
   18550    289.44529    303.77965    273407.66   -76953.795    7350.8978   -84304.693    943.28563 
   18600    293.07989   -229.08586    274252.58   -76926.409     7443.204   -84369.613    948.36014 
   18650    287.57372    26.840571    274555.94   -76937.753    7303.3664    -84241.12    951.84236 
   18700    292.26013   -446.02944    274491.75   -76957.682     7422.385   -84380.067    954.45816 
   18750    289.79342    58.247068    273873.27   -76886.322    7359.7392   -84246.061    956.36348 
   18800    288.55909    213.79311    273378.23   -76892.654    7328.3914   -84221.045    957.66611 
   18850    292.86122    243.85103    273528.01   -76933.318    7437.6505   -84370.969    960.43765 
   18900     287.7753    201.63358    274380.68    -76945.53    7308.4859   -84254.016    965.69243 
   18950     285.5028   -456.65005    275214.32   -76976.481    7250.7723   -84227.253    970.25541 
   19000    287.67032   -230.59135    274743.24   -76942.901    7305.8197   -84248.721    969.77692 
   19050    294.53243    85.513683    273691.41   -76921.289    7480.0933   -84401.382    968.61939 
   19100    293.72987    95.318116    273185.02   -76964.946    7459.7112   -84424.657    969.20327 
   19150    291.22886    668.33249    273406.83   -76932.602    7396.1941   -84328.796    971.92265 
   19200     291.7107   -132.95823    274701.57   -76951.223    7408.4314   -84359.654    977.44999 
   19250    287.58806   -341.78762    275472.48   -76933.102    7303.7307   -84236.833    980.49821 
   19300    292.58972    53.263779    274860.88   -76954.304    7430.7553   -84385.059    980.27791 
   19350    292.09033    55.304856    273893.24    -76980.85    7418.0724   -84398.922    979.32185 
   19400    292.71142    232.35953    273267.19   -76998.371    7433.8461   -84432.217     980.5254 
   19450    286.61872    50.091407    273497.14    -77027.19    7279.1128   -84306.303    982.14027 
   19500    285.80346   -95.841148    274151.47   -77093.051    7258.4081   -84351.459    984.96744 
   19550    288.81616    -28.97025    274431.83   -77020.308    7334.9201   -84355.229    987.58815 
   19600    286.03901   -89.597988     274482.3   -77008.569    7264.3901   -84272.959    990.06327 
   19650    287.19963    170.72615    274217.82   -76968.464    7293.8658    -84262.33     990.6597 
   19700    289.38186    29.585971    273905.46   -76915.749    7349.2868   -84265.036    991.81151 
   19750    292.90105   -37.830491    273945.47   -76947.988    7438.6619    -84386.65    994.33408 
   19800     290.8485    29.006858     274206.4   -76973.285    7386.5345    -84359.82    998.57509 
   19850       288.96   -60.839376    274229.68    -76941.05     7338.573   -84279.623    1001.3701 
   19900     294.2479   -119.11975    274298.77   -76887.333    7472.8672     -84360.2    1005.4291 
   19950    290.40911   -156.43884    274593.37   -76895.903    7375.3754   -84271.279         1009 
   20000    288.81554   -39.627337    274544.86   -76855.927    7334.9044   -84190.831    1011.4734 
   20050    289.57356   -86.868682    274147.67   -76896.817    7354.1554   -84250.972    1011.7371 
   20100    292.30596    149.45687    273638.03   -76923.882    7423.5488   -84347.431    1013.6716 
   20150    287.81658    178.31512    273633.66   -76955.409    7309.5343   -84264.943     1016.888 
   20200    289.34125   -105.93968    274042.83   -76950.682    7348.2554   -84298.938    1019.0962 
   20250    289.08278   -1.4815475    274434.26   -76967.564    7341.6913   -84309.255    1021.7983 
   20300    290.95589   -148.81654    274444.74   -76948.636    7389.2617   -84337.898    1023.5859 
   20350    287.97291    201.81683     273983.5   -76937.267    7313.5045   -84250.771    1025.5534 
   20400    294.79292    182.02814    273769.79   -76918.163     7486.709   -84404.872    1027.1829 
   20450    293.23856   -116.02464    274103.07   -76875.218    7447.2335   -84322.451    1027.8728 
   20500    296.09503    17.914567    274313.56    -76882.01     7519.778   -84401.788    1030.8333 
   20550    293.97118    15.933465    274466.23   -76869.976    7465.8397   -84335.815    1033.8025 
   20600    292.73606   -188.46477    274645.76    -76855.53    7434.4717   -84290.002    1035.8589 
   20650     291.9599   -116.28921    274474.99    -76806.89      7414.76    -84221.65    1035.7367 
   20700    294.95425      125.633    274025.91   -76888.526     7490.806   -84379.332    1037.3703 
   20750    287.15179   -73.131068    273901.75   -76885.694    7292.6508   -84178.345     1040.705 
   20800     290.4614    251.10502     273919.4   -76871.474    7376.7034   -84248.178    1043.4299 
   20850    292.16924    17.000608    274054.01   -76870.949    7420.0766   -84291.026    1046.0478 
   20900    293.39631    25.798097    274373.09   -76800.165    7451.2399   -84251.405    1048.9838 
   20950    290.10381   -93.070841    274548.97   -76855.632     7367.622   -84223.254    1051.9777 
   21000    290.78098    125.13722    274406.05   -76873.457    7384.8195   -84258.277    1054.3994 
   21050    294.50439    166.59474    274171.71   -76829.775    7479.3813   -84309.157    1057.0019 
   21100    291.54667    136.63276    274275.02   -76808.941    7404.2654   -84213.206    1058.1461 
   21150    289.60092   -168.66533    274282.06    -76841.56    7354.8502    -84196.41    1061.1462 
   21200     290.1375     235.9889    274166.26   -76863.505    7368.4774   -84231.982    1061.7232 
   21250    294.53354    210.86693    274205.46   -76901.508    7480.1216   -84381.629    1064.8932 
   21300     288.1483    6.4684154    274286.12   -76888.323    7317.9586   -84206.282    1068.1139 
   21350    287.86251   -247.26107    274341.81   -76956.708    7310.7008   -84267.408    1070.7416 
   21400    292.92272     239.2079     274139.2   -76957.394    7439.2124   -84396.607    1072.3835 
   21450     289.2736    4.1300094    274091.82   -76939.267    7346.5375   -84285.804    1075.7676 
   21500    289.72689    197.17402    273958.01   -76903.974    7358.0494   -84262.024    1077.0621 
   21550    288.92892    143.74269     274324.1   -76907.987    7337.7838   -84245.771    1081.0964 
   21600    285.53717   -116.13188    274694.14    -76946.32    7251.6453   -84197.965    1084.8142 
   21650    288.99097   -4.4018442    274686.52   -76961.874    7339.3597   -84301.234    1087.8733 
   21700    286.91549    106.37656    274223.88    -76936.78    7286.6498    -84223.43    1088.4375 
   21750    294.01168   -216.68058    273654.55   -76944.644    7466.8682   -84411.513    1088.4442 
   21800    288.19384    391.99944    273570.34   -76950.643    7319.1153   -84269.758    1086.9721 
   21850    291.87488   -222.12649    274123.49   -76958.642    7412.6008   -84371.243    1091.5339 
   21900    291.31913    53.457073     274405.5     -76945.7    7398.4869   -84344.187    1095.7662 
   21950    289.66504   -146.00123    274311.05   -76953.367    7356.4786   -84309.845    1099.1013 
   22000    288.71816     200.7471    273788.55   -76904.386    7332.4312   -84236.817     1100.638 
   22050    295.47368    42.924628    273465.99   -76897.137    7503.9977   -84401.134    1103.9579 
   22100    290.65815   -122.09258    273707.69   -76876.557    7381.7003   -84258.257    1108.1941 
   22150    297.46091   -23.592085    274139.58   -76874.925    7554.4666   -84429.391    1110.7876 
   22200    295.60541   -229.00474    274794.78   -76868.235    7507.3434   -84375.578     1115.201 
   22250    291.21228    122.13874    274558.47   -76886.454    7395.7732   -84282.227     1118.684 
   22300    298.22292    140.75954    274128.04   -76918.709    7573.8188   -84492.528    1119.9942 
   22350    288.71713    11.727609    274091.08   -76921.403     7332.405   -84253.808    1120.7826 
   22400    293.95392   -112.27471    274149.84   -76952.692    7465.4013   -84418.093    1124.3913 
   22450    292.23775   -261.08359    274149.79   -76923.839    7421.8164   -84345.655     1123.791 
   22500    296.49246    118.57527    273797.28   -76846.905    7529.8711   -84376.776    1124.0654 
   22550    294.40588   -79.103589    273874.66   -76880.366    7476.8794   -84357.245    1127.0473 
   22600    292.38097     103.5064     274114.9   -76909.336    7425.4539    -84334.79    1130.5999 
   22650    290.64972   -355.98578    274525.04   -76892.184     7381.486    -84273.67    1134.1264 
   22700    289.39703   -252.84518    274303.07   -76909.329    7349.6722   -84259.002    1136.1962 
   22750    296.24577    221.06845     273593.1   -76886.736    7523.6063   -84410.342    1137.8206 
   22800    296.91702    216.35013    273485.83   -76914.153    7540.6535   -84454.807    1139.4304 
   22850    287.99576    26.159559    273973.56   -76898.923    7314.0847   -84213.008     1143.016 
   22900    290.46371   -159.78404    274461.95   -76846.463    7376.7621   -84223.225     1147.845 
   22950    290.67954    86.718379    274612.84   -76857.519    7382.2435   -84239.762    1150.6171 
   23000    291.52274   -269.36284    274580.16   -76919.758    7403.6576   -84323.415    1151.6837 
   23050    288.37641    40.295268    274058.23   -76909.053    7323.7521   -84232.806    1153.3216 
   23100    291.89419     147.2172    273889.46   -76961.036    7413.0913   -84374.127    1154.4078 
   23150    288.90411    -236.6576    274194.22   -76958.103    7337.1538   -84295.257    1158.5887 
   23200    294.62655   -160.46828    274314.12   -76919.389    7482.4837   -84401.873    1162.0926 
   23250    293.23635    18.603854    274156.34   -76906.167    7447.1775   -84353.345    1166.1127 
   23300    291.10342    222.83073     274043.2   -76924.335    7393.0086   -84317.343    1169.9273 
   23350    287.41634   -198.72867    274026.65   -76938.401    7299.3696    -84237.77    1172.8501 
   23400     289.0364    210.31556    274023.53   -76923.755    7340.5134   -84264.268    1176.3715 
   23450    291.87552    74.251796    274064.93   -76947.149    7412.6171   -84359.766    1179.8578 
   23500    287.69972   -66.845789    274341.62   -76967.618    7306.5665   -84274.184    1185.3204 
   23550    284.20005   -210.74595    274477.02   -76959.597    7217.6872   -84177.284    1189.7743 
   23600    287.67801    96.046753    274221.18   -76968.823     7306.015   -84274.838    1191.5037 
   23650    291.49573     94.99481    274085.06   -77006.717    7402.9718   -84409.688    1192.7254 
   23700    291.05407    26.546735    274043.35   -77024.505    7391.7551    -84416.26    1195.0429 
   23750    285.71207    26.503755    274097.91   -77014.553    7256.0871    -84270.64    1194.9944 
   23800    290.19326    104.81122    274168.09   -76993.619    7369.8935   -84363.512    1196.6102 
   23850    291.53027    34.052472    274078.63   -76958.125    7403.8489   -84361.974     1198.904 
   23900    289.42813    150.90528    274085.17   -76972.911    7350.4619   -84323.373    1200.5081 
   23950    287.86121    43.080417    274194.19   -77010.344    7310.6677   -84321.012     1202.979 
   24000    288.54309   -31.203071    274104.25   -76985.688    7327.9849   -84313.673    1205.6155 
   24050     283.8875   -44.569861     273976.7   -76968.675    7209.7493   -84178.424     1206.335 
   24100    288.07231    54.847523    274002.24   -76980.733    7316.0289   -84296.762    1209.6966 
   24150    291.50812    110.37975    274222.81   -76955.552    7403.2864   -84358.838    1213.0261 
   24200    289.97165   -187.33258    274476.35   -76963.482    7364.2655   -84327.747     1218.396 
   24250    292.30115   -84.768754    274286.43   -76895.911    7423.4267   -84319.338    1220.4932 
   24300    293.06077    167.10966    274077.76   -76933.556    7442.7182   -84376.274    1221.5324 
   24350    289.78101   -281.57021    274233.48   -76964.052    7359.4239   -84323.476    1224.3491 
   24400    285.57057    350.06114    274329.33   -76978.205    7252.4935   -84230.699    1227.9352 
   24450    287.16236    -96.72857    274600.94   -76981.522    7292.9193   -84274.442    1233.7907 
   24500    291.19016   -104.05738    274550.34   -76984.892    7395.2115   -84380.103    1236.9682 
   24550    290.13931    27.938271     274164.6   -77014.389    7368.5234   -84382.912    1237.2027 
   24600    295.42003     414.7191    273648.35   -77050.213    7502.6352   -84552.848    1237.9707 
   24650    285.88275    98.947862    273986.77    -77040.18    7260.4217   -84300.602     1241.449 
   24700    286.43849    4.2209391    274498.08   -77041.616    7274.5357   -84316.151    1244.3377 
   24750    287.15661   -292.49575    274547.68   -77025.181    7292.7734   -84317.954    1247.5001 
   24800    289.17656    67.172564    274029.76   -77050.682     7344.073   -84394.755    1247.4368 
   24850    292.24547    354.72648    273499.06     -77048.2    7422.0125   -84470.213    1249.0767 
   24900    290.78768     214.5556    273573.87   -77088.884    7384.9899   -84473.874    1253.4414 
   24950    287.36792    375.38907    273986.32   -77091.124    7298.1398   -84389.264    1258.5166 
   25000    289.59622   -334.41617    274559.71   -77057.472    7354.7309   -84412.203    1260.9578 
   25050    283.54611    293.77932    274377.15   -77035.484    7201.0792   -84236.563     1260.218 
   25100    288.41777    294.28707    274015.15    -77057.74    7324.8024   -84382.542    1261.5774 
   25150    288.06412    104.79531    273506.21   -77034.218     7315.821   -84350.039    1262.3349 
   25200    289.59483    314.28781    273143.17   -76997.457    7354.6956   -84352.152    1264.1203 
   25250     294.6145    156.21017    273533.98   -76991.267    7482.1776   -84473.445    1268.7733 
   25300    291.45722   -267.97437    274463.66   -76958.925    7401.9936   -84360.919     1272.301 
   25350    287.82702   -431.35245    275033.88   -76960.127    7309.7994   -84269.926    1275.2122 
   25400    287.79497   -185.98339    274589.63   -76982.315    7308.9853   -84291.301    1276.5605 
   25450     286.9798    304.67549    273594.75   -77008.135     7288.283   -84296.418    1276.0922 
   25500    290.44529    363.63858     273276.3   -77023.723    7376.2942   -84400.017     1277.226 
   25550    291.39075    291.36281    273597.59   -77034.062    7400.3057   -84434.368    1281.9493 
   25600    288.87418   -25.862387    274304.25   -77045.712    7336.3936   -84382.106    1286.6895 
   25650    283.54203   -91.536167    274583.54   -77026.373    7200.9756   -84227.349    1289.9481 
   25700    287.86688   -334.04859    274387.75   -76993.847    7310.8118   -84304.659    1291.7656 
   25750    289.40928   -159.72253    273934.83   -77001.032    7349.9833   -84351.015    1292.7139 
   25800    289.03501    96.937821       273619    -76984.69    7340.4781   -84325.168    1294.8814 
   25850     290.6374    15.307706    273818.35   -76991.399    7381.1732   -84372.573      1299.59 
   25900    284.25898   -113.03119     274258.6   -77023.569    7219.1836   -84242.753    1302.5228 
   25950    284.30051   -353.88666    274548.13   -77038.891    7220.2385   -84259.129    1305.5056 
   26000    284.05119    97.918766    274141.73   -77062.122    7213.9064   -84276.028    1305.9544 
   26050     285.9603    88.059735    273689.25   -77061.003    7262.3911   -84323.394    1306.2513 
   26100    281.59349    284.04998    273705.61   -77073.815    7151.4896   -84225.305    1308.4194 
   26150    292.29714    217.58321    273940.82   -77017.376    7423.3247   -84440.701    1310.8004 
   26200    289.76707   -12.857584    274350.48   -77013.851    7359.0698   -84372.921     1314.759 
   26250    286.96451    12.784514    274646.68   -76982.736    7287.8946   -84270.631    1318.0687 
   26300    286.06298   -160.58992    274587.47   -76982.462     7264.999   -84247.461    1322.7384 
   26350    291.59704    65.216718    274124.84   -76938.785    7405.5448   -84344.329    1325.1006 
   26400    291.74928    184.55642    273896.51   -76940.115    7409.4111   -84349.526    1325.7492 
   26450    288.25393    97.291417     274095.8    -76986.24    7320.6415   -84306.882    1329.6065 
   26500    290.67446   -33.659525    274457.91   -76954.435    7382.1145    -84336.55    1332.6697 
   26550    287.90507    27.523482    274502.59   -77001.783    7311.7816   -84313.565    1335.3807 
   26600    287.39136   -36.291504    274154.96   -76988.699    7298.7352   -84287.435     1335.602 
   26650    290.17179   -15.420341    273880.58   -77023.448    7369.3483   -84392.796    1338.1227 
   26700    286.26279    194.43204    273550.28   -77076.478    7270.0734   -84346.552    1339.3151 
   26750    292.52764    121.17173     273690.8   -77120.185    7429.1787   -84549.364      1342.01 
   26800    287.27676   -140.99984    274253.79   -77118.274    7295.8247   -84414.099    1346.8943 
   26850    291.36896   -144.48964    274318.23   -77162.647    7399.7523   -84562.399    1350.8777 
   26900    290.58808   -129.11278    274191.92   -77188.967    7379.9207   -84568.888    1354.2247 
   26950    285.97823    59.025639    273798.22   -77180.527    7262.8466   -84443.373    1355.2094 
   27000    288.05601    100.82702    273711.24   -77199.855    7315.6148    -84515.47    1356.7068 
   27050     288.1139    37.116382    273872.61   -77189.883    7317.0851   -84506.968    1359.7421 
   27100    283.09712    22.125559    273831.67   -77220.634    7189.6763   -84410.311    1362.5125 
   27150    286.77156   -43.974234    273816.62   -77120.717    7282.9944   -84403.711    1364.6379 
   27200     283.6993    165.55107    273892.91   -77117.909    7204.9697   -84322.878     1368.151 
   27250     284.2454   -224.62474    274214.56   -77116.763    7218.8388   -84335.602    1371.8094 
   27300    283.97318    4.9696204    274114.79   -77098.721    7211.9254   -84310.647    1372.5284 
   27350    291.44486     77.46194     273899.8   -77112.388    7401.6798   -84514.068    1373.0877 
   27400    288.22792    287.10186    273813.31   -77075.602    7319.9809   -84395.583    1375.4801 
   27450    285.76295    43.841008    273904.31     -77032.1    7257.3792   -84289.479    1378.0041 
   27500    289.89448   -40.336654    273932.31   -76991.025    7362.3057   -84353.331    1380.2446 
   27550    292.07279   -128.78302    274110.46   -76979.431    7417.6271   -84397.058    1382.7814 
   27600    287.19329   -14.871149    274188.81   -76959.625    7293.7049    -84253.33    1384.9056 
   27650    292.04424    54.698557    273964.85   -76992.795    7416.9021   -84409.697    1385.3984 
   27700    291.89217    141.75092    273611.82   -76996.746    7413.0399   -84409.786    1385.8548 
   27750    292.55517     183.7105    273653.63   -76962.887     7429.878   -84392.765    1386.2325 
   27800     292.3402    9.4745435    274286.02   -77024.618    7424.4183   -84449.036      1390.73 
   27850    289.72501   -205.84782    274741.24    -76997.12    7358.0016   -84355.122     1396.839 
   27900    289.52602    47.154028    274477.68   -76916.514     7352.948   -84269.462    1398.5219 
   27950    291.55326   -193.56962    274024.28   -76929.988    7404.4328   -84334.421    1399.1697 
   28000    296.39316    116.75395    273356.74   -76939.428    7527.3493   -84466.777    1397.8447 
   28050    291.39835    367.23154    273204.75   -76917.363    7400.4987   -84317.862    1399.0122 
   28100    290.56256    23.031942    273989.39   -76920.963    7379.2724   -84300.236    1403.2447 
   28150    287.33854    71.630878     274646.6   -76955.628    7297.3937   -84253.021    1406.6812 
   28200    291.72512   -397.84351    274598.84   -76979.981    7408.7975   -84388.779    1409.3422 
   28250     290.2822   -221.28148    273907.97   -76927.208    7372.1524   -84299.361    1406.2344 
   28300    292.20683    363.59607     273194.3   -76941.144    7421.0312   -84362.176    1405.7159 
   28350     290.4756    196.65946    273363.23   -76969.043    7377.0641   -84346.107    1408.6366 
   28400    289.69431   -239.18015    274081.22   -76963.117     7357.222   -84320.339    1412.6614 
   28450    292.06998   -183.34697    274524.65   -76961.132    7417.5558   -84378.688    1417.0834 
   28500    293.26548   -169.31478     274442.2   -76905.131    7447.9172   -84353.049    1420.4973 
   28550    293.55269   -67.943398    274097.73   -76863.532    7455.2113   -84318.743    1421.2192 
   28600     293.4406    357.76362    273832.81   -76828.018    7452.3647   -84280.383    1421.7284 
   28650    291.89497    283.59873    274036.22   -76840.293     7413.111   -84253.404    1424.6001 
   28700    293.36786    79.337197    274663.69   -76798.216    7450.5174   -84248.734    1425.5605 
   28750      288.163     -260.733    275073.48   -76822.358     7318.332    -84140.69    1428.2503 
   28800    290.75086   -163.08763    274687.07   -76894.561    7384.0546   -84278.616    1430.4046 
   28850    291.76805    193.42676    273799.37   -76909.433    7409.8877   -84319.321    1427.4272 
   28900    291.19537    267.03096    273393.32   -76913.358    7395.3438   -84308.702    1428.1348 
   28950    292.59596   -127.44503    273832.16   -76932.006    7430.9139    -84362.92    1434.1846 
   29000    288.89964    123.38339    274311.03    -76973.14    7337.0402    -84310.18    1437.7297 
   29050    293.42089    -285.8883    274620.74   -76978.258    7451.8641   -84430.122    1439.7419 
   29100    288.57864    40.906764    274360.19   -76957.566    7328.8878   -84286.454    1442.4619 
   29150    291.15081    201.51098    274161.14   -76978.189     7394.212   -84372.401    1444.2586 
   29200    292.41321    97.528478    273856.63   -76966.771    7426.2725   -84393.043    1444.7426 
   29250    291.35451    152.00887    273534.72   -76920.426    7399.3854   -84319.812    1445.4949 
   29300    286.61598   -9.0040501     273716.1   -76959.658    7279.0432   -84238.701    1448.8093 
   29350    292.65345    44.790147    274261.73    -76994.21    7432.3739   -84426.584    1454.0307 
   29400    287.17987    60.553571    274515.69   -77010.446    7293.3641    -84303.81    1457.6686 
   29450    289.69512   -230.86454    274514.28   -77013.445    7357.2427   -84370.688    1460.7259 
   29500    285.88384   -246.08892    274104.94   -77020.355    7260.4493   -84280.804    1463.9457 
   29550    288.20589    371.12911     273380.2   -76985.432    7319.4214   -84304.853    1463.3918 
   29600    292.60128    232.81214    273217.81   -76962.181    7431.0489    -84393.23    1464.4289 
   29650    288.69724   -80.953433    273690.39   -76945.398    7331.8999   -84277.297    1469.4514 
   29700    286.86564    -236.5392       274279   -76970.113    7285.3836   -84255.496    1473.2207 
   29750    290.90337   -113.53222    274553.57     -76955.9    7387.9279   -84343.828     1476.048 
   29800    287.32236    38.313524    274428.83   -76930.728    7296.9827   -84227.711    1476.0959 
   29850    292.01265    161.54044    274036.43   -76916.924    7416.0997   -84333.023    1473.9855 
   29900    295.19958    -23.64351    273972.31   -76878.131    7497.0365   -84375.167    1477.1806 
   29950    296.02694   -23.069495    274121.66    -76877.63    7518.0488   -84395.678    1480.1285 
   30000    293.98021   -63.365236    274198.38   -76912.456    7466.0689   -84378.525    1481.4225 
   30050    291.18073   -20.543819    274192.06   -76937.081    7394.9719   -84332.053     1481.131 
   30100    291.60148    81.344282    273975.62   -76892.062    7405.6574   -84297.719    1482.0365 
   30150    293.64672    367.85556    273919.18   -76898.187    7457.5993   -84355.786    1484.7479 
   30200    288.74843   -98.081533       274304   -76897.684    7333.2001   -84230.884    1487.5686 
   30250    288.60374   -95.544934       274593   -76896.897    7329.5252   -84226.422    1490.1626 
   30300    290.98541    224.57234     274288.2   -76881.347    7390.0115   -84271.359    1492.4451 
   30350    292.71621    248.98693     274011.3   -76905.335    7433.9677   -84339.303    1494.3482 
   30400    291.17635   -41.973788    274050.23   -76973.076    7394.8608   -84367.936    1496.7748 
   30450    290.10738    22.978614    273830.76   -77002.674    7367.7126   -84370.387    1497.6163 
   30500    291.75749   -36.806719    273648.28   -76953.709    7409.6197   -84363.329    1500.9637 
   30550    289.18498   -126.27225    273982.33   -76952.275    7344.2869   -84296.562    1504.0932 
   30600     292.0302   -239.69878    274285.23   -76981.289    7416.5454   -84397.834    1506.8397 
   30650    287.41961   -184.68034    274140.33   -77002.665    7299.4527   -84302.118    1507.1818 
   30700    291.25008   -30.650832    274029.07   -77001.324    7396.7331   -84398.057    1508.8708 
   30750    282.45203    283.03338    274169.89   -77027.491    7173.2935   -84200.784    1511.0888 
   30800    288.04989    79.909378    274218.72   -77075.345    7315.4596   -84390.804    1513.3462 
   30850     285.7549    -74.82663    273972.71   -77085.499    7257.1747   -84342.674    1512.1949 
   30900    289.72989    159.60174    273752.78    -77069.93    7358.1256   -84428.055    1513.1055 
   30950    291.33088     16.00948     273824.2   -77079.192    7398.7852   -84477.977    1516.5549 
   31000    287.24664   -4.3212633    274065.73   -77083.404    7295.0596   -84378.464    1520.5629 
   31050    288.18629   -201.34667    274072.99   -77071.529    7318.9237   -84390.452    1522.3563 
   31100    291.65038   -197.39284    274083.17   -77049.529    7406.8993   -84456.428    1524.1104 
   31150    291.63761   -108.43509    273841.16   -77015.929    7406.5751   -84422.504    1525.4885 
   31200    291.03382    156.04598     273526.4   -77002.753    7391.2409   -84393.994    1525.8768 
   31250    287.06668    507.13895    273684.26   -77000.054    7290.4895   -84290.544    1528.0154 
   31300    285.31993    34.585931    274511.84   -76998.198    7246.1281   -84244.326    1532.3354 
   31350    286.14913   -432.48095     275106.6   -77014.615    7267.1868   -84281.802    1535.7878 
   31400    287.08813   -5.1470153     274694.5   -77036.618    7291.0341   -84327.652    1538.0077 
   31450    291.15723    134.15896    273752.69   -77029.435     7394.375    -84423.81    1536.9501 
   31500    285.64544    243.76677    273105.14   -77020.913     7254.395   -84275.308    1537.4526 
   31550    290.79074   -193.04765    273359.09   -77039.651    7385.0676   -84424.719     1541.872 
   31600    291.02834   -305.23771    273904.13   -77059.554    7391.1016   -84450.656    1547.5604 
   31650     288.1091    43.602057    274251.39   -76998.316    7316.9632   -84315.279    1550.8382 
   31700    292.64264    71.210472     274318.7   -77016.657    7432.0992   -84448.756    1551.0133 
   31750    291.18549    68.592816    274331.61   -77007.834    7395.0929   -84402.927      1553.27 
   31800    284.99859    94.739502     274160.4   -77005.049     7237.967   -84243.016    1554.5735 
   31850    288.37659    94.202752    273750.82   -77043.229    7323.7566   -84366.986    1553.1427 
   31900     286.5819    37.874195    273610.94   -77066.976    7278.1777   -84345.154    1552.1422 
   31950    292.09295    171.69465     273984.7   -77036.331    7418.1392    -84454.47    1554.7506 
   32000    286.71893    -368.7557    274593.35   -77051.338    7281.6577   -84332.996     1558.406 
   32050    286.53205   -230.82441     274628.7   -77064.556    7276.9117   -84341.468    1559.5006 
   32100    288.73653   -63.969475    273974.22   -77041.603    7332.8977     -84374.5    1557.8413 
   32150      288.467    126.89826    273414.84   -77088.735    7326.0525   -84414.788    1555.4135 
   32200    288.45751    144.58736    273441.64   -77050.063    7325.8116   -84375.875    1557.7848 
   32250    289.66926   -63.361517    273767.03   -77035.664    7356.5858    -84392.25     1563.376 
   32300    285.86184   -78.474927    274195.52   -77054.444    7259.8907   -84314.335    1567.8804 
   32350     284.5124   -136.39557    274538.87   -77046.201    7225.6196   -84271.821    1571.2818 
   32400    293.17413   -201.84413    274506.22   -77050.277    7445.5973   -84495.874    1573.2035 
   32450    282.19396    224.16163    274155.76   -77082.383    7166.7393   -84249.122     1574.091 
   32500    289.35015   -98.383116    273967.11   -77059.236    7348.4816   -84407.717    1577.3786 
   32550    285.97598    311.59896       273882   -77076.158    7262.7895   -84338.948    1579.5996 
   32600    292.09507   -112.48974     273847.5   -77026.611    7418.1929   -84444.804    1583.4013 
   32650    289.84495   -46.985207    273918.28   -77019.778    7361.0476   -84380.825    1587.6098 
   32700    285.40687    99.489413    274091.75   -77027.246    7248.3359   -84275.582    1589.4858 
   32750    291.71625   -211.94711    273988.64   -77002.975    7408.5722   -84411.547    1592.9074 
   32800    292.79516    181.10928    273660.42   -77031.768    7435.9727   -84467.741    1592.6345 
   32850    289.60094    120.46449    273612.19   -77024.472    7354.8508   -84379.323    1592.3525 
   32900    289.40574   -49.256408    274087.49   -77048.474    7349.8934   -84398.367    1596.3819 
   32950    288.48896   -53.762834    274534.97   -77090.133    7326.6103   -84416.743    1602.3853 
   33000     286.2758   -205.53993     274615.4   -77033.938    7270.4038   -84304.342    1605.0038 
   33050    284.39831    196.28086    273932.07   -77030.139    7222.7222   -84252.861    1604.4692 
   33100    288.73652    278.13864     273541.9    -77045.67    7332.8975   -84378.568    1603.1988 
   33150     288.8922    75.105152    273812.21   -77063.703    7336.8513   -84400.554    1606.3552 
   33200    289.62519   -103.80233    274261.91   -77093.132    7355.4665   -84448.599    1612.6002 
   33250    289.45901   -239.12683    274385.72   -77100.677    7351.2462   -84451.923    1615.4665 
   33300    285.64008   -187.05964    274229.93   -77085.459    7254.2588   -84339.717     1618.341 
   33350    286.42507    95.526949    273760.63   -77116.077    7274.1948   -84390.272    1618.3811 
   33400    286.15135    182.37824    273807.41   -77088.634    7267.2433   -84355.878    1619.7611 
   33450    288.54956   -8.5872253    274543.87   -77068.505    7328.1495   -84396.655     1624.533 
   33500    282.79881   -368.78352    274977.75   -77086.013    7182.1005   -84268.114    1628.6896 
   33550    286.94664   -161.21265    274117.29   -77060.123    7287.4409   -84347.564    1627.5952 
   33600    285.79169    303.91111    273102.31   -77072.714     7258.109   -84330.823    1626.2845 
   33650    295.02834    224.32083    272945.56   -77094.811    7492.6878   -84587.499    1625.6741 
   33700    286.93546    302.99886    273600.33   -77063.998    7287.1568   -84351.155      1629.83 
   33750    289.56059    -304.2229    274403.51   -77043.108     7353.826   -84396.934    1635.4759 
   33800    288.81064   -165.78244    274607.16    -77053.55      7334.78    -84388.33    1638.9823 
   33850    283.43245    120.09754    274109.64   -77059.005    7198.1928   -84257.197    1638.9667 
   33900    286.25513    210.70364    273497.77   -77074.071    7269.8788    -84343.95    1637.6072 
   33950    287.39904    125.06005    273410.64   -77084.343    7298.9301   -84383.273    1639.0518 
   34000    291.18007    230.49116    273762.03   -77052.377    7394.9551   -84447.332    1641.6944 
   34050    288.97363    -194.3306    274353.48   -77072.981    7338.9193     -84411.9    1646.7382 
   34100    285.97198   -64.567648    274650.12   -77092.155    7262.6878   -84354.843    1651.4665 
   34150    285.61384   -232.81918    274467.32   -77096.785    7253.5924   -84350.378    1651.6728 
   34200    285.28372    52.771589    273817.65   -77102.618    7245.2086   -84347.827    1649.5778 
   34250    290.02977    312.95744    273345.63   -77095.593    7365.7414   -84461.334    1651.4411 
   34300    289.13327    154.86026    273550.97   -77053.869    7342.9736   -84396.843    1655.4867 
   34350    287.54218   -57.263683    274107.85   -77074.862    7302.5653   -84377.428    1661.1179 
   34400    288.47086    -216.0516     274535.3   -77117.548    7326.1508   -84443.698    1665.7859 
   34450    287.12252    6.6184429    274401.05   -77074.728    7291.9076   -84366.636    1668.7002 
   34500    286.44619    204.43044    273798.07   -77113.524    7274.7311   -84388.255    1669.5076 
   34550     286.8197    392.11783    273444.88   -77160.833    7284.2169    -84445.05     1669.546 
   34600    284.68812    16.754842    273725.73   -77189.085    7230.0823   -84419.168    1672.3698 
   34650    289.57053   -93.451143    274093.42   -77167.667    7354.0785   -84521.745    1676.6364 
   34700    286.52597    63.795388    274369.41   -77136.514    7276.7572   -84413.272    1680.6586 
   34750    284.81692   -380.18189    274449.04   -77151.733    7233.3534   -84385.087     1685.211 
   34800     283.7434   -203.39527    273904.04   -77118.416    7206.0898   -84324.505    1682.9668 
   34850    287.83864    90.841485    273436.17   -77150.018    7310.0945   -84460.112    1682.4313 
   34900     288.0629    379.79983    273474.57   -77151.194    7315.7899   -84466.984    1683.8764 
   34950    290.62213    38.998229    274157.46   -77101.321    7380.7854   -84482.106    1690.0165 
   35000    284.96671   -389.14724     274849.5    -77101.93    7237.1575   -84339.087    1695.2529 
   35050    288.83325   -160.56467    274775.63   -77089.847    7335.3541   -84425.201    1696.3905 
   35100    288.31004    181.43746    274172.07    -77120.26    7322.0665   -84442.326    1696.8715 
   35150    288.75002   -53.666778     273847.5   -77130.422    7333.2403   -84463.662     1697.135 
   35200    289.99996     150.8536    273453.06   -77132.335    7364.9845    -84497.32    1696.7351 
   35250    286.58504     308.1339    273350.51   -77087.027    7278.2574   -84365.284    1698.2682 
   35300    286.46569   -64.396449    273815.53   -77057.085    7275.2263   -84332.311    1701.1244 
   35350    287.89723   -203.52548    274324.38   -77035.447    7311.5826   -84347.029    1707.1769 
   35400    286.23371   -287.01693     274419.5   -77072.741    7269.3348   -84342.076    1712.0286 
   35450    284.65023   -230.80929    274152.45   -77043.578      7229.12   -84272.698    1712.3871 
   35500    292.45164    228.70072    273716.53   -77021.845    7427.2485   -84449.094    1712.9641 
   35550    288.37621    196.10513    273617.14   -77066.228    7323.7468   -84389.974    1714.8651 
   35600    290.78389   -189.46434    274023.32   -76987.117    7384.8936   -84372.011    1719.4613 
   35650    288.03351    92.009255    274356.54   -76974.032    7315.0435   -84289.075    1723.3513 
   35700    288.68588   -50.875328    274519.98   -77019.963    7331.6115   -84351.574    1725.2191 
   35750    286.78346   -63.112131    274134.91    -77022.35    7283.2967   -84305.646    1727.5386 
   35800    287.73234     392.6819    273464.11    -77040.18    7307.3948   -84347.575     1727.466 
   35850    289.29277    259.67953    273436.07   -77013.265    7347.0243   -84360.289    1729.1323 
   35900    287.90949      153.233     273808.3   -77020.294    7311.8939   -84332.187     1732.364 
   35950    284.66826    49.390784    274118.68   -77029.807    7229.5779   -84259.385    1736.9347 
   36000    293.04114    213.09351    274144.02    -77058.81    7442.2198   -84501.029    1739.5739 
   36050    285.70913   -420.57271    274255.88   -77085.681    7256.0124   -84341.694    1742.6908 
   36100    289.58254    5.4952141    273962.28    -77055.96    7354.3835   -84410.343    1743.8793 
   36150    291.30101    267.91105     273804.6   -77055.381    7398.0265   -84453.408     1743.862 
   36200    284.83293    49.779586    273988.94   -77058.071    7233.7601   -84291.831    1747.9204 
   36250    286.03999    35.864721    274191.18   -77046.531     7264.415   -84310.946    1753.7234 
   36300    288.71791    74.745767    274109.59    -77097.92    7332.4249   -84430.345    1759.2942 
   36350    286.55604    116.09466    273783.25   -77024.158     7277.521   -84301.679    1760.3088 
   36400    287.83943    43.307908    273779.71   -77069.377    7310.1145   -84379.491    1762.3984 
   36450    290.63638   -92.451143    274264.37   -77042.477    7381.1473   -84423.625     1766.708 
   36500    285.29733    70.876767    274510.12   -77035.848     7245.554   -84281.402    1771.0982 
   36550    291.42763   -44.947671    274345.88   -77004.881    7401.2424   -84406.123    1770.8898 
   36600    291.92705    4.3396973    273814.71   -76983.679    7413.9257   -84397.604    1770.4757 
   36650    287.31826    262.80077    273355.82   -77011.188    7296.8787   -84308.067    1768.8196 
   36700    291.30205    210.28912    273424.51   -77004.154    7398.0529   -84402.207    1771.9116 
   36750    289.62808   -195.44052    273972.94   -77035.541    7355.5399   -84391.081    1777.3596 
   36800    293.66568    73.356768    274312.98   -76998.215    7458.0809   -84456.295    1781.0936 
   36850    290.14907   -169.83779    274194.61   -77003.991    7368.7714   -84372.762     1784.807 
   36900    289.95825    75.714659    273878.68   -77012.269    7363.9251   -84376.194    1787.5112 
   36950    286.67764    341.82698    273684.69   -77053.902    7280.6091   -84334.511     1789.194 
   37000    288.25683   -235.19159    274117.04   -77079.048    7320.7151   -84399.763    1792.5314 
   37050    285.43679   -134.22813     274426.7   -77083.065    7249.0959   -84332.161    1796.1053 
   37100     289.8436     6.269685    274442.97   -77035.318    7361.0135   -84396.332    1797.4558 
   37150    286.65094   -22.132945     274233.4   -77044.447    7279.9311   -84324.378    1799.3622 
   37200    291.81192    103.25607    273725.79   -77064.781     7411.002   -84475.783    1799.9684 
   37250    282.91715     431.9728    273388.24   -77058.598    7185.1059   -84243.704     1801.165 
   37300    290.34879    99.982933    273612.92   -77068.722    7373.8434   -84442.565      1805.57 
   37350     288.0126   -52.045051    274025.63   -77060.814    7314.5125   -84375.327    1811.1802 
   37400    288.16468   -14.036308    274211.86    -77048.92    7318.3746   -84367.295    1813.6296 
   37450    285.20096    77.898099    273993.14   -77046.121    7243.1065   -84289.228     1815.074 
   37500    294.82147     188.0532    273674.62     -77058.1     7487.434   -84545.534    1816.9667 
   37550    286.45204    51.524211    273510.51   -77041.956    7274.8798   -84316.836    1819.0602 
   37600     286.3296    62.105954    273799.28   -77051.545    7271.7701   -84323.315    1825.2691 
   37650    291.55269   -35.926424    274264.11     -77047.7    7404.4183   -84452.118    1833.0077 
[...]
   90850    289.26274   -175.36363    274861.84   -76855.191    7346.2616   -84201.453     4353.051 
   90900     295.9948   -89.477008    274419.86   -76862.309    7517.2325   -84379.541    4352.5185 
   90950    290.25905    566.02523    273886.66   -76897.797    7371.5646   -84269.361    4351.5178 
   91000    291.68601    34.783477     274151.2   -76877.561    7407.8043   -84285.365     4354.317 
   91050    292.74171   -100.36561    274282.85   -76911.404    7434.6153   -84346.019    4355.7573 
   91100    291.11781   -304.14809    273993.96    -76862.78     7393.374   -84256.154    4354.0189 
   91150    293.62649    526.59307    273415.13   -76873.127    7457.0857   -84330.212    4348.1841 
   91200    293.06371   -70.558123    273846.81   -76903.129    7442.7931   -84345.922    4351.0294 
   91250    291.19667   -51.211824    274433.18   -76914.786    7395.3766   -84310.162     4358.909 
   91300    291.24341    15.277483    274627.13   -76908.237    7396.5638   -84304.801    4364.1462 
   91350    291.09639    36.247241    274423.62   -76916.114    7392.8301   -84308.944    4363.5695 
   91400     290.0859   -34.092373    274060.07   -76944.697    7367.1671   -84311.864    4363.5294 
   91450    284.91593    309.16987    273852.71   -76961.236    7235.8678   -84197.104    4363.6035 
   91500    290.41751    105.99754    274150.24   -76964.358    7375.5887   -84339.946    4370.0796 
   91550     289.9868   -216.66397    274487.24   -76954.983    7364.6503   -84319.633     4374.486 
   91600    293.97031     67.66399    274218.99   -76985.831    7465.8174   -84451.648     4370.613 
   91650    286.94103   -11.328976    273980.13   -77041.862    7287.2984    -84329.16    4370.5179 
   91700    287.62951    229.09694    273805.45   -77053.361    7304.7833   -84358.144    4367.9034 
   91750    288.29749     32.81645    273886.59   -77005.817    7321.7477   -84327.564    4371.7313 
   91800    290.34147    96.791575    274192.68   -77013.389    7373.6575   -84387.046    4376.4946 
   91850    289.43901   -254.62013    274745.82   -77038.827    7350.7384   -84389.565    4383.0207 
   91900     288.6249   -314.23409    274828.95   -77018.989    7330.0629   -84349.052    4385.9705 
   91950     285.6798   -354.31485    274299.02   -77067.107    7255.2676   -84322.374    4380.0105 
   92000    286.68984    195.01812    273394.38   -77030.407    7280.9189   -84311.326    4374.6653 
   92050    289.55763    179.59315    273116.43   -77080.393    7353.7509   -84434.144    4373.4741 
   92100    289.04585    87.267563    273919.79    -77019.59    7340.7534   -84360.344    4382.9466 
   92150    290.88529   -348.00955    274789.23   -77017.566    7387.4688   -84405.035     4397.678 
   92200    292.53959   -73.237978    274634.17   -77012.274    7429.4822   -84441.756    4396.5849 
   92250    293.82646     193.9211    273994.76   -76995.824    7462.1641   -84457.988    4390.3165 
   92300    291.97419    425.42578    273614.85   -77005.561    7415.1231   -84420.684    4388.2596 
   92350    290.66195   -45.403983    274002.09   -77025.901    7381.7967   -84407.697    4392.3344 
   92400    289.56662    71.345591    274431.92   -77024.217    7353.9791   -84378.196     4398.578 
   92450    293.35499   -149.28281    274520.71   -77022.654    7450.1906   -84472.845    4400.4895 
   92500    288.12792   -51.099507     274284.3   -77035.619    7317.4413    -84353.06    4400.1711 
   92550    292.76839   -187.77178    273877.22    -77045.94    7435.2928   -84481.233    4394.8539 
   92600    290.22539    82.574312    273501.38   -77081.309    7370.7095   -84452.018     4395.749 
   92650    290.14546    292.35762    273553.71    -77071.94    7368.6797    -84440.62    4401.1887 
   92700    288.44106    79.990474    274135.93   -77060.151    7325.3938   -84385.545    4408.8602 
   92750    286.72439   -347.40934    274475.47    -77116.91    7281.7963   -84398.706    4412.5905 
   92800    285.73638    127.21005    274070.96    -77113.98    7256.7045   -84370.684     4408.358 
   92850    286.44673    148.08654    273491.22   -77093.413    7274.7449   -84368.158    4406.3505 
   92900    292.50361   -28.580492    273572.99   -77113.418    7428.5685   -84541.987    4411.3285 
   92950    286.81763   -84.075381    274110.83   -77097.823    7284.1643   -84381.988    4420.1019 
   93000     286.6047   -8.1830564    274470.01   -77061.692    7278.7567   -84340.449    4424.1214 
   93050    285.25888    1.2197645    274474.32   -77025.057    7244.5777   -84269.635     4425.032 
   93100    289.21236    -39.91874    274232.81   -76986.484    7344.9821   -84331.467    4425.4462 
   93150    292.08785    286.44715       273876   -77005.318    7418.0096   -84423.328    4426.5489 
   93200    290.68805   -103.58522    274032.98   -76977.989    7382.4596   -84360.449    4430.6558 
   93250    288.80406   -48.797816    274280.57   -76949.861    7334.6128   -84284.474    4435.4769 
   93300     292.9521   -145.94598    274273.87   -76973.351    7439.9585    -84413.31    4436.1863 
   93350    285.67432    232.78109    273967.06   -77012.561    7255.1284   -84267.689    4436.8723 
   93400    287.42345    418.84399    273579.09   -77023.649    7299.5502     -84323.2     4430.172 
   93450    290.38198    271.23793    273663.34   -77022.414    7374.6864     -84397.1    4431.2831 
   93500    289.75698    58.478253    273975.99   -77008.915    7358.8137   -84367.728    4433.3617 
   93550    287.11882    18.737275       274210   -77000.778    7291.8135   -84292.592    4440.8588 
   93600    289.69149   -79.616257    274308.58    -76967.97    7357.1504    -84325.12    4441.4147 
   93650    292.56008   -169.82293    274571.23   -76985.439    7430.0026   -84415.441    4444.7006 
   93700    288.45044   -28.266015    274453.98   -76970.593     7325.632   -84296.225    4446.0356 
   93750    295.66981    166.33212    274156.69   -76965.662    7508.9788   -84474.641    4444.6053 
   93800     289.9252    73.785126    273996.59   -76954.083    7363.0858   -84317.169    4446.7692 
   93850    285.22453    -18.09943    273932.65   -76959.516    7243.7052   -84203.221    4448.7331 
   93900    290.69074   -65.137845     274049.5   -76952.247     7382.528   -84334.775     4452.099 
   93950    295.71205     99.34539    274196.38   -76955.171    7510.0517   -84465.223    4452.6417 
   94000    296.97697   -155.40129    274311.27   -76942.427    7542.1761   -84484.603    4460.0159 
   94050    290.90662   -24.782958    274392.39   -76903.597    7388.0104   -84291.607    4464.9482 
   94100    292.34116    184.27854    274462.34   -76919.817    7424.4426    -84344.26    4470.4694 
   94150    292.89037   -82.323654    274529.97   -76916.601    7438.3907   -84354.991     4468.948 
   94200    292.79227   -345.26593    274494.54   -76908.344    7435.8993   -84344.244    4470.5909 
   94250    290.98388    17.204628    274173.03   -76882.901    7389.9725   -84272.874    4469.2307 
   94300    285.69203     285.9183    274025.05   -76854.194     7255.578   -84109.772    4469.6856 
   94350    284.90206   -115.17315     274254.2   -76860.503    7235.5157   -84096.019    4475.9562 
   94400    290.92059    93.448264    274309.87   -76880.518    7388.3652   -84268.883    4479.4948 
   94450    291.92904    141.95118    274457.76   -76889.147    7413.9763   -84303.123    4482.4268 
   94500    289.05199    39.045037    274444.04   -76861.525    7340.9094   -84202.434    4483.0871 
   94550    291.18544    18.643304    274168.72    -76900.73    7395.0915   -84295.822    4480.3436 
   94600    296.18666    145.66557    273851.66   -76890.414     7522.105   -84412.519    4477.4255 
   94650    289.12933   -186.88037    273996.38   -76865.699    7342.8736   -84208.572      4479.41 
   94700    295.83805    56.640437    274405.02   -76827.135    7513.2515   -84340.386    4487.4766 
   94750    288.77284   -90.894059    274810.74   -76877.879    7333.8198   -84211.698    4493.3018 
   94800    288.22816    -67.58967    274711.61   -76884.743    7319.9869    -84204.73    4492.1359 
   94850    290.56723    274.97542    273950.94   -76900.097    7379.3911   -84279.488      4488.93 
   94900    290.76434    226.71609    273392.29   -76899.555    7384.3971   -84283.952    4487.3085 
   94950    290.34136     226.0984    273304.77   -76939.398    7373.6547   -84313.052    4492.3338 
   95000    290.82161    213.12376     273912.6   -76957.559    7385.8514   -84343.411    4502.6005 
   95050    295.83236   -142.74946    274874.03   -76922.762     7513.107   -84435.869    4515.0959 
   95100    286.54399    -330.6778    275322.39    -76931.49    7277.2149   -84208.705    4524.4589 
   95150    286.66127    17.391955    274775.43     -76942.8    7280.1934   -84222.994    4521.3515 
   95200    292.24143   -63.145938    273724.51   -76949.258      7421.91   -84371.168    4512.9494 
   95250    296.06206    475.67879    272922.85   -76942.845    7518.9406   -84461.786    4503.9816 
   95300    289.88409    288.38563    273509.14   -76995.231    7362.0417   -84357.273    4512.2181 
   95350    289.93868   -192.29417    274553.91   -77007.879    7363.4281   -84371.308    4529.1467 
   95400    292.38694    156.34131    274887.75   -76960.649    7425.6054   -84386.254    4536.7473 
   95450    289.99657   -422.58862    274777.88   -76978.164    7364.8984   -84343.062    4537.6616 
   95500    292.64047   -3.6351935    274265.01   -76976.355     7432.044   -84408.399    4535.7968 
   95550     288.8424    178.79117    273872.13   -76979.899    7335.5865   -84315.486    4535.2917 
   95600    290.49577    214.67768    273779.35   -76981.609    7377.5763   -84359.186    4535.3082 
   95650    290.56307   -77.922898    274088.94   -77021.578    7379.2855   -84400.863    4541.0609 
   95700    287.91664    124.58503    274192.15   -77005.132    7312.0754   -84317.208    4542.4512 
   95750     287.2782   -48.657556    274148.43   -76996.648    7295.8613    -84292.51    4544.2571 
   95800    290.33803   -179.11864    274029.57   -77025.363    7373.5702   -84398.933    4546.4691 
   95850    286.80721   -150.82744    273993.79   -77004.383    7283.8998   -84288.283    4547.6848 
   95900    291.52485    32.384359    274058.07   -77006.643    7403.7113   -84410.354    4549.8208 
   95950    289.90523   -171.89645    274237.25   -76997.408    7362.5788   -84359.986    4556.2975 
   96000    289.30525   -161.10442    274480.42   -77005.932    7347.3412   -84353.273     4559.032 
   96050    292.70917   -163.04393     274342.3   -76978.389    7433.7889   -84412.178    4557.8716 
   96100    295.30204     17.46904    273962.41   -76908.242    7499.6387   -84407.881    4556.4975 
   96150    289.40503    47.376769    273614.25   -76930.845    7349.8753    -84280.72    4556.1952 
   96200    296.73215   -104.43043    273656.17   -76889.611    7535.9584   -84425.569    4558.8626 
   96250    294.16861    -154.1236    273972.56   -76879.052    7470.8537   -84349.906    4562.6328 
   96300    291.84873   -33.715453    274333.21   -76877.585    7411.9368   -84289.522    4569.9152 
   96350    291.21683    222.97872    274696.13   -76894.237    7395.8887   -84290.125    4576.4766 
   96400    290.55254   -156.03655    274822.23   -76924.021     7379.018   -84303.039    4578.9405 
   96450    294.41413    67.384366    274476.45   -76895.553     7477.089   -84372.642    4576.5544 
   96500    292.99941    5.9853933    274116.02   -76895.097    7441.1601   -84336.257    4575.9792 
   96550    291.34652   -98.385172     273858.9   -76882.829    7399.1824   -84282.012    4575.8739 
   96600    289.99549    162.48144    273684.85    -76880.66    7364.8708    -84245.53    4570.9558 
   96650    285.85261    324.87188    273935.87   -76922.428    7259.6562   -84182.084    4574.5412 
   96700    295.13129   -235.32469    274524.06   -76932.561    7495.3022   -84427.863    4582.5306 
   96750    291.70816   -155.40138    274702.72   -76919.658    7408.3667   -84328.024    4588.3127 
   96800    290.90102   -171.43784    274348.78   -76923.745    7387.8682   -84311.614    4588.7585 
   96850    293.88518   -95.078081    274022.98   -76966.786    7463.6554   -84430.442     4588.466 
   96900    291.91933    288.31988    273953.73   -76916.186    7413.7297   -84329.916    4590.6288 
   96950    294.66855   -114.08164    274223.03   -76929.975    7483.5503   -84413.525     4595.268 
   97000    287.84972    192.62528    274252.22    -76937.88    7310.3758   -84248.256    4596.8756 
   97050     292.1604    61.321383    274087.16   -76931.344    7419.8522   -84351.196    4598.7904 
   97100    290.52124    40.174423    274018.63   -76970.753    7378.2233   -84348.976    4598.7627 
   97150    290.53636   -245.59607    274061.44   -76976.906    7378.6071   -84355.514    4601.2457 
   97200    292.69071     12.99031    273895.59   -76965.918    7433.3201   -84399.238    4602.7701 
   97250    288.75297   -56.610643    273873.64   -76977.537    7333.3152   -84310.852    4604.0099 
   97300    292.64779    218.68341       273754   -77011.357      7432.23   -84443.587    4607.1894 
   97350     286.8257   -186.27552    273893.16   -77031.212    7284.3694   -84315.581    4611.6996 
   97400    287.52656   -31.644655    274098.61   -77052.149    7302.1689   -84354.317    4619.4523 
   97450    287.64187    197.36264    274249.63   -77068.262    7305.0972    -84373.36    4623.4439 
   97500    280.99326   -226.08992    274431.05   -77061.414    7136.2459    -84197.66    4628.5365 
   97550    294.09103    1.7566184    274001.34   -77032.382    7468.8833   -84501.265    4623.4417 
   97600    293.08882    18.295344    273790.43     -77007.9    7443.4306    -84451.33    4624.6983 
   97650     288.3222    243.87028    273906.02   -76999.041    7322.3752   -84321.416    4630.8449 
   97700    289.77953   -301.65879    274320.42   -77002.389    7359.3864   -84361.775     4638.674 
   97750    289.81521    214.72431    274253.48    -76998.38    7360.2925   -84358.672    4640.9628 
   97800    283.72369   -131.24715    274249.38   -77021.283    7205.5892   -84226.872    4645.3335 
   97850    288.74116   -45.261439    274215.52   -77053.932    7333.0153   -84386.947    4646.3746 
   97900    290.47421    93.630729    273946.64   -77095.849    7377.0287   -84472.878    4645.9612 
   97950    291.24982    142.12899    273684.63   -77052.124    7396.7265   -84448.851    4646.4096 
   98000    291.39846   -229.82402    273931.94   -77075.977    7400.5016   -84476.479    4647.5731 
   98050    287.62985   -279.86418    274173.02   -77069.297    7304.7919   -84374.088    4651.3058 
   98100    291.70889   -131.45006       274267   -77091.288    7408.3854   -84499.673    4655.2216 
   98150    283.06609   -92.961212     274128.9   -77096.027    7188.8885   -84284.915    4653.3583 
   98200    285.49241   -293.97419    273698.76   -77112.971    7250.5086   -84363.479    4649.8497 
   98250    282.76205     360.3325    273305.33   -77101.201    7181.1669   -84282.368    4646.7942 
   98300    287.73325   -177.38205    273711.73   -77141.458    7307.4181   -84448.876    4654.2927 
   98350    284.75028   -266.98048    274281.35   -77144.758    7231.6609   -84376.419    4665.7602 
   98400    286.37888   -64.210092    274483.71   -77104.797    7273.0216   -84377.819    4670.3282 
   98450    287.65966   -78.454867    274075.56   -77078.892     7305.549   -84384.441    4668.0189 
   98500    288.26151   -198.76469    273616.75   -77093.975    7320.8338   -84414.809    4664.4018 
   98550    292.49252    141.95399     273186.2   -77120.722    7428.2868   -84549.008    4659.5914 
   98600     285.9512     262.2383    273272.68   -77131.955    7262.1602   -84394.116    4665.2834 
   98650    283.98278   -222.97484    274119.24   -77135.652     7212.169   -84347.821    4679.0254 
   98700     285.5217   -305.74039    274618.86   -77112.198    7251.2524   -84363.451    4685.8977 
   98750     284.9962   -292.77875    274362.53   -77093.786    7237.9064   -84331.693    4687.1777 
   98800    291.29167   -37.307071    273750.76   -77098.831    7397.7895   -84496.621    4678.1175 
   98850    286.23086    393.13438    273297.38   -77082.393    7269.2626   -84351.656    4675.5995 
   98900    288.75669    254.05268    273620.38   -77095.321    7333.4098   -84428.731    4679.5013 
   98950    287.58401    10.611689    274330.84    -77072.62    7303.6278   -84376.248    4687.0894 
   99000    285.43433   -253.89072    274675.67    -77041.87    7249.0335   -84290.904    4694.8581 
   99050    291.57728    44.372594     274130.5   -77056.203    7405.0429   -84461.246     4686.924 
   99100    294.56138    46.636203    273544.77    -77067.33    7480.8287   -84548.159    4680.5451 
   99150     288.6668    328.83938    273410.78    -77076.42    7331.1268   -84407.547    4680.7314 
   99200    291.06754    120.52892    273877.47   -77096.451    7392.0973   -84488.548    4685.8944 
   99250    286.58872   -361.80775    274548.39   -77121.914     7278.351   -84400.265    4695.3671 
   99300    283.88551   -314.38962    274675.31   -77154.227    7209.6989   -84363.926    4697.4778 
   99350    284.95148   -226.76596    273933.11   -77172.294    7236.7707   -84409.065    4693.3201 
   99400    287.98507    112.91784    273236.41   -77141.811    7313.8133   -84455.624    4687.8443 
   99450    287.70415    123.00481    273184.79   -77140.615    7306.6789   -84447.294    4691.0515 
   99500    290.26429    202.65135    273681.65   -77172.734    7371.6975   -84544.431    4696.4593 
   99550    290.09226   -139.91872    274504.52   -77119.885    7367.3286   -84487.213    4706.7921 
   99600    284.31253   -210.98055    274903.58   -77113.091    7220.5436   -84333.635    4711.9814 
   99650     285.9686    32.080327    274227.85   -77109.259     7262.602   -84371.861    4708.2426 
   99700    288.82152    -112.6801    273536.66   -77099.717    7335.0563   -84434.773    4704.0241 
   99750    289.60863    201.98506    273487.45   -77110.455    7355.0462   -84465.501    4710.8328 
   99800    285.60955   -14.886086    274054.46   -77104.295    7253.4833   -84357.778    4723.4167 
   99850    287.51132   -277.65756    274571.21   -77093.093    7301.7817   -84394.875    4729.9927 
   99900    288.94621   -11.320655    274563.09   -77122.054    7338.2229   -84460.277    4731.9239 
   99950    281.81178     5.020899    273954.71   -77101.782    7157.0334   -84258.815    4726.9139 
  100000    289.46302    75.866845    273414.64   -77062.436    7351.3481   -84413.784    4726.1627 
Loop time of 252.083 on 6 procs for 100000 steps with 8521 atoms

Performance: 342.744 ns/day, 0.070 hours/ns, 396.695 timesteps/s
99.5% CPU use with 6 MPI tasks x no OpenMP threads

MPI task timing breakdown:
Section |  min time  |  avg time  |  max time  |%varavg| %total
---------------------------------------------------------------
Pair    | 71.789     | 129.95     | 199.39     | 459.4 | 51.55
Neigh   | 30.745     | 35.863     | 39.477     |  61.6 | 14.23
Comm    | 7.1004     | 80.11      | 143.34     | 622.8 | 31.78
Output  | 0.13543    | 0.13759    | 0.14514    |   0.9 |  0.05
Modify  | 4.9917     | 5.035      | 5.108      |   1.6 |  2.00
Other   |            | 0.9893     |            |       |  0.39

Nlocal:        1420.17 ave        1453 max        1392 min
Histogram: 2 0 0 0 2 0 0 0 1 1
Nghost:        2047.00 ave        2090 max        2008 min
Histogram: 1 1 0 0 0 2 1 0 0 1
Neighs:        0.00000 ave           0 max           0 min
Histogram: 6 0 0 0 0 0 0 0 0 0
FullNghs:      39800.0 ave       40662 max       39463 min
Histogram: 3 0 2 0 0 0 0 0 0 1

Total # of neighbors = 238800
Ave neighs/atom = 28.024880
Neighbor list builds = 20725
Dangerous builds = 0

# Create data file for import to other simulations
#
write_data data.${NAME}
write_data data.coexist_289K_1atm_ML
System init for write_data ...

Total wall time: 0:04:12
