
# Set production fixes - Nose/Hoover
#
fix                 2 all nph iso ${PRES} ${PRES} ${PCOUPL}
fix                 2 all nph iso 1 ${PRES} ${PCOUPL}
fix                 2 all nph iso 1 1 ${PCOUPL}
fix                 2 all nph iso 1 1 10000.0
fix                 3 all temp/csvr ${TEMP} ${TEMP} ${TCOUPL} 837492
fix                 3 all temp/csvr 289 ${TEMP} ${TCOUPL} 837492
fix                 3 all temp/csvr 289 289 ${TCOUPL} 837492
fix                 3 all temp/csvr 289 289 5000.0 837492

# Define Order parameter
#
compute             2 all orientorder/atom nnn NULL cutoff 3.5
thermo              200
thermo_style        custom step temp press vol etotal ke pe c_1[4]

# Run 1ns simulation
dump		    1 all custom 400 prod.${NAME}.dump id type x y z vx vy vz c_2[*]
dump		    1 all custom 400 prod.ice_289K_1atm_ML.dump id type x y z vx vy vz c_2[*]
run                 200000
Neighbor list info ...
  update every 1 steps, delay 0 steps, check yes
  max neighbors/atom: 2000, page size: 100000
  master list distance cutoff = 6.0032907
  ghost atom cutoff = 6.0032907
  binsize = 3.0016454, bins = 20 17 17
  2 neighbor lists, perpetual/occasional/extra = 1 1 0
  (1) pair sw, perpetual
      attributes: full, newton on
      pair build: full/bin/atomonly
      stencil: full/bin/3d
      bin: standard
  (2) compute orientorder/atom, occasional, copy from (1)
      attributes: full, newton on
      pair build: copy
      stencil: none
      bin: none
Per MPI rank memory allocation (min/avg/max) = 5.820 | 5.820 | 5.820 Mbytes
Step Temp Press Volume TotEng KinEng PotEng c_1[4] 
       0    290.34232    11.064396    148562.31   -47637.301    3987.1526   -51624.454   0.13983472 
     200    285.66555    21.319407    148573.29   -47626.537    3922.9285   -51549.466   0.13899635 
     400    288.48091    42.768992       148549   -47621.237    3961.5907   -51582.828   0.14071009 
     600    285.63071    6.0389554    148533.29   -47659.477      3922.45   -51581.927   0.14164028 
     800    294.05261     50.17219    148524.11   -47675.324    4038.1045   -51713.429   0.13840342 
    1000    286.97996   -11.333744    148544.16   -47687.535    3940.9786   -51628.513   0.14433665 
    1200    284.68387   -20.920483    148518.41   -47711.965    3909.4474   -51621.413   0.14077074 
    1400    283.20061   -24.261654    148474.47   -47702.753    3889.0783   -51591.831     0.143079 
    1600    290.04522    6.9553883    148491.28   -47707.828    3983.0726     -51690.9   0.13839833 
    1800    289.12804   -58.285937    148577.38   -47712.511    3970.4774   -51682.989   0.14277066 
    2000    289.00835   -42.497446    148545.43   -47667.529    3968.8338   -51636.363   0.14450239 
    2200    285.61378    42.031076    148455.55   -47634.894    3922.2175   -51557.112    0.1434599 
    2400    287.61127     40.00828     148517.3   -47653.484    3949.6481   -51603.132   0.14001371 
    2600    289.74551   -76.593186    148636.64   -47698.909    3978.9568   -51677.866   0.13903785 
    2800     287.1236    5.2229072    148539.74    -47715.81    3942.9512   -51658.761   0.13858699 
    3000    286.22064    100.41401    148412.96   -47728.329    3930.5513    -51658.88   0.14145892 
    3200    285.05924  -0.68689794    148541.04   -47674.254    3914.6022   -51588.857   0.14445837 
    3400    282.31549   -114.81168     148702.7   -47712.665    3876.9234   -51589.588   0.13943624 
    3600    282.21397   -1.3659243    148522.97   -47742.043    3875.5292   -51617.573   0.13842179 
    3800     285.3037    159.66651    148358.87    -47668.95    3917.9593   -51586.909   0.13737326 
    4000     290.3882   -41.813157    148645.01   -47664.752    3987.7827   -51652.535   0.13873248 
    4200    285.07429   -167.32318     148775.9   -47679.948    3914.8089   -51594.757   0.14147813 
    4400    285.95221    79.253705     148396.2   -47667.422     3926.865   -51594.287   0.14214072 
    4600    289.39788    134.60585    148314.11   -47647.803     3974.183   -51621.986   0.14310447 
    4800    291.09392   -159.69934    148732.07   -47637.893     3997.474   -51635.367   0.13748038 
    5000    286.77832   -142.63492       148725   -47615.976    3938.2097   -51554.186   0.14153019 
    5200    284.48934    197.67265    148289.28   -47617.895    3906.7759   -51524.671   0.14230983 
    5400    294.62212    120.81271    148414.27   -47580.831    4045.9253   -51626.756    0.1423967 
    5600    292.52588   -264.37162    148877.79   -47563.935    4017.1385   -51581.073   0.14036566 
    5800    294.49854   -49.839742    148657.55   -47553.044    4044.2283   -51597.272   0.13795961 
    6000    292.62169    279.13322    148239.31   -47538.557    4018.4542   -51557.011   0.14198377 
    6200    296.58879    84.043959    148529.69   -47533.091    4072.9329   -51606.024   0.14096189 
    6400    291.39854   -259.86458    148891.48   -47499.652    4001.6572    -51501.31   0.14832103 
    6600    293.15899    24.270756    148548.66   -47539.795    4025.8327   -51565.628   0.14230901 
    6800    293.89322    221.12819    148261.33   -47579.849    4035.9156   -51615.764    0.1390662 
    7000    290.93539   -93.336012    148633.82   -47584.167     3995.297   -51579.464   0.14174507 
    7200    290.65066   -202.62763    148837.28   -47530.019    3991.3869   -51521.406   0.14483221 
    7400    295.16638    133.26321    148403.29   -47515.325    4053.3994   -51568.724   0.14211135 
    7600    291.89397    170.05618    148306.94   -47549.653    4008.4607   -51558.114   0.14442983 
    7800    286.07369   -186.48308    148741.34   -47577.039    3928.5333   -51505.573   0.14162323 
    8000    289.78529   -139.40586    148687.49   -47542.576    3979.5031   -51522.079   0.14146726 
    8200    291.34857    263.22065    148239.66   -47578.579     4000.971    -51579.55   0.13953859 
    8400    288.61019     123.4934    148410.31   -47604.651     3963.366   -51568.017   0.14502374 
    8600    292.50323   -214.12767    148834.12   -47563.358    4016.8275   -51580.186   0.14730477 
    8800    288.30041   -33.902649    148581.64   -47492.849    3959.1118   -51451.961   0.14584619 
    9000    296.52006    248.86392    148241.65   -47473.455    4071.9889   -51545.443   0.14334403 
    9200    290.54421   -47.006092    148608.75   -47458.626    3989.9251   -51448.551    0.1438076 
    9400    290.89394   -244.17237    148928.35   -47506.691    3994.7278   -51501.419   0.14303488 
    9600    293.85392    84.687576    148478.71   -47497.478     4035.376   -51532.854   0.14636067 
    9800    291.65303    238.87818    148227.18    -47514.52     4005.152   -51519.672    0.1446917 
   10000    292.85901   -117.78733    148732.63   -47511.268    4021.7132   -51532.981   0.14552761 
   10200    293.64608   -268.24414    148922.81   -47502.976    4032.5218   -51535.497   0.14103251 
   10400    292.57615    196.34055    148348.34   -47489.787    4017.8289   -51507.615   0.14678215 
   10600    294.25041    233.58237    148253.54   -47473.256    4040.8207   -51514.077   0.14802601 
   10800    292.90037   -269.36384    148881.95   -47505.098    4022.2813    -51527.38   0.14565037 
   11000     289.6299   -194.75639    148827.51   -47546.838    3977.3692   -51524.207   0.14360016 
   11200    293.16039    342.80362    148127.89    -47563.02    4025.8521   -51588.872   0.13534144 
   11400    291.35559    189.89191    148285.59   -47591.114    4001.0674   -51592.182   0.14045961 
   11600    287.07749   -380.64828     149018.9   -47560.792     3942.318    -51503.11     0.144871 
   11800    288.65548    -137.0531    148715.52   -47634.803    3963.9879   -51598.791   0.14390767 
   12000     288.0057    441.96987     147969.7   -47633.817    3955.0647   -51588.882   0.14338607 
   12200    289.07598     104.8424    148427.96   -47614.936    3969.7624   -51584.699   0.14067783 
   12400    292.14275   -454.66596    149155.72   -47581.255    4011.8772   -51593.132    0.1408157 
   12600    294.16051    1.5980772    148573.08   -47593.218    4039.5863   -51632.804   0.13893803 
   12800     289.8111    443.77327    147959.93   -47602.624    3979.8576   -51582.482   0.14581837 
   13000    290.27554   -64.596946    148615.07   -47585.322    3986.2355   -51571.558   0.14108634 
   13200     291.9055    -375.3952    149092.71   -47555.593    4008.6191   -51564.212   0.13927891 
   13400    289.35818    115.53252    148439.31   -47575.128    3973.6379   -51548.766   0.14210688 
   13600      291.078    373.39381    148117.82   -47565.853    3997.2554   -51563.108   0.14619016 
   13800    289.37608   -148.99867    148718.97   -47561.379    3973.8837   -51535.263   0.14781827 
   14000    287.35841   -262.98903     148882.8   -47580.192    3946.1758   -51526.368   0.15144563 
   14200    290.03712    160.82233    148355.22   -47607.334    3982.9614   -51590.295   0.14401358 
   14400    286.04849    177.92391    148319.15   -47632.187    3928.1872   -51560.374   0.14277498 
   14600    290.32457   -148.94977    148734.65     -47628.6    3986.9088   -51615.509   0.13731529 
   14800    290.66358   -91.956856    148682.27   -47610.515    3991.5643   -51602.079   0.13905214 
   15000    285.01021    109.27172    148355.79   -47662.836    3913.9289   -51576.765   0.14543929 
   15200    285.12317    51.644453    148428.84   -47717.234    3915.4801   -51632.714   0.14080548 
   15400    287.39101   -150.03424    148637.76   -47732.327    3946.6235   -51678.951    0.1417996 
   15600     283.6475   -13.453406    148505.93   -47767.797    3895.2154   -51663.012    0.1410449 
   15800    284.29235    130.60879    148359.23   -47719.616    3904.0708   -51623.686   0.14240497 
   16000    287.95681    -9.425261    148548.04   -47705.839    3954.3934   -51660.232   0.13789285 
   16200    291.78024   -99.538121     148637.4   -47654.378    4006.8989   -51661.277   0.14314618 
   16400    286.87197    38.787517    148466.31   -47650.484    3939.4957   -51589.979   0.14120635 
   16600    289.56057    90.548317    148454.78   -47668.084    3976.4172   -51644.501    0.1355553 
   16800    292.80289   -67.021627     148628.9   -47622.533    4020.9425   -51643.475   0.13854167 
   17000    291.11133   -53.359096    148580.51   -47645.991    3997.7131   -51643.704    0.1441085 
   17200    289.91867    135.39798    148396.23   -47628.367    3981.3348   -51609.702   0.14515114 
   17400    287.29601    23.901809    148501.28   -47673.779    3945.3189   -51619.097   0.14224218 
   17600    283.72003   -104.28635     148673.8    -47710.47    3896.2114   -51606.682    0.1419381 
   17800    283.67656  -0.44782976    148517.93   -47729.116    3895.6145    -51624.73   0.13967704 
   18000    282.89553    123.64425    148356.14   -47762.519    3884.8889   -51647.408   0.14205687 
   18200    284.78989     5.859881    148530.21   -47788.844    3910.9033   -51699.747   0.13651021 
   18400    286.92866   -129.00171    148655.32   -47808.615    3940.2742   -51748.889   0.13846846 
   18600    286.05191    75.771797    148420.39   -47765.145    3928.2342   -51693.379   0.14009194 
   18800    289.71532      157.544    148344.05   -47700.138    3978.5422    -51678.68   0.13788781 
   19000    285.14549   -126.81184    148664.92   -47729.596    3915.7867   -51645.383   0.14185387 
   19200    285.82838   -135.10823     148701.6   -47702.639    3925.1645   -51627.803    0.1439532 
   19400    287.71641     139.3533    148331.52    -47692.55    3951.0921   -51643.642   0.14461416 
   19600    289.18654    113.40151    148341.41    -47721.76    3971.2807   -51693.041   0.13929032 
   19800     282.4346   -183.93275    148705.44   -47717.926    3878.5591   -51596.485   0.14323042 
   20000    290.19997   -66.154432    148610.91   -47707.474    3985.1978   -51692.672   0.13820461 
   20200    286.54325    214.93134     148230.1     -47733.4    3934.9815   -51668.381   0.13788906 
   20400    282.24554    58.183962    148442.67   -47712.492    3875.9628   -51588.454   0.13762487 
   20600    285.14975   -263.63553    148835.55   -47708.226    3915.8452   -51624.071   0.14624022 
   20800    284.08576    1.9327542    148504.94   -47710.317    3901.2337   -51611.551   0.14695164 
   21000    285.03919     291.7887    148113.99   -47704.822    3914.3269   -51619.149   0.14092739 
   21200    287.02937   -49.726797    148574.45   -47696.145    3941.6572   -51637.802   0.14334129 
   21400    287.64095   -345.84947    148945.06   -47690.372    3950.0558   -51640.427   0.14725056 
   21600    285.91006    112.38822    148343.01   -47645.847    3926.2861   -51572.133   0.14868212 
   21800    292.76576    389.01404    148022.74   -47597.075    4020.4327   -51617.508   0.14397876 
   22000    290.67548   -217.14352    148818.11   -47604.605    3991.7277   -51596.332   0.14418284 
   22200     286.7996   -342.22694    148992.89   -47560.203    3938.5019   -51498.705   0.14784997 
   22400    293.22416    308.99412    148125.34    -47537.91    4026.7278   -51564.638   0.14592004 
   22600     287.8367    308.01733    148145.02   -47544.224     3952.744   -51496.968   0.15466675 
   22800    288.21346   -340.66564    149005.72   -47579.571    3957.9179   -51537.489    0.1533873 
   23000    289.86184   -232.47302    148841.95   -47596.285    3980.5543   -51576.839   0.15284333 
   23200    283.48858    375.81922    148033.78    -47587.64     3893.033   -51480.673   0.15278958 
   23400     286.8189    112.68171    148339.78   -47599.067    3938.7669   -51537.834   0.14768721 
   23600     293.2532   -355.99833    149009.35   -47614.463    4027.1265    -51641.59   0.14545354 
   23800    295.15198   -38.666091    148586.05   -47554.561    4053.2017   -51607.763   0.14515174 
   24000     290.8265    370.50289    148074.78   -47591.461    3993.8017   -51585.263   0.14779251 
   24200    288.72616   -40.219764    148594.44   -47577.917    3964.9585   -51542.876   0.14130845 
   24400    294.39884   -317.55914    149007.07   -47582.757    4042.8591   -51625.616   0.14327872 
   24600    288.02758    88.302939    148455.78   -47582.084    3955.3652   -51537.449   0.14405676 
   24800    292.27016    346.00694    148161.73   -47506.686    4013.6268   -51520.313   0.14688511 
   25000    293.24189   -144.37899    148776.01   -47507.587    4026.9712   -51534.558   0.15056681 
   25200    288.92297   -278.89612    148954.38   -47530.629    3967.6612    -51498.29   0.14718344 
   25400     288.3619    192.75424    148331.43   -47593.244    3959.9563     -51553.2   0.14216719 
   25600    287.68364    209.89436    148235.47   -47616.429    3950.6421   -51567.071   0.14549331 
   25800    290.22278   -186.74917    148812.01    -47594.54    3985.5109   -51580.051   0.14326979 
   26000     291.7328   -213.17754    148809.19   -47572.453    4006.2475     -51578.7   0.14502173 
   26200    285.60345    211.66992    148257.64   -47618.656    3922.0756   -51540.731   0.14528246 
   26400    287.53934    174.30697    148331.94   -47642.714    3948.6605   -51591.374   0.14488107 
   26600    284.85864   -214.46176    148820.41    -47651.97    3911.8475   -51563.818   0.14902011 
   26800    288.63834   -103.90787    148668.31   -47656.781    3963.7525   -51620.534   0.14348779 
   27000    288.64438    222.24545    148251.39   -47656.328    3963.8355   -51620.164    0.1476353 
   27200    289.48448    35.846627    148475.04   -47652.299    3975.3722   -51627.671   0.14335768 
   27400    294.86996   -188.81054    148835.37   -47617.711    4049.3288    -51667.04   0.14023037 
   27600    284.27829   -39.465556    148580.47   -47622.124    3903.8777   -51526.001   0.14676905 
   27800    290.19814     197.2234    148288.74    -47618.49    3985.1726   -51603.663   0.14105563 
   28000    285.94985   -16.413854    148552.25   -47606.283    3926.8326   -51533.116   0.14682018 
   28200    285.85805   -156.84648    148751.19   -47623.782    3925.5719   -51549.354   0.14506846 
   28400    284.15114     1.981871    148465.17   -47618.442    3902.1317   -51520.574   0.15246254 
   28600    288.38707    170.72982    148337.98   -47638.544    3960.3019   -51598.846   0.14421336 
   28800    288.28522   -91.428157    148651.09   -47649.875    3958.9033   -51608.778   0.14345337 
   29000    284.85946   -169.89369    148698.61   -47685.532    3911.8587    -51597.39   0.14933377 
   29200     285.5288    135.05353    148344.75   -47721.661    3921.0505   -51642.712   0.14052417 
   29400    288.84421    142.61582    148333.06   -47721.971    3966.5796    -51688.55    0.1383285 
   29600     288.6847   -147.59354    148647.71   -47683.808    3964.3892   -51648.197   0.14445667 
   29800    287.28275   -97.795666    148611.02   -47605.568    3945.1368   -51550.705   0.14757328 
   30000    287.61154    168.02821    148310.04   -47595.035     3949.652   -51544.687   0.14555058 
   30200     291.1072    28.202225    148428.71   -47605.314    3997.6564    -51602.97   0.14644553 
   30400    289.32749   -147.83312       148713   -47656.896    3973.2164   -51630.113   0.14695416 
   30600    293.25345    6.7644036    148547.05   -47603.351      4027.13   -51630.481   0.14273783 
   30800    288.20759    131.01986     148324.3    -47570.33    3957.8372   -51528.167    0.1473396 
   31000    290.92967   -31.490616    148582.83   -47558.069    3995.2185   -51553.287   0.14698686 
   31200    292.27044   -181.76204    148779.94   -47561.017    4013.6307   -51574.648   0.14534482 
   31400    288.84817    56.790836    148466.75   -47558.416     3966.634    -51525.05   0.14552467 
   31600    288.35796    135.96376    148328.27   -47621.322    3959.9023   -51581.224   0.14615595 
   31800     289.4371   -77.829132    148682.82    -47593.92    3974.7216   -51568.642   0.14030732 
   32000     292.9333   -133.87402    148773.98   -47564.092    4022.7335   -51586.825   0.14241432 
   32200    292.11202    99.373011    148416.15   -47598.334    4011.4552   -51609.789   0.14321987 
   32400    291.79482    135.84929    148359.19   -47593.627    4007.0992   -51600.726   0.14927707 
   32600    291.10584   -138.68242    148752.51    -47578.57    3997.6378   -51576.208    0.1464781 
   32800    289.43823   -117.96302     148745.3   -47575.448    3974.7371   -51550.185   0.14034068 
   33000    286.74101     180.7313    148298.31   -47565.279    3937.6973   -51502.977   0.14881758 
   33200    290.17805    112.51143    148393.64   -47561.044    3984.8968   -51545.941   0.14415638 
   33400    292.94438   -267.32321    148903.88   -47522.308    4022.8857   -51545.194    0.1489552 
   33600     293.8005   -115.70976    148773.75   -47455.208    4034.6424   -51489.851   0.14615041 
   33800    290.13693    240.66435    148255.54   -47490.308    3984.3321    -51474.64   0.14787335 
   34000    293.92723    65.647836    148450.74   -47514.495    4036.3827   -51550.878   0.14644737 
   34200    289.34168   -302.34242    148960.93   -47544.194    3973.4112   -51517.605   0.14717989 
   34400    290.35434   -55.145085    148594.64   -47609.652    3987.3177   -51596.969   0.14546105 
   34600    289.94829    364.48663    148066.72   -47582.283    3981.7415   -51564.025   0.14570355 
   34800    285.75776    -34.75096    148571.45   -47624.367    3924.1947   -51548.562   0.14648815 
   35000     284.2215   -408.30803    149024.97   -47646.584    3903.0979   -51549.682   0.14565626 
   35200    290.59787    103.04679    148372.26   -47635.308     3990.662    -51625.97   0.14029909 
   35400    288.45028    399.91196    148029.69   -47596.094    3961.1699   -51557.264   0.14034752 
   35600    290.80871   -186.32426    148809.71   -47592.049    3993.5573   -51585.606   0.14307191 
   35800    292.67712   -357.61424    149015.65   -47590.765    4019.2154   -51609.981    0.1434935 
   36000    290.88018     280.9718    148165.04   -47592.479    3994.5388   -51587.018   0.14827645 
   36200     294.4046    301.13877    148100.56   -47609.177    4042.9382   -51652.115   0.14519467 
   36400    282.50694   -296.89348    148928.98   -47634.129    3879.5526   -51513.681   0.14474073 
   36600    289.92151    -262.9483    148848.85    -47609.01    3981.3738   -51590.384    0.1432834 
   36800     283.5153    307.42315    148104.34   -47651.368       3893.4   -51544.768   0.14381105 
   37000      290.578    192.64344    148291.65   -47642.938     3990.389   -51633.327   0.14228973 
   37200    292.40297   -310.01903    148906.44    -47603.74    4015.4506   -51619.191   0.14389357 
   37400    288.68887   -109.80263     148643.5   -47594.861    3964.4464   -51559.308   0.14027942 
   37600    287.59201    261.78129    148138.96   -47621.731    3949.3837   -51571.115   0.14607042 
   37800    293.96368    70.591196     148461.1   -47588.089    4036.8833   -51624.972   0.13855676 
   38000    279.40881   -285.86745    148871.29   -47640.013    3837.0071   -51477.021   0.14822173 
   38200    290.27763    32.221197    148499.15   -47635.197    3986.2643   -51621.461   0.14297355 
   38400    292.98339     248.1032    148233.96    -47601.15    4023.4213   -51624.571   0.14259781 
   38600    287.65511   -70.871151    148653.61   -47599.108    3950.2503   -51549.358   0.14347597 
   38800    288.43917   -218.71705     148818.5   -47649.447    3961.0174   -51610.465   0.13997105 
   39000    291.96167    92.826001     148400.8   -47677.338    4009.3905   -51686.728   0.13984914 
   39200    288.38423    185.77944    148289.98   -47698.213    3960.2629   -51658.476   0.13848204 
   39400    286.35462   -114.75779    148695.14   -47688.901    3932.3912   -51621.292   0.13994239 
   39600    285.66072   -160.75322    148730.79   -47759.004    3922.8621   -51681.866   0.13593072 
   39800    283.93591    180.59853    148305.12   -47746.357    3899.1759   -51645.533   0.13509724 
   40000    284.68527    118.67841    148332.22   -47758.761    3909.4667   -51668.228   0.13731766 
   40200    286.66105   -155.32653    148738.08   -47734.197    3936.5992   -51670.797   0.13916082 
   40400    281.25588   -85.923494    148632.77   -47727.323    3862.3722   -51589.695   0.13916128 
   40600    280.43895     155.2963    148264.19   -47756.424    3851.1537   -51607.578   0.14333621 
   40800     281.5829    46.698521    148449.02   -47775.684     3866.863   -51642.547   0.13821715 
   41000    287.60351   -217.35657    148785.98   -47732.397    3949.5416   -51681.939   0.14096468 
   41200    286.22235   -33.615107     148567.4   -47765.169    3930.5747   -51695.743   0.13868162 
   41400    284.77654    211.95994    148278.68   -47729.174      3910.72   -51639.894   0.13711861 
   41600     288.2691   -25.591991    148548.55   -47726.786    3958.6819   -51685.468   0.14122583 
   41800    288.52399   -226.77324    148776.19   -47724.129    3962.1822   -51686.311   0.14247359 
   42000    282.55406    29.836358    148440.53   -47695.216    3880.1996   -51575.415   0.13995224 
   42200    288.89569    189.12887    148241.82   -47722.788    3967.2866   -51690.075   0.13718699 
   42400    282.12851   -115.20395    148574.78   -47773.124    3874.3557    -51647.48    0.1436181 
   42600    283.80585   -182.20252    148677.09   -47798.274    3897.3899   -51695.664   0.14203984 
   42800    284.43116    106.86015    148299.73   -47799.129    3905.9771   -51705.106    0.1413413 
   43000    284.77445    170.37109    148233.65   -47753.401    3910.6913   -51664.093   0.14010418 
   43200    280.63654   -158.91314    148651.55   -47755.784    3853.8671   -51609.651   0.14421062 
   43400    283.91124   -128.26245    148649.78   -47746.878    3898.8373   -51645.715   0.13780084 
   43600    292.36478    173.81121    148261.68   -47743.208    4014.9262   -51758.135   0.13623971 
   43800    288.22272    104.56913    148354.94   -47716.616     3958.045   -51674.662   0.13961913 
   44000     285.2907   -220.36694    148745.99   -47733.907    3917.7807   -51651.687   0.13948288 
   44200    284.85005   -64.675518    148534.45   -47775.587    3911.7294   -51687.316     0.138121 
   44400    285.21853     243.6521    148144.16   -47749.525    3916.7896   -51666.315   0.13733317 
   44600    288.92224    47.851649    148419.67   -47687.891    3967.6512   -51655.542   0.14141632 
   44800     291.6642   -224.52278    148810.51   -47651.548    4005.3054   -51656.853   0.14520729 
   45000    289.51179    2.3181394       148492   -47688.161    3975.7472   -51663.909   0.14139319 
   45200    281.32022    207.14318    148169.39   -47707.932    3863.2558   -51571.188   0.14914687 
   45400    285.67219   -72.354084    148558.92   -47758.231    3923.0196    -51681.25   0.13733641 
   45600    284.69166   -271.56008     148821.3   -47745.204    3909.5543   -51654.758   0.14012249 
   45800    289.42552    134.71976    148339.26   -47719.755    3974.5626   -51694.318   0.13844012 
   46000    287.59118    218.36065    148162.15   -47716.664    3949.3724   -51666.036   0.14303806 
   46200    284.74583   -214.02248    148703.15   -47749.935    3910.2983   -51660.233   0.14029801 
   46400    284.09162   -207.06573    148740.49   -47731.473    3901.3143   -51632.787   0.14136371 
   46600    282.18872    271.90998    148093.11   -47728.111    3875.1826   -51603.294   0.14293594 
   46800    286.15897     205.2886    148191.54   -47694.136    3929.7043    -51623.84   0.14577592 
   47000    286.02489   -380.68751    148947.77   -47671.339    3927.8632   -51599.202   0.14690131 
   47200    287.46561   -162.75521    148705.89   -47642.303    3947.6479   -51589.951   0.14563588 
   47400    287.15783    425.22688    147888.93   -47571.956    3943.4212   -51515.377   0.14971127 
   47600    293.12512     111.1548    148346.38   -47549.157    4025.3677   -51574.525   0.14220281 
   47800    293.11538   -543.91605    149230.56   -47514.364    4025.2339   -51539.598   0.14653495 
   48000    286.41429   -5.0909904    148554.12    -47518.22    3933.2105    -51451.43    0.1423663 
   48200    292.99371    579.29215    147774.09   -47518.836    4023.5631   -51542.399   0.14927878 
   48400    292.15718   -44.959263    148692.82   -47503.038    4012.0753   -51515.113   0.13994983 
   48600    290.14193   -543.98924    149306.57    -47563.22    3984.4007   -51547.621   0.14297203 
   48800    294.36727    230.89674    148279.65   -47508.451    4042.4256   -51550.876   0.14484871 
   49000    293.38423    488.40697    147936.91   -47486.884    4028.9259    -51515.81   0.14717207 
   49200    290.69551   -273.51716     148934.1   -47522.771    3992.0028   -51514.774   0.14935767 
   49400      289.901   -378.24585    149033.84   -47530.564    3981.0922   -51511.656   0.14832532 
   49600    290.29077    249.09511    148201.44    -47548.39    3986.4447   -51534.835   0.14588736 
   49800    292.57047    297.40875     148241.2   -47528.128    4017.7508   -51545.879   0.13933574 
   50000     293.1598   -255.00734    148907.15   -47529.148    4025.8439   -51554.992   0.14067584 
   50200    290.47386   -180.82875    148761.87   -47565.555    3988.9589   -51554.514   0.14532191 
   50400    292.44951    284.79134     148228.2   -47569.902    4016.0897   -51585.992    0.1412488 
   50600     287.6463    75.461993    148419.45   -47591.992    3950.1293   -51542.121   0.14782592 
   50800    289.74628   -211.01853    148809.88   -47601.873    3978.9674   -51580.841   0.14085004 
   51000    290.58637   -26.043794     148588.1   -47538.422    3990.5041   -51528.926   0.14428247 
   51200    290.23807    168.23582    148310.47   -47569.829     3985.721    -51555.55   0.14867103 
   51400    297.67503   -29.049037    148591.67   -47535.344    4087.8498   -51623.194   0.14494108 
   51600    295.03839   -182.57565    148823.66   -47535.876    4051.6418   -51587.518   0.14120133 
   51800    292.17377    33.197594    148499.59   -47532.103    4012.3031   -51544.406   0.13875266 
   52000    294.84841    188.96155    148320.41   -47494.376    4049.0329   -51543.409   0.14468619 
   52200    288.78328   -106.84734    148700.19   -47467.328     3965.743    -51433.07   0.14644639 
   52400    296.22479   -159.52096    148821.83   -47448.185    4067.9342   -51516.119   0.14710485 
   52600    294.16871    67.134058    148450.78   -47487.762    4039.6989   -51527.461   0.14729351 
   52800    293.78231    158.65413    148370.45   -47505.797    4034.3926    -51540.19   0.14653022 
   53000    294.42529   -116.55893    148745.91   -47511.811    4043.2223   -51555.034   0.14507187 
   53200    295.22165   -134.46908    148758.47   -47520.636    4054.1584   -51574.794   0.14295572 
   53400     293.7693    157.88013    148379.71   -47549.276    4034.2139    -51583.49   0.14877902 
   53600      286.886    106.28566    148408.13   -47576.398    3939.6884   -51516.086   0.14605638 
   53800    291.38273   -151.99447    148784.26   -47552.232    4001.4402   -51553.672    0.1396801 
   54000    294.22156   -120.00408    148744.16   -47543.185    4040.4247   -51583.609   0.13883581 
   54200    293.03919    164.21806    148374.67   -47551.875    4024.1876   -51576.063   0.14381427 
   54400    288.46779    59.700942    148477.06   -47579.657    3961.4105   -51541.067   0.14787924 
   54600    290.95568   -154.92777     148840.2   -47574.434    3995.5756    -51570.01   0.14243468 
   54800    289.71496   -83.641708    148664.05   -47518.761    3978.5373   -51497.299   0.14591212 
   55000    291.55051     200.6875    148304.24   -47521.754    4003.7442   -51525.498   0.14272497 
   55200    294.43285    58.801266    148564.32   -47553.289    4043.3261   -51596.615   0.14034194 
   55400    290.45138    -272.5263    148930.72   -47576.124    3988.6503   -51564.774   0.14609495 
   55600    289.28293   -26.071497    148592.96   -47613.407    3972.6044   -51586.012   0.14416412 
   55800    294.06119    251.51668    148290.43   -47586.558    4038.2223    -51624.78   0.13603131 
   56000    289.48397   -80.829201    148701.34   -47572.349    3975.3653   -51547.714   0.13954918 
   56200    287.16579   -232.08562    148929.26   -47604.086    3943.5306   -51547.617   0.13955679 
   56400    290.82349    117.74422    148438.31   -47608.436    3993.7604   -51602.196   0.14015593 
   56600    290.86367     235.0869    148283.37    -47611.49    3994.3121   -51605.802   0.14385674 
   56800    291.44884   -201.00694     148825.7   -47563.228     4002.348   -51565.576   0.14707306 
   57000    290.47574   -262.08199    148891.06   -47569.868    3988.9847   -51558.853   0.15001089 
   57200    288.77286    238.99227    148295.52    -47599.19    3965.5999    -51564.79   0.14185132 
   57400    289.71809    158.52823    148354.03   -47619.703    3978.5803   -51598.283   0.14130476 
   57600    290.74028   -308.28163    148959.29   -47608.864    3992.6176   -51601.481   0.13874837 
   57800    285.39024   -156.67867    148784.26   -47620.606    3919.1477   -51539.753   0.14384973 
   58000    291.20019    338.10668    148159.44   -47633.474    3998.9333   -51632.407   0.14023572 
   58200    284.67846    65.970024    148456.36   -47674.446    3909.3732   -51583.819   0.14199955 
   58400    289.80627   -360.95838    149039.38    -47665.55    3979.7913   -51645.341   0.13850467 
   58600    284.21867   -14.592336     148619.4   -47644.646    3903.0591   -51547.705   0.14070191 
   58800    288.80478    343.36711    148101.88   -47676.707    3966.0382   -51642.745   0.14601202 
   59000    283.33723    -35.15154    148608.08   -47701.594    3890.9545   -51592.549   0.14029842 
   59200    283.79556   -372.97982    149048.71   -47699.414    3897.2487   -51596.663    0.1431463 
   59400    296.63253    119.10359    148423.46   -47643.728    4073.5334   -51717.261   0.13398428 
   59600    287.60039    354.41756    148142.24   -47639.033    3949.4988   -51588.532   0.13660137 
   59800    288.60264   -203.79382    148836.44   -47625.597    3963.2623   -51588.859   0.13951579 
   60000    290.45322   -284.70668    148969.63   -47611.447    3988.6756   -51600.123   0.14201124 
   60200    287.86471    247.70808    148268.38   -47584.185    3953.1286   -51537.314   0.14294685 
   60400    291.89804    223.63133    148278.19   -47553.895    4008.5167   -51562.412   0.13732008 
   60600    292.94452   -296.81908    148933.23   -47592.934    4022.8875   -51615.822   0.13997474 
   60800    292.47756   -139.20188    148754.12   -47531.985    4016.4749    -51548.46   0.14583728 
   61000    287.14197    270.55902    148199.24   -47571.372    3943.2035   -51514.575   0.15003742 
   61200     290.0009      19.3635    148477.67   -47578.322     3982.464   -51560.786   0.14750866 
   61400    287.48464   -262.33156     148939.6    -47574.12    3947.9092   -51522.029   0.14284716 
   61600    287.68844   -48.871332     148625.8   -47566.037    3950.7079   -51516.745   0.14316394 
   61800    296.58882    232.00938    148301.51   -47567.184    4072.9332   -51640.117   0.13572792 
   62000    290.13466   -21.725248    148625.33   -47591.627    3984.3008   -51575.927   0.14142233 
   62200    288.44383     -170.828    148791.76   -47602.268    3961.0813    -51563.35   0.14190469 
   62400    290.98538    64.221864    148477.46   -47563.408    3995.9835   -51559.391   0.14288483 
   62600    286.03005    145.50527    148400.83   -47583.194    3927.9339   -51511.128   0.14241531 
   62800    293.71137   -57.543988    148688.51   -47560.401    4033.4183   -51593.819   0.14023801 
   63000    292.29288   -122.04506    148709.82   -47527.491    4013.9389    -51541.43   0.14740931 
   63200    291.31008    102.01562    148477.07   -47531.137    4000.4424   -51531.579   0.14430286 
   63400    293.87241     105.0225    148461.04   -47488.055    4035.6299   -51523.685    0.1459511 
   63600    297.73002   -57.319847    148675.78   -47469.169    4088.6049   -51557.774   0.14257368 
   63800    292.57009   -68.571651    148669.62   -47496.957    4017.7457   -51514.703   0.14420625 
   64000    292.35364    122.99813    148441.02   -47489.485    4014.7732   -51504.258   0.14422371 
   64200    298.21899    28.964252    148503.22   -47492.182    4095.3197   -51587.502   0.14344443 
   64400    292.68247   -71.698764    148711.09   -47478.732    4019.2889   -51498.021     0.145448 
   64600    290.08345   -48.389593    148649.21   -47533.654    3983.5977   -51517.252   0.14416135 
   64800    299.43659    133.23619    148466.36   -47546.011    4112.0405   -51658.051    0.1378928 
   65000    295.85082    52.015274    148564.17   -47535.461    4062.7985   -51598.259   0.13858909 
   65200    289.59842   -93.959511    148756.35   -47561.266    3976.9369   -51538.203   0.14258618 
   65400    290.80359    5.1186759    148603.56   -47588.092     3993.487   -51581.579   0.14460129 
   65600    290.01122    129.19945    148411.36   -47612.235    3982.6057    -51594.84   0.14472242 
   65800     290.0522    37.137241    148566.11   -47586.726    3983.1686   -51569.894    0.1445784 
   66000     292.8985   -74.986272    148705.24   -47586.026    4022.2555   -51608.281   0.14136736 
   66200    287.34201    6.1945313    148538.64   -47611.075    3945.9506   -51557.026   0.14299979 
   66400    293.26645    117.58825    148412.87   -47606.828    4027.3084   -51634.136   0.14023573 
   66600    292.94091   -19.471098    148614.33   -47620.094    4022.8379   -51642.932   0.14210182 
   66800    289.47138   -103.63381    148683.66   -47600.646    3975.1924   -51575.839    0.1483983 
   67000    286.79806    123.51172    148432.21   -47629.327    3938.4808   -51567.808   0.14238301 
   67200    286.30515    84.334393    148430.24   -47649.743    3931.7118   -51581.454   0.14163355 
   67400    285.83208   -142.94668    148719.85   -47683.995    3925.2153    -51609.21   0.14581821 
   67600    286.52865   -62.682588    148664.92   -47639.067     3934.781   -51573.848   0.14584044 
   67800    288.65231    178.33989    148385.08   -47586.758    3963.9444   -51550.702    0.1463041 
   68000    289.47569    69.827534    148538.99   -47582.778    3975.2515   -51558.029    0.1431627 
   68200    289.75097   -217.66476    148837.15   -47655.744    3979.0318   -51634.775   0.14383444 
   68400     282.0586   -14.818599    148561.14   -47598.298    3873.3957   -51471.693   0.14794414 
   68600    292.98246    261.01876    148217.46   -47584.415    4023.4086   -51607.824   0.14195771 
   68800     285.8466   -59.981516    148635.47   -47552.249    3925.4147   -51477.663    0.1480714 
   69000    294.89064   -296.33074    148961.91   -47595.609    4049.6128   -51645.222   0.14372028 
   69200    291.25171    132.50499    148365.99   -47601.075    3999.6409   -51600.716   0.14567894 
   69400    289.29647    328.87381    148101.17   -47639.972    3972.7904   -51612.763   0.14552089 
   69600    287.92122   -223.48598    148843.52   -47653.694    3953.9046   -51607.599     0.151372 
   69800    292.54296   -299.36903    148978.61   -47618.413    4017.3731   -51635.786    0.1515722 
   70000    287.61534    302.13047    148177.24   -47578.835    3949.7042   -51528.539   0.14952622 
   70200    290.36584     281.9352    148196.64   -47562.846    3987.4756   -51550.322   0.14704905 
   70400    288.12133   -357.94362    149028.02   -47575.915    3956.6526   -51532.568   0.14793311 
   70600    291.54392    -188.0052    148836.16   -47547.999    4003.6537   -51551.653   0.14570596 
   70800    292.63376    412.31475    148027.13   -47572.104    4018.6199   -51590.724   0.14433027 
   71000    287.91535    86.414146    148352.47   -47618.766    3953.8239    -51572.59   0.14765438 
   71200    285.50111   -339.17365     149057.9   -47624.016    3920.6702   -51544.686   0.14620396 
   71400      293.086   -44.434367    148619.88   -47593.615    4024.8304   -51618.446   0.14497787 
   71600    291.95374    351.52768    148062.64   -47570.927    4009.2816   -51580.209   0.14862153 
   71800     291.2844     36.34934    148549.53   -47592.863    4000.0898   -51592.953   0.14729748 
   72000    288.87951   -336.48904    149006.47   -47617.147    3967.0644   -51584.211    0.1486409 
   72200    291.68151     63.88037    148501.91   -47652.764    4005.5431   -51658.307   0.14115638 
   72400     290.7981    277.97478    148201.07   -47634.545    3993.4117   -51627.957   0.13866016 
   72600    291.98274   -96.406261    148704.88   -47602.592    4009.6798   -51612.272   0.14050051 
   72800    287.51308   -263.90649    148866.83   -47678.023    3948.2998   -51626.323   0.14289274 
   73000    289.10965    173.28297    148362.87   -47676.802    3970.2248   -51647.027   0.14181995 
   73200    284.75868    152.61056    148318.33   -47689.439    3910.4748   -51599.914   0.14439051 
   73400    284.69591   -136.66348    148741.76   -47683.317    3909.6128   -51592.929   0.14597317 
   73600    289.47077   -131.12286    148740.96   -47666.174    3975.1839   -51641.358   0.14240193 
   73800    285.05698     131.3377    148359.07   -47660.476    3914.5712   -51575.047   0.14269224 
   74000     288.6844    104.06313    148426.74   -47709.311    3964.3851   -51673.697   0.14107732 
   74200    287.40624   -146.50815    148786.76   -47705.793    3946.8326   -51652.625   0.14308351 
   74400    287.01252    -110.9007    148668.64   -47667.752    3941.4259   -51609.178   0.14461602 
   74600    286.85091    185.71828     148316.7   -47690.482    3939.2064   -51629.689   0.13826445 
   74800    288.65603    95.492905    148448.63   -47701.559    3963.9955   -51665.555   0.13710599 
   75000    287.74124   -143.02335     148753.7    -47664.43     3951.433   -51615.863   0.14278024 
   75200    289.00019   -25.549515    148593.73   -47650.565    3968.7217   -51619.287   0.14027997 
   75400    283.45795    129.18639    148351.45   -47637.608    3892.6123    -51530.22   0.14642238 
   75600    285.36392   -10.365589    148547.75   -47617.619    3918.7863   -51536.405   0.15058772 
   75800    292.53454   -155.12975    148753.03   -47595.006    4017.2575   -51612.263   0.14407168 
   76000    296.66687    25.860142    148522.44    -47581.47    4074.0051   -51655.475   0.14168761 
   76200    291.12312    128.42817    148347.63   -47606.881     3997.875   -51604.756   0.14887838 
   76400    285.48575   -57.428562     148581.2   -47576.881    3920.4593   -51497.341   0.15285989 
   76600    288.84758   -120.94418    148721.07   -47562.171    3966.6259   -51528.797   0.14367103 
   76800    289.33639    80.032264    148463.74    -47561.71    3973.3386   -51535.049   0.14009922 
   77000    290.50155     130.7327    148362.46   -47565.067    3989.3392   -51554.406   0.14440199 
   77200    294.42593   -88.878268    148655.52   -47611.037    4043.2311   -51654.268   0.14230281 
   77400    291.93794   -93.266497     148656.6   -47600.415    4009.0647    -51609.48   0.14431819 
   77600    290.50387    99.668452    148366.04   -47616.286    3989.3711   -51605.657   0.14645097 
   77800    288.57466    55.348983    148433.33     -47628.9     3962.878   -51591.778   0.14736482 
   78000    287.38147   -147.14034    148707.68    -47628.01    3946.4925   -51574.502   0.14607759 
   78200    289.24856   -38.312132    148559.55   -47622.065    3972.1325   -51594.198   0.14350221 
   78400    286.62144    128.06496    148350.46   -47641.798    3936.0553   -51577.853   0.14757022 
   78600    284.87141   -31.004044     148541.5   -47659.857    3912.0228    -51571.88    0.1467067 
   78800    290.71327   -130.33526    148678.31   -47646.172    3992.2467   -51638.419   0.14323323 
   79000    287.28252    41.581154    148460.32   -47628.604    3945.1335   -51573.738   0.14270691 
   79200    287.61598    107.82315    148383.06   -47639.091    3949.7128   -51588.803   0.14488009 
   79400     284.5409   -66.005424     148636.1   -47591.559    3907.4841   -51499.043   0.14612941 
   79600     289.1182   -132.15168     148668.5   -47582.357    3970.3423     -51552.7   0.14784915 
   79800     291.8683    79.419806    148419.73   -47608.459    4008.1082   -51616.568   0.14687961 
   80000    292.13272    64.112207    148446.64   -47581.431    4011.7394    -51593.17   0.14926689 
   80200    292.19608   -101.40462    148730.04   -47546.265    4012.6095   -51558.874   0.14574969 
   80400    289.62894   -118.15047    148661.36   -47515.202    3977.3561   -51492.558   0.14612894 
   80600    293.39733    154.45414    148377.56   -47536.117    4029.1058   -51565.223   0.14558685 
   80800    291.33351    10.985621     148525.4   -47480.737    4000.7642   -51481.502   0.15185948 
   81000    293.21655   -157.79797    148814.56   -47533.087    4026.6232    -51559.71   0.14098677 
   81200    295.95866   -4.6655638    148614.48   -47512.001    4064.2795   -51576.281   0.14201602 
   81400    288.87279    193.82923    148332.94   -47488.537    3966.9721   -51455.509   0.15211779 
   81600    289.43583    14.890575    148601.49   -47510.224    3974.7042   -51484.928   0.14910636 
   81800    292.84509   -207.49542    148879.92   -47514.573    4021.5221   -51536.095   0.14647623 
   82000    291.19737    55.041647    148528.88   -47480.539    3998.8947   -51479.434   0.14988849 
   82200    292.69211    228.98624    148318.53   -47526.405    4019.4213   -51545.826    0.1480422 
   82400    293.74154    -56.09848    148728.85   -47529.571    4033.8327   -51563.404   0.14428386 
   82600    290.43027   -230.04419    148876.82   -47573.081    3988.3604   -51561.442   0.14419994 
   82800    286.45103    115.01363    148429.72   -47612.964    3933.7151    -51546.68   0.14929019 
   83000    288.95899    221.11015     148377.4   -47597.208    3968.1559   -51565.364    0.1405853 
   83200    292.85573   -190.40281    148864.42   -47618.509    4021.6683   -51640.177   0.13935939 
   83400     290.8524   -176.61435    148790.94   -47638.243    3994.1573     -51632.4   0.14283813 
   83600    291.54139    280.53493    148254.67   -47653.389     4003.619   -51657.008   0.14071684 
   83800    293.57405     118.4915    148420.71   -47605.236    4031.5326   -51636.769    0.1436827 
   84000    285.12436   -276.11436    148935.52   -47633.786    3915.4965   -51549.282   0.14489463 
   84200    284.51363   -78.469836    148651.62   -47621.322    3907.1096   -51528.432     0.147242 
   84400    288.15787    287.26917    148193.65   -47625.749    3957.1544   -51582.904   0.14576056 
   84600    292.35726  -0.39648528    148567.24    -47623.68    4014.8229   -51638.503     0.143481 
   84800    288.44362   -284.28317    148946.94   -47632.208    3961.0785   -51593.286   0.14666869 
   85000    286.00778    51.505355     148504.8   -47594.548    3927.6282   -51522.176   0.14856499 
   85200    292.84784    275.17388    148229.98   -47564.794    4021.5599   -51586.354   0.14743712 
   85400    290.59121   -128.19961     148721.2   -47551.995    3990.5706   -51542.566   0.14485234 
   85600    294.85946    -240.0431    148879.79   -47548.907    4049.1846   -51598.091   0.14329497 
   85800    290.06617    202.16384    148312.98   -47562.326    3983.3603   -51545.686   0.15120928 
   86000    291.25568    221.32886    148272.86   -47516.874    3999.6954   -51516.569   0.15344747 
   86200    292.18762    -238.0633    148908.01   -47527.882    4012.4934   -51540.376   0.14566944 
   86400    294.72304   -210.22007    148833.93   -47521.297    4047.3112   -51568.608   0.14939198 
   86600    292.77463    306.27172    148147.19   -47519.396    4020.5546   -51539.951   0.15229763 
   86800    291.38224    126.45147    148357.49   -47551.556    4001.4334    -51552.99   0.15095779 
   87000    291.74228   -373.39044    149042.73   -47570.723    4006.3777     -51577.1   0.15013577 
   87200    291.64511   -17.383535    148668.12   -47541.185    4005.0432   -51546.228   0.14991731 
   87400    289.25089    415.50851    148073.84   -47502.989    3972.1645   -51475.154    0.1497018 
   87600    288.70714   -14.412996    148603.38   -47572.852    3964.6973    -51537.55   0.14162284 
   87800    289.62327   -357.41149    149096.71   -47577.189    3977.2782   -51554.467   0.14626174 
   88000    290.31875    62.031613    148436.71   -47528.639     3986.829   -51515.468    0.1551626 
   88200    288.51704    373.42912    148073.43   -47540.743    3962.0868    -51502.83   0.15158113 
   88400    291.97824   -175.49727    148812.28   -47529.264     4009.618   -51538.882   0.15163672 
   88600    295.97179   -352.15572    149023.88   -47541.469    4064.4598   -51605.929    0.1541007 
   88800    292.78619    220.27174    148236.88   -47531.967    4020.7132   -51552.681   0.15814826 
   89000    287.04047     268.0164    148167.86   -47553.395    3941.8096   -51495.204   0.15111184 
   89200     291.3896   -246.10677    148903.78   -47527.547    4001.5344   -51529.081   0.15137462 
   89400    289.69491   -199.21102     148870.3   -47498.307     3978.262   -51476.569   0.15183689 
   89600    296.68785    266.17593    148233.36   -47521.547    4074.2932   -51595.841   0.14871705 
   89800    295.18036    169.33013    148349.76   -47557.157    4053.5914   -51610.748   0.14755629 
   90000     286.8783   -208.01337    148864.94   -47572.901    3939.5826   -51512.484   0.15167875 
   90200    292.59492   -88.612831    148703.71   -47618.415    4018.0866   -51636.502    0.1490819 
   90400    289.78104    210.67223    148273.05   -47639.253    3979.4447   -51618.698   0.15077199 
   90600    288.99179    66.507514    148441.71   -47631.361    3968.6064   -51599.968   0.14898722 
   90800    284.83727   -206.89683    148780.38   -47654.434    3911.5539   -51565.988   0.15188611 
   91000    289.13636    14.391604    148558.68   -47655.536    3970.5916   -51626.128   0.14480002 
   91200    287.32114    185.20961    148323.39   -47669.593    3945.6639   -51615.257    0.1389408 
   91400    289.62626    7.3244451    148578.68    -47660.33    3977.3193    -51637.65   0.14148865 
   91600    284.63244   -180.24439     148738.3   -47663.936    3908.7412   -51572.677   0.14957656 
   91800    290.58046    62.455223    148465.49   -47640.664    3990.4228   -51631.087   0.14448569 
   92000    286.78458    141.96738     148371.6   -47655.621    3938.2956   -51593.916   0.14445688 
   92200    291.48794   -70.819937    148616.49   -47678.153     4002.885   -51681.038   0.15026023 
   92400    285.09498   -86.753994    148656.25   -47655.811    3915.0931   -51570.904   0.15676241 
   92600    287.07056    86.711106    148407.48   -47712.852    3942.2229   -51655.075   0.15253312 
   92800    284.53188    81.977353     148392.7   -47682.109    3907.3603   -51589.469   0.14972346 
   93000    289.55843   -97.350015    148636.76   -47610.167    3976.3877   -51586.554   0.15045693 
   93200    292.64393   -41.129168    148636.97    -47608.34    4018.7597   -51627.099   0.14660322 
   93400    287.40315     66.93217    148453.13   -47610.514    3946.7902   -51557.304    0.1490414 
   93600     291.6502    71.857632    148517.95   -47593.988    4005.1132   -51599.101    0.1480582 
   93800      289.477    -118.0953    148718.21   -47583.989    3975.2695   -51559.259   0.15342972 
   94000    294.09899   -47.004467    148649.12   -47584.344    4038.7415   -51623.086   0.15102655 
   94200    283.68522    81.328311    148413.84   -47665.283    3895.7334   -51561.017    0.1509543 
   94400      291.487    34.852132    148478.44   -47651.118     4002.872    -51653.99   0.15183467 
   94600     291.2231   -110.19854    148708.87   -47648.076     3999.248   -51647.324   0.15196412 
   94800    288.19079    -40.91161    148590.32   -47699.937    3957.6064   -51657.543   0.14704695 
   95000    290.13727    156.89938     148332.7   -47705.508    3984.3368   -51689.845   0.14101858 
   95200    282.27595     38.34955    148474.61   -47712.407    3876.3804   -51588.787   0.14682794 
   95400    281.81561   -142.65058    148728.91   -47724.273    3870.0588   -51594.331   0.14494374 
   95600    292.43446     18.32194    148516.95   -47687.604    4015.8831   -51703.487   0.14218411 
   95800    283.80307    204.58838    148271.83   -47649.632    3897.3518   -51546.984   0.14768096 
   96000    288.19116    -67.47133    148604.06   -47643.261    3957.6115   -51600.873   0.15404779 
   96200    284.74098   -273.24934    148816.52   -47684.264    3910.2316   -51594.496   0.15792467 
   96400    286.64437    113.77145    148341.09   -47678.111    3936.3702   -51614.481   0.15329818 
   96600    289.95591    251.97621    148223.78   -47690.786    3981.8461   -51672.632   0.14843604 
   96800    284.89151   -249.71857    148843.25   -47742.728    3912.2989   -51655.027    0.1478763 
   97000     285.6057   -256.00114     148818.3   -47725.592    3922.1065   -51647.698   0.14803992 
   97200    284.95739    372.53101    148066.26   -47710.893    3913.2036   -51624.096   0.14693597 
   97400    287.39213    216.55178    148290.44   -47668.902    3946.6388   -51615.541   0.14539465 
   97600    291.85476   -462.83666     149169.5   -47639.656    4007.9223   -51647.578   0.14658605 
   97800    288.94321   -83.221286    148732.67   -47635.018    3967.9391   -51602.957   0.14471681 
   98000    288.14179    530.25074    147900.64   -47604.152    3956.9336   -51561.086   0.15275325 
   98200    294.51077    4.9782098    148581.27   -47619.872    4044.3962   -51664.268   0.15111227 
   98400    289.86525   -532.76277    149315.91   -47544.689    3980.6012    -51525.29   0.15199772 
   98600    291.88887    84.762411    148514.26   -47593.637    4008.3908   -51602.028   0.14595416 
   98800    294.20448    522.37801    147968.65    -47555.53    4040.1901    -51595.72   0.14387824 
   99000     292.1366   -127.76815    148816.96   -47560.595    4011.7927   -51572.388   0.14793494 
   99200    284.84548   -419.58821    149149.52   -47621.422    3911.6667   -51533.089    0.1493294 
   99400    287.73029    204.26117    148301.86   -47714.788    3951.2826   -51666.071   0.14367879 
   99600    283.49778    360.86129    148112.02   -47738.261    3893.1594    -51631.42   0.14265807 
   99800    287.39082   -227.26384    148878.91   -47710.786    3946.6209   -51657.407   0.14156109 
  100000    289.87644   -248.24663    148927.43   -47709.997    3980.7548   -51690.751   0.13914371 
  100200    291.09931    237.26851    148253.43   -47669.045     3997.548   -51666.593   0.14337579 
  100400    283.39153    216.30934    148347.05   -47667.175    3891.7003   -51558.875   0.14327567 
  100600    288.07836   -292.23744    148944.92   -47617.939    3956.0626   -51574.001   0.15360516 
  100800    290.76546     -129.652    148751.71   -47647.488    3992.9635   -51640.451    0.1431575 
  101000    290.83722    256.09219    148216.08   -47630.131    3993.9488    -51624.08   0.14809137 
  101200    287.87685    118.65182    148483.87   -47610.661    3953.2953   -51563.956   0.14869428 
  101400    282.45124   -284.95313    148945.65   -47615.712    3878.7877   -51494.499   0.14704661 
  101600     289.7475   -20.079758    148601.27   -47633.218    3978.9842   -51612.202   0.14443068 
  101800    289.92962    298.04253    148224.87   -47600.021    3981.4851   -51581.506   0.14242165 
  102000    285.52115   -71.012287    148658.45   -47602.626    3920.9454   -51523.571   0.14795094 
  102200    290.54245    -290.9784     148920.5   -47594.213    3989.9009   -51584.114   0.14682766 
  102400    289.63544    122.86485    148471.36   -47537.218    3977.4452   -51514.664    0.1447877 
  102600    294.51232    228.32761    148306.84   -47550.021    4044.4175   -51594.438   0.14744623 
  102800    287.91992   -136.55557    148727.53   -47561.427    3953.8867   -51515.314   0.15194085 
  103000    290.02979    -163.3231    148795.49   -47555.343    3982.8608   -51538.204   0.14985127 
  103200     294.4586    104.81295    148390.37   -47535.712    4043.6797   -51579.391   0.15070397 
  103400    291.22052    123.97492    148382.18   -47565.316    3999.2125   -51564.529   0.14942634 
  103600    293.07517   -168.02838    148767.35   -47568.384    4024.6816   -51593.065   0.14802291 
  103800    292.90071   -82.523793    148665.04   -47571.651    4022.2859   -51593.937   0.14628402 
  104000    292.92373    189.28809    148284.53   -47579.294    4022.6021   -51601.896   0.14704467 
  104200    292.07762    63.718692    148469.34     -47593.6    4010.9828   -51604.583   0.14521866 
  104400    284.14047   -210.14466    148802.32   -47609.792    3901.9851   -51511.777   0.14901575 
  104600    291.70315    30.151773    148564.93   -47605.363    4005.8403   -51611.203   0.14187739 
  104800    292.11276     200.7051    148279.16   -47596.215    4011.4654   -51607.681   0.15272305 
  105000    283.83303    -18.65683    148555.53   -47625.402    3897.7631   -51523.165   0.15709787 
  105200    286.56253   -169.26913    148813.24   -47625.797    3935.2463   -51561.043   0.14793275 
  105400    289.07782    7.7637959    148514.64   -47618.197    3969.7877   -51587.985   0.14755448 
  105600    293.02889    168.17979    148322.84   -47616.953    4024.0462   -51640.999   0.14501263 
  105800    290.21351   -73.624819    148617.02   -47633.199    3985.3837   -51618.583   0.14584306 
  106000    288.54725   -136.42885    148724.54   -47613.147    3962.5016   -51575.648   0.14713992 
  106200    287.62246    90.950156    148478.99   -47590.011    3949.8018   -51539.812    0.1475347 
  106400    291.93536    91.924151    148471.48   -47602.863    4009.0291   -51611.892   0.14720849 
  106600    289.65837   -59.649748    148707.01   -47603.618    3977.7602   -51581.378   0.14165645 
  106800    287.96057   -71.763513    148685.99    -47597.52     3954.445   -51551.965   0.14898901 
  107000    292.99589    98.818941    148477.11   -47555.212    4023.5929   -51578.805    0.1503376 
  107200    293.98936      28.6703    148575.31   -47544.523    4037.2359   -51581.759   0.14817264 
  107400    285.84438   -126.53771    148757.02   -47550.397    3925.3842   -51475.781    0.1494897 
  107600    291.38263    3.9951864    148621.33    -47528.48    4001.4387   -51529.919   0.14533959 
  107800     293.1597    48.911511    148502.57   -47551.164    4025.8426   -51577.006   0.14720056 
  108000    294.18778   -9.9074113    148637.73   -47527.895    4039.9608   -51567.856   0.14469299 
  108200    291.42262   -42.726165    148733.65   -47561.932    4001.9879    -51563.92   0.14330332 
  108400    288.56555    35.413797    148580.84   -47558.352    3962.7529   -51521.105   0.14911045 
  108600    296.40771    94.646176    148485.82   -47531.289    4070.4461   -51601.735   0.14617473 
  108800    294.30512   -39.456173     148636.2   -47553.292    4041.5721   -51594.864   0.14886742 
  109000    291.34838   -103.25371    148671.84   -47590.817    4000.9684   -51591.786   0.14896343 
  109200    292.36472    61.534007    148463.91   -47592.379    4014.9254   -51607.305   0.15048182 
  109400    288.89975    62.110351    148452.53   -47576.924    3967.3424   -51544.267   0.15205182 
  109600    291.75281   -106.63115    148692.58   -47537.414    4006.5223   -51543.936   0.14694208 
  109800    288.84553   -76.413286    148649.12   -47588.263    3966.5978    -51554.86   0.14779694 
  110000    288.81166    162.27153    148346.12   -47526.026    3966.1326   -51492.158   0.14800272 
  110200    297.19145    75.356734    148492.57   -47514.462    4081.2089   -51595.671   0.14377715 
  110400    289.55659   -227.32244    148806.48     -47564.9    3976.3624   -51541.262   0.15153044 
  110600    285.44762   -15.747444    148504.59   -47635.275    3919.9357    -51555.21    0.1523761 
  110800    285.61563    256.39413    148135.23   -47631.494    3922.2429   -51553.737   0.15641128 
  111000     290.0721   -56.937246    148588.27   -47634.947    3983.4417   -51618.389   0.14778296 
  111200    286.12304   -277.22475    148940.76   -47620.597     3929.211   -51549.808   0.14679968 
  111400     287.7575     128.2021    148370.18   -47675.391    3951.6564   -51627.047   0.14840174 
  111600    287.33681    293.95481    148083.06   -47728.683    3945.8792   -51674.562   0.14916246 
  111800    284.48948   -179.21553    148708.92   -47760.204    3906.7779   -51666.982   0.14514514 
  112000    284.70885   -249.84263    148861.46   -47750.116    3909.7904   -51659.907   0.14050523 
  112200    285.24897    220.15216     148194.3   -47709.367    3917.2076   -51626.575   0.14701482 
  112400    286.44425    210.98768    148202.26   -47678.681     3933.622   -51612.303   0.14520858 
  112600       288.55   -255.51961    148884.57   -47653.337    3962.5394   -51615.876   0.14841171 
  112800    288.34138   -153.62878    148728.13   -47668.021    3959.6745   -51627.696   0.15026315 
  113000    284.96093    323.45595    148077.48   -47645.946    3913.2522   -51559.198   0.15101322 
  113200    286.03061    99.942419     148378.9   -47682.816    3927.9416   -51610.757   0.14540123 
  113400    282.67652   -324.12616    148942.08   -47661.437    3881.8812   -51543.318   0.15114828 
  113600    290.79001    26.995356    148537.83   -47666.326    3993.3005   -51659.627   0.14831238 
  113800    287.14026    315.98416    148086.78   -47648.182      3943.18   -51591.362   0.15340446 
  114000    289.44813   -27.327841    148579.89   -47635.454    3974.8731   -51610.327   0.14747961 
  114200    291.00743   -288.79702    148942.49   -47646.612    3996.2863   -51642.898   0.14182908 
  114400    293.18459    76.945443    148433.96   -47588.458    4026.1843   -51614.643   0.14702662 
  114600    292.74228    291.40773    148198.34   -47561.412    4020.1103   -51581.522   0.14770903 
  114800    293.35852   -162.00677    148739.51   -47548.712    4028.5728   -51577.285   0.15293317 
  115000    288.78265    -248.1209    148874.78   -47576.701    3965.7343   -51542.435   0.15168198 
  115200    289.76505    188.15068    148326.62   -47592.339    3979.2251   -51571.564   0.14848581 
  115400    291.29476    202.76939    148280.13   -47605.385     4000.232   -51605.617   0.14691679 
  115600    291.15106   -109.66643    148739.77   -47587.524    3998.2587   -51585.783    0.1491296 
  115800    291.59328   -120.07897    148724.81   -47602.646    4004.3315   -51606.977   0.15087771 
  116000    293.10715     179.9369    148342.63   -47587.881    4025.1208   -51613.002   0.14660329 
  116200    290.60992     135.9523    148437.51   -47607.383    3990.8275   -51598.211   0.14307803 
  116400    287.63748   -143.16685    148773.22    -47647.12    3950.0082   -51597.129   0.14787157 
  116600     285.5624   -44.171816    148607.35   -47658.427     3921.512   -51579.939   0.14753617 
  116800    293.92449    184.61311    148336.12   -47615.659    4036.3451   -51652.004   0.14354982 
  117000    290.73031    1.6483089       148524    -47623.11    3992.4806   -51615.591   0.14835579 
  117200    288.87196   -144.85472    148736.76   -47612.486    3966.9607   -51579.447   0.15769806 
  117400    290.55561   -4.3647311    148527.48   -47639.142    3990.0816   -51629.224   0.15429415 
  117600    288.82189    133.04631    148347.05    -47618.49    3966.2731   -51584.763   0.15047758 
  117800    291.45015    -4.546737    148558.58   -47579.977    4002.3659   -51582.343   0.14888946 
  118000    287.00377   -142.59921    148729.91   -47570.888    3941.3056   -51512.193   0.15592829 
  118200    291.84745    34.402218    148517.63   -47605.204     4007.822   -51613.026   0.14710406 
  118400    286.59186    113.57726    148394.26    -47655.65    3935.6491   -51591.299   0.14588764 
  118600    289.22887   -40.075358    148583.75     -47683.1     3971.862   -51654.962   0.14758619 
  118800    284.02608   -99.361181    148642.87   -47732.285    3900.4142   -51632.699   0.14522749 
  119000    286.00292     98.73656    148443.19   -47731.434    3927.5614   -51658.996   0.14249281 
  119200     286.6987    58.520505    148423.34   -47733.286    3937.1163   -51670.402   0.14901406 
  119400    286.64747   -40.774969    148601.19   -47758.445    3936.4127   -51694.857   0.14630023 
  119600     285.9816   -36.177393    148567.93    -47698.21    3927.2687   -51625.478   0.15074275 
  119800    293.17991     100.8829    148420.56   -47696.022    4026.1201   -51722.143   0.14367953 
  120000    286.11948   -24.554931    148504.51   -47714.234    3929.1621   -51643.396   0.14882569 
  120200     291.2203   -69.864178    148629.23   -47687.908    3999.2095   -51687.118   0.14772555 
  120400    282.62325   -7.0023288     148528.8   -47732.496    3881.1497   -51613.645   0.14559091 
  120600    289.27713    90.330114    148412.13   -47726.579    3972.5248   -51699.104   0.14271013 
  120800    288.56942   -30.038422    148540.71   -47718.069    3962.8061   -51680.875   0.14349949 
  121000    289.56101   -45.838363    148650.91   -47702.206    3976.4232   -51678.629   0.14072109 
  121200    288.23238    40.591771    148496.29   -47701.033    3958.1777   -51659.211   0.14953259 
  121400    284.85035    67.050809    148395.87   -47699.764    3911.7336   -51611.498   0.15220077 
  121600    283.74943   -15.235683    148564.09   -47689.987    3896.6152   -51586.602   0.15027889 
  121800    286.82692   -114.31365    148654.01   -47687.641     3938.877   -51626.518   0.14836415 
  122000    289.15914    47.358788    148452.48   -47665.915    3970.9044   -51636.819   0.14990137 
  122200    291.15218    57.957559    148415.75   -47633.999    3998.2741   -51632.273   0.14996333 
  122400    293.79351   -45.995321    148625.84   -47587.668    4034.5464   -51622.214   0.14675855 
  122600    295.78395   -64.486827    148637.77   -47509.328    4061.8802   -51571.208   0.14965076 
  122800    291.86937    53.608564    148460.18   -47509.729    4008.1229   -51517.852   0.14994143 
  123000    290.50099    74.112563    148507.35   -47556.137    3989.3316   -51545.468   0.14989919 
  123200    289.86746   -121.13472    148681.55   -47579.873    3980.6315   -51560.505   0.15548178 
  123400    290.76935   -5.3292941    148548.06    -47662.63    3993.0168   -51655.647   0.14809453 
  123600     287.4584    133.34994    148335.23   -47609.817    3947.5489   -51557.366   0.15117177 
  123800    284.85835   -28.145465    148521.98   -47631.727    3911.8435   -51543.571   0.15209657 
  124000    289.47556   -166.95174    148725.47   -47614.744    3975.2497   -51589.994   0.15165541 
  124200    293.05854    53.319734    148470.74   -47598.393    4024.4533   -51622.846   0.14777411 
  124400    293.02108    152.94439    148325.04   -47612.944    4023.9389   -51636.883   0.14579285 
  124600    291.62045   -52.379566    148637.84   -47630.517    4004.7047   -51635.221   0.14547966 
  124800     286.0232   -167.15448    148764.95   -47634.019    3927.8398   -51561.859   0.15032393 
  125000    288.82888    115.28875    148412.04   -47642.948    3966.3692   -51609.317   0.14771648 
  125200    286.05566     135.9192    148364.19   -47633.701    3928.2856   -51561.987   0.15421498 
  125400    288.29323   -169.41872    148748.13   -47702.234    3959.0133   -51661.247   0.15513575 
  125600    288.58836   -83.420568    148673.03   -47695.582    3963.0661   -51658.648   0.14571424 
  125800    284.31441    174.28758    148275.77   -47685.796    3904.3738    -51590.17     0.146929 
  126000    289.57679    131.77676    148419.78    -47655.45    3976.6398   -51632.089   0.14268165 
  126200    285.61092   -222.28644    148858.92    -47634.34    3922.1782   -51556.518    0.1491662 
  126400    287.61691    -22.65211    148623.92   -47663.459    3949.7257   -51613.185   0.13980978 
  126600    290.42541    258.70281    148219.13   -47689.338    3988.2936   -51677.631   0.14284384 
  126800    290.06836    29.438925    148571.74   -47662.113    3983.3905   -51645.503   0.14543217 
  127000    290.29713   -298.81893    148929.28   -47678.076     3986.532   -51664.608   0.14727885 
  127200    288.94253    77.053252    148450.43    -47712.09    3967.9299    -51680.02   0.13769187 
  127400    285.63661    280.55383    148158.02   -47710.321     3922.531   -51632.852    0.1470836 
  127600    287.35707   -125.72358    148679.51   -47706.263    3946.1574    -51652.42   0.14868003 
  127800    284.51811   -262.03899     148880.2   -47693.624    3907.1711   -51600.795   0.14637487 
  128000    286.62424    180.96731     148306.5   -47691.255    3936.0937   -51627.349   0.14441742 
  128200    291.63728    251.55624    148177.41   -47657.561    4004.9358   -51662.497   0.14648537 
  128400    284.39703   -145.25079    148731.54   -47683.182    3905.5083   -51588.691   0.14646703 
  128600    282.33472   -233.23936    148773.82    -47713.35    3877.1875   -51590.538   0.14880735 
  128800    291.14553    237.25488    148218.83   -47750.603    3998.1827   -51748.786   0.14911359 
  129000    288.88071    158.95722     148285.1   -47784.022    3967.0808   -51751.103   0.14683072 
  129200    282.12872   -248.13882    148816.21   -47740.436    3874.3586   -51614.795   0.14759534 
  129400    283.46022   -111.34529    148663.05   -47739.357    3892.6436   -51632.001   0.14436678 
  129600    284.71021     295.1743     148150.6   -47739.015    3909.8091   -51648.824   0.14689943 
  129800    284.09817    95.549091    148379.04   -47751.996    3901.4042     -51653.4   0.15096716 
  130000    286.09352   -271.42607    148883.56   -47762.415    3928.8055   -51691.221   0.14553164 
  130200    284.66082   -60.908795     148580.8   -47780.227    3909.1308   -51689.358   0.14542669 
  130400    289.24188    314.61324    148141.97   -47764.956    3972.0406   -51736.996   0.14371706 
  130600    285.34047   -4.4877151    148515.66    -47722.54    3918.4643   -51641.004   0.14652983 
  130800    283.55444   -287.56944    148898.15   -47742.681    3893.9375   -51636.619   0.14879465 
  131000    283.46016    21.634401    148471.99   -47762.304    3892.6427   -51654.947   0.14551945 
  131200    286.04151     311.8064    148148.09    -47735.42    3928.0913   -51663.512   0.14220975 
  131400    284.44675   -96.607631    148604.24   -47738.811    3906.1912   -51645.002   0.14375354 
  131600    285.66442   -228.48954     148839.6   -47730.445     3922.913   -51653.358   0.14290894 
  131800    284.17991    103.58019    148366.69   -47702.643    3902.5268    -51605.17   0.14986028 
  132000    285.26934    169.59228    148246.97   -47647.792    3917.4874   -51565.279    0.1571641 
  132200    285.08597   -141.23026    148723.05   -47655.358    3914.9693   -51570.327   0.15172455 
  132400    288.54063   -173.16305    148719.95   -47657.199    3962.4108    -51619.61   0.15151247 
  132600    290.58433    199.60505    148240.39   -47632.656     3990.476   -51623.132   0.14943185 
  132800    290.31853    121.69521    148366.57   -47603.565    3986.8259   -51590.391   0.15061202 
  133000    291.83223   -196.88413    148825.91   -47597.607    4007.6129    -51605.22    0.1477169 
  133200    293.40361   -66.706374    148661.41   -47546.353     4029.192   -51575.545   0.14930039 
  133400    289.63592     176.7808    148268.68   -47532.485    3977.4519   -51509.937   0.15685897 
  133600    291.37225    53.686463    148479.08   -47546.148    4001.2962   -51547.444   0.15173526 
  133800    297.66584    -158.3533    148829.14   -47565.218    4087.7235   -51652.941   0.14450184 
  134000    291.97482    -30.37982    148578.01   -47515.192     4009.571   -51524.763   0.15538803 
  134200    289.76085    155.18646     148312.8   -47529.649    3979.1675   -51508.817   0.16140819 
  134400    293.95018    -3.660162    148603.99   -47529.612    4036.6979    -51566.31   0.15393131 
  134600      292.561   -175.44593    148773.42   -47544.204    4017.6209   -51561.825   0.15015181 
  134800    291.65205    95.026297    148469.25   -47585.505    4005.1386   -51590.644   0.14292625 
  135000    292.46405     135.9499    148373.04   -47642.447    4016.2895   -51658.736   0.14064198 
  135200    286.55935   -100.97885    148616.02   -47652.803    3935.2026   -51588.006   0.14806346 
  135400    279.56706   -122.69241    148697.52   -47672.179    3839.1803   -51511.359   0.15244204 
  135600    284.33893    54.918396    148501.57   -47636.495    3904.7104   -51541.205   0.14904971 
  135800    286.15643    57.641284    148475.97   -47709.064    3929.6695   -51638.734   0.14364567 
  136000    289.15182   -42.710984    148598.68   -47740.682    3970.8039   -51711.486   0.14109138 
  136200    287.93194   -64.170185    148581.42   -47751.603    3954.0518   -51705.655   0.14781575 
  136400    283.38481     13.04362    148465.35    -47704.48     3891.608   -51596.088    0.1526681 
  136600    288.62444    39.159292    148509.29   -47648.555    3963.5616   -51612.116   0.14836229 
  136800    288.93655   -71.341195     148616.6   -47658.838    3967.8478   -51626.686   0.14445684 
  137000    290.25649    4.9661173    148555.18   -47663.668     3985.974   -51649.642   0.14056022 
  137200    282.78277    62.680204    148476.08   -47694.835    3883.3404   -51578.175   0.14423123 
  137400    285.61809   -17.720852    148554.99    -47653.13    3922.2766   -51575.407   0.14954439 
  137600     289.5498   -48.745391    148633.34   -47646.191    3976.2692    -51622.46   0.14828183 
  137800    288.52871   -1.9071629    148574.19   -47619.666     3962.247   -51581.913   0.14954946 
  138000    289.72288    60.764108    148523.91   -47618.458    3978.6461   -51597.104     0.148071 
  138200    287.31193   -8.0987727    148606.87   -47669.215    3945.5374   -51614.752   0.14425003 
  138400    292.01342   -46.164425    148657.95   -47654.001    4010.1011   -51664.103   0.14257908 
  138600    288.54462    33.005086    148530.94   -47668.279    3962.4656   -51630.744   0.14791504 
  138800    290.79008    77.687409     148493.9   -47619.351    3993.3015   -51612.652   0.14426132 
  139000    291.34578   -71.064413    148664.92   -47607.517    4000.9328    -51608.45     0.142298 
  139200    287.95741   -80.225767    148657.29   -47607.704    3954.4016   -51562.105   0.14607903 
  139400    292.84955    80.072265     148446.3   -47635.456    4021.5834   -51657.039   0.14687643 
  139600    294.16556    80.844307    148445.96   -47617.515    4039.6556   -51657.171   0.14874543 
  139800    290.18172   -80.901803    148685.19   -47577.522    3984.9472   -51562.469   0.15105394 
  140000    287.98502    -100.1303    148673.27   -47544.465    3954.7808   -51499.246   0.15983908 
  140200    286.84141    101.00663    148396.09   -47587.105     3939.076   -51526.181   0.15119172 
  140400     292.1681    141.98419    148429.02   -47612.897    4012.2253   -51625.122   0.14043556 
  140600    288.46334   -135.78666    148727.42   -47611.717    3961.3494   -51573.066   0.14963864 
  140800    288.35678   -84.461163    148668.36   -47604.533    3959.8859   -51564.418   0.15174625 
  141000    291.60891    149.25006    148357.85   -47642.065    4004.5462   -51646.611   0.14776668 
  141200    292.38395    95.955994    148455.85   -47593.169    4015.1894   -51608.359    0.1464787 
  141400    289.09563   -174.69947    148765.24   -47597.216    3970.0323   -51567.248   0.15046024 
  141600    288.79992    -82.93652       148578   -47580.276    3965.9715   -51546.247    0.1540718 
  141800    290.45359    214.86714    148235.08   -47632.926    3988.6806   -51621.607   0.14823761 
  142000    282.96066   -8.1540957    148469.25   -47647.957    3885.7832    -51533.74   0.15294746 
  142200    290.54538    -211.4129    148789.57   -47643.534    3989.9412   -51633.476   0.15046709 
  142400    288.64672    46.682989    148462.11   -47646.633    3963.8676     -51610.5   0.14388424 
  142600    290.73905    263.08265    148147.52   -47637.105    3992.6007   -51629.706   0.14377408 
  142800    286.00634   -55.665834    148562.34    -47641.36    3927.6084   -51568.968   0.15000723 
  143000    286.70032   -267.62674    148818.66   -47701.601    3937.1385    -51638.74   0.15413564 
  143200    291.66636    167.59891    148311.24   -47669.854    4005.3351   -51675.189   0.15014542 
  143400    286.49832    258.44746    148166.73   -47634.462    3934.3645   -51568.826   0.14529429 
  143600    290.94625   -190.82975    148779.12   -47624.493    3995.4462   -51619.939   0.14715917 
  143800     293.2604   -294.56015     148813.5   -47636.285    4027.2254    -51663.51   0.15189215 
  144000    289.70889    318.23313    148171.35   -47622.643     3978.454   -51601.097   0.14869593 
  144200    289.58056    173.60725    148285.02   -47598.369    3976.6917   -51575.061   0.15226982 
  144400    287.92822   -316.64438     148921.1   -47599.521    3954.0007   -51553.522   0.15363682 
  144600    297.55731   -98.290636    148712.02     -47574.8    4086.2331   -51661.033   0.14322171 
  144800    287.25714    293.81381    148150.14   -47543.485     3944.785    -51488.27    0.1490015 
  145000    290.74421    73.659448    148447.43   -47589.294    3992.6716   -51581.965    0.1527977 
  145200    285.62311   -327.55287    148916.07   -47617.747    3922.3456   -51540.093   0.15938724 
  145400    288.56142    23.810331     148499.4   -47623.018    3962.6962   -51585.714   0.15190254 
  145600    291.74513    279.56944       148127   -47641.417    4006.4168   -51647.834   0.14341041 
  145800    286.76855    -55.41525    148589.46   -47657.066    3938.0755   -51595.141   0.14537119 
  146000    287.76649   -256.30541    148825.47   -47644.101    3951.7797   -51595.881    0.1524656 
  146200     288.9929    112.27333    148332.05   -47675.218    3968.6216   -51643.839   0.14657857 
  146400    289.01061    232.60821    148180.05   -47627.896    3968.8648    -51596.76   0.15208728 
  146600    290.24245   -179.38248    148702.63   -47592.219     3985.781       -51578   0.15126282 
  146800     292.9808   -201.62975    148793.19   -47547.823    4023.3858   -51571.209   0.14713255 
  147000     291.5344    181.56485    148329.31   -47560.876     4003.523   -51564.399   0.14864368 
  147200    292.57872    167.50831    148356.91    -47529.71    4017.8642   -51547.575   0.15370566 
  147400     285.2239   -261.47424       148803   -47594.659    3916.8634   -51511.523   0.15752442 
  147600    292.03859   -65.941565    148631.46   -47607.033    4010.4468    -51617.48   0.14750457 
  147800    288.45258    261.45887    148207.48   -47647.496    3961.2015   -51608.698   0.14325827 
  148000    283.82755    35.482947    148450.68   -47613.291    3897.6879   -51510.979   0.15118834 
  148200    285.65785   -208.72776    148811.04   -47654.218    3922.8226    -51577.04    0.1471485 
  148400    286.17251    -30.28914    148525.69   -47703.659    3929.8903   -51633.549   0.14835856 
  148600    283.66835    150.45669    148236.31   -47673.084    3895.5017   -51568.585   0.15754132 
  148800     283.4541   -51.465182    148521.66   -47676.987    3892.5595   -51569.546   0.15479722 
  149000    287.23042   -132.46186    148714.66   -47682.669    3944.4181   -51627.087   0.14693469 
  149200    290.83049    102.70307    148421.13   -47688.149    3993.8565   -51682.006   0.14417969 
  149400    286.88183    196.36067    148305.29   -47710.288    3939.6311   -51649.919   0.14612013 
  149600    283.27965   -85.084254    148611.84   -47710.751    3890.1639   -51600.915   0.15258706 
  149800    284.75777   -132.00638    148668.55   -47697.129    3910.4622   -51607.591   0.14350231 
  150000    288.76698    124.55907    148359.69   -47655.856    3965.5191   -51621.375   0.14178307 
  150200    287.83526    100.21562     148391.4   -47602.838    3952.7242   -51555.562   0.14819509 
  150400    290.47768    -105.1952    148716.81   -47573.767    3989.0115   -51562.779   0.14768403 
  150600    287.95801   -88.527267    148658.92       -47625    3954.4099    -51579.41   0.14920908 
  150800    289.13207    83.626632    148373.41   -47588.585    3970.5328   -51559.118   0.15314337 
  151000    289.72911    23.166616    148475.45    -47628.66    3978.7316   -51607.392   0.15151371 
  151200    288.78006    -181.3332    148692.78   -47616.313    3965.6987   -51582.012   0.15342986 
  151400    293.06252    26.720603    148564.67   -47529.775     4024.508   -51554.283   0.14538417 
  151600    292.64618    61.709936    148436.48   -47516.584    4018.7905   -51535.375   0.15415916 
  151800    294.59112    13.170878    148590.29    -47529.41    4045.4997   -51574.909   0.15241349 
  152000    291.52861   -119.78909     148700.8   -47530.606    4003.4435   -51534.049   0.14643685 
  152200    293.61596    44.485305    148522.03   -47551.305    4032.1081   -51583.414   0.14227917 
  152400    289.51637    98.417174    148442.47   -47599.994    3975.8102   -51575.804   0.14623333 
  152600    292.48735   -23.318644    148618.15   -47568.517    4016.6095   -51585.127   0.15319416 
  152800    294.42597   -70.724967    148664.05   -47500.975    4043.2316   -51544.207   0.15690172 
  153000    291.60592    85.217908    148491.41   -47567.131    4004.5051   -51571.636   0.15056863 
  153200    294.30044    57.365725    148463.98   -47508.974    4041.5078   -51550.482   0.15280098 
  153400    290.69333   -76.094346    148633.35   -47562.337    3991.9728    -51554.31   0.14813707 
  153600    291.40887   -48.228671    148628.51   -47589.844    4001.7991   -51591.643   0.14640045 
  153800    293.81242    99.722754    148464.57   -47619.017     4034.806   -51653.823   0.15091925 
  154000    284.85167     -9.37285    148513.74   -47633.469    3911.7517   -51545.221   0.15040446 
  154200    287.41765   -102.23834     148666.7   -47579.493    3946.9894   -51526.482    0.1510827 
  154400    292.77839    -34.60841    148623.17   -47574.782    4020.6062   -51595.388   0.14583752 
  154600    290.61032    52.743527    148504.45   -47596.801    3990.8329   -51587.634   0.15087862 
  154800    292.54664    39.103889    148559.63   -47612.692    4017.4237   -51630.116   0.14666639 
  155000    291.30694     -58.7261    148617.11   -47601.161    4000.3993    -51601.56   0.14992093 
[...]
  163200    287.12678   -201.59723    148796.16   -47666.063    3942.9949   -51609.058   0.14505855 
  163400    286.70037     155.9276    148307.41   -47699.828    3937.1392   -51636.967   0.14729238 
  163600     288.8141    204.01079    148267.37   -47649.893    3966.1662    -51616.06   0.14602237 
  163800    281.75087   -170.68611    148729.67   -47709.487    3869.1697   -51578.656     0.147217 
  164000    287.76424   -151.87344    148673.28   -47725.779    3951.7489   -51677.528   0.14445715 
  164200    287.46271    187.47362    148236.31   -47723.215    3947.6081   -51670.823   0.14398968 
  164400    289.45679    118.03924    148378.56   -47666.442     3974.992   -51641.434   0.13978664 
  164600    286.54439   -202.20276    148753.77    -47644.34    3934.9971   -51579.338   0.14772251 
  164800    285.46832   -82.107856    148530.17   -47681.746      3920.22   -51601.966   0.15050136 
  165000    292.43858    245.34972    148189.02    -47658.18    4015.9396   -51674.119    0.1454536 
  165200    288.39681   -3.3909951    148502.52   -47655.408    3960.4357   -51615.843   0.14378101 
  165400    289.64202   -213.24259    148821.75   -47683.243    3977.5357   -51660.778   0.14146647 
  165600    290.91136    28.882947    148497.43   -47623.256     3994.967   -51618.223   0.14946454 
  165800    290.55597    217.66965     148274.3   -47647.894    3990.0865    -51637.98   0.14504913 
  166000    289.88864   -57.765017    148604.94   -47607.784    3980.9224   -51588.706   0.14265042 
  166200    289.17974   -143.43293    148722.79    -47637.46    3971.1873   -51608.647   0.14517119 
  166400    284.46182    83.918125    148411.98   -47633.427    3906.3981   -51539.825   0.15138539 
  166600    291.61901    117.74438    148383.84   -47629.246    4004.6849   -51633.931   0.14489279 
  166800    287.86619   -93.991146    148632.18    -47688.51     3953.149   -51641.659    0.1400127 
  167000    286.54275   -70.407564     148594.9   -47689.934    3934.9747   -51624.909   0.15071726 
  167200    292.78338    100.66287     148420.5   -47639.889    4020.6747   -51660.564   0.14542226 
  167400    283.48277   -9.9783358    148516.68   -47685.204    3892.9532   -51578.158   0.14396517 
  167600    287.25838   -82.004892    148655.74   -47666.004    3944.8021   -51610.806   0.14043674 
  167800    282.82446   -29.160169    148547.53   -47734.757    3883.9129    -51618.67   0.14952007 
  168000    288.63784     126.5374    148381.17   -47723.306    3963.7457   -51687.051   0.14144907 
  168200    284.69427    28.997922     148474.3   -47720.362    3909.5902   -51629.952   0.13936475 
  168400    286.95795   -85.513915     148605.9   -47676.668    3940.6764   -51617.344   0.14268937 
  168600    287.25375   -24.734004    148530.52   -47688.208    3944.7385   -51632.946   0.14508819 
  168800    283.17133    42.621611    148433.96   -47727.787    3888.6763   -51616.464   0.14401101 
  169000    283.57282    2.0119206    148491.88   -47713.361    3894.1898    -51607.55   0.14059572 
  169200    286.49167   -30.230492    148562.99   -47683.485    3934.2732   -51617.758   0.14832327 
  169400    286.01609     33.16291    148515.83   -47709.404    3927.7422   -51637.146   0.14466182 
  169600    284.81046    36.698314    148469.63   -47718.937    3911.1859   -51630.123   0.14128262 
  169800    284.69012    20.027587     148510.3   -47724.661    3909.5333   -51634.194   0.13997411 
  170000    283.58514   -50.209203    148563.56   -47763.744    3894.3589   -51658.103   0.14424115 
  170200    287.05821   -20.206519    148504.17   -47773.512    3942.0533   -51715.565   0.14343969 
  170400    287.77376    89.631773    148446.19   -47743.019    3951.8796   -51694.899   0.13654507 
  170600    284.25483   0.66788213    148560.07   -47725.099    3903.5556   -51628.654   0.14135698 
  170800    284.86343   -89.930983    148625.43   -47748.305    3911.9132   -51660.218   0.14051376 
  171000     282.6467    44.802991    148458.48    -47747.68    3881.4717   -51629.152    0.1443195 
  171200    282.44263    61.886889    148408.15   -47774.252    3878.6693   -51652.921   0.14201395 
  171400    285.97464   -36.553708    148602.18    -47770.54    3927.1731   -51697.713   0.14482122 
  171600    286.09676   -50.050626    148628.26   -47734.899      3928.85   -51663.749   0.14140327 
  171800    289.14993    96.610919    148440.45   -47712.971    3970.7779   -51683.749   0.13606318 
  172000     290.8878    66.987289    148479.18   -47718.611    3994.6434   -51713.254   0.13902623 
  172200    286.58047   -120.35215    148684.18   -47724.972    3935.4927   -51660.465   0.14379651 
  172400    289.18225    -21.97992    148603.47   -47693.242    3971.2219   -51664.464   0.14107968 
  172600    285.98547    123.02419    148355.44   -47677.586    3927.3218   -51604.908   0.14282227 
  172800    289.71334    86.763422    148467.75   -47686.036    3978.5151   -51664.551   0.13850695 
  173000    287.18331    -170.4484    148756.82   -47703.482    3943.7712   -51647.253   0.14508958 
  173200    283.90079   -32.723322     148541.6   -47741.189    3898.6937   -51639.883   0.14431259 
  173400    286.70831     222.6697    148206.84   -47726.763    3937.2482   -51664.011   0.14358759 
  173600    287.23211   -49.689713     148565.1   -47678.968    3944.4413   -51623.409   0.15264256 
  173800    284.00076   -267.28198    148872.57   -47677.888    3900.0666   -51577.954   0.15325268 
  174000    284.97488    102.66017    148385.35   -47641.385    3913.4438   -51554.829   0.14809288 
  174200    288.93431    273.60791    148154.68   -47635.979     3967.817   -51603.796   0.14654787 
  174400    291.90211   -100.98113    148720.88   -47618.792    4008.5725   -51627.365   0.14628176 
  174600    287.70699   -256.23479    148870.09   -47629.189    3950.9627   -51580.152   0.15515915 
  174800     290.5063    223.29245    148270.01   -47593.866    3989.4044   -51583.271   0.14691603 
  175000    287.03496    224.99128    148238.34   -47641.565     3941.734   -51583.299   0.14825844 
  175200    286.69823   -261.28579    148867.52   -47637.694    3937.1097   -51574.804   0.15213238 
  175400    289.72395   -207.41336    148760.98   -47647.967    3978.6608   -51626.628   0.14973745 
  175600    288.40805    271.65862    148103.04   -47658.247    3960.5901   -51618.837   0.15335132 
  175800    288.70108    158.70021     148304.2    -47642.98    3964.6141   -51607.595   0.15586249 
  176000    285.09565   -329.41091    148939.52   -47627.785    3915.1023   -51542.887   0.15440711 
  176200    288.08359   -69.060404    148622.77   -47577.156    3956.1343   -51533.291   0.14896458 
  176400    285.80492    340.60238    148068.47   -47614.084    3924.8423   -51538.926   0.14799398 
  176600    292.89087    51.466023    148511.83   -47596.281    4022.1508   -51618.432   0.14943029 
  176800    289.25661   -350.73287    148996.04   -47600.549     3972.243   -51572.792   0.15562576 
  177000    290.78544    17.168204    148473.35   -47618.262    3993.2378     -51611.5   0.15012632 
  177200    290.85447    348.02794    148115.03   -47631.925    3994.1858   -51626.111   0.14337655 
  177400    283.53519   -148.67551    148637.23   -47722.016     3893.673   -51615.689   0.15099834 
  177600     286.6606   -251.63145    148831.11   -47685.376    3936.5931   -51621.969   0.15038468 
  177800    280.67175    103.86028    148320.48   -47664.659    3854.3506   -51519.009   0.15810219 
  178000    287.01744    204.99589    148223.71   -47624.188    3941.4934   -51565.681    0.1547898 
  178200    288.94235   -149.32681    148701.89   -47660.628    3967.9274   -51628.556   0.15042037 
  178400    288.40788   -120.40984    148714.77   -47635.862    3960.5878    -51596.45   0.14570718 
  178600    289.95197    164.77651    148284.18   -47651.826    3981.7921   -51633.618     0.149246 
  178800    288.30844    119.18275    148357.36   -47622.375    3959.2221   -51581.597   0.15178159 
  179000    288.27054   -169.90023     148763.8   -47596.716    3958.7017   -51555.418   0.15329821 
  179200    287.92375   -57.950031    148646.79   -47619.374    3953.9393   -51573.314   0.14614292 
  179400    292.24909     210.0227    148296.25   -47594.321    4013.3375   -51607.658   0.14481029 
  179600    293.99195    49.019652    148461.71   -47601.467    4037.2715   -51638.738   0.14894392 
  179800    291.98996    -190.8191    148764.07    -47630.01     4009.779   -51639.789   0.15047296 
  180000    297.62717   0.87716798    148581.19   -47597.813    4087.1924   -51685.006   0.14691285 
  180200    294.50399    202.82123    148343.11   -47559.062    4044.3031   -51603.365   0.14217285 
  180400    297.02768   -2.0737778    148583.67   -47516.375      4078.96   -51595.335   0.14612488 
  180600     292.7128   -164.62644     148777.5   -47604.492    4019.7054   -51624.197   0.14282577 
  180800    294.65187    25.437403    148540.31     -47569.7    4046.3339   -51616.034   0.14113116 
  181000    289.77593     111.0205    148420.89   -47610.739    3979.3746   -51590.113   0.14758911 
  181200    291.40514    -87.92844       148670   -47595.372    4001.7479    -51597.12    0.1488843 
  181400    286.41075   -105.20645    148725.19   -47633.026     3933.162   -51566.188   0.14419288 
  181600    292.94359    95.905642    148435.04   -47654.313    4022.8747   -51677.188    0.1432345 
  181800    290.42356    122.06758    148399.35   -47626.054    3988.2682   -51614.322   0.14887653 
  182000     286.6804   -100.95044    148667.53    -47633.84     3936.865   -51570.705   0.14774777 
  182200    290.09778   -78.082768     148627.8   -47649.611    3983.7944   -51633.405   0.14691831 
  182400    289.24745      105.761    148357.17   -47650.351    3972.1171   -51622.468   0.15210034 
  182600     289.4528    40.827746    148442.37   -47614.382    3974.9372   -51589.319    0.1531543 
  182800    290.79053   -114.38942    148692.77   -47578.356    3993.3077   -51571.664   0.14534454 
  183000    289.77384   -15.827137    148584.94   -47578.466    3979.3459   -51557.811    0.1475068 
  183200    286.01888    100.77767    148384.54   -47560.352    3927.7806   -51488.133   0.15500316 
  183400    287.98962   -50.437105    148520.29   -47569.732    3954.8439   -51524.576   0.15167105 
  183600     291.9929   -69.512121    148657.48   -47598.037    4009.8194   -51607.856   0.14571816 
  183800    286.49085    25.768316    148514.81   -47630.117    3934.2619   -51564.379   0.14771761 
  184000    288.04643    63.764854    148418.09   -47642.668    3955.6241   -51598.292   0.14755418 
  184200    286.13387   -38.335878    148526.11   -47684.965    3929.3597   -51614.325   0.14825095 
  184400    285.45099   -45.038529    148575.97   -47693.963    3919.9819   -51613.945   0.14536616 
  184600    286.70989     54.07463    148475.33   -47701.491    3937.2698   -51638.761   0.14370896 
  184800    290.25589    67.950062    148456.78     -47690.5    3985.9657   -51676.466   0.14042337 
  185000    287.92487   -59.828242    148539.84   -47680.619    3953.9548   -51634.573   0.14510085 
  185200    288.07289   -13.532353     148524.1   -47737.105    3955.9875   -51693.092   0.14421991 
  185400     285.1042    49.583276    148429.46   -47715.395    3915.2196   -51630.614   0.14903298 
  185600     288.7839    57.191962    148440.84   -47719.231    3965.7514   -51684.982   0.14450205 
  185800    286.34408   -38.582222    148552.42   -47664.186    3932.2464   -51596.433   0.14678721 
  186000    284.49427   -33.947596    148533.22   -47650.436    3906.8437   -51557.279   0.14888503 
  186200    289.32105    20.743457    148429.49   -47642.689    3973.1279   -51615.816    0.1527527 
  186400    285.01662   -24.433737    148469.07   -47592.124     3914.017   -51506.141   0.15775215 
  186600    288.56582   -23.283009    148558.13   -47625.076    3962.7567   -51587.833   0.14750575 
  186800    289.67945   -24.027764     148531.8   -47651.382    3978.0497   -51629.431   0.15049559 
  187000    288.99418     19.26925    148454.88   -47623.426    3968.6391   -51592.065    0.1539265 
  187200    287.65594   -9.4990578    148491.81   -47641.258    3950.2617    -51591.52   0.15075481 
  187400     287.1824   -38.961998    148570.82   -47627.671    3943.7587    -51571.43   0.14805018 
  187600     292.7743   -7.9349917    148550.14   -47668.372      4020.55   -51688.922   0.14857653 
  187800    288.09719    8.7112905    148499.93   -47656.563    3956.3211   -51612.885   0.14838197 
  188000    286.18075    5.4561142    148532.93   -47631.315    3930.0034   -51561.318   0.14363872 
  188200    290.77166   -36.025847     148585.9   -47622.956    3993.0485   -51616.005   0.14844205 
  188400    286.18772    14.707785    148566.92   -47611.005    3930.0992   -51541.104   0.14822485 
  188600    286.93952    5.5986492    148540.59   -47616.839    3940.4234   -51557.262   0.14784872 
  188800    294.38916    3.3017516    148546.24   -47631.045    4042.7261   -51673.771   0.13998018 
  189000    286.94836    14.036177    148539.29    -47622.69    3940.5447   -51563.235   0.14797494 
  189200    283.54172    2.1353057    148526.08   -47626.373    3893.7627   -51520.135   0.15195357 
  189400     286.7142   -26.872059     148560.9   -47589.141    3937.3291    -51526.47     0.145697 
  189600    288.70942    -53.82415       148594   -47603.621    3964.7286    -51568.35   0.14582237 
  189800    281.91192     19.99236    148523.11   -47641.009    3871.3813   -51512.391   0.15059166 
  190000    287.91658  -0.92798881     148501.6   -47673.084    3953.8409   -51626.924   0.15080476 
  190200    287.34684   0.76201214     148567.5     -47645.8    3946.0169   -51591.817     0.146804 
  190400    292.41911   -43.835447    148620.18   -47643.671    4015.6722   -51659.343   0.14597696 
  190600    289.19469    45.007509    148497.69   -47587.634    3971.3927   -51559.027   0.14930697 
  190800    289.61137    64.299662     148436.3    -47620.37    3977.1148   -51597.485   0.14857139 
  191000    292.08366   -64.067819    148596.36   -47633.954    4011.0657   -51645.019   0.14707803 
  191200    290.16853   -53.760278       148604   -47626.879     3984.766   -51611.645    0.1486675 
  191400    290.62068    80.377193     148405.5   -47651.789    3990.9752   -51642.764   0.14842546 
  191600    290.25629    47.839528    148441.36   -47607.727    3985.9712   -51593.698   0.14585595 
  191800    289.92534   -102.08837    148693.67   -47640.968    3981.4263   -51622.395   0.14545833 
  192000    286.20906   -68.473166    148605.39   -47641.225    3930.3922   -51571.617    0.1520954 
  192200    283.80899    134.85361    148316.46   -47610.313     3897.433   -51507.746   0.15102808 
  192400    288.10461    14.090514    148464.22   -47619.433     3956.423   -51575.856   0.14894149 
  192600    289.80844   -191.41812    148734.56   -47648.113     3979.821   -51627.934   0.14370836 
  192800    286.42574    35.831811    148509.16   -47623.823    3933.3678    -51557.19   0.15164166 
  193000    287.91742    143.97275    148276.99   -47614.796    3953.8524   -51568.648   0.15047731 
  193200    290.89412   -25.560101    148554.11   -47568.154    3994.7302   -51562.884   0.14521415 
  193400    289.96881   -177.57582    148754.81   -47569.557    3982.0234    -51551.58   0.14754663 
  193600    287.57729    30.553974    148422.84   -47581.461    3949.1816   -51530.643   0.15302453 
  193800     290.8794    192.15402    148249.59   -47629.074    3994.5281   -51623.602   0.14781318 
  194000    281.85782   -96.288753    148620.26   -47653.796    3870.6384   -51524.435   0.14712145 
  194200    288.96555   -163.53103    148733.53   -47639.675     3968.246   -51607.921   0.14868826 
  194400    287.10085    143.94534    148329.38     -47620.6    3942.6388   -51563.239   0.15210347 
  194600    284.77084     150.1019    148295.52   -47646.648    3910.6417    -51557.29   0.15232613 
  194800     288.4696   -172.15047    148723.07   -47631.914    3961.4353   -51593.349   0.14996798 
  195000    288.87497   -90.448795     148679.1   -47614.485    3967.0021   -51581.487   0.15059192 
  195200    293.12036    227.50598    148262.87   -47600.488    4025.3023    -51625.79   0.14618401 
  195400    289.75846    73.912158    148420.79   -47603.383    3979.1347   -51582.518   0.14778707 
  195600     297.6981   -199.98002    148819.76   -47608.872    4088.1665   -51697.039   0.14436584 
  195800      290.381   -20.428757     148562.1   -47653.173    3987.6838   -51640.857   0.14806913 
  196000    286.26241    213.75013    148169.77     -47623.4    3931.1249   -51554.525   0.14994349 
  196200    284.52623    -5.441119    148507.91   -47611.082    3907.2826   -51518.365   0.15035516 
  196400     285.1526   -293.76152    148883.56   -47610.328    3915.8843   -51526.213   0.15832228 
  196600    285.82865   -12.206543     148464.8   -47676.492    3925.1682   -51601.661   0.15309426 
  196800    288.85468    286.06923    148125.88   -47667.197    3966.7235   -51633.921   0.14600271 
  197000    286.87162   -119.72288    148651.29   -47679.121    3939.4909   -51618.612   0.14660817 
  197200    282.36393   -292.74797    148920.09   -47733.439    3877.5886   -51611.028   0.14527166 
  197400    287.55246     164.9415    148314.71   -47692.562    3948.8405   -51641.402   0.14333465 
  197600    291.46817    300.16306    148168.92   -47606.419    4002.6135   -51609.033   0.14443789 
  197800    289.66264   -269.19072    148859.28   -47594.067    3977.8189   -51571.886    0.1484959 
  198000    291.82542   -189.69456    148857.01    -47622.65    4007.5195   -51630.169   0.14359304 
  198200    290.72657    308.07541    148123.93   -47648.072    3992.4293   -51640.501    0.1481239 
  198400    289.43872    230.95403    148246.92   -47577.052    3974.7438   -51551.795   0.14955462 
  198600    285.70929     -318.581    148978.29   -47565.438    3923.5291   -51488.967    0.1540038 
  198800    289.51408   -140.06862    148724.05   -47598.299    3975.7788   -51574.077    0.1485002 
  199000     290.4417    426.85585    148020.23   -47604.124    3988.5173   -51592.641   0.14397562 
  199200    285.61428    39.140359    148396.39   -47600.778    3922.2244   -51523.003   0.15045436 
  199400    284.21423   -347.99926    148974.68   -47609.172     3902.998    -51512.17   0.14876154 
  199600     289.5782    17.098303    148523.87   -47633.133    3976.6592   -51609.792   0.14291837 
  199800    289.84589    310.36562    148132.74    -47611.97    3980.3354   -51592.306   0.14061946 
  200000     291.7933   -62.152264    148604.83   -47633.138    4007.0783   -51640.216   0.14214434 
Loop time of 109.315 on 6 procs for 200000 steps with 4608 atoms

Performance: 790.375 ns/day, 0.030 hours/ns, 1829.571 timesteps/s
97.9% CPU use with 6 MPI tasks x no OpenMP threads

MPI task timing breakdown:
Section |  min time  |  avg time  |  max time  |%varavg| %total
---------------------------------------------------------------
Pair    | 76.838     | 77.465     | 78.65      |   6.5 | 70.86
Neigh   | 12.423     | 12.586     | 12.864     |   5.5 | 11.51
Comm    | 8.2598     | 9.2427     | 10.097     |  20.4 |  8.46
Output  | 3.0235     | 3.0247     | 3.0283     |   0.1 |  2.77
Modify  | 5.6063     | 5.7269     | 5.8374     |   3.3 |  5.24
Other   |            | 1.27       |            |       |  1.16

Nlocal:        768.000 ave         773 max         765 min
Histogram: 2 1 0 1 0 0 0 1 0 1
Nghost:        1393.17 ave        1406 max        1386 min
Histogram: 2 0 2 0 0 0 0 1 0 1
Neighs:        0.00000 ave           0 max           0 min
Histogram: 6 0 0 0 0 0 0 0 0 0
FullNghs:      21887.7 ave       22052 max       21763 min
Histogram: 1 1 0 1 1 0 0 1 0 1

Total # of neighbors = 131326
Ave neighs/atom = 28.499566
Neighbor list builds = 12486
Dangerous builds = 0
write_data		data.${NAME}
write_data		data.ice_289K_1atm_ML
System init for write_data ...
Total wall time: 0:02:41
