
# Create simulation box of size 50 x 50 x 50 Angstrom
#
lattice	            sc 1
Lattice spacing in x,y,z = 1.0000000 1.0000000 1.0000000
region 	            all block 0 ${X} ${YZ_LO} ${YZ_HI} ${YZ_LO} ${YZ_HI} units box
region 	            all block 0 53.4 ${YZ_LO} ${YZ_HI} ${YZ_LO} ${YZ_HI} units box
region 	            all block 0 53.4 -0.010646013565168033.0 ${YZ_HI} ${YZ_LO} ${YZ_HI} units box
region 	            all block 0 53.4 -0.010646013565168033.0 50.91776601356621.0 ${YZ_LO} ${YZ_HI} units box
region 	            all block 0 53.4 -0.010646013565168033.0 50.91776601356621.0 -0.010646013565168033.0 ${YZ_HI} units box
region 	            all block 0 53.4 -0.010646013565168033.0 50.91776601356621.0 -0.010646013565168033.0 50.91776601356621.0 units box
create_box          1 all
Created orthogonal box = (0.0000000 -0.010646014 -0.010646014) to (53.400000 50.917766 50.917766)
  3 by 1 by 2 MPI processor grid

# fill box with 4175 randomly distributed atoms
#
create_atoms        1 random 4608 63782 all
Created 4608 atoms
  create_atoms CPU = 0.001 seconds
mass                1 18.015

# Define potential
#
pair_style          sw
pair_coeff          * * /data/emrosky-sim/Freezing_Simulations/Melting/MLmW_fancy/ML_mW.sw mW
Reading sw potential file /data/emrosky-sim/Freezing_Simulations/Melting/MLmW_fancy/ML_mW.sw with DATE: 2019-02-27

# Run minimization
#
minimize            1.0e-8 1.0e-8 10000 1000
WARNING: Using 'neigh_modify every 1 delay 0 check yes' setting during minimization (../min.cpp:187)
Neighbor list info ...
  update every 1 steps, delay 0 steps, check yes
  max neighbors/atom: 2000, page size: 100000
  master list distance cutoff = 6.0032907
  ghost atom cutoff = 6.0032907
  binsize = 3.0016454, bins = 18 17 17
  1 neighbor lists, perpetual/occasional/extra = 1 0 0
  (1) pair sw, perpetual
      attributes: full, newton on
      pair build: full/bin/atomonly
      stencil: full/bin/3d
      bin: standard
Per MPI rank memory allocation (min/avg/max) = 4.234 | 4.248 | 4.253 Mbytes
Step Temp E_pair E_mol TotEng Press 
       0            0    7255185.1            0    7255185.1    4978844.5 
     654            0   -49877.877            0   -49877.877   -378.71504 
Loop time of 1.24008 on 6 procs for 654 steps with 4608 atoms

99.8% CPU use with 6 MPI tasks x no OpenMP threads

Minimization stats:
  Stopping criterion = max force evaluations
  Energy initial, next-to-last, final = 
      7255185.14807414   -49877.735054181  -49877.8772592947
  Force two-norm initial, final = 1.6678536e+08 3.4729890
  Force max component initial, final = 88679641.0 1.1559720
  Final line search alpha, max atom move = 0.077109247 0.089136133
  Iterations, force evaluations = 654 1000

MPI task timing breakdown:
Section |  min time  |  avg time  |  max time  |%varavg| %total
---------------------------------------------------------------
Pair    | 0.99874    | 1.0663     | 1.1438     |   5.2 | 85.99
Neigh   | 0.027244   | 0.028105   | 0.028813   |   0.3 |  2.27
Comm    | 0.046899   | 0.12479    | 0.19233    |  15.3 | 10.06
Output  | 0          | 0          | 0          |   0.0 |  0.00
Modify  | 0          | 0          | 0          |   0.0 |  0.00
Other   |            | 0.02086    |            |       |  1.68

Nlocal:        768.000 ave         784 max         756 min
Histogram: 1 1 1 0 0 1 1 0 0 1
Nghost:        1569.50 ave        1594 max        1558 min
Histogram: 3 1 0 0 0 0 1 0 0 1
Neighs:        0.00000 ave           0 max           0 min
Histogram: 6 0 0 0 0 0 0 0 0 0
FullNghs:      21921.3 ave       22850 max       21268 min
Histogram: 1 1 1 0 0 2 0 0 0 1

Total # of neighbors = 131528
Ave neighs/atom = 28.543403
Neighbor list builds = 27
Dangerous builds = 0

# Add velocity/set timestep
#
velocity            all create ${TEMP} 120598 rot yes dist gaussian
velocity            all create 289 120598 rot yes dist gaussian
timestep            5.0

# Define output
#
compute	            1 all msd
thermo	            100
thermo_style        custom step temp press vol etotal ke pe c_1[4] density

# Neighbor lists
#
neigh_modify        delay 0 every 1 check yes

# Set fixes
#
fix                 1 all momentum 10 linear 1 1 1 rescale
fix                 2 all nve
fix                 3 all temp/csvr ${TEMP} ${TEMP} 500.0 928347
fix                 3 all temp/csvr 289 ${TEMP} 500.0 928347
fix                 3 all temp/csvr 289 289 500.0 928347
fix                 4 all press/berendsen iso ${PRES} ${PRES} 1000.0 modulus 20000
fix                 4 all press/berendsen iso 1 ${PRES} 1000.0 modulus 20000
fix                 4 all press/berendsen iso 1 1 1000.0 modulus 20000

# Run 0.5 ns equilibration
#
dump                1 all custom 1000 eq.${NAME}.dump id type x y z vx vy vz
dump                1 all custom 1000 eq.liq_289K_1atm_ML.dump id type x y z vx vy vz
run                 100000
Per MPI rank memory allocation (min/avg/max) = 3.484 | 3.499 | 3.503 Mbytes
Step Temp Press Volume TotEng KinEng PotEng c_1[4] Density 
     654          289    931.13531    138503.75   -45909.158    3968.7191   -49877.877 8.8178011e-34   0.99525477 
     700    163.78131   -169.50803    139122.44   -45029.606    2249.1419   -47278.748    0.2565432   0.99082881 
     800    213.59811    64.011716    139132.73   -43792.479    2933.2556   -46725.734   0.76110383   0.99075551 
     900    239.27455   -224.65774    139235.78   -43002.333    3285.8597   -46288.193    1.3107212   0.99002224 
    1000    254.15234   -125.10481    138959.71   -42470.486    3490.1703   -45960.657    2.0789372   0.99198911 
    1100    268.02023   -259.65271    138894.89   -42080.698    3680.6124    -45761.31    2.8819605   0.99245201 
    1200    271.73936   -220.68162    138596.72   -41758.741    3731.6858   -45490.427    3.7717892   0.99458712 
    1300    281.10387   -8.7916082    138731.81   -41551.863    3860.2847   -45412.148    4.8366436   0.99361864 
    1400    278.97108    37.842045    138815.99    -41467.01     3830.996   -45298.006    5.8958079   0.99301615 
    1500    284.03723    344.67332    138949.61   -41380.956    3900.5673   -45281.523    6.9063468   0.99206122 
    1600     285.0372   -380.54922    138561.57   -41376.407    3914.2996   -45290.707    8.0694375   0.99483948 
    1700    284.27394   -80.277239    138374.41   -41420.674     3903.818   -45324.492    9.1084948   0.99618507 
    1800    287.56935   -78.116361    138449.77   -41360.891    3949.0725   -45309.964    10.211978   0.99564279 
    1900    286.17507   -80.988368    138375.85    -41299.59    3929.9255   -45229.516    11.444789   0.99617464 
    2000    292.98893    24.825267    138599.39   -41278.071    4023.4973   -45301.568    12.716191   0.99456796 
    2100    290.85512     -452.381    138480.86   -41349.945    3994.1947    -45344.14    13.988755   0.99541927 
    2200    284.85477   -76.270725    138411.43   -41276.398    3911.7943   -45188.193    15.091014   0.99591858 
    2300    291.12636     104.4225    138475.67   -41229.405    3997.9195   -45227.325    16.126856   0.99545661 
    2400    285.61179   -209.90457    138445.26   -41230.216    3922.1902   -45152.406    17.375542   0.99567526 
    2500    289.15822   -362.59225    138109.84   -41234.899    3970.8918   -45205.791    18.323276   0.99809341 
    2600    294.58075    52.476477    138183.47   -41080.921    4045.3572   -45126.278    19.599749   0.99756153 
    2700    282.24576   -9.0784098    137939.73   -41180.502    3875.9658   -45056.468    20.615862   0.99932426 
    2800    292.28562   -62.907249    138017.47   -41160.671    4013.8392    -45174.51    21.835215   0.99876137 
    2900    293.83071   -78.042548    137812.05   -41115.328    4035.0573   -45150.386    23.096093    1.0002501 
    3000    293.37548    233.96108    138107.77    -41101.87    4028.8057   -45130.675    24.190166   0.99810832 
    3100    295.10464    300.26823    138196.83   -41116.045    4052.5516   -45168.597    25.543174    0.9974651 
    3200    291.57114    8.6647276    138052.22   -41167.961    4004.0275   -45171.989    26.733945   0.99850998 
    3300    286.65532    62.414716    138305.37   -41175.509    3936.5206   -45112.029    27.874651    0.9966823 
    3400     291.0397    44.540657    138384.92   -41151.201    3996.7295   -45147.931    29.163738   0.99610935 
    3500    295.83481   -120.69891    138260.04   -41034.082    4062.5787   -45096.661    30.463028   0.99700906 
    3600    296.31296    60.437245    138576.61   -41108.777     4069.145   -45177.922    31.456062   0.99473148 
    3700    287.34437   -3.5368879    138868.93   -41139.065     3945.983   -45085.048    32.922296    0.9926376 
    3800    287.35219   -35.860578     138718.5   -41075.629    3946.0903   -45021.719    34.071277   0.99371402 
    3900    285.17235    40.477694    138590.91   -41261.581    3916.1556   -45177.737    35.105528   0.99462887 
    4000     290.0475   -82.627898    138694.84   -41207.512    3983.1039   -45190.616    36.151471   0.99388355 
    4100    291.28243    34.167419    138575.57   -41125.023    4000.0628   -45125.086    37.256658   0.99473894 
    4200    286.84023    290.14816    138681.61   -41135.459    3939.0598   -45074.518    38.339546   0.99397832 
    4300    289.27104   -225.34021     138520.6   -41105.201    3972.4411   -45077.642    39.533305    0.9951337 
    4400    289.33045   -24.217292    138084.22   -41051.416     3973.257   -45024.673    40.668366    0.9982786 
    4500    289.31486   -31.839803    138216.74   -41077.028    3973.0429    -45050.07    42.364009   0.99732143 
    4600    289.97576   -102.74957    138374.54   -41102.727    3982.1187   -45084.846    43.962518   0.99618413 
    4700     288.1055    97.274755    138654.37   -41164.596    3956.4352   -45121.032    45.163382   0.99417361 
    4800    294.41428    60.851039    138820.17   -41150.937    4043.0711   -45194.008    46.412903   0.99298621 
    4900    289.90844    15.216817    138588.56   -41234.376    3981.1943    -45215.57     47.51277   0.99464569 
    5000    291.67038    72.045922    138523.46   -41184.761    4005.3903   -45190.151     48.68565   0.99511312 
    5100    291.67514   -128.36678     138564.6   -41275.099    4005.4557   -45280.554    50.183209   0.99481767 
    5200    289.34226    2.2202057    138510.17   -41329.963    3973.4191   -45303.382    51.149683   0.99520861 
    5300    290.69381   -75.253639    138639.07   -41270.962    3991.9794   -45262.942    52.099731   0.99428335 
    5400    289.26206   -22.633483    138292.76   -41154.589    3972.3178   -45126.907    53.403731    0.9967732 
    5500    288.21771    109.26352    138442.39   -41120.283    3957.9762   -45078.259     54.89326   0.99569585 
    5600    296.95153   -188.35864    138532.61   -41055.322    4077.9142   -45133.236    56.167285   0.99504739 
    5700    291.82278    133.06471    138255.73    -41132.51    4007.4832   -45139.993    57.484204   0.99704014 
    5800    293.42506    141.80143    138357.87   -41109.595    4029.4867   -45139.082    58.948292   0.99630413 
    5900    286.75557   -218.91478    138200.04   -41260.986    3937.8972   -45198.883    59.913488   0.99744192 
    6000    285.67619   -180.71845    137959.07   -41292.507    3923.0745   -45215.581    61.073297   0.99918413 
    6100    293.38335   -7.6508606    138084.27    -41198.73    4028.9138   -45227.643    62.106029    0.9982782 
    6200    285.54969    172.73057    138019.21   -41265.209    3921.3374   -45186.546    63.545379   0.99874875 
    6300    287.96276   -1.5453318    138340.04   -41263.461    3954.4751   -45217.936    64.639067   0.99643253 
    6400     289.6395   -115.10802    138160.59   -41224.592     3977.501   -45202.093    65.727017   0.99772678 
    6500    282.55832    114.53732    137854.11   -41259.306    3880.2581   -45139.564    66.804278   0.99994491 
    6600    285.48776   -51.354525    137885.57   -41295.745    3920.4869   -45216.232    67.881273   0.99971678 
    6700    286.46607   -31.114137    137797.76   -41312.584    3933.9216   -45246.506     69.18896    1.0003538 
    6800    285.05466    234.53339    137713.97   -41315.951    3914.5394    -45230.49     70.23646    1.0009625 
    6900     288.9492   -154.16321    137940.12   -41232.777    3968.0214   -45200.799     72.05471   0.99932143 
    7000    282.86713    86.478258    138159.74   -41177.812    3884.4988   -45062.311    73.398194   0.99773292 
    7100    283.62436   -131.48125    138216.45   -41219.296    3894.8976   -45114.194    74.739263   0.99732354 
    7200    285.56998   -79.693039    138002.17   -41208.925     3921.616   -45130.541     75.83844   0.99887211 
    7300    288.00552   -60.233092    137773.15    -41225.51    3955.0623   -45180.572    77.040167    1.0005325 
    7400    281.19586    203.54812    137918.64   -41269.382     3861.548    -45130.93    78.033276   0.99947706 
    7500    293.92059     1.341403    138269.64   -41151.828    4036.2916   -45188.119    78.766301   0.99693986 
    7600    284.89695   -175.35955    138226.75   -41175.597    3912.3736   -45087.971    79.765964   0.99724923 
    7700    290.50599    122.26233    138253.42   -41134.564    3989.4002   -45123.964    80.757693   0.99705683 
    7800    288.99388   -181.76403    138005.29   -41154.382     3968.635   -45123.017    81.848898   0.99884952 
    7900    282.35408   -247.48568    137872.18   -41297.482    3877.4533   -45174.935    83.148608   0.99981383 
    8000    284.58718   -105.92667    137621.08   -41258.417    3908.1195   -45166.536    84.255343    1.0016381 
    8100    291.06795    182.08035    137324.24    -41155.57    3997.1173   -45152.688    84.866642    1.0038032 
    8200    284.82811   -115.31196    137678.68   -41218.764    3911.4282   -45130.192    85.652313    1.0012191 
    8300    291.83826   -25.264036    137791.52   -41146.524    4007.6957    -45154.22    87.090456    1.0003992 
    8400    292.20036    38.975195    138030.46   -41256.036    4012.6683   -45268.704    87.990699   0.99866737 
    8500    289.52911    -262.9296    137909.01   -41306.572    3975.9851   -45282.557    89.560711   0.99954684 
    8600     284.2367    205.27678    137808.79   -41238.215    3903.3066   -45141.521    91.046875    1.0002738 
    8700    287.43939   -87.619677     137590.3   -41200.938    3947.2878   -45148.226    92.119084    1.0018622 
    8800    286.49064    130.41763     137642.3   -41170.041     3934.259     -45104.3    93.131327    1.0014837 
    8900    292.05934    198.27837    137651.84   -41184.268    4010.7317   -45194.999    93.843353    1.0014143 
    9000    291.16852   -21.558973     137802.8   -41091.391    3998.4985   -45089.889    95.237513    1.0003173 
    9100    288.47511     217.5376    137865.72   -41129.281    3961.5109   -45090.791    96.494263   0.99986073 
    9200    291.88391   -207.25589    138177.42   -41163.382    4008.3227   -45171.705    97.659761   0.99760524 
    9300    293.21823   -40.272245    138136.79   -41124.313    4026.6463    -45150.96    99.013069   0.99789868 
    9400    283.72173    100.07031    138193.79   -41165.498    3896.2348   -45061.733    99.922046   0.99748708 
    9500    286.44401   -88.746823    138000.08   -41188.245    3933.6187   -45121.864    101.40675   0.99888722 
    9600    287.02009   -64.902883    138080.04   -41254.282    3941.5297   -45195.812     102.5555   0.99830878 
    9700    288.83456   -209.49406    138125.94   -41151.527    3966.4472   -45117.974    103.68978   0.99797704 
    9800    290.33558     66.88487    138340.73   -41111.387      3987.06   -45098.447      104.949   0.99642759 
    9900    290.25869   -160.62404    137955.95   -41137.401    3986.0042   -45123.405    106.32983   0.99920676 
   10000    284.61292   -49.556939    138070.57   -41236.631    3908.4731   -45145.104    107.31266   0.99837724 
   10100    290.22108    61.544122    138160.21   -41221.006    3985.4877   -45206.493    108.92668   0.99772952 
   10200    293.71598    18.770484    138214.52   -41243.292    4033.4817   -45276.774    110.10588   0.99733742 
   10300    293.99558    63.688435    138182.46   -41179.894    4037.3214   -45217.215    111.30334   0.99756883 
   10400     288.9042   -208.30738    138026.06   -41135.837    3967.4035   -45103.241    112.47321   0.99869917 
   10500    291.36537     332.5664    138249.07   -41106.306    4001.2017   -45107.508     113.7462   0.99708819 
   10600    292.82876   -68.352029    138037.41   -41120.229    4021.2978   -45141.527     114.4813   0.99861707 
   10700    291.27914     83.27715    138000.92   -41129.331    4000.0176   -45129.349    115.41049   0.99888114 
   10800    295.94707   -203.15579    138120.88   -41078.378    4064.1204   -45142.499    116.71135   0.99801363 
   10900     295.7286   -137.83373    138118.64    -41075.32    4061.1201    -45136.44    117.92659   0.99802976 
   11000    292.75481   -33.023313    138144.84   -41052.208    4020.2824    -45072.49    119.33384   0.99784047 
   11100    295.97277    231.84019    137984.25   -41109.167    4064.4732    -45173.64    120.49812   0.99900178 
   11200    289.62438    256.62269    138339.74   -41118.722    3977.2934   -45096.015    121.62078    0.9964347 
   11300    289.77757    241.62951    138541.42   -41191.546    3979.3972   -45170.943    122.36673   0.99498417 
   11400    289.68289    48.376415    138557.95   -41221.934    3978.0969   -45200.031    123.83702   0.99486546 
   11500    283.73359    277.42572    138776.47   -41322.747    3896.3976   -45219.144     124.7456   0.99329889 
   11600    285.38052   -28.523744    138883.16   -41375.462    3919.0142   -45294.477    125.82465   0.99253587 
   11700    282.16384    93.685541    138883.02   -41282.203    3874.8409   -45157.044    126.19573   0.99253685 
   11800    289.03512     -142.074    138859.46   -41294.113    3969.2013   -45263.314    126.84533   0.99270523 
   11900     284.7145   -322.87789    138733.13   -41327.943     3909.868   -45237.811    127.24526   0.99360923 
   12000    284.38731    127.46082     138315.5   -41340.233    3905.3748   -45245.607    127.59801   0.99660929 
   12100    293.21387   -123.54528    138207.94    -41267.15    4026.5865   -45293.736    128.81625    0.9973849 
   12200    292.45085    99.433877    138249.35   -41085.039    4016.1081   -45101.147     130.0474   0.99708618 
   12300    292.83064    51.310102    138057.33    -41076.93    4021.3237   -45098.253    130.95584   0.99847302 
   12400     291.4997   -321.70592    138148.08   -41049.471    4003.0464   -45052.518    132.15487   0.99781709 
   12500    289.21169   -15.118199    138130.91   -41122.068    3971.6261   -45093.694    133.43815   0.99794115 
   12600    292.51605   -49.016915    138158.55   -41087.161    4017.0036   -45104.164    134.65137   0.99774148 
   12700    291.56329   -224.17454    138060.05   -41107.032    4003.9197   -45110.951    136.36726   0.99845336 
   12800    291.33736   -118.46389     138113.2   -41105.861    4000.8171   -45106.679    137.48125    0.9980691 
   12900    290.68885    180.40162    138441.67   -41113.603    3991.9113   -45105.514    138.19277   0.99570103 
   13000    287.19583   -356.96488    138383.15   -41233.702    3943.9432   -45177.645    138.81044   0.99612213 
   13100    289.70764    107.71146    138308.84   -41164.017    3978.4368   -45142.453    139.84098    0.9966573 
   13200    292.33216    41.085187    138301.11   -41066.698    4014.4782   -45081.176    140.99609   0.99671299 
   13300    285.57503    50.170448    138304.46   -41096.816    3921.6854   -45018.501    141.72965   0.99668888 
   13400    292.87742    10.093879    138550.65   -41128.217    4021.9661   -45150.183    143.45557    0.9949179 
   13500     292.0154    48.965214    138476.08    -41118.28    4010.1284   -45128.408    144.29431   0.99545361 
   13600     292.3238   -92.101816    138276.24   -41174.221    4014.3635   -45188.585    145.21085   0.99689231 
   13700    287.76967    21.914562    138150.71   -41213.918    3951.8234   -45165.742    146.31835   0.99779814 
   13800    291.58752   -73.355698    137771.66   -41326.185    4004.2524   -45330.438    147.19275    1.0005433 
   13900    283.29507   -121.88707    137550.89   -41278.487    3890.3756   -45168.863     148.3301    1.0021492 
   14000    282.39646   -138.46837    137597.01   -41355.569    3878.0353   -45233.604    149.29669    1.0018133 
   14100    285.41853    272.03226    137906.93   -41266.169    3919.5362   -45185.706    150.76997    0.9995619 
   14200    289.57128   -119.37139     137836.1   -41276.715    3976.5642   -45253.279    151.71864    1.0000756 
   14300     286.4048    119.48663    137800.91    -41303.98    3933.0802   -45237.061    152.89493    1.0003309 
   14400    289.05737    85.699565    138173.57   -41210.159    3969.5069   -45179.665    154.61381   0.99763302 
   14500    287.43103   -91.504102    138344.67   -41238.823     3947.173   -45185.996    156.12084   0.99639915 
   14600    294.07065    102.10081    138425.76   -41109.239    4038.3523   -45147.591    157.18847   0.99581553 
   14700    287.74631    10.948963     138469.3   -41175.787    3951.5026   -45127.289     159.0457   0.99550238 
   14800    290.78111   -292.08202    138252.76   -41211.822    3993.1783       -45205    159.77468   0.99706156 
   14900    288.76936    23.621512    138087.45   -41172.454    3965.5518   -45138.006    161.11136   0.99825518 
   15000    289.35148    70.288797     137772.1    -41234.35    3973.5458   -45207.896    161.66065    1.0005401 
   15100    286.11366   -25.307738    137675.54    -41230.98    3929.0821   -45160.062    163.02208    1.0012419 
   15200    289.38203   -33.222007    137723.02   -41256.955    3973.9654    -45230.92    163.96898    1.0008967 
   15300    291.81215   -28.828336    137797.35   -41232.877    4007.3372   -45240.214    164.94781    1.0003568 
   15400    290.97795   -204.45248    137748.88   -41132.632    3995.8815   -45128.514    166.16341    1.0007088 
   15500    291.04841    163.29208    137695.96   -41198.025     3996.849   -45194.874    167.05931    1.0010934 
   15600    288.89529    142.93463    137916.61   -41262.194    3967.2812   -45229.475    168.96248   0.99949178 
   15700    285.72696    203.19993    138233.85   -41235.775    3923.7717   -45159.546    170.49118     0.997198 
   15800      286.991   -52.723067    138154.65   -41219.055    3941.1302   -45160.185    171.85653   0.99776967 
   15900    289.74783   -307.26509    138101.33   -41201.463    3978.9887   -45180.452    172.78921   0.99815485 
   16000    289.40064   -48.354835    138079.11   -41240.214    3974.2209   -45214.435    173.55843   0.99831554 
   16100    284.11286    128.38926    138384.17   -41207.122    3901.6059   -45108.728    174.44394    0.9961148 
   16200    292.49681    200.90984    138333.92   -41052.962    4016.7393   -45069.701    175.13033   0.99647658 
   16300    293.52673    32.942262    138172.29    -41012.89    4030.8828   -45043.772    175.46061   0.99764229 
   16400    296.38887   -245.80699    138267.87   -41005.258    4070.1874   -45075.445    176.46886   0.99695266 
   16500    289.68508    178.74015    138137.91   -41018.658     3978.127   -44996.785    177.55883   0.99789053 
   16600    292.67657    36.069601    138272.72   -41036.015    4019.2079   -45055.223    178.83831   0.99691763 
   16700    291.42851   -91.639885     138035.8   -41144.688    4002.0688   -45146.756    180.06362   0.99862874 
   16800    291.74426   -169.75213     138413.7   -41125.992    4006.4049   -45132.397    181.48463   0.99590228 
   16900    288.41054     12.23061    138385.48   -41159.061    3960.6243   -45119.685    181.96454   0.99610535 
   17000    291.05855   -313.13742    138122.24   -41143.936    3996.9883   -45140.924    182.60502   0.99800381 
   17100    290.42064   -35.872563    138091.94   -41110.777    3988.2281   -45099.005    183.54168   0.99822274 
   17200    290.82841   -125.27414    138146.03   -41077.489    3993.8279   -45071.317    185.44142   0.99783191 
   17300    290.05106   -141.25816     137916.7   -41108.842    3983.1528   -45091.995     186.7309   0.99949113 
   17400    289.40402    -244.4507    137834.07   -41142.842    3974.2674    -45117.11     187.8688    1.0000903 
   17500    290.43363   -232.51032     137732.8   -41152.056    3988.4065   -45140.462    189.64544    1.0008257 
   17600    287.18476    116.60106    137643.14   -41183.768    3943.7911   -45127.559    190.91055    1.0014775 
   17700    287.44011   -58.319917    137713.83   -41140.622    3947.2977   -45087.919     191.8083    1.0009635 
   17800    293.89467    -109.2681    137612.09   -41191.936    4035.9356   -45227.872    193.10593    1.0017036 
   17900    287.99115    92.484017    137867.13   -41249.067    3954.8649   -45203.932    194.14282   0.99985049 
   18000    286.84901   -120.54191    138076.77   -41271.805    3939.1804   -45210.986    195.45558   0.99833244 
   18100    285.10403   -143.32592    138197.64   -41247.729    3915.2173   -45162.947    196.54761   0.99745927 
   18200    286.04257   -169.38327    138589.51   -41230.322    3928.1059   -45158.428    198.07582   0.99463891 
   18300    286.75701   -75.586896    138346.35   -41258.815     3937.917   -45196.732    198.73099   0.99638711 
   18400    282.25353    57.945964    138010.78   -41306.297    3876.0725   -45182.369    199.43294   0.99880976 
   18500    289.01642    225.61651    138227.95    -41211.25    3968.9446   -45180.194    200.07196   0.99724052 
   18600    292.96768    16.509937    137949.23   -41210.689    4023.2056   -45233.895    200.39976   0.99925543 
   18700    294.83634    487.38957    137907.14   -41117.521    4048.8672   -45166.389    200.90724   0.99956041 
   18800    288.60247     115.0335    138290.58   -41208.998    3963.2599   -45172.258    202.21685   0.99678892 
   18900    289.02167    169.00871    138369.54   -41205.875    3969.0167   -45174.891    203.87841   0.99622012 
   19000    287.34543    17.603503    138176.18   -41188.258    3945.9975   -45134.256    204.66039    0.9976142 
   19100    285.05995   -209.87031    137866.63   -41226.022    3914.6119   -45140.634    205.32688   0.99985411 
   19200    286.87556    94.387237    137602.55   -41169.294    3939.5451   -45108.839    206.12772     1.001773 
   19300    294.86733    -36.52109    137910.64   -41169.507    4049.2927     -45218.8    207.38952   0.99953504 
   19400    289.56616    185.68751    138249.39   -41177.789     3976.494   -45154.282    209.05074    0.9970859 
   19500    291.38781    60.848771    138475.13   -41152.412    4001.5099   -45153.922    210.47392   0.99546043 
   19600    291.34326   -171.92306    138124.35   -41160.565    4000.8981   -45161.463    211.05072   0.99798853 
   19700    291.73914      410.136    138020.89   -41167.875    4006.3346   -45174.209    212.22671   0.99873659 
   19800    290.96475   -110.84395    138024.81   -41190.475    3995.7002   -45186.175    213.79029   0.99870822 
   19900    290.60112   -92.729356    138269.47   -41128.104    3990.7065    -45118.81    215.18229    0.9969411 
   20000    290.48508   -290.44908    137926.41   -41089.121     3989.113   -45078.234     216.1694   0.99942074 
   20100    286.98782   -48.539642     137907.7   -41117.333    3941.0867   -45058.419    217.19757   0.99955637 
   20200    291.85392    184.64299    138188.36   -41078.671    4007.9108   -45086.582    218.39257   0.99752624 
   20300    292.05776   -3.4830611    138276.37   -41026.861    4010.7101   -45037.571    219.66812   0.99689131 
   20400    288.99862   -198.39643    137890.55   -41086.576    3968.7001   -45055.276    220.21879   0.99968064 
   20500    293.33892   -179.01432    138062.45   -41005.226    4028.3037    -45033.53    221.96027   0.99843594 
   20600     297.0185   -186.84169    138200.88   -41043.684    4078.8339   -45122.518     223.0836   0.99743587 
   20700    289.11479    141.45535    138260.96   -41182.468    3970.2954   -45152.763    224.71569   0.99700246 
   20800    285.28791    109.56313    138153.62   -41172.751    3917.7424   -45090.494     225.6637   0.99777711 
   20900    289.74182   -153.08904    137789.41   -41159.223    3978.9061   -45138.129    226.31796    1.0004145 
   21000    296.79491   -215.14589    138383.02   -41047.583    4075.7634   -45123.346    228.20326   0.99612305 
   21100    287.14971    40.972702    138271.33   -41136.072    3943.3098   -45079.382    228.16245   0.99692771 
   21200    284.34066   -122.36328    138159.32   -41211.321    3904.7343   -45116.055    229.08244   0.99773589 
   21300    286.13127   -188.56063    137935.11   -41241.416    3929.3239    -45170.74    230.44152   0.99935772 
   21400    289.27998    37.911799    137858.63   -41170.746    3972.5639    -45143.31    231.35999   0.99991214 
   21500      290.876      81.5381    137894.82   -41124.095    3994.4814   -45118.576    232.80039    0.9996497 
   21600    292.88183    166.08327    138008.56   -41159.846    4022.0267   -45181.873    233.82754   0.99882582 
   21700    288.71672   -45.694637    138325.97   -41164.787    3964.8289   -45129.616    236.01013   0.99653386 
   21800    296.18919    370.89913    138126.04   -41093.402    4067.4453   -45160.847    236.71679   0.99797631 
   21900    289.23342    -5.036349    138478.83   -41049.375    3971.9245   -45021.299    238.59062   0.99543385 
   22000    287.16079   -107.04849    138285.76   -41107.826    3943.4619   -45051.288     240.0595   0.99682369 
   22100    291.75389   -110.25208     138320.7   -41041.273    4006.5371    -45047.81     241.0961   0.99657187 
   22200    288.25832    -41.77006    138362.91   -41044.911    3958.5338   -45003.445    243.03992   0.99626784 
   22300    294.08711   -16.425017    138223.16   -41069.928    4038.5782   -45108.506     243.8741   0.99727509 
   22400    292.33582   -228.93112    137983.16   -41165.832    4014.5285    -45180.36     244.8361   0.99900971 
   22500    287.99039     216.1392    138071.52   -41202.334    3954.8545   -45157.188    246.02934   0.99837037 
   22600    285.89885   -219.36974    138045.03   -41197.663    3926.1322   -45123.795    247.06209   0.99856198 
   22700    289.59128    56.229513    138089.03   -41179.583    3976.8388   -45156.421    248.43539   0.99824379 
   22800    284.27936   -340.96642     137856.4   -41276.068    3903.8924    -45179.96    249.28605    0.9999283 
   22900    286.53053    68.054167    137899.92   -41247.074    3934.8068   -45181.881    250.24168   0.99961276 
   23000    287.71598    -176.8823    138022.78   -41111.244    3951.0861    -45062.33     251.3228   0.99872291 
   23100    290.72016   -115.18423    138050.74   -41097.909    3992.3413    -45090.25    252.31243   0.99852064 
   23200     293.1947    152.22108    138053.98    -41136.57    4026.3232   -45162.893     254.2123   0.99849722 
   23300    287.87288   -98.375962    138535.23    -41261.11    3953.2408   -45214.351    256.21221   0.99502863 
   23400    287.70018    181.77714    138701.69   -41169.208    3950.8691   -45120.078    257.65771   0.99383444 
   23500    286.34951    245.39428    138510.27   -41219.681     3932.321   -45152.002      258.577   0.99520789 
   23600     283.2655    179.58118    138640.96   -41243.051    3889.9695    -45133.02    259.96155   0.99426979 
   23700    289.76084   -158.52313    138514.32    -41241.73    3979.1673   -45220.898     260.5633   0.99517882 
   23800    290.48329   -1.1042984    138309.69   -41216.595    3989.0885   -45205.683    261.00369   0.99665117 
   23900     292.8928   -64.039973    138456.02   -41129.519    4022.1774   -45151.697    261.94522   0.99559788 
   24000    293.21944   -141.67883    138343.29   -41145.963    4026.6629   -45172.626    263.11939   0.99640913 
   24100    294.09748   -149.16927    138436.17   -41127.524    4038.7207   -45166.245    264.25722    0.9957406 
   24200    289.71807    21.174063    138380.05   -41082.404      3978.58   -45060.984    265.39085   0.99614441 
   24300    287.65919   -76.794676    138409.24   -41182.183    3950.3063   -45132.489    266.69185   0.99593438 
   24400    293.74637   -103.99438    138344.41   -41122.798     4033.899   -45156.697    268.51668   0.99640103 
   24500    285.92096   -150.08109    138320.02   -41114.463    3926.4358   -45040.899    269.81698   0.99657677 
   24600    292.63755   -283.13178    137910.92   -41151.867     4018.672   -45170.539     270.2855   0.99953303 
   24700    289.14357    85.624379    137635.28   -41097.366    3970.6907   -45068.057    270.55496    1.0015348 
   24800    289.89946   -181.52874    137613.26   -41088.605     3981.071   -45069.676    271.37581     1.001695 
   24900    294.84235    235.51339    137690.78   -41136.401    4048.9497   -45185.351     272.4326    1.0011311 
   25000    287.28993    133.11646    138057.83   -41194.335    3945.2354   -45139.571    273.25123   0.99846941 
   25100    280.55663    58.164457    138146.19   -41209.757    3852.7697   -45062.526    274.91172   0.99783075 
   25200    285.75317    120.69507    138220.89   -41197.153    3924.1316   -45121.285    276.52616   0.99729151 
   25300     288.6616    22.920084    138052.69   -41227.709     3964.072   -45191.781    277.33799   0.99850654 
   25400    286.43659   -84.345742    138020.12   -41171.849    3933.5168   -45105.366    278.55443   0.99874219 
   25500    284.12382    145.17298    138003.55   -41233.512    3901.7565   -45135.269    279.80516   0.99886209 
   25600     284.1302   -103.51885    138109.73   -41247.029     3901.844   -45148.873    281.41037   0.99809418 
   25700    284.01315     45.40985     138243.1   -41251.382    3900.2367   -45151.619    282.29569   0.99713128 
   25800    280.86566   -88.723188    138163.58    -41302.61    3857.0135   -45159.624    283.67135   0.99770519 
   25900    284.60777    188.22498     138303.2   -41366.723    3908.4024   -45275.126    284.89211   0.99669798 
   26000    287.35358    57.249677    138269.98   -41227.882    3946.1094   -45173.991    285.86534   0.99693745 
   26100     290.7232   -96.243643    138383.22   -41238.045    3992.3831   -45230.428     286.9258   0.99612163 
   26200    292.18432    67.607698    138353.86   -41145.884     4012.448   -45158.332    287.14514   0.99633303 
   26300    285.46168     -180.638    138398.43   -41190.753    3920.1288   -45110.881    288.90461   0.99601211 
   26400    289.29403    25.095734    138129.59   -41176.853    3972.7569    -45149.61    289.46069   0.99795064 
   26500    291.64667    59.643323    138052.07   -41051.569    4005.0647   -45056.634     290.9025   0.99851102 
   26600    284.79582    -39.05674    138193.05   -41170.061    3910.9847   -45081.046    292.34338   0.99749236 
   26700    291.52502   -248.56964    138097.77   -41093.839    4003.3942   -45097.233    293.06503    0.9981806 
   26800    288.34603    240.78694    137803.78   -41115.042    3959.7384   -45074.781    294.52378    1.0003101 
   26900    284.48349    159.14939    137867.85    -41197.27    3906.6957   -45103.965    296.43151    0.9998453 
   27000     286.7088   -56.362273    137674.69   -41232.651    3937.2549   -45169.906    296.95017    1.0012481 
   27100    289.27219    84.228451    137762.43   -41201.254    3972.4569   -45173.711    297.89237    1.0006104 
   27200     289.8263    15.749623    137672.05    -41107.02    3980.0662   -45087.086    299.20461    1.0012673 
   27300    292.45349    8.9207217    137776.38   -41055.644    4016.1444   -45071.788    300.79427    1.0005091 
   27400    289.44546   -144.18356    137780.74   -41086.153    3974.8363   -45060.989    302.20797    1.0004774 
   27500    293.06351    157.03703    137854.88   -41133.574    4024.5216   -45158.096    302.79784   0.99993932 
   27600    288.95739    -28.74913    138099.22   -41097.082    3968.1339   -45065.216    304.52592   0.99817012 
   27700    290.81945    59.762747    138073.98   -41106.801    3993.7048   -45100.506    305.56143   0.99835263 
   27800    295.81587   -43.695189     138223.1    -41092.83    4062.3187   -45155.149    307.04325   0.99727551 
   27900    290.21101    332.89607     137991.2    -41051.27    3985.3493    -45036.62    307.78327   0.99895149 
   28000    293.54963   -9.6135063    138232.75   -41010.374    4031.1972   -45041.571    308.59212   0.99720589 
   28100    287.29958    132.04295    138150.57   -41077.432    3945.3679     -45022.8    309.32098   0.99779915 
   28200    285.07048    -129.0523    138343.19   -41203.213    3914.7566    -45117.97    310.22242   0.99640988 
   28300    284.53137    138.21437    138209.41   -41199.683    3907.3532   -45107.036    311.11094   0.99737435 
   28400    296.56874    25.492748    138022.85   -41131.149    4072.6575   -45203.806    312.04266   0.99872244 
   28500    290.02303    329.43046    138115.27   -41188.959    3982.7679   -45171.727    313.29341   0.99805415 
   28600    290.40643    88.542107     138016.7   -41225.659    3988.0329   -45213.692    313.79516   0.99876691 
   28700    286.18781   -112.19537    138035.82   -41273.341    3930.1004   -45203.441    315.02304   0.99862862 
   28800    287.94683    255.20762    138100.08    -41215.83    3954.2563   -45170.086    315.62063   0.99816394 
   28900    287.59296   -19.694805    137948.59   -41214.029    3949.3968   -45163.425     316.3754   0.99926003 
   29000    285.32745   -157.05879    137837.09   -41203.641    3918.2855   -45121.926    317.79775    1.0000684 
   29100    289.03751   -184.07645    137954.62    -41182.27    3969.2342   -45151.504    319.04127   0.99921637 
   29200    286.62553   -212.23226     138003.8   -41226.401    3936.1115   -45162.512    320.01059   0.99886032 
   29300    287.64029     18.83591    138099.83   -41179.939    3950.0468   -45129.986    321.79328   0.99816573 
   29400    280.88244   -117.62093    137894.78   -41221.784    3857.2439   -45079.027     322.6505   0.99965001 
   29500    289.01961     151.1407    137963.65   -41142.445    3968.9883   -45111.433    324.16201   0.99915096 
   29600    285.88546    44.272823    137999.29   -41166.285    3925.9484   -45092.234    325.70992   0.99889294 
   29700     292.5232   -82.708862    137925.84   -41138.642    4017.1018   -45155.744    326.14217   0.99942492 
   29800    292.25067    188.25417    137847.24   -41105.458    4013.3592   -45118.817    327.29588   0.99999473 
   29900    291.34797    166.03427    137987.96   -41078.562    4000.9628   -45079.525    328.47061   0.99897497 
   30000    289.24706   -247.08838    138034.48   -41094.292    3972.1118   -45066.404    330.18184   0.99863826 
   30100    291.09037    276.11192    138236.46   -41114.135    3997.4252    -45111.56    332.62189   0.99717916 
   30200    290.94382    11.821875    138324.63   -41148.255    3995.4128   -45143.668    334.24894   0.99654353 
   30300    285.52821   -183.70385    138041.25   -41155.609    3921.0424   -45076.651    334.90736   0.99858934 
   30400    281.12866   -138.26984    137818.83    -41296.82    3860.6252   -45157.445    335.56963    1.0002009 
   30500    285.52276    150.42162    137929.83   -41250.065    3920.9676   -45171.033     336.9405   0.99939601 
   30600    281.70574    112.44622    138082.03   -41282.119      3868.55   -45150.669    338.62508   0.99829441 
   30700    282.52423    166.69284       138035   -41204.196      3879.79   -45083.986    339.39658   0.99863452 
   30800    291.51836   -251.01321     137930.4   -41165.521    4003.3026   -45168.824    340.57658   0.99939183 
   30900     284.1375    155.90601    137928.53   -41202.267    3901.9443   -45104.211    342.42702    0.9994054 
   31000    286.43777   -189.49853     138037.7     -41191.2     3933.533   -45124.733    343.36123   0.99861501 
   31100     284.0924    107.05716    138084.16   -41295.209     3901.325   -45196.534    344.96259   0.99827896 
   31200    284.70668   -247.45115     137903.2   -41248.738    3909.7606   -45158.499    345.36988   0.99958895 
   31300    283.37457   -196.97324    138093.99   -41224.652    3891.4674    -45116.12    346.53529   0.99820792 
   31400      287.528   -198.94511    138267.22   -41232.049    3948.5047   -45180.554    347.21264   0.99695732 
   31500    292.46802   -66.326955    138058.61   -41126.691     4016.344   -45143.035    348.37465   0.99846374 
   31600     286.0791    81.546012    138665.66   -41145.905    3928.6075   -45074.512    350.51919   0.99409267 
   31700    292.91953    46.061309     138678.4   -41147.696    4022.5444    -45170.24    351.99518   0.99400136 
   31800    290.63296   -241.81668    138471.08   -41196.787    3991.1438   -45187.931     353.3712   0.99548956 
   31900    289.63064   -287.03302    138179.18    -41126.14    3977.3794    -45103.52    353.21919   0.99759251 
   32000    290.62934    3.0237389    138083.81   -41096.928    3991.0941   -45088.022    354.50294   0.99828155 
   32100    290.21743    87.348483    138184.73    -41134.34    3985.4375   -45119.778    355.64806   0.99755242 
   32200    284.17463    62.751917    138119.67   -41121.943    3902.4542   -45024.397    356.57922   0.99802235 
   32300     287.5987   -22.188929    137819.41   -41100.809    3949.4756   -45050.284    357.60747    1.0001967 
   32400     291.9237   -103.11113    137744.78   -41020.152    4008.8691   -45029.021    359.06622    1.0007386 
   32500    288.15103   -34.058552    137961.45   -41129.694    3957.0604   -45086.754    360.93846    0.9991669 
   32600    290.27233    212.60121    137861.67   -41165.576    3986.1914   -45151.768    361.87638    0.9998901 
   32700    287.92205    22.021433    137746.13   -41138.213     3953.916   -45092.129    362.11375    1.0007288 
   32800    284.27941    102.86303    137988.13   -41207.419    3903.8931   -45111.312    364.19328   0.99897372 
   32900    282.52947   -158.37206    137965.73   -41301.712     3879.862   -45181.574    364.30261   0.99913591 
   33000    285.52064    122.92869    137777.05   -41275.466    3920.9385   -45196.405     364.5383    1.0005042 
   33100    288.83963   -22.984085    137698.52   -41196.605    3966.5168   -45163.122    364.89872    1.0010748 
   33200    289.75007    -27.32031    137754.11   -41186.048    3979.0194   -45165.068    366.12369    1.0006708 
   33300     288.5068   -195.82872    138198.24   -41136.005    3961.9461   -45097.951    367.69823   0.99745494 
   33400    286.45025   -13.379594    138055.82   -41162.539    3933.7044   -45096.244    368.23874   0.99848391 
   33500    289.35193    111.18118     138188.7   -41097.488    3973.5519    -45071.04    369.77304   0.99752383 
   33600    286.10439    57.346794    138452.74   -41126.866    3928.9549   -45055.821     371.4626   0.99562144 
   33700    289.78035    101.42814    138641.69   -41154.266    3979.4354   -45133.701    371.96019   0.99426451 
   33800    289.97392   -226.81106    138307.09   -41134.698    3982.0935   -45116.791    372.84086   0.99666996 
   33900    288.26803   -42.808513    138191.67    -41109.61    3958.6672   -45068.277    373.70871   0.99750232 
   34000    284.18705    270.67298    137958.63   -41116.651    3902.6247   -45019.276    374.83068   0.99918736 
   34100    287.97518    73.502547    137694.34   -41188.906    3954.6456   -45143.551    375.33192    1.0011052 
   34200    290.24504   -150.50589    137677.11   -41205.106    3985.8167   -45190.923     377.1043    1.0012305 
   34300    292.36906    69.096737     137521.7    -41159.04     4014.985   -45174.025    378.17679    1.0023619 
   34400    294.08742   -222.76659    137539.24   -41034.915    4038.5825   -45073.497    379.03498    1.0022341 
   34500    292.44245   -1.3153696    137691.35   -40988.653    4015.9928   -45004.646    380.62877    1.0011269 
   34600    287.95888     279.9327    137903.88   -41098.772    3954.4218   -45053.194    382.18244   0.99958406 
   34700     285.8621    88.916085    137953.91   -41161.198    3925.6275   -45086.825    384.19126   0.99922155 
   34800    289.97221   -1.0289397    137719.52    -41182.65      3982.07    -45164.72    385.21828    1.0009222 
   34900    288.70153   -72.154318    137770.31   -41114.514    3964.6203   -45079.135    386.72063    1.0005531 
   35000    288.28384    46.406454    138004.74   -41181.154    3958.8843   -45140.038    388.59428   0.99885347 
   35100    291.92879    88.390606    138156.18   -41139.296     4008.939   -45148.235    390.73652    0.9977586 
   35200    291.13278   -278.87018    137960.17   -40991.727    3998.0076   -44989.735    391.56234   0.99917618 
   35300    288.40221     3.494903     137727.5   -41100.388    3960.5098   -45060.898    392.24974    1.0008641 
   35400    286.17899    233.35837    138031.07   -41165.532    3929.9793   -45095.512    394.95021   0.99866293 
   35500    294.44301    133.96602     138064.3    -41152.66    4043.4657   -45196.126    395.91541   0.99842258 
   35600    288.72927   -238.06857    137935.31   -41191.531    3965.0012   -45156.533    395.89843   0.99935629 
   35700    286.88658   -54.121723    137744.84   -41122.316    3939.6963   -45062.013    396.84385    1.0007381 
   35800    290.36345   -163.80298    137875.99   -41104.203    3987.4428   -45091.646    398.03203   0.99978624 
   35900    292.90457   -162.90024    137895.34   -41091.074     4022.339   -45113.413     399.6973   0.99964597 
   36000    292.46507    155.59178    138170.21   -41096.867    4016.3034    -45113.17    401.50603   0.99765726 
   36100    288.09661    183.10336    138085.18   -41159.287    3956.3132     -45115.6    401.89413   0.99827161 
   36200    292.21345    48.058279    138484.32   -41096.267    4012.8481   -45109.115    403.19971   0.99539439 
   36300    289.38716    102.96635    138564.36   -41134.385    3974.0358   -45108.421    404.44898   0.99481943 
   36400    298.15557    -142.2523    138770.82   -41008.961    4094.4488    -45103.41    406.81334   0.99333936 
   36500    296.64881   -89.918781    138678.91   -41013.502    4073.7571   -45087.259     407.2308   0.99399766 
   36600    287.75631   -196.91169    138629.89   -41158.992    3951.6399   -45110.632    407.90087   0.99434915 
   36700    286.29859    83.573923    138566.09   -41194.466    3931.6216   -45126.088    409.15134   0.99480699 
   36800    287.02741   -190.38431    138660.16   -41196.277    3941.6304   -45137.908    410.61114   0.99413208 
   36900    288.44434   -72.993579     138312.4   -41270.838    3961.0884   -45231.927    410.83679   0.99663168 
   37000    288.96334     189.0103    138153.17   -41218.739    3968.2156   -45186.955    412.26955   0.99778035 
   37100    284.60003   -10.278779    138048.56   -41236.459     3908.296   -45144.756    413.77039   0.99853644 
   37200    290.39972    42.565711       137981   -41196.489    3987.9409   -45184.429    414.87416   0.99902535 
   37300    290.08788    -76.11689    138348.14   -41209.618    3983.6585   -45193.277    417.37065   0.99637416 
   37400    286.83526    124.33858    138085.43   -41255.611    3938.9916   -45194.602     417.6211   0.99826983 
   37500     288.8769    107.50551    137995.11   -41243.987    3967.0285   -45211.015    419.05168   0.99892323 
   37600    284.68267   -106.57055    137827.05    -41234.91     3909.431   -45144.341    419.42826    1.0001413 
   37700    289.61523    -290.4185    137804.47   -41289.382    3977.1678    -45266.55    421.23873    1.0003051 
   37800    285.57691    11.425225    137610.64   -41267.262    3921.7111   -45188.973    422.39887    1.0017141 
   37900    282.88596    15.011168    137702.03   -41270.913    3884.7574    -45155.67    423.41184    1.0010493 
   38000    283.30982   -102.74841    137568.06   -41234.247    3890.5782   -45124.825    425.10037    1.0020242 
   38100    286.42859   -103.97306    137534.05   -41229.067    3933.4069   -45162.474    426.26698    1.0022719 
   38200    283.88177    19.531366    137512.91   -41276.734    3898.4325   -45175.166     427.0457     1.002426 
   38300    283.27626   -121.49998    137591.84   -41337.349    3890.1173   -45227.466    427.97202     1.001851 
   38400    282.24568    23.871669    137438.62   -41397.103    3875.9648   -45273.068    428.74092    1.0029679 
   38500    289.97468    105.18049    137307.04    -41373.25    3982.1039   -45355.354    429.39542    1.0039289 
   38600    289.40105     192.4626    137351.17   -41267.426    3974.2265   -45241.652     430.5665    1.0036064 
   38700    292.34359   -52.024694    137528.88   -41266.958    4014.6352   -45281.594    431.55854    1.0023096 
   38800    291.05177     261.2349    137500.07   -41243.085    3996.8951    -45239.98    432.24156    1.0025196 
   38900    287.97802    108.27095    137808.28   -41136.906    3954.6846    -45091.59    434.83399    1.0002775 
   39000     287.7083   -169.46723    137652.35   -41149.716    3950.9807   -45100.697    435.91812    1.0014106 
   39100     287.9814   -215.05291    137793.27   -41212.598    3954.7311   -45167.329    437.46979    1.0003865 
   39200    285.49595    28.137662    137948.69   -41200.426    3920.5993   -45121.026    438.67529   0.99925936 
   39300     286.2576    71.917802     138208.2   -41174.568    3931.0589   -45105.627    439.92827   0.99738309 
   39400    289.08474   -133.30057     137900.6   -41169.248    3969.8827   -45139.131      440.525   0.99960779 
   39500     286.7916    13.438061    137868.62   -41091.731     3938.392   -45030.123     441.3406    0.9998397 
   39600    292.93312    73.115364    138255.87   -41073.726    4022.7309   -45096.457    443.67898   0.99703918 
   39700    288.72288   -84.995059    138389.09   -41171.852    3964.9135   -45136.765    445.30822   0.99607933 
   39800    286.77067    -223.8468    138348.69    -41193.52    3938.1046   -45131.625    445.74192   0.99637023 
   39900    283.38909   -49.136376    138072.65   -41370.332    3891.6667   -45261.999    447.06305   0.99836221 
   40000    280.21057   -169.15882    137800.58   -41261.628    3848.0174   -45109.645    447.61366    1.0003333 
   40100    294.86076   -5.8425976    137613.67   -41223.535    4049.2025   -45272.738     447.6861     1.001692 
   40200    288.14012   -345.71601    137789.41    -41170.43    3956.9107   -45127.341    448.99071    1.0004144 
   40300    291.88079   -83.107841    137691.64   -41214.265    4008.2798   -45222.545    449.72944    1.0011248 
   40400    289.35383    208.93064    137792.21    -41198.07     3973.578   -45171.648    451.47674    1.0003941 
   40500    287.36106   -24.810444    137637.94   -41182.487    3946.2122   -45128.699     452.4968    1.0015154 
   40600    288.76001    2.6058079    137903.81   -41180.563    3965.4234   -45145.987    454.10926   0.99958456 
   40700    287.15431   -51.458183    137856.37   -41170.526     3943.373   -45113.899    455.40486    0.9999285 
   40800    287.77475   -188.94574    137695.97   -41193.671    3951.8932   -45145.564    456.71742    1.0010933 
   40900    288.97273    106.26324    137819.37   -41212.798    3968.3446   -45181.142    458.16845     1.000197 
   41000    285.61067    223.53876    137912.81   -41194.706    3922.1748   -45116.881    459.60373    0.9995193 
   41100    288.64555   -71.425725    138118.27   -41202.813    3963.8515   -45166.664    461.09283   0.99803246 
   41200    288.70481   -19.500188    137748.94   -41108.196    3964.6654   -45072.861    460.83408    1.0007084 
   41300    291.26786   -116.33761    137681.86   -41248.575    3999.8627   -45248.438    461.57165    1.0011959 
   41400    286.30421     68.33276    137815.39   -41170.656    3931.6988   -45102.355    462.07517    1.0002259 
   41500    292.22924    4.6925243    138015.03   -41166.071    4013.0649   -45179.136    464.62321   0.99877899 
   41600    288.25828   -234.21862    138157.97    -41142.78    3958.5334   -45101.314    466.26437   0.99774565 
   41700    286.30085    120.84995    137928.48   -41273.025    3931.6528   -45204.678    467.67031   0.99940579 
   41800    289.87043    51.897928    138033.05   -41180.584    3980.6723   -45161.257    469.07869   0.99864865 
   41900    292.62384    114.08207    138096.97   -41176.406    4018.4838    -45194.89    470.84478   0.99818642 
   42000    290.55627   -145.19141    138198.75   -41254.444    3990.0906   -45244.535     472.1635   0.99745126 
   42100    290.48427    134.22122    138262.66   -41242.217    3989.1019   -45231.319     474.0962   0.99699021 
   42200     290.5943   -36.104723    138197.97   -41212.805    3990.6129   -45203.418    475.19579   0.99745686 
   42300    289.96673    10.522629    138044.43   -41315.568    3981.9948   -45297.562    475.75759   0.99856634 
   42400    288.82527      16.0006    137968.31   -41272.496    3966.3195   -45238.815     476.0071   0.99911721 
   42500    288.77847   -134.34528    137950.65    -41334.75    3965.6769   -45300.427    476.21531   0.99924511 
   42600    290.60441    147.33868    138177.55   -41309.137    3990.7517   -45299.888    477.40987   0.99760432 
   42700    283.22691    -94.37615    138242.88   -41391.515    3889.4396   -45280.955    478.29794   0.99713285 
   42800    281.95223   -35.270591    138392.38   -41337.825    3871.9349    -45209.76    479.28549   0.99605569 
   42900    287.74215   -103.92277    138247.22   -41317.151    3951.4456   -45268.596      479.812   0.99710151 
   43000    284.55519    148.31282    138383.34   -41259.981    3907.6803   -45167.661      481.461   0.99612075 
   43100    282.71417   -96.752937    138274.65   -41260.732    3882.3984   -45143.131    482.92535   0.99690378 
   43200    287.90145   -68.041187    138247.87   -41265.115    3953.6331   -45218.748     483.4419   0.99709689 
   43300    286.40246    -77.99159    137930.43   -41276.324    3933.0481   -45209.372    483.03742   0.99939162 
   43400    286.44553    123.49673    138078.01    -41288.58    3933.6396    -45222.22    484.99102   0.99832344 
   43500    284.45024    106.62294    138180.03   -41220.985    3906.2391   -45127.224    486.58236   0.99758642 
   43600    292.79994   -243.66587    138056.27   -41244.444    4020.9021   -45265.346    487.62999   0.99848068 
   43700    288.38763   -75.611512    137958.44   -41201.254    3960.3096   -45161.563    488.22274   0.99918873 
   43800    290.93643   -181.75153    137860.33   -41154.567    3995.3112   -45149.878    488.27008   0.99989982 
   43900    286.73336   -122.35061    137885.63   -41247.984    3937.5923   -45185.577    489.79524   0.99971637 
   44000    283.37956    227.06324    137875.49   -41201.274    3891.5359   -45092.809     490.2872   0.99978983 
   44100    289.03107    -158.6301    137911.33   -41122.688    3969.1457   -45091.834    491.29851   0.99953006 
   44200    288.91763   -175.33161    137707.68   -41188.355    3967.5878   -45155.943    492.15932    1.0010082 
   44300    284.13556     150.7706    137915.34   -41302.942    3901.9177   -45204.859    494.39233   0.99950099 
   44400    282.14049   -3.5089295     137963.2   -41295.643    3874.5202   -45170.164    494.55061   0.99915421 
   44500    282.53772   -14.525397    137952.27   -41280.447    3879.9752   -45160.422    495.27397   0.99923341 
   44600    281.95462   -109.18262    137950.06   -41298.005    3871.9677   -45169.973    497.38625   0.99924941 
   44700    287.63387    89.114905     137806.2    -41327.68    3949.9586   -45277.639    498.78676    1.0002926 
   44800    291.56122   -150.30294    137749.44   -41280.573    4003.8913   -45284.465     499.5403    1.0007047 
   44900    287.93755    244.63919    138027.59   -41308.368    3954.1289   -45262.496    501.35722   0.99868813 
   45000    286.17477   -18.354251     138174.5   -41294.986    3929.9213   -45224.907     502.9221   0.99762631 
   45100    290.92469    263.80937     138479.5   -41204.006      3995.15   -45199.156    503.84365   0.99542904 
   45200    291.45369   -77.582239    138407.01   -41255.622    4002.4146   -45258.037    505.06212   0.99595036 
   45300    288.50293  -0.93080497    138349.49   -41324.983     3961.893   -45286.876    505.39426   0.99636449 
   45400    286.67311    113.30529     138318.3    -41346.52    3936.7648   -45283.285    506.20996   0.99658914 
   45500    290.20641    37.213602    138186.22    -41249.28    3985.2862   -45234.566    506.90246   0.99754171 
   45600    284.80088    146.41963    138333.82   -41291.278    3911.0542   -45202.332    509.24111   0.99647736 
   45700     290.0379     -13.7933    138522.04   -41202.836    3982.9722   -45185.808    511.16616   0.99512337 
   45800    289.62166    72.669007    138463.92    -41190.86     3977.256   -45168.116    512.80846   0.99554104 
   45900    288.33869   -90.253732    138323.34   -41181.368    3959.6376   -45141.006    513.75389   0.99655286 
   46000    283.43888    176.61335    138316.25   -41208.368    3892.3505   -45100.718    514.50967   0.99660389 
   46100    288.45991    -47.34485    138210.98   -41149.771    3961.3022   -45111.073    516.54022     0.997363 
   46200    291.02056     -75.8715    138188.48   -41150.106    3996.4666   -45146.572    518.09947   0.99752536 
   46300    288.10463   -133.91981    138415.26   -41188.405    3956.4233   -45144.829    518.66443   0.99589106 
   46400    286.27464   -118.76675    138377.49   -41212.891    3931.2928   -45144.184    519.01274   0.99616286 
   46500    291.76696   -64.414486    138501.21   -41167.448    4006.7166   -45174.165    520.45772   0.99527301 
   46600    289.05687    100.75504    138378.89   -41087.837       3969.5   -45057.337    521.22994   0.99615282 
   46700    293.26021    -70.94255    138343.85    -41083.61    4027.2227   -45110.833    522.01071   0.99640507 
   46800    292.34003   -205.23227    138095.14   -41066.173    4014.5864    -45080.76      521.494   0.99819959 
   46900    286.08393   -43.164148    138374.84   -41043.177    3928.6739   -44971.851    523.39183   0.99618197 
   47000    286.39247   -112.32743    138445.68   -41118.526    3932.9109   -45051.437    524.26225   0.99567221 
   47100    292.80852    2.2868771    138212.08     -41103.5    4021.0199    -45124.52    525.92052   0.99735507 
   47200    286.55569   -145.27427    138042.67   -41177.552    3935.1524   -45112.705    526.14978   0.99857907 
   47300    286.22578   -64.915011     138133.3   -41147.853    3930.6218   -45078.475    528.16547   0.99792385 
   47400    292.83862    132.32629    138398.13   -41122.779    4021.4332   -45144.213    529.48303   0.99601428 
   47500    285.95131   -33.080906     137950.9    -41181.69    3926.8527   -45108.543    530.17396   0.99924336 
   47600    290.53683    127.18513    138155.82   -41112.376    3989.8237     -45102.2    532.71855   0.99776116 
   47700    290.22838    -190.6107    137986.63   -41196.205     3985.588   -45181.793     534.2844   0.99898459 
   47800    289.06363    98.747438    137985.72    -41240.01    3969.5928   -45209.603    535.96317   0.99899119 
   47900    284.62501    12.624031    137863.36   -41180.782    3908.6391   -45089.421     537.5943   0.99987782 
   48000    288.03853    24.386907    138432.05    -41200.79    3955.5156   -45156.305    539.72104   0.99577025 
   48100    289.05324    85.677102    138190.38   -41229.984    3969.4502   -45199.434    540.03157   0.99751166 
   48200     281.6843   -206.66808    138366.75     -41217.6    3868.2555   -45085.856    541.93251   0.99624017 
   48300    288.56135    43.507972    138130.52   -41170.925    3962.6953    -45133.62    542.46705   0.99794395 
   48400    288.84558    64.657366    138320.02   -41116.839    3966.5984   -45083.437    543.76117   0.99657676 
   48500    289.18382    -118.0944    138509.06   -41189.742    3971.2433   -45160.985    545.93026   0.99521663 
   48600    289.25602    19.412619    138356.91   -41188.797    3972.2349   -45161.032    546.78267   0.99631104 
   48700    288.12293   -81.062999    138355.77   -41276.642    3956.6746   -45233.317    547.64837   0.99631924 
   48800    285.66789   -182.42631    138293.51   -41220.637    3922.9606   -45143.597    548.21884    0.9967678 
   48900    287.70639   -150.13128    138200.15   -41167.613    3950.9545   -45118.567     549.6487   0.99744112 
   49000    289.26772    122.19988    138143.76   -41139.073    3972.3955   -45111.468    551.18466   0.99784834 
   49100    286.65896   -124.09904    138192.09   -41239.431    3936.5705   -45176.001    552.47226   0.99749934 
   49200    282.60878   -89.185629    137998.81   -41290.282     3880.951   -45171.233    552.72292   0.99889639 
   49300    286.62376   -162.88335    137991.67   -41219.948    3936.0871   -45156.035    554.02988   0.99894808 
   49400    282.13929   -244.38519    138250.68   -41228.709    3874.5037   -45103.213    555.27581   0.99707656 
   49500    285.87386   -38.114441    138266.04   -41203.825     3925.789   -45129.614     556.1961   0.99696582 
   49600    290.00945   -117.33815    138229.49   -41253.744    3982.5815   -45236.325    557.91673   0.99722941 
   49700    288.13808    102.84007    138220.85   -41192.725    3956.8827   -45149.607    558.14652   0.99729179 
   49800    291.52458    -41.92492     138326.3   -41163.398     4003.388   -45166.786    559.63443   0.99653148 
   49900    283.86713   -241.79731    138059.91   -41213.781    3898.2314   -45112.012    560.27446   0.99845434 
   50000    285.32695    5.3189779    138130.44   -41250.672    3918.2785    -45168.95    561.20071   0.99794456 
   50100    288.50258   -180.21613    137979.96   -41265.865    3961.8882   -45227.753    562.65997    0.9990329 
   50200    283.90674    46.577056    138055.15   -41273.582    3898.7754   -45172.357    564.29219    0.9984888 
   50300    290.77273    13.312783    138101.35   -41188.096    3993.0633   -45181.159    565.27825   0.99815477 
   50400    290.00864   -163.95876    137825.63   -41238.339    3982.5703    -45220.91    565.41473    1.0001515 
   50500    290.32182   -24.122781    137605.22   -41266.236     3986.871   -45253.107    565.84591    1.0017536 
   50600    288.31153   -5.6482695    137287.59   -41245.711    3959.2646   -45204.976    566.18483    1.0040712 
   50700    289.23074    172.27082    137416.19   -41186.738    3971.8878   -45158.626    568.06027    1.0031316 
   50800    285.50683   -164.03075    137571.24   -41156.822    3920.7488   -45077.571    569.99071     1.002001 
   50900    288.77303   -316.03876    137606.03   -41176.164    3965.6021   -45141.766     571.3348    1.0017476 
   51000     287.7709   -196.15486    137710.69   -41203.204    3951.8403   -45155.044    572.11045    1.0009863 
   51100    292.49269   -128.26352    137622.21    -41184.56    4016.6828   -45201.243    573.02947    1.0016298 
   51200    289.75341    142.92474    137443.96   -41080.885    3979.0654    -45059.95    574.28183    1.0029289 
   51300    291.82663   -112.63042    137606.25   -41098.522    4007.5361   -45106.059    575.59351     1.001746 
   51400     287.6191    -128.3792    137523.14   -41260.991    3949.7557   -45210.747    576.52146    1.0023515 
   51500    289.01666    157.78582    137392.36   -41299.573    3968.9479   -45268.521    576.84423    1.0033056 
   51600    287.14653   -21.034204    137651.93   -41267.421    3943.2661   -45210.687    578.46034    1.0014136 
   51700    285.16527    250.87842    137733.07   -41277.415    3916.0582   -45193.473    579.15529    1.0008237 
   51800    290.15508   -37.184094    137807.75   -41254.231    3984.5812   -45238.813    580.91335    1.0002813 
   51900    283.59823     283.7645    138264.13   -41332.673    3894.5387   -45227.212    583.20695   0.99697961 
   52000     287.3966    88.581009    138541.03   -41257.625    3946.7002   -45204.325     584.7498   0.99498698 
   52100    290.46169    32.908865    138414.72   -41286.293    3988.7918   -45275.085    586.05685    0.9958949 
   52200    285.24943   -87.950774    138373.71   -41330.548     3917.214   -45247.762    587.03461   0.99619008 
   52300    289.30833   -235.03092    138620.38    -41263.89    3972.9532   -45236.843    588.14388   0.99441741 
   52400    291.96055   -23.200688    138582.72   -41176.827    4009.3751   -45186.203    588.21911   0.99468759 
   52500    290.00166   -9.2400526    138573.91    -41197.99    3982.4744   -45180.464    588.97354   0.99475084 
   52600    285.17688    -230.3815    138559.41   -41291.045    3916.2177   -45207.263    591.19507   0.99485496 
   52700    288.63213    200.31555     138449.1   -41297.153    3963.6673   -45260.821    591.63139   0.99564765 
   52800    283.88631   -289.94487    138405.29   -41359.139    3898.4948   -45257.634     592.5004   0.99596279 
   52900    287.68431   -227.94175    138362.23   -41415.142    3950.6513   -45365.793    593.97257   0.99627276 
   53000    280.81399   -63.549332    138167.37   -41478.139    3856.3039   -45334.443    594.87428    0.9976778 
   53100    279.65467   -102.83362    137980.17   -41504.144    3840.3834   -45344.528    595.72283   0.99903136 
   53200    285.58167    269.13292     138019.1   -41357.198    3921.7766   -45278.974    597.22943    0.9987496 
   53300    287.02577   -66.431984    138182.44   -41307.291    3941.6078   -45248.899    599.28599   0.99756898 
   53400     286.5152    107.25055    138056.84   -41181.944    3934.5963   -45116.541    600.17731   0.99847654 
   53500    287.91657   -35.836643    138225.75   -41175.139    3953.8408    -45128.98    601.23384   0.99725641 
   53600    292.29937    74.176674    138128.81   -41158.698    4014.0279   -45172.726    602.91943   0.99795631 
   53700    289.48867    -46.01726    138092.51   -41257.567    3975.4298   -45232.997    603.35767   0.99821862 
   53800     279.0621     240.4228    137790.71    -41288.71    3832.2459   -45120.956    603.01351     1.000405 
   53900    286.08512    331.74108    137951.41   -41274.731    3928.6902   -45203.421    604.29174   0.99923963 
   54000    286.84224   -103.27654    138248.44   -41245.603    3939.0874   -45184.691    606.41106   0.99709277 
   54100     288.3332   -182.63389    138537.67   -41214.953    3959.5621   -45174.515    607.14544   0.99501109 
   54200    283.28307   -4.3880721    138519.59   -41273.594    3890.2108   -45163.805    607.95929   0.99514096 
   54300    284.31956    272.86763    138552.39   -41182.029    3904.4444   -45086.473    609.62998   0.99490539 
   54400    285.22398    263.51596    138631.89   -41259.802    3916.8645   -45176.666    611.18772   0.99433481 
   54500    288.12329    151.34068     138780.3   -41252.769    3956.6795   -45209.448    611.48548   0.99327147 
   54600    286.10612   -266.93444       138538   -41260.008    3928.9786   -45188.986    611.33063   0.99500868 
   54700    287.69352    173.01021    138195.89   -41232.327    3950.7777   -45183.104    610.65996   0.99747193 
   54800    285.84471    99.125983    137979.67   -41222.222    3925.3888   -45147.611    610.68244   0.99903496 
   54900    289.96635   -71.057437    138128.26   -41120.173    3981.9895   -45102.163    612.11255   0.99796028 
   55000    292.55098    148.45659    138387.57   -41066.352    4017.4832   -45083.835    613.93924   0.99609029 
   55100    290.71864   -139.82845     138059.8   -41083.928    3992.3204   -45076.248    614.23486   0.99845514 
   55200    291.66114    87.049626    138218.87   -41125.711    4005.2634   -45130.975    615.77201   0.99730609 
   55300     290.1786     138.4267    138195.54   -41123.991    3984.9044   -45108.895    616.98444    0.9974744 
   55400    293.90305   -169.78449    138072.02   -41076.057    4036.0507   -45112.108    618.42914   0.99836674 
   55500    290.12352   -226.73526    138037.88   -41112.903    3984.1479   -45097.051    619.92731   0.99861366 
   55600    293.02589    149.07748    138057.38   -41090.153    4024.0049   -45114.158    621.69628   0.99847261 
   55700    291.15948    129.50657    138401.22   -41098.643    3998.3744   -45097.017    624.63409   0.99599204 
   55800    287.45269   -107.08349    138472.57   -41231.213    3947.4705   -45178.684    626.12351   0.99547886 
   55900    288.09923   -32.374046    138298.99   -41297.773    3956.3491   -45254.122    626.90102   0.99672833 
   56000    284.19261    280.27361    138137.89   -41288.521    3902.7011   -45191.222    626.40638   0.99789069 
   56100    288.26543    21.000869    138384.29   -41318.628    3958.6315    -45277.26    628.04039   0.99611392 
   56200    291.89675    135.27554    138198.03   -41273.067    4008.4989   -45281.566    629.28473   0.99745648 
   56300    290.78795    280.92494    138331.09   -41165.359    3993.2722   -45158.631    630.99556     0.996497 
   56400    289.94623    191.00244    138358.72   -41086.327    3981.7132    -45068.04    631.55751   0.99629801 
   56500    292.56355    7.6957158    138280.14   -41180.843    4017.6559   -45198.499    632.27035    0.9968642 
   56600    291.98599     82.45631    138248.92   -41145.315    4009.7244   -45155.039    633.37609   0.99708929 
   56700    287.46475   -71.487747    137789.47   -41172.621    3947.6361   -45120.257    633.52509     1.000414 
   56800    288.53116    97.013624     138266.4   -41106.328    3962.2806   -45068.609    636.38183   0.99696323 
   56900    288.35424    129.40832    138422.52   -41153.324    3959.8511   -45113.175      637.831   0.99583881 
   57000    285.03844   -10.197124    138378.54   -41217.598    3914.3165   -45131.915    639.29193   0.99615534 
   57100    284.41469    71.899729     138298.3   -41330.491    3905.7509   -45236.242    640.04563   0.99673326 
   57200     281.9218     75.28761    138135.86   -41385.047     3871.517   -45256.564    640.75091   0.99790534 
   57300    286.70967    215.18008    138142.26   -41335.885     3937.267   -45273.152    641.98256   0.99785912 
   57400    288.25723    84.433851    138138.49    -41291.51    3958.5189   -45250.029    643.02381   0.99788638 
   57500    289.97704    80.849903    138552.41   -41246.394    3982.1364   -45228.531    645.11491   0.99490524 
   57600    284.09715    228.29586    138266.46   -41374.634    3901.3902   -45276.024    646.44781   0.99696283 
   57700    287.06413     116.3152    138510.89   -41296.861    3942.1346   -45238.996    647.64012   0.99520344 
   57800    285.80494   -39.103512    138707.43   -41245.182    3924.8426   -45170.025    649.50664    0.9937933 
   57900     279.4049   -74.076915    138374.52   -41310.062    3836.9535   -45147.015    649.65858   0.99618423 
   58000    285.01993    263.32979    138208.04   -41288.231    3914.0624   -45202.294    650.50012   0.99738418 
   58100    288.15177    75.544484    138871.16   -41205.034    3957.0707   -45162.105    652.09948   0.99262159 
   58200    285.53559   -168.25258    138565.77   -41269.358    3921.1438   -45190.501    651.75957    0.9948093 
   58300    286.06226    -56.85738    138592.22   -41234.498    3928.3762   -45162.875    653.41766   0.99461945 
   58400    290.78634   -174.38472    138366.74   -41240.117    3993.2501   -45233.368    653.45072   0.99624026 
   58500     289.0753   -131.11832    138407.73   -41106.974    3969.7532   -45076.727    656.22501   0.99594521 
   58600    287.12494   -83.397892    138134.66   -41177.802    3942.9696   -45120.772    657.10097   0.99791401 
   58700    292.17979    415.84313    138349.49   -41171.719    4012.3858   -45184.104    659.49499   0.99636444 
   58800    294.73544   -24.573773    138400.63     -41169.7    4047.4815   -45217.181    661.08086   0.99599629 
   58900    289.45777   -147.55901    138201.22   -41132.386    3975.0055   -45107.392     660.9539   0.99743346 
   59000    288.22031   -79.881529    138343.26   -41216.785    3958.0119   -45174.796    663.96319   0.99640931 
   59100    287.94085   -146.12001    137992.68   -41200.057    3954.1742   -45154.231    664.13683   0.99894078 
   59200    290.07769   -153.02401    138189.25   -41222.062    3983.5186   -45205.581    666.50471   0.99751982 
   59300     293.6982   -98.514659    138084.72   -41235.647    4033.2375   -45268.885    667.05169   0.99827493 
   59400    291.92187   -23.119532    137866.16   -41206.647    4008.8439   -45215.491    667.42708   0.99985751 
   59500    286.82422   -90.765685    138082.48   -41242.382      3938.84   -45181.222     669.7864   0.99829112 
   59600    293.07313    29.257547    138334.87    -41123.19    4024.6537   -45147.843    672.13994    0.9964698 
   59700    290.79562    33.587601    138129.49   -41133.116    3993.3776   -45126.494    672.31026   0.99795136 
   59800    285.16536   -322.10695    138206.15   -41175.154    3916.0596   -45091.214    673.52692   0.99739785 
   59900    288.29565    102.42565    138439.92   -41181.681    3959.0465   -45140.728    676.22071   0.99571361 
   60000    289.85459   -37.818723    138017.98   -41219.951    3980.4548   -45200.406     676.8099   0.99875768 
   60100    283.15943     48.84261    138134.83   -41274.935    3888.5129   -45163.448    679.05144   0.99791283 
   60200    282.57472   -279.97512    138498.77    -41286.85    3880.4834   -45167.334    681.56429   0.99529055 
   60300    289.03188    40.887181       138336   -41205.987    3969.1569   -45175.143    682.16246    0.9964616 
   60400    287.63934   -181.38128    138602.92   -41246.173    3950.0337   -45196.207    684.89216   0.99454268 
   60500    283.99715   -48.719445    138548.72   -41294.739    3900.0169   -45194.756    685.75138   0.99493174 
   60600    293.03679    -265.4479    138370.37   -41237.616    4024.1547   -45261.771    686.44401   0.99621415 
   60700    287.23757    165.35937    138426.47    -41267.56    3944.5164   -45212.077    688.66532   0.99581036 
   60800    286.92317   -238.32188    138121.43   -41250.199    3940.1988   -45190.398    687.92087   0.99800961 
   60900    289.78014   -4.2949171    138005.82   -41224.548    3979.4325    -45203.98    688.68442   0.99884569 
   61000    291.18448   -80.313995    137977.82   -41177.671    3998.7176   -45176.389    689.92836   0.99904836 
   61100    282.90827    66.674239    137940.14   -41126.304    3885.0638   -45011.368    689.90016   0.99932131 
   61200    292.81944    256.27125    137684.64   -41081.578    4021.1699   -45102.747    690.78439    1.0011757 
   61300    296.76724   -60.465628    138013.66   -41050.383    4075.3834   -45125.767    692.94821   0.99878892 
   61400    295.91499    32.909281    138148.14   -40999.147    4063.6797   -45062.826    694.15007   0.99781664 
   61500    292.91219    -439.5793    137994.84   -41005.519    4022.4436   -45027.962    695.00789   0.99892515 
   61600    291.36711   -112.38808    138416.27   -41105.863    4001.2256   -45107.089    697.27863   0.99588376 
   61700    292.91341   -170.08784    138411.95   -41131.742    4022.4603   -45154.202     697.5725   0.99591483 
   61800      289.506    255.73706    138399.26   -41139.184    3975.6677   -45114.851    698.48127   0.99600618 
   61900    285.01839    108.95299    138475.38   -41149.763    3914.0412   -45063.804    699.79853   0.99545868 
   62000    285.15102   -313.99818    138459.47   -41150.286    3915.8626   -45066.148    700.25024   0.99557308 
   62100    289.15999    126.67305    138424.98   -41171.334    3970.9162    -45142.25    699.47805   0.99582112 
   62200    289.80473    54.287839    138501.34   -41174.434    3979.7701   -45154.204    699.56654   0.99527209 
   62300    280.72388   -30.940576    138327.97   -41206.413    3855.0665    -45061.48    700.53125   0.99651948 
   62400    289.09051   -22.973338    137924.19   -41245.953     3969.962   -45215.915    699.89083   0.99943685 
   62500    291.53837    -85.11953    138045.15   -41213.117    4003.5775   -45216.695    701.20532   0.99856112 
   62600    291.83912   -46.173769    138200.57     -41169.8    4007.7075   -45177.507    702.88962   0.99743811 
   62700    283.05224   -133.59231    138156.33   -41244.382     3887.041   -45131.423    704.02544   0.99775755 
   62800      291.934   -87.519534    138295.52   -41207.719    4009.0104    -45216.73    706.16753   0.99675327 
   62900    285.60165   -5.6277066     137933.3   -41224.729    3922.0509    -45146.78    706.66469   0.99937086 
   63000    283.48019    33.518629    137751.06   -41189.011    3892.9177   -45081.929     707.2821    1.0006929 
   63100    288.32662    192.76424     137872.6   -41189.285    3959.4719   -45148.757    709.79592   0.99981079 
   63200    289.36121   -2.6394095    138136.37   -41191.804    3973.6794   -45165.484    711.53607   0.99790165 
   63300    290.27214    75.345775    138526.48   -41248.845    3986.1889   -45235.034    713.91275   0.99509144 
   63400    287.31091     116.9316    138283.12   -41332.262    3945.5235   -45277.786    714.40152   0.99684267 
   63500    289.80322   -13.350263    138142.59   -41233.718    3979.7494   -45213.467    714.95836   0.99785678 
   63600    286.87215   -149.77998    138324.94   -41173.512    3939.4981   -45113.011    716.80797    0.9965413 
   63700    284.65678   -225.29397    138182.88    -41263.87    3909.0754   -45172.945    717.60327   0.99756581 
   63800     284.9608   -92.857797    138415.55    -41280.39    3913.2504    -45193.64    720.12402   0.99588893 
   63900    284.81237   -227.43148    138405.82   -41266.122    3911.2121   -45177.334    722.43563   0.99595897 
   64000    285.79971   -73.439573    138098.38   -41342.463    3924.7708   -45267.234    721.44523   0.99817622 
   64100    283.84347    23.410261    138087.75   -41327.786    3897.9066   -45225.693    723.61458   0.99825304 
   64200    285.23437    198.97358       138200    -41328.78    3917.0072   -45245.787    725.93464   0.99744226 
   64300    283.69637   -175.22208    138122.73   -41344.837    3895.8865   -45240.723    726.33448   0.99800023 
   64400    282.13198    163.62086    138282.17    -41349.57    3874.4033   -45223.973    728.34285   0.99684951 
   64500    279.99281   -36.772733    138122.65    -41390.66     3845.027   -45235.687    728.14344   0.99800081 
   64600    290.15199   -273.21897    137898.34   -41276.905    3984.5389   -45261.444    729.46482   0.99962421 
   64700    284.80651    4.8575245    137882.28   -41224.054    3911.1315   -45135.186    730.37169   0.99974065 
   64800    287.39736   -42.827218     138141.7   -41144.704    3946.7107   -45091.415    732.06187   0.99786319 
   64900    290.18262   -191.81097    138045.83   -41157.983    3984.9594   -45142.942    732.53899   0.99855619 
   65000    286.48697   -69.849492     137838.6   -41183.687    3934.2086   -45117.895    732.78435    1.0000575 
   65100     286.4618    28.484744     138040.7   -41272.893    3933.8629   -45206.756    733.76334    0.9985933 
   65200    289.43363   -31.384797    138059.68   -41209.733    3974.6739   -45184.407    735.03633   0.99845599 
   65300    282.56926    46.707371    137874.16   -41207.521    3880.4083    -45087.93    735.23361   0.99979948 
   65400    282.11062    28.867108    137629.16   -41300.302      3874.11   -45174.412    735.26264    1.0015793 
   65500    290.81135    11.019375    137845.75   -41181.091    3993.5935   -45174.684    738.04377    1.0000055 
   65600    288.40245   -24.841866    137540.61    -41093.93    3960.5131   -45054.443    737.87209    1.0022241 
   65700    288.40851    99.026573    137753.81   -41108.547    3960.5963   -45069.144    739.43364     1.000673 
   65800    285.00585    268.05349    137340.58   -41182.042     3913.869   -45095.911    740.11663    1.0036838 
   65900    292.04999    60.008257    137176.62   -41176.473    4010.6034   -45187.076     741.1932    1.0048835 
   66000    286.60375   -93.817023     137478.2   -41188.706    3935.8124   -45124.518    743.62545    1.0026791 
   66100    286.03193   -146.70721    137453.08   -41147.751    3927.9598    -45075.71    743.78029    1.0028623 
   66200    285.96366    27.649531    137501.88   -41066.006    3927.0222   -44993.028    746.01428    1.0025064 
[...]
   84600    282.77259   -140.15685    138075.79   -41301.192    3883.2006   -45184.392    951.72462   0.99833952 
   84700    290.73601    -78.73226    137887.61   -41272.551     3992.559    -45265.11     951.2704   0.99970201 
   84800    288.18093   -188.90637    137834.88   -41210.473    3957.4711   -45167.944    950.65179    1.0000845 
   84900    287.75977   -6.4964152    137868.21   -41181.904    3951.6875   -45133.591    953.00758   0.99984266 
   85000    285.34151    38.190883    137878.22   -41190.299    3918.4785   -45108.777    954.85083    0.9997701 
   85100    285.26009    50.285029    137760.61   -41169.634    3917.3604   -45086.994    955.43541    1.0006236 
   85200    293.12238    117.81883    137607.36   -41129.676      4025.33   -45155.006    955.67997    1.0017379 
   85300    288.51853    -25.84268    137748.76   -41106.177    3962.1072   -45068.284    956.74331    1.0007097 
   85400    291.60473    -39.13882     137916.7   -41130.453    4004.4888   -45134.942    958.76874   0.99949109 
   85500    290.78518    34.321858    138161.45   -41122.646    3993.2342    -45115.88    962.37499   0.99772053 
   85600    289.23648   -50.766786    138340.12   -41120.537    3971.9665   -45092.503    965.52915   0.99643198 
   85700    285.94757   -143.63769    138262.95   -41152.619    3926.8012    -45079.42    965.91177   0.99698808 
   85800    294.20023    139.33619    138368.68   -41090.562    4040.1317   -45130.694    967.85516   0.99622627 
   85900    288.99636    70.570653     138633.1   -41145.769    3968.6691   -45114.438    970.22158   0.99432613 
   86000     287.3753   -75.874704    138305.17   -41219.375    3946.4077   -45165.783    968.35265   0.99668377 
   86100    283.46921    7.5804815    138084.81    -41143.14    3892.7669   -45035.907    969.30834   0.99827427 
   86200    286.76123    35.404663    138203.59   -41200.698     3937.975   -45138.673    971.78466   0.99741629 
   86300     286.5288    125.55695    138105.74   -41233.312    3934.7831   -45168.095       972.57     0.998123 
   86400    285.44779    107.63594     138343.1   -41232.813     3919.938   -45152.751    974.39239    0.9964105 
   86500    289.80403    95.791016    138538.63    -41142.57    3979.7605    -45122.33    976.49696   0.99500421 
   86600    290.62255    169.82212    138427.77   -41160.333    3991.0009   -45151.334    977.90134   0.99580104 
   86700    286.85712     87.92193    138501.47   -41152.753    3939.2917   -45092.045    980.15256   0.99527115 
   86800    287.71627    218.13162    138386.08   -41086.585    3951.0901   -45037.675    980.70976   0.99610103 
   86900    289.52257   -135.60504    138469.16   -41119.743    3975.8953   -45095.638    981.96468   0.99550341 
   87000    287.27128    274.60158     138617.2   -41177.984    3944.9793   -45122.964    984.37508   0.99444021 
   87100     289.2925   -221.29275    138271.36   -41195.837    3972.7358   -45168.573    983.33151   0.99692748 
   87200     288.6807    54.176702    138264.04   -41136.637    3964.3342   -45100.972    983.08033   0.99698027 
   87300    291.80471   -77.442015    138348.19   -41080.363     4007.235   -45087.598    983.93528   0.99637385 
   87400    290.11542    248.61293    138383.31   -41146.763    3984.0367   -45130.799    985.37596     0.996121 
   87500    287.20294    80.252151    138306.43   -41196.087    3944.0407   -45140.128    986.28311   0.99667468 
   87600      285.614   -45.101156    138229.44   -41192.622    3922.2206   -45114.842    985.94443   0.99722981 
   87700    280.31951    307.28556     137982.5   -41178.398    3849.5134   -45027.911     985.6793    0.9990145 
   87800    292.29725    160.98525    137828.66   -41117.693    4013.9988   -45131.692     986.0966    1.0001296 
   87900    289.87186    61.902415    137727.81   -41118.332     3980.692   -45099.024    986.18522    1.0008619 
   88000    291.23627    253.96981    137648.37   -41161.572    3999.4288   -45161.001     987.4811    1.0014395 
   88100    290.25864    58.690091       137583   -41188.307    3986.0035    -45174.31     988.1148    1.0019153 
   88200    291.44812   -42.539756    138198.32   -41138.215     4002.338   -45140.553    992.01594   0.99745435 
   88300    293.26208   -41.579303     137987.5   -41111.351    4027.2484   -45138.599    991.91338   0.99897828 
   88400    287.94014     56.80284    138346.85   -41212.867    3954.1644   -45167.032    994.92831    0.9963835 
   88500    285.98681   -127.31122    138192.87   -41241.231    3927.3402   -45168.571    995.18921    0.9974937 
   88600     287.8986   -326.49379    137807.53   -41232.785    3953.5939   -45186.379     994.1748    1.0002829 
   88700    290.86802    223.76089    137675.04   -41204.634    3994.3718   -45199.006    994.40226    1.0012455 
   88800    288.23762    23.069042    137831.83   -41214.806    3958.2497   -45173.056    996.43892    1.0001066 
   88900    285.12367   -25.421164    137934.57   -41260.795     3915.487   -45176.282    997.60084   0.99936165 
   89000    289.97603    55.619325    137825.89   -41142.042    3982.1225   -45124.164    998.38568    1.0001497 
   89100    288.54335   -75.376442    137931.62   -41108.217    3962.4481   -45070.666    999.44729   0.99938297 
   89200    283.44943    47.856147    137895.32   -41246.762    3892.4953   -45139.258    1000.5524   0.99964605 
   89300    293.96373    140.13588    137756.57     -41199.2    4036.8839   -45236.084    1001.0443    1.0006529 
   89400     289.5599    43.187869     137860.9   -41193.021    3976.4079   -45169.429    1002.6543   0.99989566 
   89500    283.83169   -97.890625    138057.58   -41278.926    3897.7448   -45176.671    1004.1916    0.9984712 
   89600    284.87398    178.22822    138290.69   -41169.024    3912.0581   -45081.082    1005.9537    0.9967881 
   89700    283.55478    308.38319    138482.48   -41161.832     3893.942   -45055.774    1007.7595    0.9954076 
   89800    293.54624      150.779    138308.42   -41162.042    4031.1507   -45193.193    1009.3292   0.99666032 
   89900     285.8649    11.295328     138041.6   -41217.909    3925.6659   -45143.575    1009.7193   0.99858676 
   90000    286.06627   -107.37548    138268.53   -41210.994    3928.4314   -45139.426    1011.3936   0.99694785 
   90100    288.39025   -118.86154    138370.14    -41156.81    3960.3456   -45117.155    1013.6594   0.99621575 
   90200    285.01386    133.33584    138115.63   -41280.653    3913.9791   -45194.632    1014.4913   0.99805154 
   90300    288.54223     98.24495    138402.71   -41297.105    3962.4326   -45259.537    1017.3984   0.99598137 
   90400    291.26194   -121.03063    138096.83   -41210.347    3999.7814   -45210.129    1016.5948   0.99818741 
   90500    288.22122    -161.6165    138299.08   -41202.505    3958.0244   -45160.529    1019.5782   0.99672761 
   90600    287.02049    160.70405    138270.46   -41149.099    3941.5353   -45090.634    1019.3707   0.99693398 
   90700    287.46216   -99.114792    138352.58   -41152.175    3947.6005   -45099.776    1020.8109   0.99634219 
   90800    291.03387   -50.427158    138451.33   -41139.004    3996.6494   -45135.653    1022.9106   0.99563157 
   90900    283.99166   -90.271161    138355.42   -41224.047    3899.9416   -45123.989    1024.3209   0.99632174 
   91000    286.87691    22.200007    138283.94    -41161.34    3939.5635   -45100.904    1024.5884   0.99683675 
   91100    285.52969    109.10263     138506.3   -41153.371    3921.0627   -45074.434    1026.8321   0.99523645 
   91200    292.21469   -33.275469    138320.64   -41161.565    4012.8651    -45174.43    1025.8432   0.99657226 
   91300    287.10752    35.708816    138534.71   -41221.493    3942.7304   -45164.224    1027.6683   0.99503235 
   91400     285.9476   -92.707077    138404.22   -41245.274    3926.8016   -45172.076    1028.0014   0.99597044 
   91500    285.83632    -77.10774    138312.82     -41228.5    3925.2736   -45153.773    1028.3605   0.99662867 
   91600    286.27689     94.65966    138110.64    -41219.52    3931.3237   -45150.844     1027.551    0.9980876 
   91700     285.7822   -338.40086    138169.65   -41334.567    3924.5303   -45259.098    1028.2115   0.99766134 
   91800    283.02371   -9.9483271    137740.61   -41332.891    3886.6491    -45219.54    1028.3127    1.0007689 
   91900    284.86929    137.83262    137814.73   -41301.661    3911.9937   -45213.654    1030.7132    1.0002306 
   92000    293.04882   -8.3795191    137772.24   -41243.526    4024.3198   -45267.846    1030.7821    1.0005391 
   92100    287.61689   -109.01861    137904.02   -41181.986    3949.7254   -45131.711    1033.4783   0.99958299 
   92200    294.45451   -84.485543    137793.67   -41145.908    4043.6237   -45189.532    1034.6017    1.0003835 
   92300    288.76608   -20.300924    137711.04   -41194.395    3965.5068   -45159.902    1036.9927    1.0009838 
   92400    287.78091    202.02848    137778.49   -41205.453    3951.9778   -45157.431    1037.8741    1.0004937 
   92500    290.88167    113.83351     137964.3   -41149.386    3994.5593   -45143.945    1040.1702   0.99914625 
   92600    289.62017   -14.875077    137935.31   -41106.771    3977.2356   -45084.007    1041.8989    0.9993563 
   92700    287.88441   -36.473074    137741.68   -41169.036    3953.3991   -45122.435    1042.6401    1.0007611 
   92800    287.66237    39.721942    137751.51   -41196.497    3950.3499   -45146.847    1044.8655    1.0006897 
   92900    287.17352    143.14037    138074.81   -41178.034    3943.6367   -45121.671    1046.7527   0.99834662 
   93000    288.28635    75.160596    138098.57   -41191.192    3958.9188    -45150.11    1046.9622   0.99817486 
   93100    282.39405   -11.314464    137892.59   -41200.675    3878.0022   -45078.677     1047.493   0.99966585 
   93200    290.37569   -96.544579    137832.25   -41151.324    3987.6108   -45138.935    1048.8442    1.0001035 
   93300    294.52106     161.9349    137880.24   -41080.647    4044.5375   -45125.184    1050.5261   0.99975542 
   93400    286.04424    -269.0676    137980.38    -41178.46    3928.1288   -45106.589    1052.9754   0.99902985 
   93500    286.10711    28.718312    138040.48   -41174.393    3928.9921   -45103.386     1053.088   0.99859487 
   93600    288.44476   -61.750983    137814.95   -41248.482    3961.0942   -45209.576    1053.0576     1.000229 
   93700     284.0491   -160.17632    137969.93   -41266.664    3900.7304   -45167.394    1054.8951   0.99910551 
   93800    289.26638    35.097481    137737.71   -41190.585    3972.3771   -45162.962    1054.9407      1.00079 
   93900     284.9451    237.62371    138004.24     -41221.4    3913.0348   -45134.435    1057.8411   0.99885714 
   94000    283.41154   -75.458171    138394.75   -41283.009     3891.975   -45174.984    1061.1161    0.9960386 
   94100     289.2768   -41.619636    138286.88    -41279.87    3972.5202   -45252.391    1062.1309   0.99681557 
   94200    285.52297    102.99777    138189.62   -41308.967    3920.9705   -45229.938    1062.6675   0.99751719 
   94300    286.93921    -183.2457    138471.44   -41265.158     3940.419   -45205.577    1066.0421   0.99548697 
   94400    287.60869   -271.60662    138279.96   -41294.918    3949.6128   -45244.531    1066.4539   0.99686545 
   94500    284.20726     78.62076    138166.67   -41323.275    3902.9023   -45226.178    1067.0107   0.99768286 
   94600    278.78932   -430.41341    138145.89   -41373.515    3828.4999   -45202.015    1067.8202   0.99783292 
   94700    289.91314    -6.641929    138017.16   -41215.747    3981.2588   -45197.005    1068.9871   0.99876362 
   94800    288.74009    141.71831    138282.81   -41220.663    3965.1498   -45185.812    1071.9123   0.99684495 
   94900    291.14405   -112.23943       138228    -41256.24    3998.1625   -45254.402    1073.4284    0.9972402 
   95000    284.69392   -9.5859596    138300.36   -41235.964    3909.5854   -45145.549    1074.9354   0.99671841 
   95100    292.83152     22.10537    138187.39   -41120.487    4021.3357   -45141.823    1075.0836   0.99753325 
   95200    287.19781    152.68914    138166.03   -41197.831    3943.9703   -45141.801    1076.2177   0.99768743 
   95300     288.9058    204.41469    138267.12   -41171.851    3967.4255   -45139.276    1077.2484   0.99695807 
   95400    286.97789    -50.73566    138080.92   -41169.836    3940.9502   -45110.786    1078.0165   0.99830239 
   95500    283.02661    172.22967    138200.89   -41215.746    3886.6889   -45102.435    1079.3184   0.99743581 
   95600    289.63418    118.80756    138235.24   -41230.289     3977.428   -45207.717    1080.0091   0.99718795 
   95700    290.58777   -168.95537    138316.59   -41181.155    3990.5233   -45171.678    1081.7677    0.9966015 
   95800    292.24837    49.655669    138393.99   -41180.433    4013.3277    -45193.76    1083.0799   0.99604408 
   95900    289.76373   -284.15927    138160.03   -41173.146    3979.2071   -45152.353    1083.5192   0.99773081 
   96000    290.23985    59.961945    137683.71   -41141.209    3985.7455   -45126.955    1080.6057    1.0011825 
   96100    287.45148   -1.6275754     137630.7   -41129.527    3947.4538   -45076.981    1081.8722    1.0015681 
   96200    293.49637    18.154452    137568.04   -41168.419    4030.4659   -45198.885    1082.8602    1.0020243 
   96300    291.07536   -121.90201    137629.09   -41214.105    3997.2192   -45211.324    1083.3785    1.0015798 
   96400    286.78931   -20.781908    137615.98   -41236.356    3938.3606   -45174.717    1084.5351    1.0016752 
   96500    287.23624    139.76231     137748.6   -41198.271     3944.498   -45142.769    1086.3565    1.0007108 
   96600    290.50652   -133.56514    137670.26   -41143.392    3989.4074   -45132.799    1087.5797    1.0012803 
   96700    286.83043   -47.057126    137676.48   -41075.183    3938.9252   -45014.108     1088.601     1.001235 
   96800    291.77636    91.803928    137726.61   -41028.679    4006.8457   -45035.524    1090.4518    1.0008706 
   96900    290.25416    7.3108262    138003.53   -41127.221    3985.9419   -45113.163    1092.5745   0.99886228 
   97000    288.71548    168.82814     138001.7   -41136.328    3964.8119    -45101.14    1093.5425   0.99887547 
   97100    285.06013    220.29209    138180.08   -41177.589    3914.6144   -45092.204    1096.9726   0.99758603 
   97200    287.78639   -35.006245    138695.85   -41137.643    3952.0531   -45089.696     1100.825   0.99387629 
   97300    290.31564   -47.455663    138713.85   -41230.848    3986.7862   -45217.634    1101.4495    0.9937473 
   97400     289.3817   -99.740335    139104.85   -41199.929    3973.9608    -45173.89    1105.2569   0.99095406 
   97500    291.58338   0.31440213     138843.3   -41202.045    4004.1956   -45206.241    1104.8726   0.99282078 
   97600    291.92236     -64.5625    138925.83   -41248.704    4008.8507   -45257.555    1106.7748   0.99223099 
   97700    292.12828   -34.848892    139162.16   -41202.577    4011.6785   -45214.256     1109.706   0.99054599 
   97800    289.32987    -91.46573    138939.48    -41213.11    3973.2491   -45186.359    1110.2955   0.99213353 
   97900     293.5526   -152.53784    138724.18   -41154.248     4031.238   -45185.486    1111.0904   0.99367335 
   98000    287.61649    39.324505    138686.11   -41151.401    3949.7199   -45101.121    1111.0244   0.99394607 
   98100    292.80824   -127.40766    138700.63   -41193.638     4021.016   -45214.654    1113.0334   0.99384204 
   98200    287.42099    43.445073    138639.99   -41161.678    3947.0352   -45108.713    1112.7464   0.99427671 
   98300    288.98048   -69.830735    138518.17   -41097.749    3968.4511     -45066.2    1113.4477   0.99515117 
   98400    290.42197    63.771539       138248   -41141.114    3988.2464    -45129.36    1114.4159   0.99709589 
   98500    288.84602    241.69549     138212.5   -41107.646    3966.6045    -45074.25    1115.4468   0.99735203 
   98600     287.6823    94.074486    138315.79    -41148.02    3950.6236   -45098.643    1117.5347    0.9966072 
   98700    293.93994    30.622908    138100.75   -41107.748    4036.5573   -45144.305    1116.6871   0.99815907 
   98800    289.74226    149.73786    137911.99    -41198.19    3978.9123   -45177.102    1117.6529   0.99952525 
   98900    287.70218    98.118661    137974.24   -41115.283    3950.8966   -45066.179    1119.0067   0.99907429 
   99000    288.60464    -62.52927    138131.45   -41095.784    3963.2898   -45059.074    1119.6042    0.9979372 
   99100    288.21859   -11.807663    138425.37   -41112.242    3957.9883    -45070.23    1123.1473   0.99581831 
   99200    290.06542    23.286636    138278.19   -41121.343      3983.35   -45104.694     1124.028   0.99687825 
   99300    291.61263   -38.631545     138532.6   -41142.193    4004.5972    -45146.79    1126.6824   0.99504747 
   99400     291.4425    125.79522    138600.96   -41104.396    4002.2609   -45106.657    1129.2864   0.99455671 
   99500    288.35167   -83.107881    138671.25   -41144.444    3959.8159    -45104.26    1130.2682   0.99405258 
   99600    286.36973    172.14728    138522.47   -41223.255    3932.5987   -45155.854    1130.7278   0.99512024 
   99700    289.74123   -56.510069    138574.05   -41191.614    3978.8981   -45170.512    1132.1788   0.99474984 
   99800    292.03643   -47.262925    138496.52   -41157.517     4010.417   -45167.934    1133.4483   0.99530671 
   99900    291.89051    71.040495    138125.77   -41110.353    4008.4132   -45118.766    1132.8302   0.99797827 
  100000    289.72195   -83.584027    137950.82   -41159.708    3978.6333   -45138.341    1133.1722    0.9992439 
  100100    285.69943   -306.67378    137733.75   -41188.697    3923.3937   -45112.091    1132.2715    1.0008187 
  100200    292.34134    23.094395    137881.69   -41142.279    4014.6044   -45156.884    1133.2888    0.9997449 
  100300    285.82421    104.10353    138305.37   -41204.059    3925.1072   -45129.166    1136.7657    0.9966823 
  100400     291.3669   -122.51081    137818.72   -41210.014    4001.2228   -45211.237    1134.5236    1.0002017 
  100500    284.80707    79.865532    138053.04   -41266.785    3911.1393   -45177.925     1136.523   0.99850405 
  100600    285.08433    191.59694    137913.67   -41260.013    3914.9468    -45174.96    1136.8699   0.99951304 
  100654    288.51069   -85.002574    137955.29   -41217.302    3961.9995   -45179.301    1138.0663   0.99921152 
Loop time of 121.021 on 6 procs for 100000 steps with 4608 atoms

Performance: 356.962 ns/day, 0.067 hours/ns, 826.301 timesteps/s
98.9% CPU use with 6 MPI tasks x no OpenMP threads

MPI task timing breakdown:
Section |  min time  |  avg time  |  max time  |%varavg| %total
---------------------------------------------------------------
Pair    | 101.74     | 103.03     | 105.75     |  12.8 | 85.14
Neigh   | 7.0756     | 7.1299     | 7.2123     |   1.6 |  5.89
Comm    | 5.4338     | 8.1204     | 9.4633     |  45.5 |  6.71
Output  | 0.17151    | 0.17227    | 0.17534    |   0.3 |  0.14
Modify  | 1.8524     | 1.9166     | 1.9787     |   2.7 |  1.58
Other   |            | 0.6475     |            |       |  0.54

Nlocal:        768.000 ave         776 max         758 min
Histogram: 1 1 0 0 0 0 1 2 0 1
Nghost:        1575.50 ave        1588 max        1560 min
Histogram: 1 0 0 0 1 1 1 1 0 1
Neighs:        0.00000 ave           0 max           0 min
Histogram: 6 0 0 0 0 0 0 0 0 0
FullNghs:      22251.0 ave       22478 max       21916 min
Histogram: 1 1 0 0 0 1 0 0 1 2

Total # of neighbors = 133506
Ave neighs/atom = 28.972656
Neighbor list builds = 6983
Dangerous builds = 0

undump              1
unfix               2
unfix               3
unfix               4


################################################
#######         Run Simulation         #########
################################################

reset_timestep      0
log                 log.run_${NAME}
log                 log.run_liq_289K_1atm_ML
