
# Define the lattice
#
variable	    lattice_constant equal 6.36339
lattice		    diamond ${lattice_constant}
lattice		    diamond 6.36339
Lattice spacing in x,y,z = 6.3633900 6.3633900 6.3633900

# Define region
# multiples of lattice spacing
#
region 		    simbox block 0 9 0 8 0 8

# Create Atoms
#
create_box          1 simbox
Created orthogonal box = (0.0000000 0.0000000 0.0000000) to (57.270510 50.907120 50.907120)
  3 by 1 by 2 MPI processor grid
create_atoms        1 box
Created 4608 atoms
  create_atoms CPU = 0.001 seconds
mass                1 18.015

# Define potential
#
pair_style          sw
pair_coeff          * * /data/emrosky-sim/Freezing_Simulations/Melting/MLmW_fancy/ML_mW.sw mW
Reading sw potential file /data/emrosky-sim/Freezing_Simulations/Melting/MLmW_fancy/ML_mW.sw with DATE: 2019-02-27

# Add velocity/set timestep
#
velocity            all create ${TEMP} 120598 rot yes dist gaussian
velocity            all create 289 120598 rot yes dist gaussian
timestep            5.0

# Define output
#
compute	            1 all msd
thermo              100
thermo_style        custom step temp press vol etotal ke pe c_1[4]

# Neighbor lists
#
neigh_modify        delay 0 every 1 check yes

# Set fixes
#
fix                 1 all momentum 10 linear 1 1 1 rescale
fix                 2 all nve
fix                 3 all temp/csvr ${TEMP} ${TEMP} 500.0 928347
fix                 3 all temp/csvr 289 ${TEMP} 500.0 928347
fix                 3 all temp/csvr 289 289 500.0 928347
fix                 4 all press/berendsen iso ${PRES} ${PRES} 1000.0 modulus 20000
fix                 4 all press/berendsen iso 1 ${PRES} 1000.0 modulus 20000
fix                 4 all press/berendsen iso 1 1 1000.0 modulus 20000

# Run 0.5 ns equilibration
#
dump		    1 all custom 1000 eq.${NAME}.dump id type x y z vx vy vz
dump		    1 all custom 1000 eq.ice_289K_1atm_ML.dump id type x y z vx vy vz
run                 100000
Neighbor list info ...
  update every 1 steps, delay 0 steps, check yes
  max neighbors/atom: 2000, page size: 100000
  master list distance cutoff = 6.0032907
  ghost atom cutoff = 6.0032907
  binsize = 3.0016454, bins = 20 17 17
  1 neighbor lists, perpetual/occasional/extra = 1 0 0
  (1) pair sw, perpetual
      attributes: full, newton on
      pair build: full/bin/atomonly
      stencil: full/bin/3d
      bin: standard
Per MPI rank memory allocation (min/avg/max) = 4.779 | 4.779 | 4.779 Mbytes
Step Temp Press Volume TotEng KinEng PotEng c_1[4] 
       0          289   -639.94366    148418.52   -51928.465    3968.7191   -55897.184            0 
     100    190.17355     118.6933    147729.49    -50322.44    2611.5758   -52934.016  0.095321622 
     200    220.83802    103.40591    148009.55   -49366.421    3032.6784   -52399.099   0.10839133 
     300    244.23427     50.20374    148207.14   -48760.743    3353.9695   -52114.712   0.12652683 
     400    260.19663    29.675302    148341.24   -48358.803    3573.1741   -51931.977    0.1309833 
     500    275.89845    43.519878    148440.27   -48078.771    3788.8008   -51867.572   0.13057982 
     600     285.8799    25.886875    148519.64   -47808.746     3925.872   -51734.618   0.14101895 
     700    285.05282   0.69889578    148575.67   -47762.209    3914.5141   -51676.724   0.13208478 
     800    283.19371   -29.900258    148593.33   -47667.606    3888.9837    -51556.59   0.14605439 
     900    286.40146   -6.2214675    148597.67   -47648.807    3933.0344   -51581.841   0.14494528 
    1000    281.88615   -11.158794    148573.39   -47693.333    3871.0275   -51564.361   0.13947241 
    1100    284.09627   -17.812942    148597.59   -47637.708    3901.3782   -51539.086   0.13733882 
    1200    289.23701   -2.7596261    148593.05   -47628.812    3971.9738   -51600.786   0.14226248 
    1300    285.84595   -39.107445    148590.84   -47550.413    3925.4058   -51475.819   0.14510241 
    1400    283.95044   -13.650864    148606.27   -47650.358    3899.3755   -51549.733   0.14533291 
    1500    280.82737    9.0706714    148559.02   -47673.927    3856.4876   -51530.415   0.13713717 
    1600    293.04284    41.712197    148575.22   -47610.157    4024.2377   -51634.395   0.14369463 
    1700    290.74837    6.9978723    148580.63     -47638.6    3992.7287   -51631.329   0.13870607 
    1800    290.16991    45.923274     148550.9   -47631.785    3984.7849   -51616.569   0.14098428 
    1900    291.49037   -34.980358    148575.28   -47544.211    4002.9183   -51547.129   0.14802997 
    2000    295.40293    11.073926    148628.22   -47493.615    4056.6479   -51550.263   0.13530279 
    2100    281.02931   -15.253218    148582.68   -47656.382    3859.2608   -51515.643   0.14566872 
    2200    293.96208    22.070753    148568.21   -47586.466    4036.8612   -51623.328   0.13111638 
    2300    287.97562   -13.124512    148582.53   -47524.802    3954.6516   -51479.453   0.15215474 
    2400    295.10623    48.677391    148566.09   -47545.326    4052.5734   -51597.899   0.13914903 
    2500    293.21224   -5.4959005    148600.25    -47595.63     4026.564   -51622.194   0.13479982 
    2600    283.76557   -4.8146678     148589.4   -47628.908    3896.8368   -51525.745   0.14580262 
    2700    296.44412    53.942865     148565.5   -47598.396    4070.9462   -51669.342   0.13041237 
    2800    293.21588   -6.5763633    148563.18    -47497.67     4026.614   -51524.284   0.14883972 
    2900    295.05196   -26.747091    148596.77   -47526.113    4051.8282   -51577.941   0.14523719 
    3000    290.81593   -29.920287    148575.63   -47586.104    3993.6565   -51579.761   0.14907917 
    3100    294.72119   -1.2024578    148600.39   -47559.834    4047.2858    -51607.12   0.14096995 
    3200     291.0074    44.501568    148591.25   -47667.455    3996.2858   -51663.741   0.13765838 
    3300    286.91921    21.859716    148566.53   -47729.524    3940.1444   -51669.669   0.12780036 
    3400    288.29343   -23.130909    148571.21   -47662.736     3959.016   -51621.752   0.14530267 
    3500    287.41835    42.303443    148587.59    -47627.36    3946.9989   -51574.359   0.13907191 
    3600    286.68772   -16.562111    148570.92   -47631.104    3936.9655   -51568.069   0.14458978 
    3700    287.71857   -17.231866     148587.6   -47594.981    3951.1217   -51546.102   0.14624401 
    3800    292.85123   -18.619526    148592.68   -47584.102    4021.6064   -51605.708   0.14331535 
    3900    289.51382    14.296747    148596.38   -47587.573    3975.7751   -51563.348   0.14384309 
    4000    288.49326   -10.142214    148577.65   -47633.736    3961.7602   -51595.496   0.13773734 
    4100    287.92373   -11.289193    148600.64   -47657.588    3953.9391   -51611.527   0.13952527 
    4200    287.02681   0.22457166    148607.86   -47608.165    3941.6221   -51549.787   0.13413471 
    4300    277.59232   -79.614898    148584.47   -47741.285    3812.0621   -51553.347   0.14662958 
    4400    287.11227   -15.053996    148618.99   -47635.858    3942.7957   -51578.654   0.13068063 
    4500    287.46873   0.14886618     148586.7   -47691.381    3947.6908   -51639.072    0.1443091 
    4600    280.04109   -8.6851583    148547.59   -47720.852      3845.69   -51566.542   0.13874883 
    4700    292.16045    11.523116    148589.35   -47627.481    4012.1202   -51639.602   0.13459079 
    4800    297.49486    59.299998    148582.43   -47518.361    4085.3755   -51603.737   0.13318236 
    4900    293.91606    11.205821    148615.46   -47491.877    4036.2293   -51528.106    0.1393365 
    5000    288.87562   -17.599619    148625.68   -47624.614    3967.0109   -51591.625   0.14170284 
    5100    290.08075   -27.916724     148642.3   -47551.883    3983.5605   -51535.444   0.14040964 
    5200    290.68513    7.6981043    148649.64   -47623.209    3991.8603   -51615.069   0.13945671 
    5300    285.23948    -52.40637    148616.84   -47728.183    3917.0774    -51645.26   0.13719823 
    5400    291.93449   -2.1981448    148617.92   -47696.536    4009.0172   -51705.553   0.13362794 
    5500    287.41991    23.749551    148610.26   -47655.988    3947.0204   -51603.008   0.13362673 
    5600    289.78643    4.2491957    148609.26   -47701.091    3979.5188    -51680.61   0.13520493 
    5700    286.38153   -7.6461359    148621.02   -47685.809    3932.7607   -51618.569   0.13741847 
    5800    289.20546    2.7987628    148609.71   -47630.494    3971.5406   -51602.035   0.13670076 
    5900     286.3814   -12.314008     148589.2   -47704.673     3932.759   -51637.432   0.13489884 
    6000    285.17571    11.016624    148584.24    -47683.42    3916.2017   -51599.622   0.14080635 
    6100    285.31409   0.77324412    148578.91   -47755.952     3918.102   -51674.054   0.13147754 
    6200    286.41352  -0.24991543    148558.41   -47731.547       3933.2   -51664.747   0.13756291 
    6300    286.94888   -26.477607    148571.85   -47610.688    3940.5518    -51551.24   0.14751376 
    6400    286.61909    13.800694     148575.7   -47667.916     3936.023   -51603.939   0.13473436 
    6500    285.19454   -51.646653    148554.08   -47680.414    3916.4603   -51596.875   0.14353174 
    6600    284.33192    -27.65048    148569.36   -47688.048    3904.6143   -51592.662   0.13648881 
    6700      284.315   -32.346532    148557.75   -47744.835    3904.3818   -51649.217   0.13881402 
    6800    286.15542    -11.81181    148545.31   -47694.263    3929.6556   -51623.919   0.13784039 
    6900     289.6337   -3.3700807    148557.15    -47618.21    3977.4214   -51595.631   0.13387302 
    7000    288.50455     4.837074    148536.16   -47614.156    3961.9153   -51576.072   0.15100842 
    7100    289.30131    2.2154663    148556.56   -47624.423    3972.8568    -51597.28   0.13587835 
    7200    287.92173   -12.442167    148534.82   -47737.166    3953.9116   -51691.078   0.13871905 
    7300    280.63231   -16.972553    148516.98   -47790.616    3853.8089   -51644.425   0.13570906 
    7400    286.52128    70.567519    148530.86   -47675.894    3934.6798   -51610.574   0.13354236 
    7500    283.73246    4.8598563    148541.66   -47606.094    3896.3821   -51502.476   0.13931679 
    7600    289.01349    2.2736992    148554.39   -47578.911    3968.9043   -51547.815    0.1440573 
    7700    284.99425   -19.200283    148547.13   -47678.639    3913.7097   -51592.349   0.14201076 
    7800    286.99858   -12.835624    148543.85   -47743.476    3941.2344   -51684.711   0.14189762 
    7900    287.12087   -8.8458813     148522.6   -47675.443    3942.9138   -51618.357    0.1393647 
    8000    289.91558    7.2404275    148556.63   -47579.998    3981.2924    -51561.29   0.14221971 
    8100     291.4948    3.4500152    148576.57   -47544.341    4002.9791    -51547.32    0.1413661 
    8200    289.73508    -20.44314     148562.2   -47565.108    3978.8136   -51543.922   0.14182653 
    8300    289.78335     1.797897    148570.78   -47525.102    3979.4764   -51504.578   0.14972639 
    8400    294.24556    23.347435    148589.15   -47502.019    4040.7542   -51542.774   0.14078951 
    8500    288.71086   -9.1012409    148557.59   -47590.739    3964.7484   -51555.487   0.14814543 
    8600    291.22519   -11.255284       148564   -47601.887    3999.2767   -51601.164   0.13879125 
    8700    293.89115    12.443844     148556.6   -47577.881    4035.8873   -51613.768   0.14776911 
    8800    290.14588    51.073778    148527.77   -47612.707     3984.455   -51597.162   0.13450241 
    8900    286.24044    29.781354    148529.06    -47679.26    3930.8231   -51610.083   0.13987819 
    9000    291.55735    18.101226    148541.88   -47604.059    4003.8381   -51607.897   0.14051355 
    9100    287.94928    7.6890562    148550.53   -47660.409    3954.2899   -51614.699   0.13856489 
    9200    287.27741   -29.408264    148560.56   -47549.397    3945.0634    -51494.46   0.15077113 
    9300    288.42515   -2.8476928     148538.2   -47704.693    3960.8249   -51665.518   0.13683486 
    9400    285.10075     6.714412    148521.74    -47666.04    3915.1723   -51581.212   0.14325601 
    9500    283.09437     2.782033    148540.45   -47712.388    3887.6194   -51600.008   0.13911253 
    9600    283.34918    26.901203    148553.25     -47699.6    3891.1187   -51590.719   0.13799686 
    9700    291.05795    19.852624    148555.24    -47579.61    3996.9801    -51576.59   0.14278018 
    9800     293.8978    16.071189    148576.47   -47528.435    4035.9786   -51564.413   0.14483746 
    9900    287.33339   -5.2858392    148545.43   -47554.416    3945.8323   -51500.248   0.14269799 
   10000    291.08758    8.1071276    148544.74   -47611.572    3997.3869   -51608.959   0.14109491 
   10100    290.79047   -4.5650361    148563.03   -47565.115    3993.3069   -51558.422   0.14005584 
   10200    291.23169   -31.201299    148554.49   -47534.347    3999.3659   -51533.713   0.14649262 
   10300    289.46222   -9.8729364    148587.17   -47534.259    3975.0665   -51509.326   0.15034813 
   10400     289.1124   -4.4512996    148573.24   -47540.484    3970.2625   -51510.746   0.14337579 
   10500    286.58494   -5.5988102    148550.08   -47590.279     3935.554   -51525.833   0.14292834 
   10600    294.36276    34.634865     148539.4   -47611.071    4042.3637   -51653.434   0.13620152 
   10700    287.20067    21.889159    148516.26   -47631.627    3944.0096   -51575.636     0.143049 
   10800    282.48274    -44.53089    148499.09   -47768.665    3879.2201   -51647.886   0.14184776 
   10900    285.55972    10.380436    148485.26   -47747.361    3921.4751   -51668.836   0.14218464 
   11000    286.49751       16.298    148491.16   -47761.798    3934.3534   -51696.151   0.14159706 
   11100    285.89777   -15.602782    148502.66   -47666.988    3926.1174   -51593.106   0.14418475 
   11200     281.0811   -18.954166    148501.99   -47775.479     3859.972   -51635.451   0.14343086 
   11300    286.14702   -1.1065628    148527.46   -47696.275    3929.5402   -51625.815   0.13524926 
   11400    283.35428   -23.808211    148521.63   -47669.275    3891.1887   -51560.464   0.14704669 
   11500    291.49615    8.0906165    148541.79   -47575.491    4002.9976   -51578.489   0.13551081 
   11600     290.1282   -37.376693    148555.02   -47574.255    3984.2122   -51558.467   0.14704521 
   11700    297.24364    29.687722    148590.44    -47439.99    4081.9255   -51521.915   0.14535341 
   11800    292.76394   -4.5443043    148563.19   -47511.076    4020.4077   -51531.484    0.1440018 
   11900    293.25016    28.666288    148537.37   -47556.502    4027.0847   -51583.587   0.14149009 
   12000    293.06973    41.325084    148542.31   -47518.655     4024.607   -51543.262   0.14446068 
   12100     286.1809   -18.880932    148507.41   -47577.614    3930.0054    -51507.62   0.14711484 
   12200    291.08207   -3.5248305    148533.17   -47585.729    3997.3113   -51583.041   0.14210792 
   12300    289.91044    3.4646923    148527.26   -47637.316    3981.2218   -51618.538   0.14623563 
   12400    287.55028   -27.061113    148527.87    -47631.81    3948.8107   -51580.621   0.14219609 
   12500    293.06729   -19.058534    148522.84   -47562.113    4024.5735   -51586.687   0.14878244 
   12600    295.95811    18.624991    148537.41   -47523.168     4064.272    -51587.44   0.13791887 
   12700    291.25655    2.2462599    148517.26    -47596.45    3999.7073   -51596.157    0.1451645 
   12800    290.29715    14.571072    148542.27   -47583.052    3986.5323   -51569.584   0.14186731 
   12900    292.28971   -2.8001192     148550.8   -47647.769    4013.8953   -51661.665   0.14071613 
   13000    292.45281    48.071217    148551.77   -47617.399    4016.1352   -51633.534   0.13737551 
   13100    288.30546     47.16038    148519.56   -47689.882    3959.1813   -51649.063   0.14150906 
   13200    284.46204    4.3827734    148498.69   -47718.431    3906.4011   -51624.832   0.14011072 
   13300    282.74242   -29.419145    148513.63   -47803.746    3882.7863   -51686.533   0.13906261 
   13400    284.97489    7.3248472    148473.23   -47787.949    3913.4439   -51701.393   0.14639745 
   13500    280.21993   -42.330005    148515.63   -47703.119    3848.1459   -51551.265   0.14134406 
   13600    290.08591    30.009402    148498.25   -47644.771    3983.6314   -51628.402   0.14550372 
   13700    288.11045    3.5470893     148516.8   -47678.847    3956.5033   -51635.351   0.13908936 
   13800     290.8361     38.26796    148534.24   -47629.668    3993.9335   -51623.601    0.1412894 
   13900    288.79871    10.410292    148549.01   -47621.185    3965.9548    -51587.14   0.14060161 
   14000    291.44153    21.637602    148560.54   -47508.645    4002.2477   -51510.893   0.13870057 
   14100    288.69158     21.68541    148554.81   -47596.456    3964.4836   -51560.939   0.14418997 
   14200     292.2555   -23.939893    148541.99   -47604.668    4013.4254   -51618.093   0.14388089 
   14300    289.21794    -4.399895    148547.43   -47636.909    3971.7119    -51608.62   0.14321205 
   14400    291.45328  0.045375103    148540.97     -47700.3    4002.4089   -51702.709   0.13859358 
   14500     285.6399   -35.772838    148518.58   -47715.347    3922.5761   -51637.924   0.14262475 
   14600    290.21668   -4.6597303    148540.74   -47666.235    3985.4272   -51651.662    0.1376295 
   14700    294.67569    36.591967    148532.75   -47616.478    4046.6609   -51663.139   0.13796126 
   14800    287.27655   -8.4632592    148531.72   -47590.715    3945.0517   -51535.767   0.14609332 
   14900    290.24933   -5.0524702    148556.11   -47607.264    3985.8756    -51593.14    0.1408077 
   15000    286.58099   -16.364517    148507.15   -47665.869    3935.4998   -51601.369   0.14318705 
   15100    284.16504   -1.8924117    148508.92   -47683.276    3902.3225   -51585.599   0.14208033 
   15200    288.25632   -30.839542    148525.22   -47609.237    3958.5064   -51567.743   0.14433433 
   15300    286.46457   -4.2471059     148510.3   -47697.654    3933.9011   -51631.555   0.14360217 
   15400    288.17095    22.463423     148513.2   -47689.956    3957.3341   -51647.291   0.13935889 
   15500    287.69273    5.3407412    148535.56   -47623.653    3950.7669    -51574.42   0.14252018 
   15600     295.3264    7.0511278    148577.73   -47503.743    4055.5969    -51559.34   0.14861582 
   15700    290.54514    2.5446426    148598.89   -47522.505    3989.9379   -51512.443   0.13869975 
   15800    292.09084  -0.80775916     148598.6   -47526.272    4011.1643   -51537.437   0.14920686 
   15900    291.78962   -28.516353    148583.96   -47550.727    4007.0278   -51557.755   0.14563816 
   16000    291.74684   -12.797499    148565.97   -47595.176    4006.4403   -51601.616   0.14405338 
   16100    289.96354    17.345049    148535.77    -47623.32     3981.951   -51605.271   0.14088266 
   16200    289.99912    13.417051    148555.71    -47635.88    3982.4395    -51618.32   0.13760433 
   16300    286.06451    1.9739294    148525.05   -47646.481    3928.4072   -51574.889   0.14751769 
   16400    289.20006   -21.104089     148549.1   -47658.306    3971.4664   -51629.772   0.14090151 
   16500    290.66529     16.73938    148539.48   -47573.196    3991.5878   -51564.784   0.14711164 
   16600    290.42184   -41.211576     148577.9   -47501.949    3988.2446   -51490.194   0.14851969 
   16700    292.68837    47.962219    148542.42   -47540.518    4019.3699   -51559.888   0.14789283 
   16800    286.11894    31.046638    148538.22   -47595.888    3929.1546   -51525.042   0.14208464 
   16900    292.96138    59.480404    148552.06   -47625.116     4023.119   -51648.235   0.13870876 
   17000    286.50595   -3.3191148    148543.28   -47675.969    3934.4693   -51610.438   0.14112636 
   17100    288.28012   -12.963224    148553.21   -47626.386    3958.8333   -51585.219   0.14373387 
   17200    286.68197    14.461561    148540.75   -47687.236    3936.8865   -51624.123   0.13980304 
   17300    283.11434    2.6190035     148516.1   -47780.997    3887.8936   -51668.891   0.13880712 
   17400    283.90945   -40.958694    148525.55   -47774.904    3898.8126   -51673.716   0.14145474 
   17500    286.58175    22.117727    148540.11   -47667.907    3935.5102   -51603.417   0.14339967 
   17600    290.19296    39.944093    148551.39   -47677.463    3985.1015   -51662.564   0.14064188 
   17700    285.57557   -5.3085718    148549.63   -47739.351    3921.6928   -51661.044   0.13701045 
   17800    284.87718    15.310706    148554.25   -47687.235    3912.1021   -51599.337   0.14630562 
   17900    285.28186    20.117396     148593.7   -47633.338    3917.6594   -51550.998   0.13761577 
   18000    290.90513    4.7617087    148582.91   -47547.909    3994.8814   -51542.791   0.14850224 
   18100    286.98745   -33.100632    148579.65   -47552.315    3941.0815   -51493.396    0.1491564 
   18200    293.71517    5.0162774    148583.77   -47603.972    4033.4706   -51637.442   0.14270948 
   18300    289.47368   -9.5724669    148555.35    -47605.78    3975.2239   -51581.004   0.14389605 
   18400    289.27861     23.69977    148541.42   -47699.908    3972.5451   -51672.453   0.13645537 
   18500    289.09928   -1.9243783    148541.67   -47640.407    3970.0825    -51610.49   0.14435747 
   18600     290.4244    20.985134    148556.59   -47589.919    3988.2798   -51578.199   0.14096519 
   18700    291.41102    28.304978    148536.26   -47608.308    4001.8286   -51610.137   0.14188846 
   18800    286.93039   -17.304821    148548.55   -47623.696    3940.2979   -51563.993   0.14445293 
   18900    286.71829    3.4904979    148557.49   -47585.756    3937.3853   -51523.142   0.14682795 
   19000    289.97444    24.982517    148556.78   -47611.808    3982.1006   -51593.908   0.14100288 
   19100    291.34995   -51.781893    148570.04   -47531.528      4000.99   -51532.518   0.15113371 
   19200    287.61927     46.16656    148541.19   -47554.739    3949.7581   -51504.497   0.14763609 
   19300    293.16977   -11.194391     148600.4   -47451.081    4025.9808   -51477.062   0.14551436 
   19400    294.71874    17.956521    148580.68   -47510.219    4047.2522   -51557.471   0.14483758 
   19500    294.82223   -11.825006    148563.45   -47509.362    4048.6733   -51558.036   0.14392545 
   19600    292.29539   -6.8336553    148578.97   -47503.347    4013.9733    -51517.32   0.14801746 
   19700     294.0452    2.8069769    148579.97   -47550.696    4038.0027   -51588.698   0.14051525 
   19800    295.53289      10.1533    148581.27   -47506.734    4058.4326   -51565.167   0.14359048 
   19900    291.90764   -26.671195    148590.13   -47592.528    4008.6485   -51601.177    0.1422908 
   20000     288.5054     0.655161    148576.94   -47620.509     3961.927   -51582.436   0.14481924 
   20100    289.41401   -21.604419    148544.99   -47662.391    3974.4045   -51636.795   0.13696185 
   20200    288.30256   -19.312784    148553.45   -47638.602    3959.1414   -51597.743   0.14528513 
   20300    290.99242    4.6667619    148551.72   -47600.379    3996.0802   -51596.459   0.14269038 
   20400    289.22157    -9.166306    148556.39    -47660.73    3971.7619   -51632.492   0.13915813 
   20500    282.42139    -15.70362    148549.07   -47702.445    3878.3776   -51580.822   0.14595847 
   20600    285.75055     1.977125    148540.87   -47721.228    3924.0957   -51645.323   0.13845135 
   20700    284.91147   -26.495128    148525.07   -47661.317     3912.573    -51573.89   0.15018301 
   20800    292.03158    7.6343248    148581.14   -47528.622    4010.3504   -51538.972   0.13944587 
   20900    288.80938   -13.953635    148549.95   -47628.454    3966.1013   -51594.555   0.14830641 
   21000    288.21977   -3.9228266    148570.92   -47643.228    3958.0045   -51601.233   0.14095316 
   21100    298.71318    37.623109    148557.25   -47522.535    4102.1062   -51624.641   0.14301632 
   21200    290.99978    7.8796919    148559.59   -47540.713    3996.1812   -51536.894   0.14403481 
   21300    293.21864   -3.0094158    148556.63   -47539.986    4026.6519   -51566.638   0.14750277 
   21400    292.44772    13.499951    148518.78   -47575.018    4016.0651   -51591.083   0.14809221 
   21500    293.98049    4.0270765    148557.31    -47479.06     4037.114   -51516.174   0.14273514 
   21600    289.76908   -1.7077914    148573.16   -47484.672    3979.2805   -51463.952   0.15063703 
   21700    289.87023   -22.089117    148552.91   -47617.916    3980.6695   -51598.585   0.14081626 
   21800    286.72933   -42.231746    148530.89   -47652.065    3937.5369   -51589.602   0.14315382 
   21900     290.8297    32.388408    148532.19   -47620.654    3993.8455     -51614.5   0.14237413 
   22000     289.8478    24.055657    148537.45   -47660.676    3980.3615   -51641.038   0.14227809 
   22100    289.57475    3.7400827    148521.82   -47698.955    3976.6119   -51675.567   0.14032978 
   22200     283.8563   -32.287194    148505.72   -47783.288    3898.0828   -51681.371   0.14646115 
   22300    287.70037   -12.423564    148552.06   -47671.753    3950.8718   -51622.625   0.14263525 
   22400    289.90828   0.89918918    148566.79   -47619.873    3981.1921   -51601.065   0.14723903 
   22500    294.82992    1.8313832    148577.14   -47571.102     4048.779   -51619.881   0.14410129 
   22600    286.28447    5.4782141    148562.54   -47611.769    3931.4277   -51543.197   0.14330038 
   22700    288.94385     2.004021    148533.34    -47671.51    3967.9479   -51639.458   0.14589719 
   22800    293.52659    -8.275619    148572.22    -47597.22    4030.8809   -51628.101   0.13781033 
   22900    288.81078    8.1741965    148561.76   -47632.401    3966.1206   -51598.521   0.14485252 
   23000    286.32446    5.3981669    148572.64   -47701.596     3931.977   -51633.573   0.13514061 
   23100    287.10273   -38.906608    148571.28   -47643.445    3942.6646    -51586.11   0.14725663 
   23200    290.71698    25.175973    148578.79   -47590.218    3992.2976   -51582.515   0.14246554 
   23300    289.80081   -6.7599828    148584.96    -47589.71    3979.7163   -51569.426   0.14386714 
   23400    287.87886   -15.038303    148583.82   -47642.398    3953.3229   -51595.721    0.1457783 
   23500    290.81971    6.5134818    148618.48   -47529.109    3993.7084   -51522.817   0.14008531 
   23600    288.36109    3.5162408    148618.81   -47547.304    3959.9451    -51507.25   0.14890443 
   23700    290.47153    18.764599     148619.9   -47536.347     3988.927   -51525.274   0.13735292 
   23800    288.66841   -2.1153374    148615.67    -47546.27    3964.1655   -51510.435    0.1509467 
   23900    283.28748   -7.7940159    148597.85   -47639.366    3890.2714   -51529.638   0.14492712 
   24000    290.94004    28.876928    148617.71   -47585.501    3995.3608   -51580.862   0.13907282 
   24100     295.3495    6.6936438    148602.98   -47513.779    4055.9141   -51569.693   0.14190457 
   24200    289.95504    8.5923174    148591.06   -47643.571    3981.8342   -51625.406   0.13731592 
   24300    287.17995  -0.65484056    148575.07   -47675.882     3943.725   -51619.607   0.13934441 
   24400    289.79526    4.3411655    148572.69   -47708.495      3979.64   -51688.135   0.13826213 
   24500    284.95041    32.413692    148580.46   -47657.051    3913.1077   -51570.159   0.13820755 
   24600    284.22018    3.6844181    148557.93   -47702.706    3903.0797   -51605.786   0.14278685 
   24700    283.73465   -19.453433    148544.41   -47704.327    3896.4122   -51600.739   0.14365419 
   24800    287.46583    0.2054366    148554.58   -47647.007    3947.6509   -51594.658   0.13647395 
   24900     286.7063   -23.542612    148566.72   -47710.214    3937.2207   -51647.434   0.14783891 
   25000    289.22219    8.6297798    148567.12   -47697.211    3971.7703   -51668.981   0.13311929 
   25100    288.99312    10.452297    148547.83   -47744.268    3968.6246   -51712.893   0.14336543 
   25200    280.05895    20.566766    148493.46   -47873.035    3845.9352    -51718.97   0.13241582 
   25300    288.87502    43.544655    148506.24   -47707.825    3967.0028   -51674.828   0.14298821 
   25400     286.1486   -1.1622091    148540.89   -47752.089     3929.562   -51681.651   0.14068409 
   25500    291.55057    -2.700233    148555.24   -47635.586     4003.745   -51639.331   0.13885413 
   25600    288.88485   -8.3076134    148589.39   -47556.703    3967.1378    -51523.84   0.14812274 
   25700    288.19328   -38.354375    148584.49    -47651.72    3957.6406   -51609.361   0.14056575 
   25800    291.06512    31.021083    148607.57   -47507.699    3997.0786   -51504.778   0.14716993 
   25900    293.40254  -0.35589626     148623.3   -47537.593    4029.1773    -51566.77   0.13971403 
   26000    288.65553   -31.843017    148572.39   -47581.561    3963.9886   -51545.549   0.15182522 
   26100    292.97449    26.927327    148610.95   -47564.058    4023.2991   -51587.358   0.14071333 
   26200    289.58581    22.491369    148580.79   -47671.835    3976.7638   -51648.599   0.13622834 
   26300    293.04648       31.766    148545.04   -47629.589    4024.2877   -51653.877   0.13879969 
   26400    286.47639    26.680289    148533.68   -47692.128    3934.0634   -51626.192   0.14095033 
   26500    284.45518   -6.3736965    148550.12   -47599.368    3906.3068   -51505.675    0.1454064 
   26600    291.82891    5.7447359    148584.45   -47548.076    4007.5673   -51555.643   0.14601065 
   26700    287.23788    7.6183435    148594.59   -47546.705    3944.5205   -51491.225   0.14774278 
   26800    292.40756    4.0833767     148580.9   -47600.396    4015.5137    -51615.91   0.14139287 
   26900    298.38451    34.555511    148584.65   -47534.301    4097.5927   -51631.894   0.14004493 
   27000    295.61924   -36.127165     148589.7   -47570.069    4059.6184   -51629.687   0.14345894 
   27100    289.93525    3.3029785    148581.95   -47516.245    3981.5625   -51497.808    0.1498118 
   27200    289.88463    2.6749252    148561.59    -47583.88    3980.8673   -51564.748   0.14073876 
   27300    293.19609     7.081701    148593.05   -47414.556    4026.3423   -51440.898    0.1516218 
   27400    291.39564    23.459372    148587.53   -47536.276    4001.6174   -51537.894   0.14753609 
   27500    289.27356   -1.4946251    148573.54   -47648.066    3972.4758   -51620.542   0.14066508 
   27600    285.63947   -16.598168    148535.98   -47699.544    3922.5703   -51622.114   0.14443704 
   27700    294.12386   -18.950558    148582.64   -47598.176     4039.083   -51637.259   0.13727342 
   27800    288.71381   -18.279474    148576.89   -47573.525     3964.789   -51538.314   0.14846649 
   27900    287.84461   -28.969274    148569.51   -47637.469    3952.8526   -51590.322   0.14040816 
   28000    283.54813   -33.478755    148556.55   -47710.778    3893.8508   -51604.629   0.14765591 
   28100    283.66615    20.467198    148522.43   -47677.617    3895.4715   -51573.088   0.14369019 
   28200    289.52062   -24.695663    148565.98   -47653.237    3975.8685   -51629.106    0.1405488 
   28300     284.4197   -8.9402563    148553.31    -47665.77    3905.8197   -51571.589   0.14233668 
   28400    288.41942   -11.407338    148574.87   -47600.257    3960.7462   -51561.003   0.14221338 
   28500    287.72919    2.5328015    148572.46   -47634.019    3951.2675   -51585.287   0.14578995 
   28600    286.79918   -2.8986211    148563.17   -47636.889    3938.4961   -51575.385   0.13874553 
   28700    290.57334    8.6100517    148553.17   -47638.412    3990.3252   -51628.737   0.14369045 
   28800    285.77193    -9.007974    148544.01   -47683.936    3924.3893   -51608.325   0.13995522 
   28900    286.34958 -0.040353043    148552.25    -47651.27     3932.322   -51583.592   0.14573442 
   29000    288.86778   -13.138703    148561.21   -47594.964    3966.9034   -51561.867   0.14374483 
   29100    289.65253   -2.5625651    148545.83   -47590.517      3977.68   -51568.197    0.1472698 
   29200    290.11843   -33.325683    148561.73    -47526.65     3984.078   -51510.728   0.14995466 
   29300    293.64747      24.5929    148570.72   -47526.237    4032.5409   -51558.777   0.14888398 
   29400     289.0017   -13.843805    148567.81   -47540.902    3968.7425   -51509.645    0.1466735 
   29500    285.26782   -39.204297    148547.36    -47585.02    3917.4665   -51502.486   0.15063107 
   29600    292.68425    8.5125883    148554.05   -47548.778    4019.3133   -51568.092   0.14444086 
   29700    293.63896    5.0032544     148548.6   -47631.905     4032.424   -51664.329   0.13875274 
   29800    289.90711    25.704446    148505.66   -47721.301     3981.176   -51702.477   0.14013307 
   29900    285.27428   -24.427917    148520.27   -47703.922    3917.5552   -51621.477   0.14423907 
   30000    290.95714   -4.4450031    148509.07   -47660.449    3995.5956   -51656.045    0.1474877 
   30100     281.1532   -5.5561563    148542.59   -47635.733    3860.9621   -51496.695   0.14479821 
   30200    286.82393    3.7987917    148515.99   -47643.889     3938.836   -51582.725    0.1460716 
   30300    291.84492    16.622088    148541.13   -47631.059    4007.7872   -51638.846   0.14151539 
   30400    288.63973    37.995295    148529.78   -47667.675    3963.7717   -51631.447    0.1426715 
   30500    283.32926   -24.219089    148481.37   -47767.076    3890.8451   -51657.921   0.14635004 
   30600    288.00128    16.459603    148509.57   -47644.697     3955.004   -51599.701   0.14225978 
   30700    293.34946    66.547451    148499.67   -47673.902    4028.4484    -51702.35   0.14341414 
   30800     291.1831    11.926525    148521.32   -47606.862    3998.6987   -51605.561   0.14188836 
   30900    288.27619   -29.713282    148526.29   -47586.828    3958.7793   -51545.607   0.15020274 
   31000    289.20428    3.3076793    148506.86   -47616.706    3971.5244    -51588.23   0.14879991 
   31100    288.54221   -7.4238927    148513.39   -47629.502    3962.4325   -51591.935   0.14243893 
   31200    293.60394    17.701204    148529.54   -47579.915    4031.9431   -51611.858   0.14752471 
   31300    294.23507   -22.090589    148527.33   -47511.205    4040.6101   -51551.815   0.14865774 
   31400    287.13149     -44.2092    148518.74   -47633.831    3943.0596   -51576.891   0.15125027 
   31500    288.35594   -15.876845    148524.89   -47582.316    3959.8745    -51542.19    0.1488301 
   31600    291.64661    11.272024    148531.48   -47599.294    4005.0639   -51604.358   0.14056043 
   31700    292.56577    31.240079     148552.3   -47570.335    4017.6863   -51588.021    0.1447112 
   31800    285.82476   -26.469937    148538.56   -47635.406    3925.1148   -51560.521   0.15098322 
   31900    290.28896   -14.909795    148533.75    -47633.83    3986.4198   -51620.249   0.14342528 
   32000    289.38522    4.3757874    148532.61    -47581.99    3974.0092   -51555.999   0.14949121 
   32100    289.46538    5.0541396    148513.03   -47610.904      3975.11   -51586.014   0.14368128 
   32200    285.70226    2.4772346    148505.65   -47740.955    3923.4326   -51664.387   0.14190024 
   32300     284.9654    5.7755252    148499.96   -47681.804    3913.3135   -51595.117   0.14227365 
   32400    278.46847   -9.3033212    148488.52   -47774.324    3824.0939   -51598.418   0.14638062 
   32500    287.88649   -1.8504972    148519.81   -47632.367    3953.4276   -51585.795   0.14648805 
   32600    295.73916    14.728878    148546.92   -47588.013    4061.2652   -51649.278   0.14280651 
   32700     289.4184    40.442553    148519.46   -47676.864    3974.4648   -51651.329   0.14018299 
   32800    293.89344    35.215254    148577.42   -47555.976    4035.9187   -51591.895   0.13937776 
   32900    286.72639   -18.824336    148554.98    -47620.79    3937.4965   -51558.286   0.14880355 
   33000    286.79306  -0.73302963    148563.43    -47612.65     3938.412   -51551.062   0.14407307 
   33100    289.02798    34.072498    148550.19   -47637.964    3969.1033   -51607.068    0.1428646 
   33200    289.34686    36.458895    148532.13   -47614.073    3973.4823   -51587.555   0.14563987 
   33300    290.20797     29.04719    148569.89   -47621.454    3985.3076   -51606.762   0.13743479 
   33400    287.30494   -23.128143    148545.51   -47641.217    3945.4414   -51586.658   0.14614681 
   33500    284.52505    8.8099724    148528.18    -47666.64    3907.2664   -51573.907    0.1486759 
   33600    284.63014   -28.749539    148529.94   -47677.566    3908.7095   -51586.275   0.14182822 
   33700    288.72837    10.809854    148557.67   -47578.461    3964.9888    -51543.45    0.1469706 
   33800    295.29005    20.453771    148589.37   -47469.213    4055.0978   -51524.311   0.14284317 
   33900    294.66729   -5.9540821    148588.33   -47500.311    4046.5457   -51546.856   0.14801434 
   34000    288.57319   -35.747449    148556.83    -47636.67    3962.8578   -51599.528   0.14435165 
   34100    293.01792    14.534354    148565.26   -47657.421    4023.8955   -51681.316   0.13810022 
   34200    295.34052    9.8929056       148579   -47661.571    4055.7908   -51717.362   0.13926215 
   34300    290.68807    5.6364554    148546.63   -47687.208    3991.9006   -51679.108   0.13993388 
   34400    291.23421    19.988353    148570.08   -47613.811    3999.4005   -51613.211    0.1435385 
   34500    295.04467   -8.1256131    148609.03   -47542.457     4051.728   -51594.185   0.14378806 
   34600    294.87699   -3.6283394    148628.77   -47543.876    4049.4253   -51593.301   0.14579829 
   34700    293.32795   -47.656823     148594.2   -47661.827     4028.153    -51689.98   0.13993458 
   34800    287.14096    8.9587167    148557.23   -47651.986    3943.1896   -51595.175   0.14215914 
   34900    292.33513    23.081735    148553.62   -47627.675     4014.519   -51642.194   0.14200034 
   35000    295.62921   -4.7667564    148567.56   -47606.785    4059.7552    -51666.54   0.14059425 
   35100    292.14315    28.585074    148566.69   -47625.396    4011.8826   -51637.278   0.14116365 
   35200     286.1532    17.703064    148554.71   -47559.622    3929.6251   -51489.247   0.14521131 
   35300    292.79114    7.2848071    148565.66   -47641.537    4020.7813   -51662.318   0.14035152 
   35400    290.96953   -2.9973725    148567.58   -47645.216    3995.7658   -51640.982   0.14151795 
   35500    289.75955   -6.6170938    148576.01   -47630.831    3979.1497   -51609.981   0.13883009 
   35600    291.88266    18.605997    148586.35   -47598.377    4008.3054   -51606.683   0.14230566 
   35700    282.96281   -16.170838    148547.44   -47609.497    3885.8128   -51495.309   0.14460049 
   35800    294.45999   -3.6497264    148596.41   -47450.224    4043.6989   -51493.923   0.14736294 
   35900     291.8884    12.873803    148586.71   -47566.184    4008.3842   -51574.568   0.14856713 
   36000    283.41359    -11.36308    148543.18   -47619.974    3892.0031   -51511.977   0.14462441 
   36100      290.361   -3.4043082    148556.01   -47670.868    3987.4091   -51658.277   0.14373723 
   36200    291.05505   -32.617962    148560.11    -47703.41    3996.9402    -51700.35   0.14080931 
   36300    290.40633    16.153995    148548.55   -47633.091    3988.0316   -51621.123   0.14039349 
   36400    288.37627   -33.616313    148536.48   -47692.693    3960.1537   -51652.847   0.14933192 
   36500    293.34184   -35.417521    148552.26   -47667.031    4028.3438   -51695.375   0.14046787 
   36600     289.3965   0.16562447     148547.8    -47664.47     3974.164   -51638.634   0.14495998 
   36700    286.35164    14.618603    148550.57   -47698.032    3932.3502   -51630.382   0.13861598 
   36800    282.94737   -19.663405    148527.27   -47771.743    3885.6007   -51657.344   0.14293797 
   36900    288.57298    20.711384    148540.46   -47692.639     3962.855   -51655.494   0.14041562 
   37000    288.47949    8.1345505    148525.54   -47674.272    3961.5711   -51635.843   0.14141289 
   37100    284.17272   -39.051128    148521.13   -47719.408     3902.428   -51621.836   0.14793374 
   37200    282.96681   -37.021447    148522.14   -47721.648    3885.8677   -51607.516   0.14091233 
   37300    282.02783   -19.068916    148525.07   -47715.643    3872.9732   -51588.616   0.15117523 
   37400    283.93778    -4.197395     148524.6   -47728.084    3899.2017   -51627.286   0.13816834 
   37500    289.05641   -7.3527128    148539.83   -47705.559    3969.4937   -51675.052   0.14595833 
   37600    285.01736    10.396942    148540.84   -47754.687    3914.0271   -51668.714   0.14214421 
   37700     282.4737    6.9387552    148492.36   -47831.413     3879.096   -51710.509   0.13787733 
   37800    284.20001    30.102271    148474.22   -47847.587    3902.8027   -51750.389   0.14371506 
   37900    282.40321   -17.792965    148485.44   -47751.826    3878.1281   -51629.954   0.14459665 
   38000    284.74393    -8.617534    148512.41   -47690.464    3910.2722   -51600.736    0.1471419 
   38100    282.38948   -30.091458    148525.58   -47624.171    3877.9395   -51502.111   0.15030653 
   38200    287.08821   -14.260306     148520.6   -47592.473    3942.4652   -51534.938   0.14781461 
   38300    285.18842    -47.81605    148532.63   -47643.627    3916.3762   -51560.003   0.14800925 
   38400    291.05416    19.087883    148524.95   -47573.792    3996.9281    -51570.72   0.14626075 
   38500    289.30354    23.446197    148498.84   -47634.189    3972.8874   -51607.076   0.14397378 
   38600    291.42161   -28.976434    148526.52    -47600.55     4001.974   -51602.524   0.14956263 
   38700    291.20048    22.958242    148522.25   -47559.162    3998.9373   -51558.099   0.14451026 
   38800    289.85079    41.346655    148519.59   -47599.031    3980.4027   -51579.434   0.14913687 
   38900    290.69508   -22.855325    148540.84   -47537.574    3991.9969   -51529.571   0.15139066 
   39000    287.58277   -48.794386    148543.71   -47601.643    3949.2568   -51550.899   0.14750514 
   39100    290.96758    27.982033    148532.65   -47619.506     3995.739   -51615.246   0.14332904 
   39200    281.23612   0.76162112    148485.17    -47743.69    3862.1009    -51605.79   0.14408295 
   39300    284.47026    -25.23212    148475.02   -47754.078     3906.514   -51660.592   0.14944268 
   39400    290.07537     3.083339    148500.43   -47630.886    3983.4867   -51614.373   0.14468252 
   39500    288.04568    8.6495429    148513.21   -47612.636    3955.6138    -51568.25   0.15293366 
   39600    292.86261   -8.8334364     148554.4   -47617.807    4021.7627    -51639.57    0.1411556 
   39700    292.55424   -41.242948     148543.5   -47601.041     4017.528   -51618.569   0.14794465 
   39800    292.52376   -1.3806455    148540.76   -47619.553    4017.1095   -51636.662   0.14514625 
   39900    291.38305    35.625503    148545.18   -47583.145    4001.4445   -51584.589   0.14328956 
   40000    287.02432     -11.4135    148539.69   -47658.796    3941.5878   -51600.384   0.15088422 
   40100     287.7528    7.1547692    148557.89   -47668.426    3951.5918   -51620.017   0.13809697 
   40200    288.08318   -15.472663    148536.47   -47641.645    3956.1287   -51597.774   0.14664605 
   40300    285.03136    33.992945    148520.35   -47649.627    3914.2193   -51563.846    0.1465652 
   40400    287.02359   -10.608239    148506.73   -47733.246    3941.5778   -51674.824   0.14413856 
   40500    286.38812   -16.304322    148500.97   -47587.584    3932.8512   -51520.436   0.15307677 
   40600     289.6177   -13.328455    148527.05   -47661.157    3977.2017   -51638.359   0.14864237 
   40700    288.64089    5.5013676    148485.86   -47660.786    3963.7876   -51624.573   0.14248402 
   40800    288.60688   -11.569898    148517.49   -47636.677    3963.3204   -51599.997   0.15074061 
   40900    292.21319    20.385001     148507.8   -47622.283    4012.8444   -51635.127   0.14443727 
   41000    286.27955   -49.662021    148513.03    -47689.68    3931.3602    -51621.04   0.14832362 
   41100    291.25892    33.366809    148511.39   -47656.231    3999.7399   -51655.971   0.14521049 
   41200    289.99123    30.710679     148513.6   -47542.525    3982.3312   -51524.856   0.14627576 
   41300    290.99599    20.869082    148517.16   -47626.734    3996.1292   -51622.863    0.1488678 
   41400    289.12408    11.105804    148523.96   -47573.183     3970.423   -51543.606   0.14734804 
   41500    290.14336   -29.124159    148521.67   -47589.974    3984.4204   -51574.395   0.15416599 
   41600     290.2031   -26.244317    148526.29   -47596.485    3985.2408   -51581.726   0.14784058 
   41700    289.85649      18.3829    148505.39   -47707.741    3980.4809   -51688.222   0.14736399 
   41800    288.80303  -0.58869604    148495.21   -47622.043    3966.0141   -51588.057   0.14682829 
   41900    287.13964    -30.13807    148501.92   -47705.889    3943.1716   -51649.061   0.14559079 
   42000    284.73006    59.891134    148502.34   -47674.497    3910.0818   -51584.579   0.14731464 
   42100    288.50503   -7.6741243    148504.81    -47754.63    3961.9218   -51716.552   0.13608041 
   42200    282.88646    5.4539659    148501.68   -47711.698    3884.7643   -51596.462   0.14875075 
   42300    288.52321    5.5484203    148515.89   -47672.352    3962.1714   -51634.523   0.13957905 
   42400    290.51032    -11.53357    148527.23   -47700.851    3989.4597    -51690.31   0.14410639 
   42500    284.97851    5.4609274    148542.29   -47663.283    3913.4936   -51576.777   0.14883509 
   42600    292.11379    -7.776791    148534.12   -47704.497    4011.4795   -51715.977   0.14017256 
   42700    287.07025   -9.0858645    148519.93   -47770.915    3942.2186   -51713.134   0.14350803 
   42800    287.33196   -6.2161646    148539.86   -47682.532    3945.8126   -51628.345   0.14291213 
   42900    286.46321   -14.456119     148540.3   -47704.117    3933.8824   -51637.999   0.14156697 
   43000    286.48722   -37.084435    148544.04   -47722.567     3934.212   -51656.779   0.14384425 
   43100    289.49524   -18.257672    148549.79   -47643.245      3975.52   -51618.765    0.1439734 
   43200    286.03295   -40.100187     148542.3   -47658.399    3927.9738   -51586.373   0.14503304 
   43300    288.84924    35.522309    148512.78   -47648.987    3966.6488   -51615.636   0.14304563 
   43400    288.10859    13.045377    148541.87   -47583.784    3956.4776   -51540.261   0.14487601 
   43500    286.08312   -35.534424    148540.19   -47637.478    3928.6627    -51566.14   0.15013901 
   43600    289.42241   -4.2203843    148543.62   -47682.304    3974.5199   -51656.823   0.14016072 
   43700     289.7413   -2.9424156    148517.44   -47725.495     3978.899   -51704.394    0.1412305 
   43800    284.59539    1.7959074    148522.95    -47761.97    3908.2324   -51670.202   0.13962451 
   43900    291.65544     11.04829    148529.78   -47674.867    4005.1851   -51680.052   0.14156235 
   44000    291.23007    32.486404    148511.02   -47757.998    3999.3438   -51757.342   0.13856069 
   44100    288.77719    12.955649    148529.24   -47717.998    3965.6593   -51683.658   0.14046533 
   44200    289.13362   -4.4518776    148518.31   -47677.837     3970.554   -51648.391   0.14953081 
   44300    289.05087     21.42257    148518.68   -47676.761    3969.4176   -51646.179   0.13784999 
   44400    290.25519    24.778795    148517.39   -47689.828    3985.9561   -51675.785   0.14486951 
   44500    287.17429   -2.9605215    148503.44    -47690.81    3943.6474   -51634.457   0.14197952 
   44600    285.82504   -19.604949    148518.42   -47700.311    3925.1187   -51625.429   0.14594603 
   44700    291.31165    9.0986746    148551.12    -47690.54     4000.464   -51691.004   0.14183566 
   44800    288.78693    30.339016    148538.69   -47640.338    3965.7931   -51606.131   0.13739671 
   44900    289.99083    20.795194    148561.15   -47631.437    3982.3257   -51613.763   0.14316091 
   45000    286.19163   -12.640998    148544.12   -47674.692    3930.1529   -51604.845   0.14360474 
   45100    291.17162   -21.887324    148595.97   -47563.719    3998.5411    -51562.26   0.14621657 
   45200    288.35168    30.133041    148588.11   -47595.682     3959.816   -51555.498   0.14233377 
   45300    290.83388    9.9501625    148587.24   -47618.346    3993.9029   -51612.249   0.14202683 
   45400    292.49524     8.751199    148589.59   -47691.013    4016.7178   -51707.731   0.13901362 
   45500    288.50812   -17.306445    148595.31   -47625.994    3961.9643   -51587.959   0.14278764 
   45600    292.54388    19.529269    148592.88   -47619.448    4017.3857   -51636.834   0.13939665 
   45700    289.66542   -20.792954     148588.5   -47574.783     3977.857    -51552.64   0.14692554 
   45800    291.74386    13.630936     148591.2   -47652.664    4006.3994   -51659.063   0.14124578 
   45900    297.53895    45.045576    148616.48   -47518.685     4085.981   -51604.666   0.14080828 
   46000    293.11975   -3.3438471    148599.31   -47579.352    4025.2939   -51604.646   0.14574389 
   46100    299.38093    4.3209514    148612.86   -47490.595    4111.2762   -51601.872    0.1462699 
   46200    291.78286   -21.400233    148581.14   -47539.835    4006.9349    -51546.77    0.1452289 
   46300     296.3213   -7.4368847    148577.12   -47531.429    4069.2594   -51600.689   0.14464396 
   46400    289.87713    28.037193    148568.39   -47574.827    3980.7643   -51555.591   0.14448503 
   46500    286.85623    20.946574     148567.6   -47538.062    3939.2795   -51477.342   0.14170814 
   46600    288.88368     12.60914    148567.81   -47600.707    3967.1217   -51567.829   0.14779338 
   46700    293.85527    40.855255    148583.75   -47533.259    4035.3944   -51568.654   0.13913652 
   46800    296.42672     39.62792    148584.82   -47549.451    4070.7072   -51620.158   0.14233645 
   46900    289.40526   -24.138013    148567.32   -47601.366    3974.2843   -51575.651   0.14718421 
   47000    291.70903   -22.083372    148584.23   -47636.772    4005.9211   -51642.693   0.13945136 
   47100    290.82879   -13.142178    148552.09   -47648.422     3993.833   -51642.255   0.14756452 
   47200    288.56596    38.809432    148568.82   -47612.785    3962.7586   -51575.544   0.13721493 
   47300    285.73161   -22.986595    148555.15   -47731.725    3923.8356   -51655.561   0.14153413 
   47400     290.6761    3.9201928    148573.85   -47672.823    3991.7362   -51664.559   0.14228263 
   47500    291.09529    33.300898    148577.06    -47672.17    3997.4928   -51669.662   0.13607076 
   47600    286.84576   -18.741399    148558.77   -47666.883    3939.1357   -51606.019   0.14439949 
   47700    292.27004    20.840399    148578.68   -47594.515    4013.6251    -51608.14   0.13932131 
   47800    288.62644    19.832006    148578.14   -47653.758     3963.589   -51617.347   0.14154184 
   47900    289.49758   -17.403179    148554.63   -47705.005    3975.5522   -51680.558   0.13857047 
   48000    293.15145    36.563528    148564.59   -47663.578    4025.7292   -51689.307   0.13386482 
   48100    291.62296    2.0684528    148568.76   -47705.689     4004.739   -51710.428   0.13672559 
   48200    287.21631    23.234347    148551.47   -47693.347    3944.2244   -51637.572   0.13490022 
   48300    291.26447    18.546936    148566.57     -47647.4    3999.8161   -51647.216   0.13847603 
   48400    287.32978    28.298462    148559.21   -47680.839    3945.7826   -51626.621   0.13864687 
   48500    282.80974    -14.03126    148528.53   -47766.796    3883.7108   -51650.507   0.14216143 
   48600    283.09449    16.769165     148527.6   -47760.556    3887.6211   -51648.177   0.14319742 
   48700    292.69931    23.361982    148558.63   -47648.086    4019.5201   -51667.606   0.13382739 
   48800    284.39616    0.9009009    148541.49   -47637.352    3905.4965   -51542.849    0.1479944 
   48900    288.10557    -32.92735    148558.71   -47666.895    3956.4362   -51623.332    0.1427779 
   49000    289.24369    20.869577    148535.22   -47698.591    3972.0656   -51670.656   0.14039934 
   49100    289.73359    26.214891    148557.97   -47613.142    3978.7931   -51591.935    0.1458231 
   49200    291.77253    -49.22711    148560.47   -47651.923    4006.7931   -51658.716   0.13665789 
   49300    289.35666    12.873817    148538.39   -47719.883     3973.617     -51693.5   0.14207713 
   49400    281.68727   -17.845517    148509.88   -47731.488    3868.2964   -51599.784   0.14372061 
   49500    289.49094    8.1043201    148535.38   -47670.711    3975.4609   -51646.172   0.14111974 
   49600    284.71267     38.53383    148531.66   -47663.429    3909.8429   -51573.272   0.14609948 
   49700    286.83652    39.175243    148551.06   -47673.853    3939.0089   -51612.862   0.13729759 
   49800    289.63858    3.7822445    148539.67   -47683.702    3977.4884   -51661.191   0.14230166 
   49900    289.81622  -0.66384903    148549.91   -47664.301    3979.9279   -51644.228   0.14359088 
   50000    290.59744   -6.3830283    148536.09   -47670.997     3990.656   -51661.653   0.14335407 
   50100    293.65491    16.186931    148568.67   -47530.786     4032.643   -51563.429   0.14818638 
   50200    291.43697    17.459687    148567.66   -47605.766    4002.1849   -51607.951   0.13941432 
   50300    288.05804    29.222039    148556.53   -47623.048    3955.7835   -51578.832   0.14455745 
   50400    287.74186    26.923284    148557.47    -47641.95    3951.4416   -51593.392   0.14150209 
   50500    291.36497     25.79388    148571.78   -47550.256    4001.1962   -51551.452   0.14364668 
   50600    290.62545   -26.919282     148596.7   -47479.786    3991.0408   -51470.826   0.14765042 
   50700    285.59765   -44.862041    148561.74   -47720.861     3921.996   -51642.857   0.14299564 
   50800    288.79243   -22.315451    148525.92   -47699.177    3965.8686   -51665.045   0.14273694 
   50900    291.94547      2.74196    148526.64   -47721.749     4009.168   -51730.917   0.13898323 
   51000    288.48105   -28.312607    148494.91   -47673.074    3961.5925   -51634.667   0.15013996 
   51100    289.50231   -16.050812    148501.77   -47684.854     3975.617   -51660.471   0.14740448 
   51200    286.12935   -44.551612    148520.43   -47746.139    3929.2976   -51675.437   0.14076469 
   51300    287.59158   -5.5898272    148505.58   -47752.837    3949.3779   -51702.215   0.14310861 
   51400    286.63991   -27.414418    148519.84   -47692.534    3936.3089   -51628.843   0.14181164 
   51500     288.2875   -7.2195985    148525.73   -47748.857    3958.9346   -51707.792     0.139325 
   51600    287.78199    24.020282    148549.99   -47670.799    3951.9927   -51622.791   0.14219807 
   51700    296.02676    29.152357    148567.99   -47568.667    4065.2147   -51633.882   0.14222604 
   51800     285.7517   -16.615688    148554.89   -47616.139    3924.1115    -51540.25   0.15051962 
   51900    287.68144   -32.332229     148535.1    -47681.82    3950.6119   -51632.432   0.14463659 
   52000    292.36056    22.582705    148543.69   -47664.007    4014.8683   -51678.876    0.1426629 
   52100    291.80243      17.8715    148527.87   -47741.485    4007.2037   -51748.688   0.13978124 
   52200    287.66681   -11.256654    148510.99   -47794.737    3950.4109   -51745.148   0.13805089 
   52300    288.72743   -1.9784694    148508.12   -47772.597     3964.976   -51737.573   0.13922571 
   52400    279.56101   -12.748173    148488.84   -47856.047    3839.0973   -51695.144   0.14067302 
   52500    283.51599    35.098363    148514.52   -47700.191    3893.4093     -51593.6   0.14100851 
   52600    285.38157   -0.6369337    148539.34   -47670.534    3919.0287   -51589.563   0.14334155 
   52700    287.05243    10.853565    148553.46   -47607.961    3941.9739   -51549.935   0.14496591 
   52800    290.41652    22.164068    148590.78   -47582.336    3988.1715   -51570.507   0.14419506 
   52900    290.17048    3.0849608    148572.52   -47607.036    3984.7928   -51591.829   0.14563528 
   53000     290.2238   -15.861826    148571.57   -47556.834     3985.525   -51542.359   0.14913753 
   53100    287.25808   -20.162633    148524.84   -47690.133     3944.798   -51634.931   0.14271349 
   53200    285.20873   -69.744108    148520.23   -47742.396    3916.6551   -51659.052   0.15002959 
   53300    288.50479    7.5286392     148513.7   -47700.344    3961.9185   -51662.263   0.14089318 
   53400    285.91932    24.752535    148530.73    -47631.29    3926.4133   -51557.703   0.14679527 
   53500    290.83469    9.4340967    148548.01   -47620.118    3993.9141   -51614.032   0.14587515 
   53600    283.51429     -30.7356    148510.07   -47687.574    3893.3861    -51580.96   0.14413934 
   53700    286.23863   -20.494604    148525.08   -47667.989    3930.7983   -51598.788    0.1471061 
   53800    288.74857   -1.8773776    148520.06   -47695.877    3965.2662   -51661.143   0.14137099 
   53900    288.05362    31.202352    148491.27   -47699.268    3955.7229   -51654.991   0.14247459 
   54000    289.87833    17.336494    148488.13   -47707.322    3980.7808   -51688.102   0.14307282 
   54100    288.07498    20.952257    148517.43   -47681.556    3956.0161   -51637.572   0.13852731 
   54200     289.4969    32.931922    148523.55   -47628.516    3975.5427   -51604.059    0.1429481 
   54300    290.47938    10.516868    148541.15   -47557.555    3989.0348   -51546.589    0.1456293 
   54400    290.60398   -10.805174    148566.61   -47477.235    3990.7458   -51467.981   0.14641975 
   54500    290.99413      8.90145    148567.76   -47548.164    3996.1036   -51544.267   0.14758782 
   54600    297.24644    7.4801725    148572.06   -47564.713    4081.9641   -51646.677   0.14007356 
   54700    287.64554   -38.244536     148554.9   -47629.062    3950.1189   -51579.181   0.14678661 
   54800    294.79649    15.249217    148575.26    -47556.93    4048.3199    -51605.25    0.1387077 
   54900    291.38282   -29.764933    148545.23   -47574.057    4001.4413   -51575.499   0.14452828 
   55000    288.81744   -23.798102    148541.85   -47602.071     3966.212   -51568.283   0.14310749 
   55100    285.61828    -4.399235    148549.43   -47617.799    3922.2792   -51540.078   0.14409994 
   55200    285.16702    5.6500264    148538.89   -47733.835    3916.0823   -51649.918   0.14167303 
   55300    280.72642   -1.7969896    148513.58   -47774.379    3855.1014    -51629.48   0.13620503 
   55400    289.03223    -4.455992    148511.82   -47741.696    3969.1616   -51710.858   0.14126868 
   55500    287.49828    7.1432323    148522.31   -47699.971    3948.0965   -51648.068   0.13942631 
   55600    286.62435    20.463517    148531.67   -47598.365    3936.0953   -51534.461   0.14315393 
   55700    290.39252   -5.0896741    148553.57   -47562.522     3987.842   -51550.364   0.14949023 
   55800    285.32813   -0.9885438    148562.08   -47547.121    3918.2948   -51465.416   0.14234119 
   55900    290.89862    39.661257    148537.59   -47559.303    3994.7921   -51554.095   0.14689044 
   56000    287.82056   -10.528475    148537.98   -47567.325    3952.5223   -51519.847   0.14581927 
   56100    286.56471     12.47107    148528.99   -47555.896    3935.2762   -51491.173   0.14566019 
   56200    286.45685   -24.342084    148504.02   -47590.542     3933.795   -51524.337   0.15151059 
   56300    287.16122   -35.370333    148477.35   -47659.041    3943.4678   -51602.509   0.14405619 
   56400    291.86509   -2.5887106    148482.46    -47708.11    4008.0642   -51716.174   0.14151619 
   56500    282.03347    11.698407    148459.92   -47750.383    3873.0506   -51623.434   0.14516106 
   56600    286.94717   -3.7543441    148468.12     -47812.8    3940.5284   -51753.328    0.1380543 
   56700    290.13774    12.278355    148474.24   -47790.032    3984.3432   -51774.375   0.14192567 
   56800    286.55675    10.556122    148499.55   -47678.771     3935.167   -51613.938   0.14015532 
   56900     286.8767    30.310781    148498.88   -47778.184    3939.5607   -51717.745   0.13609749 
   57000    286.48024   -16.488196     148494.3   -47762.869    3934.1163   -51696.985   0.14221687 
   57100    289.07181    11.703326    148513.71   -47681.625    3969.7051    -51651.33   0.13978146 
   57200    286.51539   -68.186136    148506.38   -47633.521     3934.599    -51568.12   0.15424634 
   57300    283.08615    -11.72271    148481.59   -47766.532    3887.5066   -51654.038   0.14090192 
   57400    286.07596   -5.2789657       148477   -47645.885    3928.5644   -51574.449   0.15019516 
   57500    290.07955    32.662678    148492.81   -47610.837     3983.544   -51594.381   0.14448951 
   57600    288.47166    18.949345    148473.45    -47724.09    3961.4636   -51685.553    0.1434602 
   57700    290.82489   -26.767038    148480.93   -47635.135    3993.7796   -51628.914   0.14933871 
   57800    288.84176   0.04482275    148496.63   -47584.412     3966.546   -51550.958   0.14413269 
   57900    287.87337    8.6789777    148518.15   -47621.213    3953.2475   -51574.461   0.14840151 
   58000    289.14112    -14.52659    148507.51   -47581.648    3970.6571   -51552.305   0.14734445 
   58100    288.48404    5.3023754    148500.35   -47632.103    3961.6336   -51593.736   0.15087717 
   58200    292.71574    -4.412968    148553.83   -47529.485    4019.7458   -51549.231   0.15060789 
   58300    291.10681    10.700131    148535.37   -47593.401     3997.651   -51591.052    0.1416473 
   58400    287.56032   -15.083977     148525.6   -47639.017    3948.9486   -51587.965   0.15003286 
   58500    285.50803  -0.84832118    148512.93   -47640.919    3920.7652   -51561.684   0.14250063 
   58600    286.24745   -36.224681    148500.92   -47679.004    3930.9195   -51609.924   0.14686675 
   58700    288.47154    49.684664    148495.04   -47627.748     3961.462    -51589.21   0.14473828 
   58800    287.19857    20.583555    148493.07   -47672.987    3943.9807   -51616.968   0.14434754 
   58900    286.24815    16.355171    148488.37   -47587.659     3930.929   -51518.588   0.15077966 
   59000    288.78463   -17.475589    148521.14    -47560.63    3965.7615   -51526.391   0.14827306 
   59100    292.38393   -5.8140483    148538.01   -47525.189    4015.1891   -51540.378   0.14802127 
   59200    286.74758   -9.9391677    148526.54   -47648.697    3937.7875   -51586.485   0.14507843 
   59300    294.46733    11.752558       148542   -47638.109    4043.7997   -51681.908   0.13784908 
   59400    288.89801    32.831465    148503.22   -47608.682    3967.3185       -51576   0.14351397 
   59500     284.8424   -1.0804376     148472.9   -47712.912    3911.6244   -51624.537   0.14686636 
   59600    286.22921    25.718367    148469.53   -47681.851     3930.669    -51612.52   0.14557901 
   59700    284.66829   -17.172117     148505.3   -47618.076    3909.2334   -51527.309   0.15025053 
   59800    284.57123    15.381915    148507.03   -47735.616    3907.9006   -51643.517   0.14159454 
   59900    286.22995    8.0210156    148492.11   -47723.693     3930.679   -51654.372   0.14737861 
   60000    287.27993   -60.265689       148497   -47694.004    3945.0981   -51639.102   0.14492578 
   60100    285.53029   -30.647301    148483.12   -47649.322     3921.071   -51570.393   0.15216182 
   60200    288.58395    11.983082    148497.55   -47620.637    3963.0057   -51583.643   0.14480738 
   60300    287.58398   -7.8770938    148513.93   -47585.475    3949.2734   -51534.749   0.14700889 
   60400    288.70992     39.43978    148505.28    -47524.77    3964.7355   -51489.505   0.14899967 
   60500    292.46749    12.306165    148519.95    -47562.94    4016.3367   -51579.276   0.14286055 
   60600    284.22559   -1.0279814     148490.2   -47617.554     3903.154   -51520.708   0.15785957 
   60700      293.438   -22.457421    148518.34   -47446.896    4029.6643    -51476.56   0.15201739 
   60800    296.49201   -41.060354     148507.3   -47467.635    4071.6038   -51539.239   0.15445058 
   60900    290.38426    10.632801    148523.81   -47565.986    3987.7285   -51553.715   0.14599313 
   61000    288.49333   -12.969772    148516.36   -47609.861    3961.7612   -51571.622   0.14545957 
   61100    292.10931    20.286784    148500.92   -47589.788    4011.4179   -51601.206   0.14865035 
   61200    290.85089     29.86813    148510.83   -47528.212    3994.1366   -51522.349   0.14769509 
   61300    290.57722   -31.041483    148499.28   -47624.414    3990.3784   -51614.792   0.14880402 
   61400    287.70507   -8.1809512     148500.6   -47677.867    3950.9363   -51628.803    0.1456697 
   61500    287.95565    8.2131713     148515.3   -47620.255    3954.3775   -51574.633   0.14674842 
   61600    288.11446    9.3558437    148493.72   -47659.899    3956.5584   -51616.457   0.14734813 
   61700    287.15994   -12.761862     148484.1   -47725.952    3943.4503   -51669.402   0.14222852 
   61800    283.13818    10.363849     148485.6   -47714.116    3888.2211   -51602.338    0.1449777 
   61900    286.33905   -6.2948786    148499.22   -47603.356    3932.1773   -51535.533   0.14699543 
   62000    290.06759    28.997038    148493.43   -47615.544    3983.3799   -51598.924   0.14797632 
   62100    284.19512   -15.959017    148484.76   -47683.049    3902.7357   -51585.785    0.1528106 
   62200    291.11332   -9.2736402    148502.32   -47578.936    3997.7404   -51576.677   0.14851964 
   62300    291.24581   -5.9962235    148499.17   -47628.597    3999.5599   -51628.157   0.15451549 
   62400    288.73971    7.1582554    148516.69   -47680.258    3965.1446   -51645.403   0.14621274 
   62500    285.10548   -36.803302    148520.65   -47665.706    3915.2372   -51580.943   0.14979601 
   62600    285.07269    -19.18754     148507.5   -47699.005    3914.7869   -51613.792   0.14856593 
   62700    287.81183    14.098198    148510.54   -47734.324    3952.4024   -51686.726   0.13767294 
   62800    286.98692    18.905416    148522.36   -47707.718    3941.0742   -51648.792   0.14902461 
   62900    288.81466    23.309484    148552.78   -47609.816    3966.1739    -51575.99   0.14306552 
   63000    287.56238   -1.1554472    148540.01   -47646.279    3948.9768   -51595.256   0.15008952 
   63100    283.38679   -10.855724    148538.07   -47718.884    3891.6351   -51610.519     0.148125 
   63200    287.37396   0.89906167     148555.9   -47601.004    3946.3893   -51547.393   0.14813489 
   63300    290.14806    22.414946    148526.62   -47696.411    3984.4849   -51680.896   0.14975019 
   63400    286.33235    1.4516354    148498.52   -47783.586    3932.0854   -51715.671   0.13791541 
   63500    287.15503    15.974227    148504.73   -47754.201    3943.3828   -51697.584   0.14784331 
   63600     286.0797    22.304733    148495.04   -47802.949    3928.6158   -51731.565   0.13981959 
   63700    287.53742   -11.744297     148485.5   -47769.483     3948.634   -51718.117   0.14361347 
   63800    284.35435   -10.106678    148486.12   -47841.464    3904.9222   -51746.386    0.1430102 
   63900     284.1354   -37.525531    148527.33   -47729.397    3901.9156   -51631.313   0.14598109 
   64000    289.54621   -4.1762757    148523.78   -47644.041    3976.2199   -51620.261   0.14964225 
   64100    289.98249     48.10704    148541.13   -47597.595    3982.2112   -51579.806   0.14660871 
   64200    292.01617     21.50348    148543.92   -47589.881    4010.1389   -51600.019      0.14632 
   64300     284.5606   -26.264143     148530.6   -47625.353    3907.7546   -51533.108   0.15150431 
   64400    289.62652   -29.824552     148533.4   -47690.075    3977.3228   -51667.398   0.14309321 
   64500    288.26082   -17.682081    148510.76   -47676.302    3958.5682    -51634.87    0.1507644 
   64600    287.61493    21.886822       148517   -47713.377    3949.6984   -51663.076   0.14458517 
   64700    287.99311    3.2637577    148496.75   -47714.602    3954.8919   -51669.494   0.14361737 
   64800    287.52043    -9.665978    148507.38   -47660.667    3948.4007   -51609.068   0.14882394 
   64900    292.80898    23.672903    148525.37   -47578.058    4021.0262   -51599.084   0.14606252 
   65000    286.64246    17.914398    148537.29   -47565.894    3936.3439   -51502.238   0.15658385 
   65100    291.37224    16.266818    148554.79   -47635.888     4001.296   -51637.184   0.14037653 
   65200    286.74339   -12.242716    148527.55   -47647.083      3937.73   -51584.813    0.1496496 
   65300    287.74449   -2.9568848       148560   -47590.357    3951.4776   -51541.834   0.15158722 
   65400    286.53105   -8.9458835    148544.49   -47630.225    3934.8139   -51565.039   0.14436238 
   65500    292.20558    19.722976    148534.28   -47559.598    4012.7399   -51572.338    0.1530076 
   65600     288.3628   -3.1426199     148550.8   -47578.482    3959.9686   -51538.451    0.1450876 
   65700    292.85874    14.623918    148556.63   -47534.954    4021.7096   -51556.664   0.15153325 
   65800    295.35326    26.301628    148565.73   -47606.652    4055.9658   -51662.618   0.14350096 
   65900    286.58452    -1.948225    148566.02   -47618.405    3935.5483   -51553.954    0.1434562 
   66000    289.60786     20.68413    148542.21   -47625.678    3977.0665   -51602.745   0.15380501 
   66100    287.28431    18.333038     148548.1   -47594.262    3945.1581    -51539.42   0.14240421 
   66200    285.63406   -3.8087327    148518.25   -47726.138     3922.496   -51648.634   0.14702575 
   66300    288.96326    12.109601    148522.06   -47654.115    3968.2146    -51622.33   0.14511413 
   66400     288.2725   -6.8571145    148516.89   -47658.386    3958.7285   -51617.115   0.14904555 
   66500    289.39797   -13.241564    148517.78   -47696.358    3974.1842   -51670.542   0.14741929 
   66600     282.7875   -42.052642    148520.72    -47697.29    3883.4053   -51580.695   0.14492099 
   66700    287.09469    45.005115     148521.1   -47684.651    3942.5543   -51627.205   0.14811697 
   66800    284.17671    36.168057    148549.68   -47710.941    3902.4828   -51613.423   0.14312579 
   66900    282.44213   -13.821756     148543.4   -47721.141    3878.6625   -51599.803   0.14661138 
   67000    284.13075    3.5453702    148520.26   -47828.195    3901.8517   -51730.047   0.14586972 
   67100    283.49605   -45.324974    148541.86    -47669.32    3893.1356   -51562.456   0.14784297 
   67200      288.603   -32.294568    148540.86   -47773.565    3963.2672   -51736.832   0.14363741 
   67300    286.50107   -8.7503362    148546.33   -47686.691    3934.4023   -51621.094   0.14209572 
   67400    286.03038   -25.114954    148559.71   -47667.182    3927.9385   -51595.121    0.1460815 
   67500    288.51722    6.9469556    148547.93   -47652.374    3962.0892   -51614.463   0.14761154 
   67600    292.57004    5.3394491    148566.69   -47510.078     4017.745   -51527.823   0.14581445 
   67700    289.14288   -14.745797     148559.8   -47584.248    3970.6812   -51554.929    0.1516984 
   67800     291.0697    21.563989    148563.67   -47629.955    3997.1414   -51627.096   0.13956295 
   67900    290.27531    5.1146672    148535.94   -47659.067    3986.2323   -51645.299   0.14509523 
   68000    289.07337   -22.068805    148523.59   -47690.927    3969.7266   -51660.654   0.14586468 
   68100    285.47561   -38.879285    148504.58   -47697.914      3920.32   -51618.234   0.14694456 
   68200     291.1874    43.820409    148495.82   -47659.959    3998.7577   -51658.716   0.14881522 
   68300    290.89865    2.9547928    148502.36   -47606.563    3994.7924   -51601.356   0.14441874 
   68400    287.90464   -9.6058965    148538.06   -47573.033    3953.6769   -51526.709   0.15198021 
   68500    286.92258   -21.376819    148533.24   -47568.241    3940.1907   -51508.432   0.14958804 
   68600    280.45176   -26.597743     148516.2   -47660.679    3851.3295   -51512.009   0.15157891 
   68700    288.42589  -0.17811055    148518.36   -47636.689     3960.835   -51597.524   0.15181708 
   68800     287.7857    13.643422    148510.45   -47628.524    3952.0436   -51580.568   0.14562594 
   68900    285.58937    17.039606     148485.1   -47626.877    3921.8823    -51548.76    0.1516126 
   69000    290.76354     20.39664    148525.13   -47630.953    3992.9371    -51623.89   0.14584028 
   69100    288.15109    9.4623024    148496.54   -47692.052    3957.0613   -51649.113   0.14987751 
   69200    283.28257   -17.395485    148492.58   -47706.804    3890.2039   -51597.008   0.15367477 
   69300    279.44187    -67.82579    148477.72   -47738.358    3837.4612   -51575.819    0.1515248 
   69400    280.71475   -11.850196    148470.54   -47789.241    3854.9411   -51644.182   0.15033928 
   69500    286.09614    15.490432    148473.73   -47649.836    3928.8415   -51578.677   0.14498098 
   69600    292.64651   -12.930784    148530.11   -47549.438    4018.7951   -51568.233   0.15356284 
   69700    293.52508    46.504727    148539.97   -47646.086    4030.8601   -51676.946   0.14589465 
   69800    290.14932     32.76374    148528.52    -47643.86    3984.5022   -51628.362    0.1404152 
   69900    286.96628    18.625425    148534.51   -47739.807    3940.7908   -51680.598   0.14388432 
   70000    287.65084    27.163816    148549.06   -47671.866    3950.1916   -51622.058   0.14139795 
   70100    280.71667   -47.337789    148537.53   -47794.428    3854.9675   -51649.395   0.14551085 
   70200    290.15147    4.5104461    148544.67   -47626.448    3984.5317    -51610.98     0.147346 
   70300    290.51588   -29.030785    148556.86   -47641.549    3989.5361   -51631.085   0.14291221 
   70400    292.52967    10.497506    148571.01   -47528.125    4017.1906   -51545.316    0.1523147 
   70500     293.2253    23.264531    148561.03     -47603.6    4026.7433   -51630.343   0.13921953 
   70600    291.35916   -12.162831    148544.13   -47656.614    4001.1165    -51657.73    0.1462017 
   70700    288.93263   -13.251913    148553.55   -47630.027    3967.7939   -51597.821   0.15038462 
   70800    293.07698    23.177624    148558.62   -47663.205    4024.7066   -51687.912   0.14208806 
   70900      288.538   -21.555996    148545.55   -47656.867    3962.3746   -51619.242   0.14708466 
   71000    288.98057   -23.801077    148555.08   -47677.126    3968.4522   -51645.578   0.14547612 
   71100    291.51258   -12.781679    148538.17   -47666.049    4003.2232   -51669.272    0.1504882 
   71200    287.80038   -34.744713    148533.84   -47702.214    3952.2451   -51654.459   0.14705219 
   71300    286.17666    5.8081919    148530.53   -47754.843    3929.9473    -51684.79   0.14613259 
   71400    285.52432  -0.65085562    148518.99   -47692.389    3920.9889   -51613.378   0.14900708 
   71500    286.67067    1.5981301    148535.65   -47647.014    3936.7313   -51583.745    0.1444061 
   71600    288.72394     23.19952    148523.66   -47662.185     3964.928   -51627.113   0.14556693 
   71700    285.90289   -36.331247    148510.44   -47648.605    3926.1877   -51574.793   0.14827865 
   71800    281.24945   -15.933033     148494.6   -47823.189    3862.2839   -51685.473   0.14875003 
   71900    286.60727     29.99371    148484.05   -47756.672    3935.8607   -51692.533   0.14527347 
   72000    285.70707    -12.65744    148508.35   -47733.183    3923.4985   -51656.681   0.14419195 
   72100    286.44988   -4.4398453    148531.59    -47590.96    3933.6992   -51524.659   0.15596653 
   72200    292.93503    16.727605    148568.57   -47489.102    4022.7572   -51511.859   0.14718528 
   72300    293.10099    8.6047592    148575.73   -47469.988    4025.0363   -51495.025   0.14959601 
   72400    289.23954    7.6729051    148535.36   -47583.219    3972.0086   -51555.228   0.15237059 
   72500    292.57695   -3.1728078    148550.71   -47583.316    4017.8398   -51601.155   0.14623883 
   72600    295.30661   0.72278085    148546.98   -47521.198    4055.3252   -51576.523   0.15332473 
   72700    285.52257   -20.455853    148537.59   -47683.104    3920.9649   -51604.068   0.14371724 
   72800     284.9861      10.0732    148536.14   -47605.784    3913.5978   -51519.382   0.15103735 
   72900    290.27537    9.4966125    148529.59   -47615.363    3986.2331   -51601.596    0.1484556 
   73000    291.36981    41.415988    148529.06    -47629.16    4001.2627   -51630.422   0.13959866 
   73100    294.02902     33.65228    148519.63   -47579.973    4037.7806   -51617.754   0.14709648 
   73200    290.60883    -25.80598    148531.89   -47567.749    3990.8124   -51558.561   0.15018524 
   73300    291.34455   -22.718282    148560.47   -47544.621    4000.9159   -51545.537   0.15179025 
   73400    289.96127   -31.300027    148556.51   -47531.242    3981.9198   -51513.162    0.1527974 
   73500    294.23924     25.81167    148541.39   -47532.095    4040.6674   -51572.762    0.1481564 
   73600    290.18336     6.985433     148550.2    -47582.99    3984.9697    -51567.96   0.14856605 
   73700    287.74926    15.612745    148544.52   -47639.022    3951.5431   -51590.565   0.14360752 
   73800    283.00148    16.107341    148493.04   -47725.882    3886.3438   -51612.226   0.14787275 
   73900    282.55353   -11.577194    148488.52   -47706.466    3880.1924   -51586.658   0.14807478 
   74000    284.86465   -8.9324478    148492.17   -47630.347      3911.93   -51542.277   0.15173841 
   74100    291.17793   -3.3022016    148549.44   -47468.004    3998.6277   -51466.632   0.15138872 
   74200    286.83757   -18.415897    148514.43   -47629.847    3939.0233    -51568.87     0.146268 
   74300    283.46037   -3.7160148    148486.98   -47628.495    3892.6456   -51521.141   0.15397236 
   74400    289.60934   -13.068127    148516.45   -47668.371    3977.0869   -51645.458   0.14531849 
   74500    285.81516    7.4740828    148513.06   -47681.905    3924.9829   -51606.888   0.14735241 
   74600    285.71366   -3.5773106     148519.1   -47684.688    3923.5891   -51608.278     0.147362 
   74700     291.8399    8.8036187    148551.23    -47604.19    4007.7183   -51611.909   0.14209316 
   74800    289.82836     5.798626    148526.84   -47658.773    3980.0946   -51638.867   0.14743542 
   74900    284.57654   -6.0330248    148542.73   -47657.775    3907.9736   -51565.748   0.14464326 
   75000     286.6348    21.951664    148527.82    -47638.79    3936.2387   -51575.029   0.15024466 
   75100    290.16244    18.086292    148567.76   -47573.602    3984.6824   -51558.284   0.15007554 
   75200    288.25927     12.04641    148555.56   -47619.237    3958.5469   -51577.784   0.14299798 
   75300    287.15696   -19.758018    148558.13   -47666.429    3943.4094   -51609.838   0.14808639 
   75400    287.30411   -5.5280983    148542.87   -47677.585      3945.43   -51623.015   0.14683983 
   75500    286.48403    19.433829    148527.09   -47675.895    3934.1683   -51610.064   0.14454479 
   75600    291.24618    11.731852    148537.19   -47604.274    3999.5649   -51603.839    0.1442884 
   75700    289.77589   -11.447569    148533.31   -47562.124     3979.374   -51541.498   0.15381301 
   75800    290.27532    -56.43292    148549.28   -47586.236    3986.2325   -51572.469   0.15149108 
   75900    289.18612    6.9773253    148518.79   -47600.551     3971.275   -51571.826   0.14930312 
   76000    289.44329    11.501434    148521.34   -47603.015    3974.8066   -51577.822   0.15305976 
   76100    284.64372    10.780491    148498.53   -47694.338    3908.8961   -51603.234    0.1485319 
   76200    285.94903    31.404398    148503.18   -47742.138    3926.8213   -51668.959   0.14261378 
   76300    283.31282    2.9100767    148494.64    -47676.98    3890.6193   -51567.599   0.14738302 
   76400    284.54732   -19.687277    148523.72   -47678.039    3907.5722   -51585.612   0.15118538 
   76500    282.49322    5.7816405     148502.8   -47662.545    3879.3641    -51541.91   0.15854225 
   76600    288.31615    -25.35559    148516.07   -47707.207     3959.328   -51666.535   0.14320398 
[...]
   81900     292.6746    34.708851    148531.63    -47706.19    4019.1808   -51725.371    0.1428372 
   82000    282.26576   -44.072072    148554.61   -47620.206    3876.2405   -51496.446   0.14892751 
   82100    288.63594    36.854502    148577.97   -47570.723    3963.7196   -51534.442   0.14778143 
   82200    291.73611    21.664646    148562.72   -47582.156    4006.2929   -51588.449   0.14836099 
   82300    291.57852   -17.645622    148554.48   -47664.976    4004.1288   -51669.104   0.14927175 
   82400    292.98223    18.863792    148580.32    -47539.67    4023.4054   -51563.076   0.14791312 
   82500    293.35979  0.073995345    148603.14   -47440.865    4028.5903   -51469.455   0.15348393 
   82600    294.23182    12.071336    148592.61   -47541.178    4040.5656   -51581.744   0.14735586 
   82700     286.4316   -31.493782    148564.79   -47622.825    3933.4483   -51556.273   0.14540515 
   82800    289.98487    14.976313    148548.96   -47632.701    3982.2439   -51614.945   0.14437389 
   82900    293.61581   -6.5199535    148575.08   -47585.339    4032.1061   -51617.445   0.14562068 
   83000    292.53276   -10.806528     148579.5   -47525.704     4017.233   -51542.937   0.14798529 
   83100    294.03245    45.243723    148586.99   -47564.116    4037.8277   -51601.944   0.14581802 
   83200    291.37252   -34.052938    148550.02   -47595.633    4001.2999   -51596.933   0.15130133 
   83300    288.82231  -0.20848217    148563.39   -47585.858    3966.2789   -51552.137   0.14846743 
   83400    285.50001   -18.444069    148546.75   -47668.569    3920.6551   -51589.224   0.14778862 
   83500     281.1577   -5.6205355    148519.62   -47770.715     3861.024   -51631.739   0.13716949 
   83600    281.54933   -9.5968235    148528.16    -47709.35     3866.402   -51575.752   0.14993314 
   83700    287.18074   -18.089035    148549.43   -47741.839    3943.7359   -51685.575    0.1426687 
   83800    293.65184    36.125345    148529.17   -47700.126    4032.6009   -51732.727     0.140874 
   83900    282.56781   -1.0135385    148528.54   -47698.363    3880.3884   -51578.751    0.1519522 
   84000    285.28704   -29.063209    148519.06    -47721.58    3917.7305   -51639.311   0.14383163 
   84100    290.92318   -6.1711027    148542.52   -47649.853    3995.1293   -51644.982   0.14989049 
   84200    293.31785    3.8821187    148557.09   -47603.638    4028.0143   -51631.652   0.14322337 
   84300    288.66458    15.923768     148548.2    -47652.02    3964.1129   -51616.133   0.15045151 
   84400     289.7917    15.981607    148549.56   -47649.035    3979.5911   -51628.626    0.1432404 
   84500    286.74628    7.3906244    148528.68   -47703.425    3937.7697   -51641.194   0.14275199 
   84600    292.33845    24.102503    148568.57   -47615.686    4014.5647   -51630.251   0.14468145 
   84700     290.3662   -3.5572758    148569.14   -47630.998    3987.4805   -51618.479     0.147242 
   84800    289.78216   -18.153813    148571.62   -47628.712    3979.4601   -51608.172   0.15131296 
   84900    291.43283    18.216217    148577.02   -47545.177    4002.1281   -51547.305   0.14354447 
   85000    289.92264    6.6520483    148565.37   -47617.141    3981.3894    -51598.53   0.14697457 
   85100    293.34869   -3.0692576    148552.11   -47639.821    4028.4379   -51668.259   0.14613161 
   85200    289.14297    -13.45579    148543.43   -47681.395    3970.6824   -51652.078   0.14145627 
   85300    287.80843    42.701807    148530.42   -47688.881    3952.3557   -51641.237   0.14607932 
   85400    281.06661   -13.285127    148524.56   -47714.757     3859.773    -51574.53   0.14728928 
   85500    284.63781   -19.348343    148545.83   -47668.475    3908.8149   -51577.289   0.14501944 
   85600    286.36395    18.455924    148506.36   -47692.578    3932.5193   -51625.097   0.14940929 
   85700    287.81352    39.331953    148516.03   -47633.191    3952.4256   -51585.617   0.14319492 
   85800     286.8467   -0.4245037    148541.38   -47629.642    3939.1487    -51568.79   0.14971991 
   85900    290.37276    8.8119539    148583.08   -47599.974    3987.5706   -51587.545   0.14097244 
   86000    287.94334    27.575041    148588.29   -47652.258    3954.2084   -51606.466   0.13907561 
   86100    285.89125   -12.429175    148548.17   -47619.905    3926.0278   -51545.932     0.151048 
   86200    289.79187    13.377668    148585.36   -47587.916    3979.5935    -51567.51   0.14204418 
   86300    289.61907     10.87438    148569.07   -47634.487    3977.2205   -51611.707   0.14697798 
   86400    291.69971     8.020861    148560.07   -47695.833    4005.7931   -51701.626   0.14402975 
   86500    288.60551    32.659909    148558.68   -47727.231    3963.3017   -51690.533   0.14150519 
   86600    288.45673    14.036964       148592   -47565.409    3961.2586   -51526.668   0.14556167 
   86700    289.52769   -18.003389     148631.9   -47574.452    3975.9656   -51550.418   0.14354691 
   86800    282.03318   -45.346162    148579.05   -47690.628    3873.0466   -51563.675   0.14877214 
   86900    287.75666    25.631238    148588.56   -47677.149    3951.6448   -51628.794   0.13805308 
   87000    287.23991   -2.1228657    148584.24   -47651.472    3944.5484   -51596.021   0.14810153 
   87100    291.19106    9.0237079    148582.75   -47623.237     3998.808   -51622.045   0.14225603 
   87200    293.46538    18.708486    148609.67   -47559.692    4030.0403   -51589.733   0.14650926 
   87300    292.43202    12.105165    148591.46   -47567.391    4015.8496   -51583.241   0.14882667 
   87400    290.90596    18.026702    148583.86   -47624.174    3994.8929   -51619.067   0.13851252 
   87500    294.64633    20.791913    148575.71   -47592.194    4046.2579   -51638.452   0.14900968 
   87600     288.6222    5.4181882    148580.36   -47617.511    3963.5308   -51581.042   0.14241711 
   87700    291.35594    8.6432249     148596.5   -47595.857    4001.0722   -51596.929   0.14249439 
   87800    289.31923    5.9314325    148562.95   -47669.043    3973.1029   -51642.146   0.14728416 
   87900    286.97951   -29.708321    148563.63   -47695.796    3940.9725   -51636.768   0.14360943 
   88000    286.30653   -17.729579    148562.03   -47667.925    3931.7307   -51599.656   0.15187225 
   88100    288.93892    -18.76313     148582.6   -47640.189    3967.8803   -51608.069   0.14474884 
   88200    289.91548  -0.54351858    148561.01   -47738.904     3981.291   -51720.195   0.13924035 
   88300    282.91052   -5.0412773    148555.41   -47678.641    3885.0947   -51563.735    0.1482015 
   88400    291.48113     28.85535    148571.83   -47607.137    4002.7914   -51609.928   0.13851584 
   88500     293.1315    24.889224    148537.34   -47681.183    4025.4553   -51706.638   0.14164449 
   88600    286.57467   -6.8912264    148526.71   -47666.755    3935.4129   -51602.168   0.14868756 
   88700    285.28065   -28.308824    148530.62   -47641.724    3917.6427   -51559.367   0.14891664 
   88800    284.16057    10.585389    148515.57   -47701.943    3902.2612   -51604.204   0.14538149 
   88900    293.16731    32.982222    148499.26   -47638.942     4025.947   -51664.889   0.14384796 
   89000    292.83515    16.417605    148510.04    -47603.91    4021.3856   -51625.295   0.14931204 
   89100    286.69287   -3.3647358    148501.05   -47655.681    3937.0362   -51592.717   0.14285267 
   89200    286.55345    4.7189161     148519.6     -47603.1    3935.1216   -51538.221    0.1503493 
   89300     283.0351    1.8073237    148503.36   -47728.218    3886.8055   -51615.023   0.14300615 
   89400    288.61596   -6.5683957    148519.42   -47630.883    3963.4452   -51594.328    0.1487549 
   89500    285.89394   -25.431283    148511.72   -47728.548    3926.0649   -51654.613   0.14751892 
   89600    288.46285  0.017256843    148502.82   -47755.044    3961.3426   -51716.387    0.1381498 
   89700    288.37556    49.004855    148511.43   -47663.176    3960.1439    -51623.32   0.15045981 
   89800    289.36679    36.781417    148555.09   -47599.621    3973.7561   -51573.377    0.1377395 
   89900    290.08536    -2.015328     148561.1   -47581.517    3983.6238   -51565.141   0.14554037 
   90000    286.46118   -35.586948    148562.21   -47608.217    3933.8545   -51542.071    0.1489016 
   90100    293.62328    25.746057    148556.06    -47592.66    4032.2086   -51624.869   0.13995076 
   90200    286.67905    7.7507355    148529.64   -47668.172    3936.8464   -51605.018   0.14911597 
   90300    291.69343    41.052897    148520.93   -47637.933    4005.7068    -51643.64    0.1392986 
   90400    286.29217   0.60790767    148536.39    -47628.69    3931.5336   -51560.223   0.15014703 
   90500     290.1966    20.167269    148538.09   -47637.406    3985.1515   -51622.558    0.1472846 
   90600    287.95343   -33.589953    148555.75   -47664.923    3954.3469    -51619.27   0.14744658 
   90700    286.33316    3.2908429    148542.38   -47694.916    3932.0964   -51627.012   0.14285166 
   90800    284.08012    12.994154       148531   -47711.732    3901.1563   -51612.889   0.14113425 
   90900    284.79668   -22.729679    148549.71   -47688.381    3910.9966   -51599.378   0.14354051 
   91000     287.5448    45.965237    148504.03   -47693.321    3948.7354   -51642.056   0.13871708 
   91100    285.73934   -12.654218    148504.06   -47808.716    3923.9417   -51732.658   0.14308582 
   91200    283.39445    6.6233251    148509.79   -47750.654    3891.7403   -51642.394   0.14253817 
   91300    286.58219    34.491065    148533.02   -47681.302    3935.5163   -51616.818   0.14108986 
   91400    285.50229      8.30593     148547.5   -47653.534    3920.6864    -51574.22   0.14604866 
   91500    287.80772    7.0948098    148566.21   -47492.765     3952.346   -51445.111   0.15007418 
   91600    290.82345   -48.760763    148573.73   -47568.463    3993.7597   -51562.222    0.1494218 
   91700    283.98617   -38.351415    148535.97   -47633.661    3899.8661   -51533.527   0.14844126 
   91800    287.65694   -12.990461    148547.71   -47608.009    3950.2754   -51558.284    0.1387763 
   91900    285.30191    -22.84175    148548.84   -47603.398    3917.9347   -51521.332   0.15371297 
   92000    288.51842    8.1423219    148576.97   -47653.221    3962.1057   -51615.326   0.13834316 
   92100    287.18815   -17.222646     148574.4   -47636.597    3943.8376   -51580.434    0.1449192 
   92200    291.20936    5.6690856    148546.14   -47666.299    3999.0593   -51665.358   0.14386548 
   92300    293.21813    14.661748    148570.79   -47543.365    4026.6449    -51570.01   0.14009519 
   92400     287.6779   -11.353208     148551.2   -47589.362    3950.5632   -51539.925   0.14917517 
   92500    293.40397   -12.575701    148553.32   -47583.303    4029.1969     -51612.5   0.14413928 
   92600    287.56583   -19.708384    148573.99   -47491.206    3949.0242    -51440.23   0.15396187 
   92700    288.22168   -8.0835513     148584.1   -47621.259    3958.0307    -51579.29   0.14772996 
   92800    287.95738   -9.3454565    148543.24   -47627.677    3954.4012   -51582.078   0.14656329 
   92900     286.0573   -2.6105574    148536.47   -47667.044    3928.3081   -51595.352   0.14697899 
   93000    288.08801   -7.4121781    148528.58   -47674.718    3956.1951   -51630.913   0.14473072 
   93100     293.1788   -11.151195     148515.4   -47585.228    4026.1048   -51611.332   0.14562638 
   93200    288.86811    17.836813    148513.72   -47643.523    3966.9078   -51610.431   0.14250299 
   93300    288.36238    28.456182    148498.77   -47693.506    3959.9628   -51653.468   0.14306902 
   93400    287.23798   -7.1488922    148485.26   -47752.143     3944.522   -51696.665   0.14237237 
   93500    285.27075    -19.00498    148482.86   -47753.089    3917.5068   -51670.596    0.1466575 
   93600    283.79892    -55.32778    148477.45   -47703.264    3897.2948   -51600.559   0.15357407 
   93700       287.49    8.7623114    148502.47   -47679.446    3947.9828   -51627.429   0.14439863 
   93800    288.22313     2.883751    148492.28   -47677.928    3958.0506   -51635.978    0.1447838 
   93900    282.70951   -47.764296    148459.08    -47749.06    3882.3343   -51631.394   0.14888474 
   94000    285.10488    7.0671176    148460.42   -47719.577     3915.229   -51634.806   0.14775598 
   94100    290.52308    27.598747    148501.58   -47607.504    3989.6349   -51597.139   0.14774877 
   94200    292.92398   -19.201289    148518.02   -47601.019    4022.6054   -51623.624    0.1465626 
   94300    285.40915    8.6660479    148510.81   -47609.735    3919.4074   -51529.143   0.14849279 
   94400    293.00737    27.458169    148503.41   -47600.405    4023.7507   -51624.156   0.14965759 
   94500    289.92012   -23.095869    148502.51   -47603.906    3981.3547   -51585.261   0.14733882 
   94600    286.55809   -27.580992    148501.93   -47615.023    3935.1853   -51550.208   0.15150658 
   94700    290.62947    20.094393    148511.75    -47650.84     3991.096   -51641.936   0.14590419 
   94800    286.62664   0.65656731    148513.15   -47694.147    3936.1266   -51630.273    0.1425663 
   94900     281.8755   -8.2041755     148489.4   -47715.361    3870.8812   -51586.242   0.14815064 
   95000     284.6278  -0.28736044    148477.04   -47672.158    3908.6774   -51580.835   0.14977156 
   95100    289.51727   -5.5141782    148511.33   -47637.892    3975.8225   -51613.714   0.14580753 
   95200    285.82577    3.0994875    148503.76   -47668.011    3925.1287   -51593.139   0.14355994 
   95300    287.44163   -23.774285    148512.23   -47623.337    3947.3186   -51570.656   0.14460862 
   95400    292.62785    13.946992    148526.18   -47591.636    4018.5388   -51610.174   0.14188812 
   95500    286.61684   -16.648782    148540.76   -47610.113    3935.9921   -51546.105   0.14982319 
   95600    295.82625    19.597969    148522.38   -47598.865    4062.4612   -51661.326   0.14370856 
   95700    287.18834    39.256079     148524.3   -47637.613    3943.8403   -51581.453   0.14518906 
   95800    294.03976    81.911496     148528.8   -47576.432     4037.928    -51614.36   0.14176238 
   95900    287.11096    3.4049626    148529.53   -47596.378    3942.7777   -51539.156   0.14683119 
   96000    289.06529   -4.1438879     148549.6   -47570.351    3969.6157   -51539.967   0.14832017 
   96100    291.69227   -23.864155    148572.41   -47522.433    4005.6909   -51528.124   0.14783543 
   96200    296.99945   -2.3200578       148551   -47543.276    4078.5723   -51621.848    0.1397373 
   96300    288.94778   -5.8928331    148546.08   -47559.209    3968.0019   -51527.211   0.14682702 
   96400    288.28757    31.266131    148520.34   -47603.742    3958.9355   -51562.678   0.14232754 
   96500    293.87983   -23.035564    148513.14   -47604.768    4035.7318   -51640.499   0.14610691 
   96600    287.89301   -14.957116    148515.28     -47657.7    3953.5172   -51611.217   0.14730088 
   96700    288.38437    22.611476    148506.24   -47621.765    3960.2649    -51582.03   0.14307227 
   96800    288.41507   -16.577379    148502.93   -47649.549    3960.6865   -51610.236   0.14556293 
   96900    293.75224    27.322623    148496.71   -47653.506    4033.9797   -51687.485   0.14146181 
   97000    289.47419    3.0879148    148472.75   -47720.492    3975.2309   -51695.723   0.14148774 
   97100    283.31749   -15.038292    148485.07   -47694.243    3890.6834   -51584.926   0.14554159 
   97200    289.65664    33.167594    148496.71   -47635.661    3977.7364   -51613.398   0.14248391 
   97300    289.69778   -4.1962055    148520.43   -47528.936    3978.3013   -51507.237   0.14640454 
   97400     292.2098    20.742748    148515.19    -47621.15    4012.7979   -51633.948   0.14207867 
   97500    290.17932    13.490553    148515.19   -47592.371    3984.9142   -51577.285   0.14602181 
   97600    291.85601    9.6627563    148538.44   -47536.554    4007.9395   -51544.493   0.14717152 
   97700    295.44805    26.210636    148549.38   -47494.874    4057.2674   -51552.141   0.14495892 
   97800    288.09529   -4.6824394    148513.69   -47601.411     3956.295   -51557.706    0.1429854 
   97900    289.55745      32.0767    148507.12   -47556.953    3976.3743   -51533.328   0.14558012 
   98000     289.2999   -27.299057    148496.23   -47648.631    3972.8374   -51621.468   0.14835953 
   98100    287.05857     10.02465     148487.6   -47624.149    3942.0582   -51566.208   0.14688835 
   98200     290.0925     8.804462    148504.88   -47624.073     3983.722   -51607.795   0.14436444 
   98300    290.20777    4.8848033    148531.75    -47566.17    3985.3049   -51551.475   0.14595899 
   98400    285.70808     5.832588    148541.39   -47611.483    3923.5125   -51534.996   0.14501823 
   98500    289.85074    16.824719    148548.93    -47586.15    3980.4019   -51566.551   0.14562147 
   98600    292.45112   -12.995725    148528.97   -47591.952    4016.1119   -51608.064   0.14528842 
   98700    284.98645   -13.862357    148530.88   -47559.817    3913.6026    -51473.42   0.14867672 
   98800    288.68267   -18.927378    148535.12   -47568.337    3964.3613   -51532.699   0.15022843 
   98900    292.77104   -6.6434241    148529.19   -47630.275    4020.5052    -51650.78   0.14125041 
   99000    287.50313   -28.019491    148541.69   -47633.965    3948.1631   -51582.128   0.14764553 
   99100    287.32083   -14.320603     148539.2   -47693.702    3945.6597   -51639.361   0.14142607 
   99200    283.89569    -56.46481    148530.36   -47695.325    3898.6237   -51593.949   0.14316716 
   99300    293.52022    20.582995    148541.64   -47618.825    4030.7934   -51649.619   0.14031565 
   99400    288.52307   0.35736045    148547.37   -47662.365    3962.1695   -51624.535   0.14126955 
   99500    294.02619   -4.4580902    148550.91    -47618.19    4037.7417   -51655.932   0.14056905 
   99600    286.85735   -42.775995    148546.45   -47612.154     3939.295   -51551.449    0.1452467 
   99700    288.28917    7.3627314     148539.6   -47654.839    3958.9575   -51613.796   0.14062814 
   99800    283.22912    22.072547     148545.3   -47665.016      3889.47   -51554.486   0.14061384 
   99900    279.34754    1.2768713    148543.73   -47719.964    3836.1657   -51556.129   0.14151851 
  100000    290.34232    11.360453    148562.31   -47637.308    3987.1526    -51624.46   0.13983472 
Loop time of 52.0912 on 6 procs for 100000 steps with 4608 atoms

Performance: 829.314 ns/day, 0.029 hours/ns, 1919.709 timesteps/s
98.1% CPU use with 6 MPI tasks x no OpenMP threads

MPI task timing breakdown:
Section |  min time  |  avg time  |  max time  |%varavg| %total
---------------------------------------------------------------
Pair    | 38.47      | 38.7       | 38.958     |   2.9 | 74.29
Neigh   | 6.1815     | 6.2528     | 6.3795     |   3.5 | 12.00
Comm    | 4.3115     | 4.513      | 4.7971     |   8.2 |  8.66
Output  | 0.16768    | 0.16855    | 0.17228    |   0.4 |  0.32
Modify  | 1.8056     | 1.867      | 1.9123     |   2.6 |  3.58
Other   |            | 0.59       |            |       |  1.13

Nlocal:        768.000 ave         779 max         746 min
Histogram: 1 0 0 0 0 1 0 1 2 1
Nghost:        1394.83 ave        1415 max        1387 min
Histogram: 3 0 1 1 0 0 0 0 0 1
Neighs:        0.00000 ave           0 max           0 min
Histogram: 6 0 0 0 0 0 0 0 0 0
FullNghs:      21898.3 ave       22287 max       21274 min
Histogram: 1 0 0 0 0 1 1 2 0 1

Total # of neighbors = 131390
Ave neighs/atom = 28.513455
Neighbor list builds = 6196
Dangerous builds = 0

undump              1
unfix               2
unfix               3
unfix               4




################################################
#######         Run Simulation         #########
################################################

reset_timestep      0
log                 log.run_${NAME}
log                 log.run_ice_289K_1atm_ML
