LAMMPS data file via write_data, version 29 Oct 2020, timestep = 0

9216 atoms
1 atom types

0.4943962672355404 104.13018665528409 xlo xhi
-0.2562502390975147 50.467656651347426 ylo yhi
-0.2562502390975147 50.467656651347426 zlo zhi

Masses

1 18.015

Atoms # atomic

5 1 2.010208714926703 2.1964341191953105 2.108514163054518 0 0 0
28 1 3.4628837155476195 9.572137096366205 0.664521223582336 0 0 0
10 1 6.814759991080843 3.897552204576365 3.9530197126301814 0 0 0
722 1 0.5581940336874256 40.97151196270346 21.99657923811949 0 0 0
13 1 8.552693955450527 2.2978444018739625 2.0697032770015005 0 0 0
11 1 10.105980049798404 0.8784379552569657 3.5406853456015623 0 0 0
841 1 0.674056630309749 19.3407971012483 24.958959885132806 0 0 0
21 1 14.45711690187969 2.0176789520880325 1.981170942647311 0 0 0
18 1 13.364714195804781 3.9709551740223428 3.851005953943122 0 0 0
180 1 9.56615981483369 47.427871212324334 0.6282279019804697 0 0 0
27 1 3.6371888165156476 6.708018484843024 4.409851767978985 0 0 0
84 1 10.097238652942123 22.292098009445237 0.46083843116279866 0 0 0
8 1 5.027098821047259 5.499432663310451 2.6266533207293885 0 0 0
16 1 11.911137518542791 5.087857434611319 1.8940015985599377 0 0 0
35 1 9.944132714163057 6.632508048777964 3.5702722363168684 0 0 0
337 1 0.7644308400770019 37.690979996519445 6.6004488254278995 0 0 0
24 1 17.713218578570434 5.103104933892261 1.8311149344304185 0 0 0
43 1 16.44916689581354 6.84024179862929 3.5283423476738554 0 0 0
29 1 2.205698853269853 7.855686232417555 2.4867583896959116 0 0 0
595 1 15.819644683274728 0.4752100391114804 22.609231670613404 0 0 0
482 1 0.7882972062934245 28.485658590639996 16.219537010608803 0 0 0
34 1 6.997254274942214 9.849522600065196 3.3483935310322295 0 0 0
37 1 8.840860655775234 8.433201451593428 1.7123188738341657 0 0 0
45 1 14.734295652735868 8.377378021345184 2.0442481146116833 0 0 0
42 1 13.196709434347213 9.83897805798639 3.3263769401714884 0 0 0
132 1 10.053593177669505 34.86718687362283 0.523043001370638 0 0 0
51 1 3.588075375313987 12.941515265044188 3.3832678838515635 0 0 0
32 1 5.09302424388906 11.334550503665644 1.8211979245057988 0 0 0
59 1 9.886416730376936 12.89380201591035 3.570002186221635 0 0 0
40 1 11.475313542298876 11.39572696417286 1.6293408306635404 0 0 0
945 1 6.058233025418049 44.32166419825165 24.98784931384388 0 0 0
48 1 17.669269055805675 11.670064142503803 1.9484655855036028 0 0 0
67 1 16.128064545639173 13.11405333310202 3.329775242222553 0 0 0
53 1 2.0422287625180653 14.679725809112277 2.2372756820056425 0 0 0
762 1 12.703531416857212 47.24613982830337 22.443596442854723 0 0 0
194 1 0.5897603481869823 3.650361420195154 9.767211134589083 0 0 0
58 1 6.708097358298047 16.243733582189815 3.6869282752339796 0 0 0
61 1 8.14004575727289 14.30926208773058 2.0991161408691346 0 0 0
161 1 12.685099461589687 38.17278548421133 0.6718694513349084 0 0 0
69 1 14.428703882594505 14.588452809386627 1.9682024650548358 0 0 0
66 1 12.895256922789546 15.833684821729134 3.7898505423360707 0 0 0
75 1 3.70246248288813 19.219831156045785 3.844460512139303 0 0 0
766 1 14.198311959698957 49.04851699429784 24.01383292083383 0 0 0
56 1 5.069940336029039 17.728116480297388 1.9753843165952951 0 0 0
433 1 0.5472830483529488 13.017779571789614 13.147451822258901 0 0 0
64 1 11.487324680017858 17.625804409094915 2.339409913361222 0 0 0
83 1 9.52690710427208 19.3392641522688 3.705050706506373 0 0 0
529 1 0.5532687704496849 37.77423116189085 12.628932425612073 0 0 0
72 1 17.762903399520024 17.619709094447796 1.978235547532119 0 0 0
91 1 16.170683502843865 19.111433024925415 3.4823039815219823 0 0 0
77 1 2.3055551459086594 20.71690292508879 2.0019358561553515 0 0 0
578 1 0.5695025223064324 3.382636058544095 22.32550786348635 0 0 0
758 1 7.947428643776492 48.68981154172732 23.64284990181061 0 0 0
82 1 6.8348680731650395 22.222691413513317 3.6498690549775037 0 0 0
85 1 8.402823346228224 21.021311085938184 1.9690930696644573 0 0 0
88 1 11.796633504966291 24.008776243998714 1.9625659654181027 0 0 0
93 1 14.690020038043022 20.65563566838734 1.8276792801419577 0 0 0
90 1 13.421336333704055 22.253593911780495 3.6557977517962104 0 0 0
96 1 17.73050578110839 24.096280591286313 1.7892902341110302 0 0 0
101 1 1.9350065995094257 26.99938861347789 2.2443575014720905 0 0 0
80 1 5.239448205220845 23.774591096827994 1.981294959970787 0 0 0
109 1 8.280275895433846 26.74063336346372 1.9207492402409025 0 0 0
107 1 9.870666871062697 25.35368119507556 3.5103291319196264 0 0 0
117 1 14.197142142114442 27.052025177646325 1.9441908088535864 0 0 0
458 1 0.5672292524533387 22.738243451930423 15.989435618007361 0 0 0
115 1 15.900270954867244 25.603810044632304 3.3660314916877465 0 0 0
122 1 0.6512424265003498 34.816504884641475 3.4311951031032573 0 0 0
104 1 4.924402066692062 30.059343878921105 1.8980477722548423 0 0 0
106 1 6.749235703699072 28.223112667364497 3.4839337174314866 0 0 0
112 1 11.798151689714565 30.11835748674069 1.6802886390103828 0 0 0
74 1 0.7734345123890982 22.31754616135673 3.1629785020862604 0 0 0
114 1 13.151346711173131 28.912243706429134 3.5362755214228145 0 0 0
120 1 17.925515807860325 30.554194302617034 2.159449932532105 0 0 0
587 1 9.658561932350466 0.5922425126673202 22.25987267091394 0 0 0
33 1 6.943381548202296 6.926540600732773 0.6980167435141051 0 0 0
123 1 3.3665954267076716 31.764493183221788 3.515565481540128 0 0 0
125 1 2.0975771369759997 33.40053553233035 1.8491829066470056 0 0 0
108 1 9.646849396210158 28.947366199927245 0.8428579565346157 0 0 0
133 1 8.396126914743398 33.34286491638906 2.117873729916975 0 0 0
131 1 10.022346752275283 31.570309461146667 3.224822821450647 0 0 0
141 1 14.516134485701071 33.273511671832395 2.031552113083004 0 0 0
139 1 16.22086236436254 32.05624705200617 3.5181474616486237 0 0 0
505 1 0.894600402412865 31.479782528801326 13.117411578638519 0 0 0
128 1 5.590322692611916 36.005432672047675 2.3201787834151006 0 0 0
130 1 7.078023644798485 34.220711398743404 4.121392696106531 0 0 0
136 1 11.598497788359271 36.310926037142664 1.9902559648111793 0 0 0
138 1 12.823026624167317 34.65963532174952 3.618760022953007 0 0 0
144 1 17.67196230428488 36.2835384760304 1.7012359249287088 0 0 0
149 1 2.4481488269845206 39.65315194453322 1.9492190210199154 0 0 0
147 1 4.0498290851841645 38.12743739036773 3.464545517331951 0 0 0
177 1 6.66771560598311 44.13581082221049 0.49756894880754826 0 0 0
157 1 8.274348701665764 39.47806626881639 2.15214644238383 0 0 0
155 1 10.222782824643376 37.95620204051646 3.3506285215907967 0 0 0
165 1 14.602885660828255 39.598322806813115 2.1702960021004714 0 0 0
163 1 16.134350589146322 37.88858114919917 3.746075553540771 0 0 0
49 1 0.5237098290892106 12.869465395591114 0.7670165117854046 0 0 0
1537 1 19.08685902207253 50.374678454201145 0.6357194971634555 0 -1 0
152 1 5.207767421954291 42.664233087863636 1.8037534223274527 0 0 0
154 1 6.946483893075686 41.02564800998232 3.5601739924108755 0 0 0
160 1 11.174129625083259 42.67676782456168 2.1486383107327205 0 0 0
162 1 13.126906907037887 41.29386408192269 3.496744013649939 0 0 0
168 1 17.542977811491074 42.7153619408041 2.1213457348054807 0 0 0
860 1 16.27869373761336 22.336873669490878 25.020382316971112 0 0 0
173 1 2.063001609853723 45.87464496145812 2.181910201804417 0 0 0
73 1 0.7348633284545599 19.44686954262388 0.5524455248362317 0 0 0
746 1 0.7305708945364942 47.219252465722846 21.843199701879126 0 0 0
181 1 7.840671265080052 45.555013793950025 2.2538917297534224 0 0 0
179 1 9.810483977281734 44.39341887705183 3.933490033384041 0 0 0
189 1 14.508658479621362 45.9136840511742 1.8816487240473203 0 0 0
186 1 12.965208799097374 47.799773208905705 3.4849700365276486 0 0 0
187 1 16.14776472726041 44.42382707224829 3.574151707141165 0 0 0
3 1 3.481123414950925 50.4417789409121 3.7145295646963516 0 -1 0
769 1 0.598074665809142 50.136074774727945 24.944704133342654 0 -1 0
530 1 0.5451963103214936 40.468799248684164 15.663473550644603 0 0 0
178 1 6.530743239082173 47.61166603072458 3.328885489964525 0 0 0
176 1 5.156599632771671 49.5516292942104 2.003539664841223 0 0 0
184 1 11.34065443353854 49.16328552637471 2.01086082469278 0 0 0
26 1 0.6214061054375891 9.664064151712727 4.116405334281796 0 0 0
242 1 0.6815633295997784 16.405701243288732 9.65355149508279 0 0 0
19 1 16.28438259949061 0.50769204765168 3.55081092739111 0 0 0
192 1 17.73035190435531 48.888940117449536 1.9978320188847416 0 0 0
4 1 3.686320125059996 3.926538546399997 0.5207986070804136 0 0 0
196 1 3.6418975944996275 3.6498987183150704 7.06458342120898 0 0 0
7 1 5.259819383514352 1.8689240775785179 5.637967700396268 0 0 0
204 1 9.995328545953019 3.906868227889697 6.82859817014548 0 0 0
15 1 11.514414810612749 2.5071498692201626 5.17606730273155 0 0 0
209 1 13.036116052344594 0.688505052240155 6.7151074885695285 0 0 0
23 1 17.644489187188967 1.997886489032987 5.227105495202014 0 0 0
212 1 15.811151284303458 3.345415548274924 7.0125516359652575 0 0 0
153 1 6.824256587924458 37.92406392159231 0.6497819433365026 0 0 0
6 1 1.9695112926635405 5.09157824848672 5.5902163299975856 0 0 0
225 1 7.0814452637530065 6.932280454891018 7.097066312102518 0 0 0
14 1 8.241520725605742 5.362812246171223 5.459233418352078 0 0 0
22 1 15.14294848678031 5.3998766354178604 5.448883450866613 0 0 0
233 1 13.375533983901978 6.86143825555346 6.83783911976178 0 0 0
220 1 3.8135949011579378 10.223461961947754 6.713353933689797 0 0 0
31 1 5.464171406028911 8.524008570621287 5.391137829019739 0 0 0
228 1 10.529570305569415 10.030463458909315 6.625771344651469 0 0 0
39 1 11.858112432489149 8.273703586771536 5.050398023292998 0 0 0
47 1 18.14000254527023 8.667768307919232 4.975021873048882 0 0 0
236 1 16.45062463906028 10.287237128112166 6.387499244624462 0 0 0
30 1 2.2871817745936127 11.520591617970661 5.234708654296408 0 0 0
754 1 6.564809104906785 47.45541379840235 21.853297092045505 0 0 0
249 1 6.728399864020713 13.00232543173601 6.767300203646491 0 0 0
38 1 8.53064584708319 11.334846661111358 5.445460935977153 0 0 0
46 1 14.604930348896175 11.633663284340424 5.01903860600651 0 0 0
257 1 13.275962841418224 13.343247609377016 6.681562217935926 0 0 0
750 1 2.051355018332262 49.38930681340385 23.37576128263934 0 0 0
244 1 3.3584832360715495 16.240175343009923 6.729396284884657 0 0 0
55 1 5.09617488556262 14.549094118120195 5.136724474025519 0 0 0
252 1 9.633389123084509 16.373276531857755 6.994569986323838 0 0 0
63 1 11.33777237324527 14.404916929045383 5.3879982834321964 0 0 0
260 1 16.541749896537045 16.122470285052707 6.507965828630531 0 0 0
71 1 18.06005671074452 14.50812841550386 5.045080831762138 0 0 0
54 1 1.9033470450087282 17.925455693052257 5.277030736303507 0 0 0
273 1 6.607652932224026 19.677871282186715 7.14216961735308 0 0 0
62 1 8.038311801461553 17.843310570952667 5.31670759859529 0 0 0
70 1 14.597243572093927 17.398772226551806 5.08360779920945 0 0 0
281 1 12.966891527971795 19.125586083298177 6.605209652276218 0 0 0
410 1 0.8981266984200695 9.841353011650487 16.2088168856192 0 0 0
268 1 3.2059401760726045 22.4736682595958 6.7099993369257644 0 0 0
79 1 5.015066893452067 20.99944550462482 5.376795402603178 0 0 0
87 1 11.674413557051864 20.922029411094957 5.212800620134843 0 0 0
276 1 9.996887468083562 22.666191421055608 6.598652389607038 0 0 0
95 1 17.520456471065803 20.6588794379166 4.964545435628544 0 0 0
284 1 15.994257330997158 22.151000193296188 6.9849123128152355 0 0 0
99 1 3.547604529039408 25.49857816001247 3.7044304493544873 0 0 0
78 1 1.8387445098978277 23.87117886670744 4.89529029509559 0 0 0
297 1 6.892603475338207 25.837547217909602 7.089971642547996 0 0 0
103 1 5.583729751247483 26.874150015981233 5.208402380840551 0 0 0
86 1 8.177346382889002 24.07580703827655 5.161501318375158 0 0 0
111 1 11.45488419547355 27.2782636870753 4.9560185784492194 0 0 0
94 1 14.657899609962284 23.885981155150237 5.097565337586949 0 0 0
305 1 13.220133494567937 25.346296570330928 6.590477162228754 0 0 0
119 1 17.91426851818445 26.92063106078674 4.855933733910752 0 0 0
292 1 3.745512187936245 28.439333080366566 6.586707359843496 0 0 0
102 1 2.304842785652994 30.029544914275373 5.207195570067428 0 0 0
110 1 8.356948901148261 30.067218992768503 4.875295182031183 0 0 0
300 1 9.811845651757128 28.54097193989166 6.626262934582141 0 0 0
118 1 14.80530999180471 30.30432943300129 5.15575788557246 0 0 0
308 1 15.748515843940767 28.090878103903247 6.742581620202254 0 0 0
579 1 4.078814352665434 1.0820569995473028 21.729050640828397 0 0 0
321 1 6.497920377265911 31.53014250771961 6.741402022699812 0 0 0
127 1 4.972817415478061 33.13566108950566 5.405029331535273 0 0 0
135 1 11.502921117144183 33.03415676919556 4.990160187471708 0 0 0
329 1 12.935501654650714 31.498961634096382 6.6032300803516275 0 0 0
143 1 17.860503382128393 33.56696073202423 5.1061615622729475 0 0 0
126 1 2.4990096022026123 36.03410482551688 5.005779031644426 0 0 0
316 1 3.632537482341379 34.84919420297412 6.867799479309337 0 0 0
134 1 8.61729945833663 36.43535447574422 4.969945538611082 0 0 0
324 1 10.236398134472484 34.90473678070262 6.871330163861243 0 0 0
142 1 14.359812271146504 36.35398964210823 5.36337923034526 0 0 0
332 1 16.167203062089335 35.073403593882205 6.68027860821068 0 0 0
145 1 0.8088709324029466 37.96617468164695 0.5551016516782721 0 0 0
151 1 5.303045485625185 39.54495380920925 5.1616282267098095 0 0 0
345 1 7.0467218124184425 37.72502430848647 6.479517417330824 0 0 0
159 1 11.866530802803094 39.451635677127655 5.181581087072291 0 0 0
353 1 12.959256972510643 37.74057676866428 6.7720845357522625 0 0 0
167 1 17.765002974205764 39.475271537275916 5.693867474330208 0 0 0
340 1 3.925449281821442 41.820006699853394 6.539671303400212 0 0 0
150 1 1.9287581745699205 42.48130915808396 5.027626160922958 0 0 0
158 1 8.537101536754184 42.50970445950274 5.134010592615957 0 0 0
348 1 10.004765375252912 40.93049670421168 6.715508724713081 0 0 0
166 1 14.938516786116711 42.53842479809208 5.004485344675209 0 0 0
356 1 16.431185306887777 41.32777429742039 6.953758079681249 0 0 0
171 1 3.6140391621151644 44.13437700380855 3.4624866790012603 0 0 0
218 1 0.7255227352735455 9.784218471696581 10.341705527795778 0 0 0
369 1 6.864722827411693 44.259708964240076 6.469039861967063 0 0 0
175 1 5.329942078306675 45.832039622387796 4.984000190550998 0 0 0
183 1 11.595260408312216 45.92600107197113 5.157892867627604 0 0 0
377 1 13.225244654708531 44.372203060948976 6.609170146250777 0 0 0
191 1 17.83444572326225 46.057157901924214 5.308948939409263 0 0 0
364 1 3.521329381992819 47.41258833251548 6.641845935749755 0 0 0
174 1 1.783253949223944 48.924946246739296 4.830523305027192 0 0 0
201 1 7.003539997797034 50.4226854801739 6.903166241105669 0 -1 0
182 1 7.986987274366586 48.99587416819942 4.962323236834545 0 0 0
372 1 9.95952758828827 47.60194427882311 6.433615566099741 0 0 0
190 1 14.682997699730613 49.11138057596855 5.1582266411419 0 0 0
380 1 16.359220729739114 47.703994825721296 6.802792450346568 0 0 0
197 1 2.1401237983045043 2.2834362624353393 8.302585888478767 0 0 0
924 1 9.741571319214149 41.133154134957024 25.10272697185705 0 0 0
202 1 6.6819577928807465 3.775287499711642 10.228168790273621 0 0 0
205 1 8.557620751802684 2.224762129407176 8.267758804949086 0 0 0
203 1 10.13020808905209 50.17568300667732 9.967885308124174 0 -1 0
213 1 14.553929401266334 1.9910919671173684 8.758716760947095 0 0 0
210 1 12.737042598919997 3.5828921394904127 9.905772775295098 0 0 0
219 1 3.6640594510204707 6.7096194343601585 10.737509557122767 0 0 0
200 1 5.071908463585391 5.3145500487799415 8.829256872994305 0 0 0
227 1 9.819461587204813 6.694451426922977 10.106734505712367 0 0 0
208 1 11.563801028112335 5.343814054258674 8.384073143284704 0 0 0
216 1 17.692211936665817 4.896703718596707 7.968851445584462 0 0 0
235 1 16.153444224306856 6.6352660419230665 9.792992718502415 0 0 0
767 1 18.031627659027304 45.65510010966139 24.246515122300867 0 0 0
221 1 2.653907422490892 8.451245900373934 8.610790287870334 0 0 0
226 1 6.886435349112486 9.997726823660278 9.994209603821625 0 0 0
229 1 8.490363436135752 8.762400427706114 8.406733729542392 0 0 0
237 1 15.072245346048026 8.616097786026877 8.029757398186195 0 0 0
234 1 13.017477838947064 9.682151545006816 9.599045241080116 0 0 0
239 1 17.72764439878863 8.21728093911456 10.9036329964425 0 0 0
243 1 3.695127621863428 13.018088395879095 10.162490389326264 0 0 0
224 1 5.437451513308428 11.605851436899265 8.44447567325851 0 0 0
251 1 9.952941723978793 13.12424374074292 9.897752174289543 0 0 0
232 1 11.736611328988019 11.701459471591326 8.150464062578168 0 0 0
259 1 16.297788475544554 13.047218588689582 9.816809744437698 0 0 0
240 1 18.06962749926306 11.750798804914487 8.074490193011517 0 0 0
245 1 2.094276941652014 14.377912723485181 8.342055313609414 0 0 0
60 1 9.939228307962239 16.161669723160117 0.6742582067805832 0 0 0
250 1 6.491299131390012 16.52232900379166 9.798746717132744 0 0 0
253 1 8.350318875456226 14.687668616772157 8.49653554070949 0 0 0
261 1 14.891078911459898 14.791451272765856 8.366614988829555 0 0 0
258 1 12.922539853648557 15.782263197004246 10.064232755797946 0 0 0
267 1 3.7404927563652617 19.44591225097045 9.740221450863155 0 0 0
248 1 4.8990970721919656 17.83963186901206 8.270016130995108 0 0 0
275 1 10.28280138709476 19.465400036604468 10.23587503872139 0 0 0
256 1 11.46848844417503 17.709868514087255 8.435044375556274 0 0 0
254 1 8.468977493181082 17.901238287497854 11.5748138393651 0 0 0
264 1 17.95980134031437 17.92814491598346 7.938773782823852 0 0 0
283 1 16.33418319131514 19.129893306830322 9.763500473725207 0 0 0
269 1 1.9648215065239054 21.010630497270416 8.247845669687361 0 0 0
270 1 1.9267897111782 23.780673533498486 11.352742957829761 0 0 0
274 1 6.596621139062435 22.50113624374949 9.89339091589139 0 0 0
271 1 5.375145222259584 20.593764760845914 11.346093731054005 0 0 0
277 1 8.35833912217123 21.077629942148775 8.401809079267473 0 0 0
278 1 8.346880811674874 24.028255793788865 11.301265154045092 0 0 0
285 1 14.196881420360787 20.560855626817276 8.538014869288105 0 0 0
282 1 13.829986996212503 22.997233232300363 9.48740211994391 0 0 0
288 1 17.630617820643362 24.085993243012908 8.121848248280667 0 0 0
291 1 3.4288713705769864 25.2899717128879 9.757669858013912 0 0 0
293 1 1.7511210719323762 26.812780566139995 8.11139300198457 0 0 0
272 1 5.067190739394889 23.848855307211654 8.295150933840729 0 0 0
280 1 11.618107314552118 23.891081340398344 8.428335558999743 0 0 0
299 1 10.133049758555213 25.628916199354183 10.213017382005942 0 0 0
309 1 14.577996705276544 26.531948747842495 8.768532648842484 0 0 0
307 1 16.51774676695689 25.431101218655048 10.356030725557664 0 0 0
294 1 1.7997642767107245 30.070956223086217 11.137380816327722 0 0 0
298 1 6.590441256448794 28.753831431027166 10.173335056870622 0 0 0
296 1 5.150209367801065 29.98945518823265 8.169439988391062 0 0 0
295 1 5.054380451940977 26.729652976816837 11.656685420586289 0 0 0
301 1 8.571094146819307 27.09329987361624 8.793699653481955 0 0 0
304 1 11.294840054865213 30.21340438590284 8.293708920316554 0 0 0
306 1 12.834683081475863 28.33818513814539 9.832892648019014 0 0 0
312 1 17.407847763670173 30.107291799951657 8.022529380009274 0 0 0
315 1 3.663621499974358 31.54393808062304 9.9386434528026 0 0 0
317 1 2.4310911607366554 32.97399334080659 8.296404620903592 0 0 0
323 1 9.763063507904373 31.828879319194495 9.715701499792335 0 0 0
325 1 8.422073272020674 33.31626834703262 8.10407224679279 0 0 0
333 1 14.41150118583811 33.472211918573294 7.86157275107126 0 0 0
331 1 15.85148162116812 31.87446746811647 9.614424040110803 0 0 0
335 1 17.870261898689392 33.194450098215825 11.171211991084913 0 0 0
81 1 7.330750543020003 19.076730846497803 0.9142505192844856 0 0 0
322 1 6.857653740431007 34.64566558465003 9.671341274368498 0 0 0
320 1 5.389770994940315 36.45715561697507 8.089613840958698 0 0 0
328 1 11.7112570741862 36.32548280334166 8.448302871969883 0 0 0
326 1 8.289947849049334 36.04434543942352 11.468689835508167 0 0 0
330 1 13.234149866726746 34.310008077649854 9.852961003167636 0 0 0
336 1 17.475437841929434 36.169044949069246 8.3363782529869 0 0 0
341 1 2.4749451182228905 39.66072684806346 7.943377579775897 0 0 0
339 1 3.6056101669088725 37.645825758461115 9.301391168391087 0 0 0
346 1 6.732596782721883 41.14508705440578 9.33765302164392 0 0 0
349 1 8.576324267030929 39.53161297739716 8.452078680504606 0 0 0
347 1 10.051591264351119 37.709934249023604 10.02971126353572 0 0 0
357 1 14.58973315757033 39.34600150310747 8.348906084970547 0 0 0
355 1 16.124175973189445 37.878536805566256 9.958538586530304 0 0 0
338 1 1.0631609128198272 41.3293832090212 9.789311610979693 0 0 0
344 1 5.435908430888473 43.00636441446028 8.139428444241574 0 0 0
352 1 11.40725499386689 42.8672254118716 8.036877413473288 0 0 0
354 1 12.969315301537595 40.97215223852044 9.659546386160928 0 0 0
763 1 16.05239083737508 44.29680974828409 23.132006501221248 0 0 0
360 1 17.8322675601093 43.12774028863744 8.509317712884803 0 0 0
365 1 1.385346360863682 45.60469486034884 7.99420283009865 0 0 0
363 1 3.2566468722680897 44.54430399054688 9.371102732242754 0 0 0
373 1 8.56862846583043 45.9097455013945 8.001364006958287 0 0 0
371 1 9.81778396678438 44.14220066140339 9.45464722884645 0 0 0
381 1 14.765455485637847 45.967265173905446 8.312533232181142 0 0 0
379 1 15.739127155022715 44.50514990853151 9.61906017604003 0 0 0
383 1 17.462757312188725 45.83721777052169 11.127331806385206 0 0 0
755 1 9.551531109912505 44.13915205802988 22.272386325722536 0 0 0
195 1 3.2626598203862325 0.45264273745935596 9.780059070643249 0 0 0
370 1 6.926354246097411 47.51826290693025 9.53877838763263 0 0 0
368 1 5.12761901098687 48.896571092701905 8.110749074119193 0 0 0
376 1 11.648665213189252 48.664257810441015 8.212317588455189 0 0 0
378 1 13.034805745897929 47.33664549690451 9.898727464142011 0 0 0
211 1 16.197978504233014 50.37086242513631 10.140366694095555 0 -1 0
384 1 17.808241374488937 49.06917762868562 8.366176310892435 0 0 0
759 1 11.100506102047435 45.6037681033785 23.886652305235007 0 0 0
388 1 3.546484710323075 3.2548633002722394 12.775822817469017 0 0 0
751 1 4.827632869710876 46.19268326159188 23.42080193342366 0 0 0
199 1 5.0504929838788915 1.849131650232806 11.403439718144758 0 0 0
393 1 6.473003557487 50.30810642978646 12.822016064366627 0 -1 0
397 1 8.4180309691738 1.75385579508157 14.530207898152812 0 0 0
207 1 11.473880383824277 2.1466909804251237 11.605357671910538 0 0 0
396 1 9.817973268859364 3.9073460960481836 13.071298958190027 0 0 0
405 1 14.7455757266585 2.3423886801604725 14.172064787875096 0 0 0
215 1 17.761021340112652 1.8768521935092681 11.43770971225606 0 0 0
198 1 1.864984792180523 4.981655783196025 11.67150877293598 0 0 0
747 1 3.5869164568611533 44.14740664225785 22.055778131559077 0 0 0
417 1 6.604676188671226 6.941475326028927 12.982591313502144 0 0 0
392 1 5.274886236103693 5.007037842648256 14.196675210907328 0 0 0
206 1 8.186920064327051 5.4843547456318955 11.453867978110678 0 0 0
400 1 11.692370328372402 5.195481757395084 14.334820515529715 0 0 0
214 1 14.535693809765167 5.029305477821831 11.1752359141583 0 0 0
425 1 13.299249987796522 6.785950839657028 12.854412986913326 0 0 0
404 1 16.294797819325325 3.607985231333335 12.672903723846717 0 0 0
412 1 3.7684823654120256 10.136077903912973 13.422236379137287 0 0 0
413 1 2.2602506248582355 8.187440243549844 14.63530458804307 0 0 0
223 1 5.222121723015974 8.837247877788155 11.669022643803254 0 0 0
420 1 9.923005051018876 10.120599628502518 12.992312678316804 0 0 0
231 1 11.453566463130834 8.29207842887309 11.687641489604971 0 0 0
429 1 14.532271346217245 8.559809630369802 14.454483230999891 0 0 0
428 1 16.380853648972526 9.90542413094391 12.808119014789042 0 0 0
222 1 2.067078112929625 11.57624301396813 11.706813291570809 0 0 0
441 1 6.546591161611807 13.25330919024557 13.013650159068055 0 0 0
230 1 8.177646463428719 11.892420632626841 11.69865252228779 0 0 0
424 1 11.365852834440782 11.447109036138162 14.442531836679285 0 0 0
238 1 14.52229606248417 11.08030494407777 11.066869365620775 0 0 0
449 1 13.348712957592944 12.753004181061474 12.835604555450557 0 0 0
432 1 17.90382260024964 11.363987440184498 14.33152386402345 0 0 0
50 1 0.6272165968819474 16.198077700857155 3.7960259932525457 0 0 0
436 1 3.461017985838308 16.42035134425857 12.738301529719347 0 0 0
437 1 1.8646376695088398 14.905783129902918 14.513509942202113 0 0 0
247 1 5.222416563663777 14.81074148414007 11.571473032053781 0 0 0
444 1 9.769342191007512 16.02317981035184 12.964643247789848 0 0 0
445 1 8.344158180520314 14.476193676196107 14.568841535845147 0 0 0
255 1 11.458139005667642 14.360421578504026 11.68937078574797 0 0 0
453 1 14.519034510958294 14.462259871548648 14.625307345062627 0 0 0
263 1 17.780378128839363 14.871909369831295 11.476045791718734 0 0 0
452 1 15.837379811792726 16.00696776879375 12.853439392725878 0 0 0
246 1 1.9996375696732416 17.897972268746177 11.21807423563108 0 0 0
465 1 6.949617178864522 19.37117745348436 13.204422359182452 0 0 0
440 1 5.124509205314855 17.696091950754727 14.529458691920604 0 0 0
448 1 11.382045481567888 17.772046476539817 14.694807045190254 0 0 0
262 1 14.421863294042035 17.714578568161222 11.223641587387373 0 0 0
473 1 12.620537372900161 19.390508470372357 12.887935084876448 0 0 0
279 1 11.965285706713443 21.498174991532466 11.247074527936055 0 0 0
41 1 13.410108019090835 6.628416475860808 0.5985149149836175 0 0 0
460 1 3.6971007658601773 22.30198392974805 12.651262837515608 0 0 0
461 1 1.9623586469446181 21.01399520461737 14.329811698597249 0 0 0
469 1 8.61946701282894 21.108784464108204 14.379505042985478 0 0 0
468 1 9.972370657229211 22.77454128102144 12.954897943728257 0 0 0
477 1 14.381729686669315 20.21280349131729 14.699171826117345 0 0 0
287 1 17.63440730087137 20.662799566044804 11.561744911127825 0 0 0
476 1 15.5940434303773 21.972535003925568 13.281291818024663 0 0 0
489 1 6.956700594544973 25.478680260632732 13.190947893598917 0 0 0
464 1 5.257047689352165 23.72196412277793 14.15555032737018 0 0 0
472 1 11.73483435780211 23.972136618896602 14.779813034171926 0 0 0
493 1 8.502038537476084 27.16309910949806 14.840594838675148 0 0 0
286 1 14.732046735093151 23.994224098569877 11.737293026802314 0 0 0
303 1 11.552754206862256 27.2270551380333 11.910400529916979 0 0 0
497 1 13.451971533349889 25.48079030294672 13.644356998362888 0 0 0
480 1 17.64094527124019 23.575877951518272 14.60272091479261 0 0 0
485 1 2.0367633336464133 26.707924347832176 14.582092388201708 0 0 0
484 1 3.3985736298316582 28.716498197954955 12.926847513957426 0 0 0
488 1 5.1524965752594225 30.426992937940245 14.253388642036148 0 0 0
302 1 8.424514258200674 30.16766678463158 11.454266940354279 0 0 0
492 1 9.869798746664951 28.87129219893527 13.009883818129074 0 0 0
496 1 11.192121545325406 30.23639577682775 14.663096386520769 0 0 0
311 1 17.75966602575087 27.275207193079662 11.509294817299981 0 0 0
500 1 15.962562586333025 28.724816945426188 12.94227006145662 0 0 0
504 1 17.777228249480572 30.09495029208645 14.514070212245185 0 0 0
319 1 5.06743228589432 33.16001626024108 11.362231519841748 0 0 0
513 1 6.811506553824585 31.94758171815744 12.615268284682237 0 0 0
517 1 8.250373947563595 33.546916645283915 14.442305788661676 0 0 0
327 1 11.154274722150733 33.39710969121816 11.627907526040135 0 0 0
310 1 14.207502554011993 30.356356323630976 11.336289082610367 0 0 0
521 1 12.65748606319174 31.776883456203787 13.088769945635349 0 0 0
525 1 14.722058719348247 32.967222356834995 14.508722161203428 0 0 0
626 1 0.6660298911763983 15.939891542806203 22.266480155877986 0 0 0
318 1 2.125590664962317 36.29813116906786 10.962390319563278 0 0 0
508 1 3.525166281912379 34.77764630157772 12.892718718908531 0 0 0
512 1 5.2752515091637155 36.36438649871418 14.488789379175422 0 0 0
516 1 10.018198337176612 34.92382103673094 13.240362847526297 0 0 0
520 1 11.464082635011687 36.486228781951326 14.60190647499737 0 0 0
334 1 14.555943209709953 35.862221450334445 11.264334106708196 0 0 0
524 1 16.31542491517041 34.55980502765196 12.919337418688295 0 0 0
528 1 17.56445500486127 36.39101907693113 14.61868695376275 0 0 0
129 1 6.7708317735674255 31.681193159021195 0.5599497983649602 0 0 0
343 1 5.04837883027393 39.44232282362508 10.74630292943541 0 0 0
537 1 6.44917768163731 37.955763471123745 12.749650323880326 0 0 0
541 1 8.29611928529349 39.48268445974523 14.165353676641976 0 0 0
351 1 11.738775364639007 39.36069192679051 11.122404272321441 0 0 0
545 1 13.270619689919869 37.42297694360575 12.746959451262226 0 0 0
549 1 14.461130070839793 39.49680343004211 14.533123817024457 0 0 0
359 1 17.606528762489994 39.81893349122703 11.592976660115495 0 0 0
742 1 14.529992016295052 42.43664505538533 24.181793355856605 0 0 0
342 1 2.3021740131252613 42.92509165247793 11.251267868142524 0 0 0
532 1 3.9672626640728326 40.61606221066819 12.637123108333615 0 0 0
350 1 8.302013940256913 42.73635569347557 11.340183186599699 0 0 0
540 1 9.628627725863275 40.981299784376944 12.542088989840577 0 0 0
358 1 14.358472820355942 42.48585589841957 11.516122053371115 0 0 0
548 1 15.813696139924478 41.20666252724705 13.204724738790686 0 0 0
552 1 17.560700067099127 42.4536926031399 14.766389630628835 0 0 0
557 1 2.192918547879426 45.927867560388535 14.36866569590869 0 0 0
367 1 5.26697369889432 45.75318990167372 10.797282192742207 0 0 0
561 1 6.655402653251633 44.367940542113985 12.717628836820415 0 0 0
375 1 11.166739344196962 45.714125773645236 11.094021637794071 0 0 0
565 1 8.084628306307783 45.61861776745843 14.805705380423875 0 0 0
564 1 9.77788487072025 47.22168272455167 13.278745138380826 0 0 0
569 1 12.594021999187296 44.15145398669324 12.521530200158752 0 0 0
573 1 14.59970534255166 45.43117560899633 14.516908376720256 0 0 0
2114 1 19.050526116617466 3.7232291466624154 22.376409313892545 0 0 0
366 1 1.9816312617375145 48.54602713598847 11.159220507731353 0 0 0
556 1 3.8382194971774033 47.10153239430683 12.803664262961458 0 0 0
560 1 5.156608878449256 48.889684727983436 14.395164989182348 0 0 0