LAMMPS data file via write_data, version 29 Oct 2020, timestep = 100000

8528 atoms
1 atom types

0.4801511456021288 104.144431776918 xlo xhi
-0.2632224271868715 50.47462883943728 ylo yhi
-0.2632224271868715 50.47462883943728 zlo zhi

Masses

1 18.015

Atoms # atomic

228 1 4.9353219901186565 0.6332542816184327 0.8456856084037165 0 0 0
229 1 9.684180251113638 2.013535004829555 2.1235144291466064 0 0 0
230 1 11.42899922380052 0.6625263319883254 0.40037949440371157 0 0 0
232 1 16.019904146765814 1.954333349330795 1.8096863920057311 0 0 0
231 1 17.559094877720497 0.21529308239694078 -0.014956350805292756 0 0 0
958 1 24.052834432994512 0.8759278110815096 0.23834048377981165 0 0 0
957 1 22.5285817987465 2.3716156349945936 1.738829859198911 0 0 0
960 1 28.22121756691299 1.9939764108520732 1.8594681550488383 0 0 0
959 1 30.16583444160379 0.6150146784937812 0.10259984889698753 0 0 0
3076 1 34.91440507540201 2.24646802099528 1.8574687113106276 0 0 0
234 1 2.5166562227009637 3.7708124340402716 0.6271589652040719 0 0 0
207 1 0.5877414083080021 5.104151449356115 2.3585500464975135 0 0 0
235 1 6.750347702471866 5.317718496340614 2.010958593330572 0 0 0
236 1 8.354716721157539 4.0820525000477 0.4230463102209021 0 0 0
238 1 12.88307566111392 5.002056463715214 1.6156855969906205 0 0 0
237 1 14.938408038960507 3.9357096386932326 0.04596634529363525 0 0 0
1385 1 19.30894616830517 5.250405051887442 1.8999263334998844 0 0 0
961 1 20.253846936958855 3.4848481358340946 0.050535653956603976 0 0 0
963 1 27.022780876004052 3.9454023624551864 0.2997896543077949 0 0 0
962 1 25.494503628476842 5.370939518358748 1.8126108823145457 0 0 0
965 1 31.473895186414822 5.182640585311895 1.9263360342681324 0 0 0
964 1 33.22377346887096 3.600350183425765 0.3386415965699556 0 0 0
240 1 3.5581626611871062 8.338910388235856 2.1792856404643874 0 0 0
241 1 5.30096553032252 6.926285194898088 0.46079862947597927 0 0 0
242 1 9.817697082561844 8.445094915986397 1.9144746469394485 0 0 0
243 1 11.60185703150285 7.02191951294424 0.16670619283641447 0 0 0
244 1 16.164288079302786 8.368048589150723 1.8335099654167122 0 0 0
245 1 17.93661419464094 7.071272410013911 0.09071143749240762 0 0 0
966 1 22.420193154600504 8.088420858353413 1.7740001539227195 0 0 0
967 1 23.556195769111913 6.314367827727784 0.1686432898268358 0 0 0
968 1 28.730788421679325 8.353445744581522 2.067478444155254 0 0 0
969 1 30.26833128479168 6.9174748151102925 0.2900919268991061 0 0 0
971 1 34.789273833546225 8.358810263767847 1.9384443077967677 0 0 0
246 1 1.9568718953146242 9.699108541580111 0.3583501137153483 0 0 0
119 1 0.5437699178706082 11.727454515406263 1.6702068351646204 0 0 0
248 1 6.355102858888352 11.844114337740843 1.8154419724525561 0 0 0
249 1 8.214633661196041 10.008949589047063 0.5128728085711962 0 0 0
251 1 12.78811157666221 11.103845081403838 2.081000995187833 0 0 0
250 1 14.757191800382898 10.1127607756581 0.38291654057239644 0 0 0
912 1 19.403329968691807 11.663106047521786 1.6461193723185896 0 0 0
973 1 21.254263765198882 10.116457130266706 0.42711466492248973 0 0 0
975 1 27.248752473329365 9.83884268726033 0.3181706660371232 0 0 0
974 1 25.248967877968298 11.169425356765405 2.1702931051662935 0 0 0
977 1 31.348401506531104 11.56784164997749 1.5731876266539717 0 0 0
976 1 32.944664221294516 9.904532510550855 0.21707284560506768 0 0 0
252 1 3.603540266898988 14.768501299520965 1.7569006171552592 0 0 0
253 1 4.762463091599093 13.161779339236084 0.2862911269984503 0 0 0
254 1 10.147647426532174 14.787994442490604 2.2526904638409775 0 0 0
255 1 11.333660437730488 13.031980311407523 0.4513647390416202 0 0 0
258 1 16.200692800249495 14.452395479441027 1.780186039592679 0 0 0
257 1 17.826757843668698 13.250316719096789 -0.0450422821382746 0 0 0
978 1 22.476713427904837 14.517138409766687 1.862232286295396 0 0 0
979 1 23.825792251166988 12.87559027978256 0.24415519377096573 0 0 0
981 1 28.116620936586603 14.422023020382058 1.7376455628690364 0 0 0
980 1 29.964621220984807 12.92858606085687 -0.08821361578247641 0 0 0
982 1 34.841817797314896 14.406125211260008 1.9933038492963893 0 0 0
259 1 1.8273808719325257 16.33364969840937 0.26411457086535395 0 0 0
261 1 6.460453820357789 17.82456519591293 1.9101121895991255 0 0 0
263 1 8.222656112735908 16.40066756193007 0.4181203061219948 0 0 0
265 1 14.06280346927304 15.88375118152604 0.5543635401212823 0 0 0
266 1 13.695808183140953 18.32079856518366 1.5040117843370018 0 0 0
738 1 18.8927610738638 17.66412352094077 1.7534916833549956 0 0 0
983 1 20.70746253301687 16.08416137529978 0.25641098869771695 0 0 0
993 1 24.03214877556424 18.69365467163707 0.2137790652421232 0 0 0
985 1 25.112228090291406 17.228671857262228 2.0217029798427184 0 0 0
986 1 26.804578137583768 15.914985052345479 0.19531166809067624 0 0 0
988 1 31.31823709312162 17.483514664901335 1.7617666953770619 0 0 0
987 1 33.07249959777279 15.884205586646758 -0.07501429101453838 0 0 0
268 1 3.2918332140931286 20.61416733649439 1.7743538210021481 0 0 0
270 1 4.930602968990977 19.17265475728768 0.31143283958789403 0 0 0
272 1 9.997854630164918 20.95320500129914 2.2298265233871013 0 0 0
271 1 11.48332043943913 19.214892398721503 0.4446540781816125 0 0 0
267 1 17.497483829021803 19.409857884056617 0.1380825118382243 0 0 0
273 1 14.444023525591717 21.85648580009711 0.7849446907160238 0 0 0
274 1 16.384306838872206 20.755335639803395 2.3728791823617392 0 0 0
991 1 22.224499438679615 20.377143200949455 1.8096978295190023 0 0 0
996 1 28.07028348928921 20.925975546110486 1.808756219111089 0 0 0
995 1 29.5262510638091 19.21258350586353 0.2891764714543681 0 0 0
997 1 34.50623804960891 20.345698866943632 1.641988817886295 0 0 0
269 1 1.613621689515083 22.137394821133057 0.1276243913201658 0 0 0
276 1 6.454272238848542 24.078979295222364 2.1901332892878136 0 0 0
279 1 8.435469625309349 22.41799124543704 0.8101186139496859 0 0 0
281 1 12.700230652015303 23.66321873810704 1.8495972903069546 0 0 0
851 1 19.271406345894537 24.050640763943264 1.8186952764777495 0 0 0
992 1 20.928273952445775 22.342026648038075 0.3252312522025592 0 0 0
999 1 25.313350154338565 23.782642171047208 1.6766839925765635 0 0 0
994 1 26.612686889949025 22.178338980173784 -0.12776359396480644 0 0 0
1002 1 31.38402572782079 23.894256657484096 1.7220165550266435 0 0 0
998 1 32.616025197041736 22.45012720565896 -0.030658173629391494 0 0 0
283 1 3.5266478780327373 26.869852965717023 1.9553771667666178 0 0 0
284 1 2.293778707112696 28.300301358641434 0.3126868712967359 0 0 0
277 1 5.013644419830298 25.314942734511778 0.18568733527087689 0 0 0
285 1 9.62776666756479 27.154872536737066 1.732373925369228 0 0 0
280 1 11.159964311198301 25.538953497470263 0.30999042964256995 0 0 0
288 1 15.717858531880758 27.200473218175127 1.631068623766572 0 0 0
282 1 17.274652530916516 25.432811740385734 0.03873634007883703 0 0 0
1003 1 22.175332687406353 27.202250254947426 1.8890610513857005 0 0 0
1000 1 23.770832459351574 25.47137561748626 0.21107147133273357 0 0 0
1006 1 28.393335531093154 26.940317970615922 1.7068808371782018 0 0 0
1001 1 29.954686837596707 25.55348777039097 0.11265972988879047 0 0 0
1008 1 34.48736898117714 26.84406270023208 1.851527573034042 0 0 0
489 1 0.5995416621249215 30.01372894688825 1.5320256105331516 0 0 0
291 1 6.7215581815136565 29.972433157516598 1.6880015049919035 0 0 0
286 1 8.286407783572898 28.642670458793887 0.12030162359855678 0 0 0
295 1 13.099807253632111 29.63668337579291 1.8696711623940718 0 0 0
287 1 14.27748223530635 28.798656900368957 -0.12226453702502263 0 0 0
296 1 17.342261190187468 31.496231310160447 0.3526714924259762 0 0 0
758 1 19.21517302318552 30.423098312698308 1.6845510752897823 0 0 0
1004 1 20.790560156021822 28.83086153430246 0.26222700708754076 0 0 0
1011 1 25.48173114228844 30.059283626215702 1.7239032788208362 0 0 0
1005 1 26.875376967418088 28.459143365533834 -0.018957516581797867 0 0 0
1012 1 29.817903928960202 31.44569529450397 0.42470558014517124 0 0 0
1007 1 32.63473061207272 28.522096824996165 0.5928209786749087 0 0 0
1013 1 31.714525140263184 30.148286986558805 2.273219089666085 0 0 0
298 1 3.4686205972238127 32.97341809749163 1.3179496970016713 0 0 0
292 1 5.2532719042283755 31.78442118181103 0.10583924304215026 0 0 0
301 1 9.916373742419832 33.03754421195211 2.046470012712602 0 0 0
293 1 11.57649580662968 31.652712170351947 0.46462688031544674 0 0 0
303 1 15.990627849590052 33.20619311857642 1.975277769813391 0 0 0
302 1 14.455763204322661 34.674061232991434 0.36520276840543586 0 0 0
1015 1 22.53248151196351 33.43218866650206 1.9773451323441145 0 0 0
1010 1 23.786543107927432 31.647122715215154 0.0817022773524721 0 0 0
1018 1 28.328380171924287 33.34204411578669 1.6316368211047831 0 0 0
1020 1 34.74633384253417 33.024807124929396 1.933696658771149 0 0 0
1019 1 32.934229423831425 34.56077778895744 0.5878246211364402 0 0 0
304 1 0.9254724050799934 36.65798818516825 1.806004272519223 0 0 0
297 1 2.3376447203753123 34.988873098266126 -0.0404372195687015 0 0 0
299 1 6.596466844724496 36.47364136617618 1.3542215189047344 0 0 0
300 1 8.440701183319188 34.85972373324282 0.4684037268464314 0 0 0
307 1 12.834899883467678 36.3006590092359 1.6762033742826208 0 0 0
1014 1 20.786253112205664 34.953612438221754 0.8319736449529871 0 0 0
732 1 19.073889676040302 36.72622195852422 2.1404837975497473 0 0 0
1022 1 25.64328955673713 36.600856266312235 1.7535957063785639 0 0 0
1017 1 26.907006890688553 34.88672618051457 0.0750579375676158 0 0 0
1025 1 31.210160202047497 36.381988210122984 1.945991380650026 0 0 0
1024 1 29.795564473073174 37.7762839758479 0.285411942084015 0 0 0
311 1 3.119561369999234 39.87379277212996 1.3876804250764803 0 0 0
310 1 1.2477464242801575 40.93447515120501 0.010402002991728665 0 0 0
305 1 5.2994220236976535 38.33543040511073 0.1556675407256372 0 0 0
313 1 9.682502169503188 39.47157890181718 1.4712478886782818 0 0 0
306 1 11.272410153895606 38.196253152183246 0.05308831792250557 0 0 0
315 1 15.605473178664065 39.83462792636749 1.6357060342043155 0 0 0
309 1 17.69918900348932 38.45683964641209 0.525658494658587 0 0 0
1026 1 22.109434439873798 39.78980329738772 2.0019221395711084 0 0 0
1023 1 23.91688596592326 38.02877709829512 0.3568607006617165 0 0 0
1030 1 28.25681547875342 39.50733557008904 2.0423206771035938 0 0 0
1033 1 34.79509358710879 39.33067693430759 2.038610045746899 0 0 0
1031 1 33.08867092259691 40.73081334576732 0.10364678474524114 0 0 0
319 1 6.790277573456156 42.8485692517567 1.5554021757406404 0 0 0
312 1 8.433003266487248 41.23960965292204 0.017565148511437367 0 0 0
322 1 12.900408331634246 42.666901913765784 1.9154502049062732 0 0 0
321 1 11.5138867386677 43.99487919772079 0.22857672270414603 0 0 0
314 1 14.631533839753887 41.29714513801319 0.3288199164493534 0 0 0
726 1 19.0097221076692 42.774773368650145 1.9171707673441047 0 0 0
1027 1 20.494978816219334 41.14090315635984 0.3264340624776585 0 0 0
1029 1 26.60060076933801 41.39816171649501 0.874236448448984 0 0 0
1028 1 25.23102951796729 43.25803294522595 2.4272329505121517 0 0 0
1032 1 31.75118452056143 42.62676057795926 1.699970611018949 0 0 0
318 1 3.1255759711210356 46.50786166273804 1.7967491885912223 0 -1 0
320 1 4.9910478527606745 44.22725634461631 0.12698028643398596 0 0 0
224 1 9.99501217946652 45.5067198958925 1.9846270608897805 0 -1 0
324 1 17.675156212891075 44.399910331411675 0.3824777420380473 0 0 0
323 1 16.064450669493638 45.70195297061527 2.157155863266633 0 -1 0
1034 1 23.719625603399592 44.39973195685624 0.5941668035678663 0 0 0
950 1 22.263476265548732 46.97923970674947 2.0785997029017325 0 -1 0
1036 1 29.940310338698264 44.43510409095066 0.4816619846305289 0 0 0
1035 1 28.56179389745 46.89441742613849 1.9370885832876992 0 -1 0
956 1 34.863441448027054 45.677321236207504 2.018422524046923 0 -1 0
220 1 2.0027313556062447 48.339158486357036 0.318869838149039 0 -1 0
222 1 6.5458139338517665 49.831419844544484 2.244982096888558 0 -1 0
223 1 8.42199252635713 48.28046822337623 0.28403318039591363 0 -1 0
226 1 12.602563327370563 49.63897159341995 1.9224974528675727 0 -1 0
225 1 14.419949605301108 48.0467338234339 0.7751261043613311 0 -1 0
686 1 19.112227581837164 49.70444702318743 1.9541133867044143 0 -1 0
949 1 21.017003424143883 48.47907524188959 0.370429791124255 0 -1 0
951 1 25.43173810870307 49.7568628317772 1.7237237485369563 0 -1 0
952 1 26.894437347989953 48.31967847973557 0.3391072780031068 0 -1 0
955 1 32.187014015416516 49.68836902094877 2.0429524098430245 0 -1 0
954 1 33.29895977450206 48.031942400456984 0.46742812237988685 0 -1 0
227 1 3.5270859494747917 2.02870718206369 2.754462885271724 0 0 0
335 1 1.727516711739887 0.30026850094531643 3.6887188643590805 0 0 0
337 1 6.468511084358854 2.2606268126274767 5.000161831187228 0 0 0
339 1 8.051189930527666 0.8031056590341539 3.471018238473867 0 0 0
342 1 13.164925271205664 2.1050595714271285 4.871948267430937 0 0 0
341 1 14.401709000701556 0.3479312948239277 3.1923095765116085 0 0 0
461 1 17.44998298214078 0.5317601279758152 5.86642727334415 0 0 0
1047 1 20.72961710602644 0.5838036004983609 3.104429134322233 0 0 0
752 1 19.02772638943754 2.2106268847150328 4.50277792732805 0 0 0
1050 1 26.714503384298236 0.4329411415232124 3.605128704394827 0 0 0
1049 1 25.282991750938017 2.390738793191146 5.005727987667921 0 0 0
1052 1 33.016895255453974 0.6421060511755642 3.8031286287703834 0 0 0
1053 1 31.696307866132138 2.109032895571983 5.412682812289151 0 0 0
344 1 3.6315375704959436 5.4561076103260975 5.43992775849368 0 0 0
2394 1 20.840987207619424 9.602606242828003 25.05437709169423 0 0 0
346 1 5.085576544282407 4.156920526245636 3.6862320517711247 0 0 0
347 1 9.78775217978912 5.440625079823107 5.009885868476472 0 0 0
348 1 11.318734354523851 3.6116012062276126 3.704856016030998 0 0 0
239 1 17.594537080489342 3.5367831540872885 2.9206319931504483 0 0 0
350 1 16.24737608795995 5.225390428932749 4.825641568752157 0 0 0
1056 1 23.486063675714032 4.207750578686046 3.512227339494687 0 0 0
1054 1 21.845041054617848 5.700778573974769 4.968583332055505 0 0 0
1059 1 29.882053138341448 3.473790885800413 3.3769670419643445 0 0 0
1057 1 28.60727840858571 5.272983570760079 5.140175565639502 0 0 0
3194 1 34.97764578705804 5.497592217240428 4.884107449287994 0 0 0
351 1 1.9296655894336447 6.8966686323933 3.724033088466698 0 0 0
352 1 6.410410089296926 8.574195846533131 5.031229215058413 0 0 0
353 1 8.041913780248528 7.2129331706113495 3.715870075728182 0 0 0
356 1 13.214401838736947 8.073753299812093 4.8531346653914795 0 0 0
355 1 14.388307570281134 6.4005942254698045 3.0839132372105165 0 0 0
1060 1 20.707307786283593 7.034073414505912 3.164435180916971 0 0 0
1386 1 19.279806121138733 8.27000830290858 4.897242260598163 0 0 0
1063 1 26.957055687335163 6.8473715961088475 3.6729779234749635 0 0 0
1061 1 25.156018059086243 8.474880325387534 4.996858750632558 0 0 0
1065 1 31.608692034380567 8.390513114592617 4.9948271559022475 0 0 0
970 1 33.33826381320768 6.778969218039437 3.2692464997219934 0 0 0
359 1 3.323988666696082 11.742108643796739 4.755804890340689 0 0 0
361 1 5.085871465984188 10.132056290053937 3.588655622914114 0 0 0
362 1 9.634047076724661 11.344827924506026 4.982208831418725 0 0 0
364 1 11.323308154086211 9.681612588154016 3.7065857875704076 0 0 0
366 1 17.647285307429836 10.193240991248151 3.493202148926771 0 0 0
367 1 15.70375284581397 11.328611426137483 4.8709744055955 0 0 0
1069 1 23.52853736829673 10.03127513230456 3.76035509978424 0 0 0
1067 1 21.876624772026787 11.585310984063234 5.386116412036697 0 0 0
1071 1 29.875183327897624 10.078635754687761 3.426095743598786 0 0 0
1072 1 28.262036240768346 11.350958838705997 5.051017496264067 0 0 0
1074 1 34.54579451115131 11.34992690001445 4.838750918457382 0 0 0
368 1 1.8622065062745292 13.220135777176448 3.235159674555147 0 0 0
369 1 6.81354690137498 14.693745956888211 5.222053859858048 0 0 0
256 1 8.333324899050298 13.223402693780914 3.5919973486376464 0 0 0
373 1 12.486026073204924 14.71308228801443 4.905479580865708 0 0 0
372 1 14.287847192130391 13.036691660309968 3.240728556817715 0 0 0
1075 1 20.67223221127241 13.251875381914155 3.51430796627903 0 0 0
990 1 19.310361675687826 14.528036128547601 5.101504915895675 0 0 0
1077 1 26.75664304750138 13.123282427699904 3.6958136067272003 0 0 0
1076 1 25.21597606065025 14.619842357795303 5.2937471082319805 0 0 0
1080 1 31.29304023958424 14.75908914106044 4.994291433466893 0 0 0
1079 1 33.018883551358286 12.997848217227773 3.5905213938628817 0 0 0
376 1 3.5601363476157255 17.625358133471913 4.668742270558472 0 0 0
262 1 5.238642110814723 15.916669362519087 3.363214363481979 0 0 0
379 1 9.837131356968492 18.098045394247052 4.972460848301583 0 0 0
374 1 11.830594273501433 16.821328222248948 3.2641679392547247 0 0 0
381 1 17.50127435100434 15.985723145895292 3.578924827655697 0 0 0
382 1 15.46034956943205 17.295818639710014 5.2989444506814385 0 0 0
1082 1 23.569854908856076 16.068330884065507 3.7521686811938304 0 0 0
1081 1 22.05134230612304 17.53319706134099 5.15109768149564 0 0 0
1083 1 27.94094465662388 17.97790079261637 5.030431772538652 0 0 0
989 1 29.519837788779565 16.319048550824505 3.4033862147937723 0 0 0
1085 1 34.60258442953554 17.92531517800756 4.9841707420164525 0 0 0
260 1 1.789338621365722 19.10445423990145 3.369865418179052 0 0 0
383 1 6.820632264338747 20.8029277616097 5.20857569004456 0 0 0
264 1 8.21119465226498 19.35210456238249 3.318373462766267 0 0 0
389 1 13.317688801038157 20.80503838399032 5.662109440316208 0 0 0
387 1 14.598115904897321 19.31806351159828 3.7545212028024917 0 0 0
1087 1 20.602087667444383 19.274845167364486 3.6487291815093292 0 0 0
736 1 19.0506378284888 20.823097742917952 5.076885943728141 0 0 0
1091 1 26.371230597576123 19.0094399089052 3.271474865289374 0 0 0
1088 1 25.05499596417076 20.608108803241496 4.930916494776449 0 0 0
1093 1 31.007105274678405 21.04656716152205 4.8997184062376755 0 0 0
1084 1 32.68182274231291 19.433185704551033 3.6281113793673176 0 0 0
392 1 3.261527144275292 24.041635798967754 4.944402707260595 0 0 0
278 1 4.917789159894765 22.054244379421917 3.673891436960819 0 0 0
395 1 9.73453124862943 24.196472353961074 5.027461838724952 0 0 0
388 1 11.417949365697442 22.55178328016276 3.9276762944466057 0 0 0
397 1 17.626567510431464 22.59994857256289 3.526460314910147 0 0 0
398 1 15.828970034022163 24.049956833324423 4.959829494531722 0 0 0
1089 1 23.662442843447128 22.311812004856403 3.14053160609404 0 0 0
1095 1 21.815335215763394 23.467201011334673 4.918457236713506 0 0 0
1098 1 27.94809976921857 23.947903326310794 5.193038960784253 0 0 0
1092 1 29.63520877537845 22.75915020003602 3.405184414637759 0 0 0
1101 1 34.50279348880202 23.530260912397743 4.937747758089994 0 0 0
275 1 1.6622782666691769 25.396466174601315 3.154444072035641 0 0 0
83 1 0.7568655561453062 26.80567977705962 5.135019159408365 0 0 0
401 1 6.675398308705433 27.27360756786663 4.63273782255685 0 0 0
394 1 8.288849440798819 25.49320332259474 3.471417310395128 0 0 0
404 1 14.073427522751913 25.6819447337389 3.3534070196677517 0 0 0
405 1 12.522984920964024 27.10286237969849 5.106369652609521 0 0 0
1096 1 20.552123653526493 25.417430194406876 3.4835009905984515 0 0 0
813 1 19.156960528816956 26.992280128139747 5.072994619250107 0 0 0
1097 1 26.51148266524333 25.66101181237123 3.280014993044449 0 0 0
1104 1 25.048377200236786 26.951741464119966 5.038161334687323 0 0 0
1106 1 31.41458991533812 27.04333613975872 4.6401751273382805 0 0 0
1100 1 32.96939925455114 25.215823652736635 3.746189044661741 0 0 0
409 1 3.3881545976101886 30.10445015691861 4.910264529953931 0 0 0
400 1 4.930844581893361 28.486375417149777 3.3793565886668997 0 0 0
411 1 9.882971635283425 30.250665076581644 5.258004228507175 0 0 0
294 1 8.15424603834829 31.37149751969919 3.4858441705092034 0 0 0
403 1 11.019360336036717 28.723534026861348 3.645105631158996 0 0 0
414 1 16.181929367317153 29.88654899681873 4.936890547411077 0 0 0
289 1 17.73719378699207 28.520818721239532 3.1882845472321977 0 0 0
413 1 14.421963967355657 31.18932346338245 3.2814322628120776 0 0 0
1103 1 23.683973827921747 28.597736001854194 3.638095844520668 0 0 0
1108 1 22.119647531566844 30.345817239835494 5.029134979913237 0 0 0
1105 1 29.952750505763756 28.91853072275936 3.4894178927414563 0 0 0
1111 1 28.36369724545364 30.31239366911924 4.7374824788473235 0 0 0
1114 1 34.40067618114845 30.102124531220632 4.8920393515302205 0 0 0
408 1 1.9881942269985589 31.625353016912477 2.9794054690924225 0 0 0
418 1 6.312969829638224 33.28344101431557 4.767156804368715 0 0 0
421 1 13.136287102648708 32.75050801985206 4.764465192010054 0 0 0
420 1 11.604021662063076 34.688755695181015 3.139463410867006 0 0 0
1009 1 20.6973849697434 32.1031356869682 3.2135450303671984 0 0 0
671 1 18.902048373683616 33.252921077870994 4.857234800855257 0 0 0
1110 1 26.67042318521806 31.87628109350069 3.3559942148503406 0 0 0
1116 1 25.07183122679553 33.43783836721268 5.313224068369623 0 0 0
1119 1 31.28381144465303 33.40016787039238 4.544969143413344 0 0 0
1113 1 33.166390223034185 31.88431268143726 3.570722263885366 0 0 0
426 1 3.830372515327033 35.944471089610914 4.654598654260459 0 0 0
417 1 4.911785888337257 34.77040903294639 2.763258674947293 0 0 0
428 1 9.493293928135445 36.309809069818485 4.559538410187395 0 0 0
429 1 14.224439291934713 37.814778797438734 3.5332894278387896 0 0 0
423 1 17.473388148607395 35.14712323360099 3.610165162481474 0 0 0
430 1 15.680062663128806 36.535233766568865 5.2223563225927325 0 0 0
1016 1 24.00060652225577 35.031347292311 3.480460900154682 0 0 0
1121 1 22.122778025856224 36.47677473386376 5.299397950583054 0 0 0
1117 1 29.530471699998394 34.99932395627704 3.3185734443713835 0 0 0
1123 1 28.264450944425402 36.71544450971328 5.078724511771579 0 0 0
1126 1 34.76876817654122 36.308727639107445 4.743317178770741 0 0 0
425 1 2.1648261192263156 38.254135300646595 3.268362432241213 0 0 0
434 1 6.519251494018669 39.697380840082985 4.7351265143659615 0 0 0
427 1 8.166315446612668 38.06534745673447 3.357302194175362 0 0 0
438 1 12.459503410220425 39.4808347709091 4.538973968742191 0 0 0
435 1 11.031828384699265 41.04393614786369 3.111072973744 0 0 0
1021 1 20.46681674152933 38.357316166710376 3.669398808968009 0 0 0
687 1 18.565322319925322 39.85252483948081 5.260271051357328 0 0 0
1122 1 26.719792797547885 38.09710547152066 3.5169242492231367 0 0 0
1129 1 25.239146380680488 39.70149130606579 5.110408416542718 0 0 0
1131 1 30.358648648986314 40.97780651187941 3.430486073685597 0 0 0
1125 1 33.06486067197723 38.07275585617306 3.5831041184352403 0 0 0
1132 1 31.621162541097167 39.59903299476568 5.266763152507376 0 0 0
442 1 3.7012938735131087 42.43172417684262 4.82118559228034 0 0 0
441 1 1.844195248271936 43.87661602078414 3.1762897673316264 0 0 0
433 1 5.130440850299777 41.08301101491078 2.8142519528295176 0 0 0
437 1 9.642592104882866 42.551907537297396 5.296397070936662 0 0 0
444 1 8.168125575772166 44.053433912173034 3.4788887217867224 0 0 0
316 1 17.329577174475464 41.167061983639684 3.1443922995461024 0 0 0
448 1 15.816304935063178 42.661515330571675 5.335735160288962 0 0 0
1128 1 23.632188944333844 41.30314950911816 3.5683395224590893 0 0 0
1134 1 21.69431567672234 42.91524167443633 5.135752470447861 0 0 0
1139 1 28.889562601207633 42.749092326753285 5.01877196938917 0 0 0
1141 1 34.835313805357444 42.498288951188954 5.198720710322923 0 0 0
1037 1 33.09688282636695 44.044503168530355 3.609597019746295 0 0 0
573 1 0.7229206361178219 45.43445784097831 4.922021789545615 0 -1 0
329 1 6.336802255397367 45.639179723179254 4.839542438731329 0 -1 0
446 1 12.888057470459312 46.527915583788115 4.9011973406194205 0 -1 0
447 1 14.503987598624176 44.288439905699406 3.7069990084889484 0 0 0
1135 1 20.612326703955535 44.4097328501461 3.401879516703324 0 0 0
750 1 18.924328552536192 45.719043730938566 4.889783366198972 0 -1 0
1138 1 27.166102543343953 44.57200103813436 3.6095161394627255 0 0 0
1136 1 25.154186109432818 45.671207907114464 5.029925901558895 0 -1 0
1043 1 31.901510517850053 46.59936223065641 5.005328424024853 0 -1 0
326 1 3.409478886613851 49.31085257665379 4.793336492969131 0 -1 0
328 1 4.913900623138855 47.90473448060945 3.4205761154070426 0 -1 0
332 1 9.682691523618058 49.96351474476417 5.088893862260858 0 -1 0
331 1 11.33905385966383 48.202375612057395 3.6225495779081953 0 -1 0
334 1 17.627923197378436 47.93246264447109 3.454855530592901 0 -1 0
343 1 16.16129660093049 49.66407158353793 4.6903891061286584 0 -1 0
1046 1 22.506795397486684 49.81467000618858 4.567505910219299 0 -1 0
1039 1 24.070291254099093 48.31390243580368 3.4039336553894226 0 -1 0
1041 1 28.63680908752704 49.73132829135959 5.041031079940876 0 -1 0
953 1 30.26743375737413 48.26230499943776 3.6584650060568213 0 -1 0
1044 1 34.80371246782054 49.897792408029616 5.20743566592497 0 -1 0
457 1 3.5985406968143674 1.7535987205814405 7.807972667310517 0 0 0
338 1 5.138355562724017 0.32565753811305675 6.214579489211587 0 0 0
459 1 9.649288814575737 1.953179409743925 8.03880310590491 0 0 0
340 1 11.557603868709357 0.5141532574821299 6.352762770997144 0 0 0
462 1 15.791948013390394 1.9291009352884245 7.563769886928403 0 0 0
1048 1 23.868820928548878 0.5991435703988932 6.472975697998506 0 0 0
1149 1 22.230323869021586 2.15607851751006 7.976143213939757 0 0 0
1051 1 30.387626509899697 0.47631904030088 6.830759689940415 0 0 0
1152 1 28.527155803702193 2.4522987348075933 8.367702625711182 0 0 0
3306 1 34.95831620477658 2.020575001601298 8.245635419281028 0 0 0
345 1 2.122891205910764 3.5069342550949933 6.653329448798702 0 0 0
160 1 0.7603928215572512 5.161301696016477 8.227274316512798 0 0 0
464 1 6.5770450420422835 5.389583530985746 8.112246326350599 0 0 0
465 1 8.22037555927915 3.6704425620517562 6.815423941810489 0 0 0
467 1 12.92405269495822 5.238085843719872 8.141907332076475 0 0 0
349 1 14.398285596293452 3.8794060090065994 6.472458382630512 0 0 0
468 1 17.50370540372831 3.4453287302585776 8.985834885655667 0 0 0
1055 1 20.459649104207976 3.6404853166047593 6.284264113397334 0 0 0
863 1 19.13456320244658 5.04255026336369 7.972925476106564 0 0 0
1058 1 27.095587790594845 3.8341149431620227 6.946149297609464 0 0 0
1156 1 25.209372905285374 5.473954363381863 8.07904015736405 0 0 0
1158 1 33.80028006368056 3.7093235074775586 6.519978025050167 0 0 0
1159 1 31.873792690608454 5.269575095559653 7.858557994386363 0 0 0
470 1 3.1506533317748744 8.580037904852944 7.94511773296632 0 0 0
471 1 5.156743771404884 6.785467053559721 6.5825596382092195 0 0 0
473 1 9.804795978661918 8.469734680733104 7.947167254684118 0 0 0
354 1 11.230996612710234 6.767499154680018 6.460503702783433 0 0 0
475 1 16.27156266622962 8.354552883969035 8.0329344409759 0 0 0
357 1 17.77076371463766 6.684354707986265 6.349465213217669 0 0 0
1062 1 23.5325384836349 6.934279234787176 6.447412868562374 0 0 0
1161 1 22.04084316077 8.127087240783785 8.436564053195857 0 0 0
1064 1 30.077058683737047 6.672922670862655 6.49488777882083 0 0 0
1163 1 28.562932482469424 8.38896385757492 7.930297485140786 0 0 0
360 1 1.7271694936415907 10.227124063466286 6.531501320711004 0 0 0
477 1 6.331180906003724 11.064975692409885 7.971458908424832 0 0 0
363 1 8.20847127263913 9.797416512449889 6.586848125417184 0 0 0
480 1 12.799566320302747 11.471129105743362 8.065285075183189 0 0 0
365 1 14.385045122131208 9.783478877297041 6.643329457502747 0 0 0
1068 1 20.440404984478818 9.556112457105641 6.7976554168449335 0 0 0
1384 1 19.166844739278396 11.341197707548302 8.26066330093269 0 0 0
1166 1 24.696294564087772 11.58814382533823 8.579653745021503 0 0 0
1168 1 26.514670587332578 10.099779219029406 6.814859332100416 0 0 0
1170 1 31.481823066366353 11.326507942202364 7.771376424517975 0 0 0
1073 1 33.347794791080496 9.587317494870266 6.567128099148015 0 0 0
482 1 3.1713551274336362 14.744333758337463 7.778019071903435 0 0 0
370 1 4.9879371921802225 13.018199960796684 6.547454454858537 0 0 0
485 1 9.764199757256973 14.4934312181124 8.175546522798623 0 0 0
371 1 11.247193711315587 13.094175367041043 6.7128482636101445 0 0 0
380 1 14.24770255173297 15.535603363926644 6.7172142444476926 0 0 0
487 1 17.626041449275483 12.729651648503793 6.1606208066350465 0 0 0
488 1 16.25394402869986 14.41323631389407 7.980859513513591 0 0 0
1070 1 23.77798539082791 13.042645407409005 6.68697008705115 0 0 0
1173 1 22.233283302719883 14.38340497640043 8.067354819284407 0 0 0
1175 1 27.941299334981355 14.440365213022611 8.206288471172403 0 0 0
1078 1 29.73131377353536 13.077733396211666 6.8179444556323725 0 0 0
1177 1 34.478071665340266 14.334296487309391 8.063182259856067 0 0 0
377 1 1.8249173352949117 16.337015330740062 6.3477525771040195 0 0 0
491 1 6.6876767363079255 17.79327881733633 7.738918420410872 0 0 0
378 1 8.48385578937636 16.431830648495435 6.397459582558773 0 0 0
494 1 13.133699927035341 17.637200777537682 8.332185734356942 0 0 0
1171 1 20.63398339621865 15.992732770687041 6.714473262227533 0 0 0
698 1 18.753675902813935 17.30335750635025 8.272059698330755 0 0 0
1181 1 26.670205989735518 16.133777059753854 6.6835535836186875 0 0 0
1180 1 25.12891479664954 17.400236877741907 8.42766450197101 0 0 0
1184 1 31.272273868310002 17.69694353114293 8.36548822913972 0 0 0
1183 1 32.9223136982554 16.010224465151573 6.685170658696071 0 0 0
498 1 3.670125620574778 20.96828613747643 7.926833683906082 0 0 0
384 1 5.120512112024783 19.045728689529934 6.1734433001404065 0 0 0
500 1 9.936734543582695 20.796993420917946 8.292930285911467 0 0 0
385 1 11.600079571814087 19.295969959913727 6.797877621365371 0 0 0
390 1 17.507814118710908 18.89960235810607 6.620736818055921 0 0 0
502 1 15.805848623328842 20.557986266908692 7.616089611845579 0 0 0
1178 1 23.607143816478747 18.90199170705066 6.753830623300853 0 0 0
1186 1 22.229311926830118 20.406977156613305 8.246271482348972 0 0 0
1189 1 28.11896324075339 21.150798578002618 8.163435234172985 0 0 0
1187 1 29.80615106005156 19.362312142459164 6.862350615653373 0 0 0
1192 1 33.91319082991858 20.863938702634997 8.030719280109855 0 0 0