LAMMPS data file via write_data, version 29 Oct 2020, timestep = 200000

4608 atoms
1 atom types

-0.2625300039363516 53.6625300039367 xlo xhi
0.1832131095564833 50.72390689044454 ylo yhi
0.1832131095564833 50.72390689044454 zlo zhi

Masses

1 18.015

Atoms # atomic

3019 1 12.926988681800232 0.47952539321773746 22.715592969557274 0 0 0
1050 1 1.5038454193698751 28.5679571545784 8.381020378410792 1 0 1
434 1 0.25838425835039114 39.20013206008906 20.50819989957496 1 0 -1
2944 1 0.24954320518606166 30.653585289066733 5.123437810736823 0 -1 -1
1006 1 11.593928762363273 3.75463355534466 5.349987116336766 -1 0 1
444 1 4.787532148517006 48.974720411928374 2.119899216457082 0 0 0
700 1 11.908380601705998 34.316635605728756 2.9519678546088155 0 0 3
4405 1 8.926769018762958 4.134616763126921 4.697627563183917 1 -1 0
3427 1 13.897581901334805 4.612896111754183 2.630171904029188 1 1 1
4067 1 15.958486649429666 0.6743615041609692 1.0475444198158308 0 1 1
3602 1 10.12407371482317 4.664369171501735 1.3685906236483745 2 -1 1
1629 1 15.180908676300433 6.10330243059359 0.49732484222162066 0 1 0
4224 1 0.5829866544097015 28.86878177211924 24.212707668815405 1 0 2
76 1 7.085844538278697 11.252365964134352 2.491265251008905 1 -1 0
3516 1 5.770390783468579 9.098179192920044 2.764459347408268 1 1 -1
1353 1 7.495817953782478 31.569535536207116 0.7449928354689167 0 -1 1
4091 1 6.090714741004495 37.59152910688222 24.145363727073136 1 0 0
3499 1 14.833028076738287 8.29881789106057 2.6236305333197185 0 -1 -1
3151 1 1.7059731004649281 10.667721925871495 2.4226812976882726 1 0 0
1240 1 6.7417657216724205 12.77315460634838 4.90527321492989 -1 0 1
383 1 1.8102491138925956 24.288511520357684 0.7417707376571 1 0 -1
356 1 -0.12781317995305003 3.3878920991967423 16.62252667234875 0 1 -1
1627 1 8.594672843661776 23.529600555088557 24.88117728478417 1 1 -1
92 1 12.732036067521493 14.888760788852045 4.815012310788323 0 -1 0
219 1 -0.017432826631220505 19.313087349639815 16.09135095771532 1 1 -1
3093 1 0.22663890695007072 49.7373958022914 6.9664200520294335 0 -1 0
3913 1 16.326682717944177 0.33552419280740636 3.6569742643294005 0 0 1
1381 1 7.824368153631957 15.565562614778074 4.388888050067576 0 -1 2
2956 1 0.3469002898086335 27.86429570672279 21.851934064714488 0 2 1
4122 1 10.072655614427184 13.19022447909851 1.7586205740033303 1 -1 1
1992 1 14.328893591774438 19.18861583122327 3.562151259832218 0 1 1
3746 1 9.537871243278827 45.32878692943795 0.8041284957124208 0 1 1
2034 1 10.82231096778637 12.547209511566729 21.649216993175493 1 0 0
3546 1 4.953539476170332 21.490658746575672 4.026796534536741 0 0 -1
2357 1 8.347725808224958 15.822213613620152 1.3822765572376057 0 0 1
3783 1 13.317916784846068 10.955969777926434 1.3305981371761484 0 0 1
972 1 16.890834708834863 17.159586298514462 2.6085414366917465 0 0 1
3284 1 12.907409204626315 17.848917113971762 25.260786726122646 0 1 -1
3940 1 15.46322918330932 22.03560476743308 0.5507837519063834 0 1 2
4128 1 2.4246319748189715 18.212644402921 1.6926899114122371 2 1 1
688 1 4.9863073097713375 18.444764439732367 3.142984595918804 -1 0 -1
206 1 -0.034959562163094954 15.9465664536333 18.2281242754233 0 0 1
4374 1 0.5581510864306836 23.100550878745683 23.4151673068633 0 0 0
1360 1 2.6637664133936143 10.620137739119196 8.999137110293752 -1 0 0
3769 1 3.667698413860158 33.95630296040663 1.55506857172279 1 0 0
717 1 4.252947923677003 25.131179676973332 2.9865872786402052 1 -1 1
2735 1 7.667281057463538 28.24505797012672 4.02546131877444 1 0 1
716 1 0.01963133918189508 9.379358912587428 9.56590175131843 0 -1 -1
4219 1 12.657300785981727 25.268318104637203 2.485799424637494 2 1 0
3752 1 14.102093533704124 26.774353926627462 4.7471452463532 1 0 1
921 1 17.308994896825173 38.09191989961356 4.043995415477402 0 0 1
35 1 15.688411113240141 24.444511829098364 4.93535771545131 1 1 2
2173 1 11.63909770697753 2.5520856803922567 2.7733682327716576 0 2 0
18 1 17.538277455707163 12.064838437200184 15.129890237631882 0 1 1
1332 1 0.36409635235851423 37.08659938425514 13.167320572055171 0 0 0
3559 1 0.8619840600129081 45.06958348295553 7.691916755788929 -1 0 0
81 1 -0.11591966110501575 1.3926874860104896 5.239586083902933 1 1 0
1376 1 10.165991294712748 26.18005433609386 3.842055396168874 0 1 -1
2443 1 2.552076569116283 40.67292146159461 3.3009003090171696 0 1 0
2605 1 2.9412033117038807 27.826665746209713 4.262690320073587 0 0 2
4503 1 16.51207204110517 10.677071526823132 21.7821827617185 0 0 1
1967 1 3.582182066234496 3.651170062324398 15.102830611226803 2 0 0
651 1 11.322210675422696 29.11330001433535 0.5228998380331333 1 0 -1
3785 1 12.382125840571257 29.4435727622963 3.1229472245014778 1 1 1
2946 1 15.30570232439278 28.681767392555628 2.991680630897474 0 1 1
1196 1 3.1164766631828944 43.08891586682134 19.4145155237701 -1 0 1
521 1 7.078017819938854 33.30655995894436 3.0719176302369386 0 1 -1
1335 1 15.405613030107004 31.608230279074238 1.793760634580681 1 0 0
2 1 14.833150927617622 15.57391339505026 24.66471442045958 0 1 1
2464 1 4.049415563511221 34.42533158659734 3.990232014670301 0 -1 1
1126 1 13.257619916876651 19.502113219241398 22.80009362021727 -1 0 0
3416 1 1.0394183375735402 41.23674817997925 0.9887581652162387 1 0 1
111 1 12.33226165202803 32.14147000837501 4.495668508618177 0 0 0
1127 1 14.373139035883911 34.34416313389849 1.199209996561986 0 1 1
590 1 16.425761524998236 20.96148550389754 7.63108425525667 -1 1 2
3688 1 17.201788668052338 24.662533056796768 2.775582505813678 0 0 0
2278 1 9.018269255258952 36.99974786838641 3.4345603957590884 0 0 1
1392 1 13.792796731616052 45.761468934312184 0.852831704636964 1 0 1
1092 1 9.336194648412324 34.539251366809545 2.958794491406842 0 0 0
2529 1 15.066224098818202 39.581990794438234 3.3434366100803845 1 0 0
1159 1 15.730488036073565 42.440610101662294 3.292315093911726 -1 0 1
506 1 5.018827953788898 37.492056745366526 1.2661935333281802 0 1 0
730 1 4.578630043542533 42.586164012827 3.1179544866010267 2 -1 1
1637 1 1.1113276182011138 25.200714358785316 21.519490441158943 1 0 0
4276 1 2.341341278947651 9.926976733511815 5.038845375664977 1 -1 1
3424 1 1.7507604602507385 12.652030343120114 16.830916334365185 1 0 0
3123 1 0.6312964841083487 27.353395174952876 11.582496057666557 0 0 -1
2036 1 1.7941091530260347 45.40430979234362 3.4235320827879034 1 -1 -1
3628 1 -0.08332125114583966 4.285790653486843 21.048898548478093 1 -1 -1
1182 1 -0.008772468029944469 23.65796985018151 8.960648504907097 -1 -1 1
3544 1 13.958317571817206 48.93360979135388 3.5245564307631776 1 -1 1
1949 1 7.202938166067 20.396880241343677 1.7117056413578702 0 1 1
3051 1 16.15459609578511 43.06240309454911 5.984233521831591 1 -1 0
3387 1 10.220279179297014 49.10743023157639 3.997703142601728 1 -1 0
631 1 1.0797463544308807 44.816736156499886 16.610217858125626 1 0 -1
1871 1 12.66609767567789 1.0033408030342086 8.336520603918178 1 -1 0
1609 1 0.28547768189673883 38.72637767257897 10.519918627541482 0 -1 0
3926 1 13.02136558441303 41.509683541207956 0.551663535190877 0 0 1
545 1 0.46220781654221277 1.2951214905695443 20.804305505854796 0 0 -1
3135 1 14.54528982510408 4.395412216657675 8.166840238422063 0 0 1
428 1 7.358758152363061 50.721126908979606 4.302421266030865 0 -1 -1
207 1 15.631317374647733 3.2167251177235 4.118496344381361 0 0 0
892 1 16.701741491965326 12.760625639143866 23.970696198614142 0 1 1
2316 1 3.851639187425678 5.919837400710683 2.3742830760120825 0 -1 -1
1454 1 8.65876945333503 1.1363090035452366 1.8844260359129603 0 1 0
2277 1 1.8394511258397985 7.395829923678052 6.290451370841538 1 0 2
3420 1 8.076334144033632 2.03951438374769 5.8043851531938255 1 -1 0
4016 1 8.649808180010094 6.496490229601503 5.486844039987906 1 1 0
2120 1 13.90512995675123 5.5337035807561294 5.7465502937226285 -1 0 1
260 1 16.066732994640013 34.67710284477075 24.48342253526656 0 0 -1
2060 1 2.3484873670047173 22.933151154828447 16.092206824521327 0 0 -1
3067 1 2.494105980760458 2.0789472716714528 4.434247509281406 1 2 -1
2482 1 4.68599121141941 8.57058261171156 5.320661308636658 0 0 1
2979 1 6.11387978470142 5.079966621219004 3.462397551699809 1 0 1
1056 1 3.493770330438202 4.485264212697929 5.411868279899831 0 0 -1
2856 1 12.004285400405358 7.056906887716899 1.137719629154347 1 -1 1
1910 1 14.92418924196506 8.080264601804625 5.366357815428044 1 -1 0
1927 1 17.46565304802721 7.9390046311998645 6.950798676570284 0 2 -1
1727 1 10.122006381322294 8.112823033725675 3.8974639045697126 0 0 0
2069 1 11.07683042923202 9.651990754442156 1.269478430555869 -1 0 0
813 1 15.909454742444797 12.376096087631401 2.8131975020123656 0 0 1
1853 1 6.003634495991242 10.640731662108966 6.862227405170813 1 -1 0
3802 1 4.017064113071147 16.145277043056932 6.983833584444181 1 0 1
1795 1 6.71772163814658 11.934252851293824 9.560217164920191 1 0 -1
4223 1 9.986408549711038 14.970390699088039 5.755572346048034 1 0 -1
999 1 16.54171482564308 18.997119324366516 24.44094577136488 1 0 1
3021 1 6.512859232221187 20.327122267182705 6.295754205746302 0 0 1
2733 1 12.799037423831546 13.88766653624615 2.0574582488723445 1 0 0
3346 1 14.858338732389145 18.827772053491426 6.767683483075467 0 1 0
381 1 2.6019094640022704 48.71402758446746 22.34164878005241 0 -1 -1
1499 1 -0.10951557566492592 37.151689495693496 5.130641017597229 1 -1 1
2412 1 3.6021625508050077 24.17747420773769 5.535344255527564 2 -1 1
3916 1 6.453838895700191 23.51020768805547 2.4020203783470633 -1 0 1
1175 1 9.045161815427358 20.20721273783749 6.147165389054726 0 0 1
357 1 10.407676592232368 22.227433803511076 4.926120135527812 -1 -1 1
2218 1 14.154298227064706 22.016731130901707 4.089468384190683 1 0 0
4304 1 -0.015406160805952002 30.169214637118323 14.811013072073289 -1 1 0
797 1 9.11700458963081 24.292015974100163 1.3660210828190291 1 1 0
3830 1 1.9609129785122321 25.9735393699981 5.92375771521458 1 0 1
404 1 7.9524663251913275 24.172775797252694 4.542859593669266 -1 0 1
3697 1 12.87206057063403 21.060647138065313 6.379599565204228 1 0 0
3775 1 7.814758993496762 38.23379004837336 1.0501914626939834 1 1 1
4047 1 1.8399989637191623 25.889817659764592 8.462979891224354 1 0 0
3146 1 7.901352043964378 26.408418994453527 8.124002779865776 1 2 0
1011 1 8.68471023969543 29.385494250553233 1.7814376675050476 0 0 1
2745 1 11.726739551586743 27.942479165322236 5.6393226187445045 0 -1 -1
914 1 3.5625947763070847 19.42146561538192 10.196449708770693 0 0 1
139 1 4.3035280299010585 30.286891854312582 8.357133968260195 0 0 1
3773 1 5.832818970969606 29.290811680467737 10.394429965105768 0 1 0
3271 1 5.211263118309152 27.74223005006406 2.3989903168834217 2 -1 -1
1418 1 9.052631729063133 28.618654835691224 6.51147529221929 1 1 1
15 1 6.09239036789418 30.715060928907068 4.357330494233623 -1 0 1
385 1 14.784074753991703 31.930003674336064 4.7650178161046055 0 1 0
3417 1 15.887159382176009 28.864570385945584 6.343759383917549 -1 0 0
426 1 0.05314036124963556 16.842630400522197 1.4164161513003335 2 1 0
3556 1 3.19307616912921 30.374357949492303 5.195340353674166 1 0 0
3197 1 7.732818174405804 7.246244335813967 2.0189394762569703 0 -1 1
1452 1 3.8633983492623596 34.0451261429498 7.76440613078413 -1 1 1
4391 1 8.792302729070055 31.211018797544472 7.5484921261632865 0 0 1
2804 1 0.11995102531817947 1.1742357848530314 13.092684586031064 1 1 1
3050 1 14.61698572282699 34.68676870798323 5.360360307689375 1 -1 0
3583 1 12.018369336191814 30.082705136643504 7.47746931528073 0 1 0
3510 1 -0.012980782243266875 49.97117036341038 18.4956560457162 1 -1 -1
4097 1 10.203946568202667 21.59186818842223 2.2740508072037993 0 1 1
2840 1 0.03656475968207873 36.352317557319545 9.10874129969948 0 -2 0
1574 1 6.048708861472348 34.28504918845921 5.768809146588617 2 0 -1
1059 1 6.389201898271721 31.856126872852315 6.9468734284605045 0 -1 1
3542 1 10.758777811614138 32.893282246492724 6.870969878726795 0 -1 -2
138 1 13.130317364671134 36.88430421487306 3.807459080088121 0 -2 1
1330 1 16.563482150596055 10.138814155186237 1.6094260877385298 1 -2 1
3760 1 3.066771713550536 36.904757518368044 3.0751459754434807 2 0 1
3907 1 7.934098666230559 39.9612099650257 5.904946365511184 1 0 -1
3493 1 9.443926623056385 35.30470341986228 6.1240411242269195 0 -1 1
2513 1 13.986637809748881 39.17835362084889 6.136196490056312 -1 0 0
422 1 11.401024071399068 36.949324735195354 5.707583419307539 1 0 0
2598 1 12.853576719400012 22.693877573047622 1.7612117837257641 -1 0 2
1561 1 16.261423946759436 40.50098899880535 6.801134727168143 0 -1 0
1694 1 7.186610783804737 41.620385980711575 3.7929014035679156 0 -1 0
3177 1 13.648599770884532 44.24810998926792 3.0682502572261847 1 0 -1
3721 1 8.462581611709702 40.97482772762167 1.7730632058259925 1 -1 0
371 1 3.6362188203775454 31.29962720979535 2.206381489005114 0 1 1
2413 1 2.878219661958621 43.19609733170719 6.897309106692789 -1 0 1
281 1 4.472500473458483 45.0596709257764 4.406112050586301 -1 -1 1
4369 1 10.193494072946514 44.54610030450101 4.956598472577809 0 -1 0
4396 1 14.848224389558165 47.94242560083082 5.792733166531136 2 0 2
1867 1 0.3985859901914721 47.31206807024505 15.286994458195803 1 0 0
4326 1 6.095126881332642 47.1742208829559 3.85321928452827 2 0 1
3450 1 10.0037000785396 49.45950893270388 6.870614557857884 1 1 0
3895 1 10.205372910187464 1.9520776206578367 7.692670030878986 0 2 1
339 1 0.3941166821798525 41.384542131022776 14.365655675536614 0 0 0
1528 1 7.490122114606575 47.27843925566218 6.517800204347439 0 0 1
2112 1 7.094717027954737 49.44713741725841 8.432614668810373 1 0 -2
3097 1 11.273743194040684 6.523112869264276 6.776319595187289 0 0 0
1908 1 17.086752941102002 1.304676226104789 24.860475101416153 0 -1 -2
3282 1 13.362224748370695 3.6155185647459036 10.407852816690315 1 0 0
1199 1 12.566014719145107 0.30244022880627947 4.849808968143621 0 1 0
3795 1 4.472854870917228 50.671136341265786 4.464542527824351 0 -1 -1
408 1 5.479444870394853 2.6118684325484187 7.259787280865324 -1 1 1
4062 1 7.50462316017978 4.035410143210939 8.710031911687636 1 0 1
1198 1 10.433741380415487 3.7676694854784945 9.702532356671563 0 1 1
3941 1 12.156560527647619 9.332231823960349 5.930595601616572 0 0 2
937 1 1.0227294741401982 42.94448715883934 11.177453203491398 0 1 1
3412 1 3.264603658466767 4.756879722116735 7.790407065780639 3 0 1
3247 1 0.4162840317921954 16.460771677630976 11.000040750965955 1 1 -1
3858 1 4.82595010943789 9.153403810149612 9.529359268525942 1 1 1
3674 1 5.129673644576766 6.973271722648094 7.834055503324221 1 -1 -1
4246 1 11.179164054977269 6.750773352479906 9.701985547993562 1 0 1
2926 1 15.800148664895243 9.40433571829013 8.937953932848268 1 0 -1
2429 1 2.354079363516703 46.92174958969064 8.80779712179744 1 0 1
1776 1 5.892318540353231 10.405604879469717 12.274545708725668 1 1 0
3589 1 8.736522413674459 8.324062839118353 9.032776875047995 1 1 1
3362 1 14.517909917811227 18.458817462432933 0.6120420378450501 1 0 0
3295 1 15.883065055624517 13.191590563861563 6.770145678550154 -1 0 0
3187 1 5.53928707125825 16.107725378049253 10.052228400961653 1 1 1
2017 1 7.758396966084689 17.54198095523837 8.17665075198698 1 0 0
405 1 5.865267324518593 17.755672718655703 5.745581201481705 -1 1 0
3608 1 8.626775615433148 10.179457078513673 5.690010276326185 -1 0 0
316 1 9.462033206493093 15.29709336162476 8.377982538240744 1 0 0
2507 1 12.047168330484645 15.523127969331204 8.619189550073738 0 1 0
2220 1 15.181134099416294 11.18781929718387 5.198370516392711 1 0 1
3104 1 16.80984453676366 12.299396904629294 10.692420936160559 1 0 -1
868 1 7.7879389435461714 14.246016938816966 10.291601117684477 -1 0 1
4230 1 9.43136974590658 18.086032430703327 4.439347058360202 1 0 2
2342 1 14.496858224297709 15.377747206589842 7.108507407635222 0 1 1
4452 1 15.809706402825253 16.246503958977893 9.421742509986853 0 -1 -1
2388 1 11.338942321334875 50.249306149837665 1.7449142304275547 0 0 -1
3063 1 0.8782392520406921 45.06320979728576 19.656736103203343 1 0 0
3272 1 5.770092787407972 22.193496242792683 8.37029076108462 1 0 0
2483 1 8.661669313003436 22.340174772212578 9.200005233230875 0 0 0
322 1 15.234068329007213 21.076942991651787 12.122516265013328 -1 2 -1
3364 1 11.74605996277845 17.702265423402334 6.502749534209188 1 0 1
3074 1 7.056295001022884 3.524844757997749 1.1638407211394814 0 1 1
3305 1 15.1619620252266 47.27293467605512 23.732486568260207 1 -1 0
431 1 4.836259462372788 22.43087606171179 11.911443056434127 0 0 0
4359 1 4.336229460854671 25.21888230755481 9.804566463217588 0 2 0
1926 1 6.070838194452867 24.47847296676691 7.0433838975434435 1 0 0
2035 1 9.922872207168188 24.61244159169041 8.971396654087222 0 0 0
1849 1 14.655194272964609 23.22071582504772 7.580836177867759 1 1 1
2957 1 4.162731780205769 1.7275596277168987 13.189999642111102 1 0 0
2141 1 6.490771004429562 26.659986490476435 10.459054006268634 0 0 -1
3215 1 9.19672639431747 25.96616580383356 11.487923240371856 1 -1 1
188 1 13.053695455372752 25.407809001494737 8.944637137112394 0 -1 0
1863 1 11.17048092735635 24.871210007647182 6.129629078099459 -1 -1 0
4557 1 15.826933441402513 26.90995704816359 8.044304506799339 0 -1 0
3139 1 14.581124529180475 27.164534778073058 10.941742343413768 1 0 0
4004 1 4.705563065352313 25.225402199281902 12.838778546647161 0 0 1
377 1 3.6139665566961376 12.283748836645007 6.255967275620892 0 1 0
244 1 4.774165085769585 30.126120872721508 12.530509346055085 0 -1 -1
709 1 14.53399862712765 30.702201295137236 7.315654176177127 0 0 -1
145 1 3.3281741906898796 32.48802759968329 12.29871217791362 -1 0 0
2781 1 8.261563668566982 30.61554157495234 10.035025541927244 0 -1 1
3402 1 13.306135978317664 35.61065835259167 7.930833583990048 1 1 0
2294 1 0.03793221602867752 36.30753131713387 20.556349498909935 0 -1 0
3059 1 16.726802201218014 35.81123240342219 8.266649668911187 1 1 0
3413 1 13.660227688317919 44.28330643761784 24.980519748217798 0 0 0
3242 1 17.374935908085938 44.4337340326926 9.350425232662747 1 1 0
1009 1 2.099105306036696 35.24049770442803 10.800203957400512 1 -1 0
3171 1 3.015301164488042 36.9209665755859 6.842879449283809 0 0 0
4135 1 7.590024079579831 36.6075623102969 8.025112746245274 0 0 1
1599 1 6.4911969686975475 34.1595289202701 9.40771744496082 0 0 1
2167 1 8.257964824781283 32.44034967479488 11.809753153172588 1 0 0
4075 1 17.010692396148983 37.57929287808427 10.21887225490476 0 0 1
3472 1 0.018311270959614212 36.9895535486582 2.4704752972219244 1 0 1
3032 1 1.7765803067660086 43.92037579708188 0.9162463750533315 0 -1 1
3358 1 4.151352282883215 38.60321504920855 4.86085830530781 1 0 0
11 1 11.192728146595508 39.90605079159284 8.507577828844513 0 -2 0
1037 1 13.02194597195068 38.00524262552834 9.63701944114648 0 1 0
3301 1 16.710011773208873 39.979323074358184 9.441165993390157 0 0 0
4163 1 0.21699840164766204 34.87097107574403 6.4661006343077005 -1 -1 1
3449 1 3.0258885064587955 40.48910645202198 7.215611139021266 -1 0 1
992 1 5.468914156568112 40.80185332799248 9.202100175532214 0 0 1
1322 1 8.772107783160596 46.79565676555942 3.414242653716818 0 1 1
4053 1 10.681097714730567 44.996935060344654 7.605960266702776 0 -1 1
2148 1 10.416712423143009 39.565160904598635 4.992486514652168 0 0 1
4103 1 10.46650702672478 42.51722525440617 1.0053174244106615 1 -1 0
673 1 11.472454776781891 42.55326105503614 3.7236832047590993 0 0 0
55 1 -0.216013685553183 31.671597721101776 22.42872260101913 -1 1 1
3508 1 8.069459787721721 43.29103657472368 6.04085891487058 1 -1 0
82 1 2.184345214281987 48.62790732190012 5.628205430510221 -1 0 -1
1792 1 6.79300197541127 44.68855992090775 9.710430257203257 0 -1 -1
2629 1 11.16428513276143 41.63868622231488 10.623819570460807 2 0 1
2609 1 14.2109541850512 45.533684030378815 5.303224431825292 1 0 1
3767 1 13.884785633553863 48.869073845306175 8.232610354054938 1 0 1
2057 1 11.372519819563653 47.69765827985879 8.31244941984741 0 1 0
1836 1 3.0743567683127133 16.07905210978616 4.3784870296201195 0 0 1
1465 1 4.053249487892073 43.53610912898925 9.16710481900149 0 0 -2
1049 1 3.8074654870137703 47.23618729872723 6.7158895643169 0 -1 1
3547 1 4.416456985138459 50.32541931796131 7.315777354388207 2 -1 0
670 1 9.606140986801424 47.92662114319591 10.475377648753684 0 -1 0
1968 1 10.173153107200303 50.294853464022026 11.674157354576048 -1 0 -1
248 1 1.8247173443814688 38.6914499081643 23.38429687767846 1 1 0
874 1 17.520641350407665 43.975111483419255 22.733018373855497 0 0 1
754 1 2.9485779904874123 1.306550590076515 9.1065443648184 -1 1 0
127 1 7.102412356817644 1.7818069927420404 12.071709060624766 -1 0 0
236 1 9.77367386631745 3.4644780143373803 12.346613583529933 0 1 0
4204 1 12.007106385290932 50.334340667852466 15.266805176821448 0 0 0
2699 1 14.51065419470645 49.34419653325917 12.005192988841163 1 0 0
3519 1 3.6058557768733532 3.5616342289922085 10.530573003199192 0 -1 0
3006 1 7.445435759930382 6.310097630765345 7.668074263431957 0 -1 1
1935 1 10.014581430175783 6.306787948927324 12.430308831518174 0 0 0
3635 1 12.160091531975587 9.134998977885076 8.942207769229569 1 0 1
162 1 16.910876303823077 0.5510173170946515 11.613457853456673 0 1 0
3057 1 16.54919418414542 5.852967142249581 9.816285871433188 1 0 0
152 1 2.0820890356100534 33.408506890755476 5.656969561267078 0 -1 0
4420 1 1.5039148684911803 6.555016576160119 15.418257977008043 1 1 0
3117 1 1.6489775042552213 5.641081473203645 11.345114602547808 0 1 -1
2813 1 6.899587145318586 6.06203132691653 12.588895095038039 0 0 1
584 1 -0.1280536665960783 44.690447496373615 5.458315839648843 0 -1 1
540 1 15.803813287381818 29.96484144289936 24.200627651756466 0 1 1
1440 1 3.2668771527917446 10.363092088032309 14.610390338707093 1 1 -1
2378 1 6.742173368763261 11.16861136924334 14.716031120072806 0 0 0
150 1 7.716792737608816 8.647717817183254 11.436974892850712 1 1 0
1104 1 9.175042872073444 10.979670965732545 8.547259146945859 1 1 1
2171 1 9.981659537604802 12.23240766929195 4.481227638330187 -1 0 1
862 1 12.032249442539458 9.117820039033935 12.007206496323459 0 -1 1
760 1 12.448012831718305 12.119938627595246 5.4053855372349044 0 0 0
2438 1 14.483623698694524 11.871038683782569 8.99730163763217 1 0 0
3270 1 12.43455178248827 11.864020412068433 11.367315103078152 1 0 -1
1841 1 14.895511806522258 8.373778170313434 21.42957809863973 0 0 -1
176 1 11.765609214406998 12.452942272608993 7.960245842940995 1 -1 -1
1336 1 8.052906001538137 16.801373796569877 15.585570731637663 0 1 1
87 1 11.470908681429192 16.10985220540637 11.424334004916755 -1 -1 0
1546 1 14.811229931903824 16.127307924116028 14.854815535347726 1 0 1
4239 1 14.128890577913868 16.523267451135442 11.9834664452973 0 1 1
1483 1 4.1924716494714 13.552690476646237 3.3485272817131353 0 1 0
3446 1 6.32637019838305 19.28114354665832 10.114516335334464 1 0 1
1966 1 7.4837433721609 18.39982150286404 12.35469370259277 0 1 0
3963 1 7.127414633641815 15.277739965727157 13.05981384044483 1 0 0
554 1 10.186985943904597 19.53843829383357 8.236182521752564 -1 1 -1
3735 1 13.420911969881177 19.039723089565918 12.49556550257711 1 1 0
3799 1 0.022821723787698922 12.958112340764453 2.4759323274436498 1 0 0
1195 1 3.322399863976302 22.167491468712598 9.283442473182632 0 -1 1
2094 1 11.617589702070216 21.983651283927205 8.87062090611422 1 0 0
779 1 9.14173999054356 19.77301439962899 14.602980551467246 1 0 0
3867 1 1.4012790291871293 6.389320873386638 3.522506860490851 1 0 2
2648 1 -0.083947275679885 15.093722274781697 4.085712108620545 0 1 0
4492 1 0.5699619759609393 45.81779871655392 13.042736661520108 0 -1 0
4408 1 6.753699144802362 23.93556430887059 14.932456806947387 1 0 2
4296 1 11.84521800212559 21.63744813549516 11.564490729806801 0 0 1
4465 1 16.85364096307954 23.834975484724705 10.00540925556049 -1 2 1
3965 1 9.15782310273899 18.559668509613314 0.8629962753412085 2 0 0
2854 1 1.8034864759753906 24.479049390870085 13.3723606855164 0 1 0
1806 1 9.605804762893312 24.754940360012544 14.10766850305526 0 -1 -1
3875 1 13.703522237623542 23.71227673320742 11.312619552449492 0 0 1
117 1 12.635468699127417 26.37410616460153 15.176774947152653 -1 0 1
391 1 11.288866050082104 24.383769595971643 16.11216120220999 2 -1 0
483 1 2.8513927990794086 27.825981032452056 13.407344052299539 0 0 -1
3691 1 11.498078740641004 34.63018737014532 24.25067791109937 -1 -1 0
1388 1 1.4914130935478676 32.41285180424081 14.163758183412995 -1 -1 1
1496 1 12.406267163993556 29.270687347625994 9.969128417488001 0 -1 1
3046 1 10.190609232316262 28.740241994632786 11.392922454697395 0 1 0
3899 1 12.576781957135433 26.07349993915355 12.45385452994815 1 -1 1
4496 1 15.558506557766195 31.700073406436854 9.642908448269237 1 0 0
703 1 10.270363242901054 19.403089043709794 24.467729654452242 1 1 0
4281 1 5.973971974438707 40.80567753263062 24.932258504861316 1 0 -1
3308 1 5.652189739339799 33.88634690599389 12.217512331409479 0 -2 0
3470 1 7.2623895911411305 31.62713010384102 14.57489770776001 1 1 0
977 1 11.622496070404788 33.82238688131404 9.088608805683563 -2 1 1
3665 1 9.149923514424593 45.39313455457788 24.164742323380818 2 -1 -1
4580 1 8.790355046619421 38.300583536342444 9.642700612500034 1 0 1
792 1 10.196751327516855 34.40785644404417 11.160537524521255 0 -1 1
3945 1 17.513950609361896 48.09935984632766 6.357137328520637 1 -1 0
202 1 4.812194676225344 37.545036024307 8.536005143704267 0 0 -1
4231 1 9.72136939372664 36.71817364973522 11.58890338703057 1 0 1
3585 1 14.821573108667998 37.55017683395159 11.994277749044024 0 1 -1
110 1 11.654189036040881 38.776866265108836 12.432455861663366 1 1 0
1183 1 12.474364918030211 41.47665185075421 6.26798190043283 -1 0 -1
1292 1 11.785865973747342 14.94482927275574 23.725096393880236 1 1 0
2628 1 7.955137094526808 40.36741556357236 11.555653499584219 1 0 2
4175 1 2.401464382448714 40.537632773448564 10.467800879342679 0 0 0
900 1 2.9866246722553202 36.980591687779544 14.404461995205217 0 -1 0
2658 1 6.6471789015699425 37.37763809346492 5.471470597488996 0 1 1
1502 1 10.405384440643477 41.31541122295762 13.18536757997249 0 0 0
831 1 15.046747194678959 41.175684599323404 15.220606876908098 -1 0 2
4002 1 1.6294423085829213 13.563525495643239 10.38491503949123 1 -1 0
3859 1 6.5791956358110575 43.269317235252814 12.0071203977504 0 -1 0
829 1 8.128606490578598 41.50520939179761 8.258955689284537 -1 -1 0
3598 1 9.71753843276812 43.92014875755703 9.600799150435138 0 -1 0
885 1 12.950420666890269 42.63775371832411 13.831435054646162 1 0 0
450 1 13.595083334644807 43.83105154335532 7.50624348697069 -1 -1 0
1962 1 2.96650729088147 45.73244768291035 11.496345901619147 1 0 -1
3522 1 8.43327161230216 0.84702245139236 9.880798583668591 1 1 0
776 1 6.202059771848052 44.926596532518225 7.085422407404426 0 -1 0
4519 1 6.860407899836184 47.41691435792178 10.562479732848042 2 0 1
2620 1 10.340446017504284 45.40944407736797 11.988063341316133 1 -2 1
1148 1 12.874768171412114 0.8744572676216176 11.277510192972764 0 1 1
3014 1 17.379120907304433 17.408307243002312 11.663265535911822 1 0 1
412 1 8.069644546022735 35.32510775708213 23.415344554517404 -1 -1 0
37 1 6.110308340751014 4.18451686694091 10.966471986888873 0 -1 0
692 1 7.694600250534526 49.41759236568923 13.153868499037802 1 -1 -1
1914 1 12.955827608758165 5.909680407388335 12.27239073696504 0 0 -2
4598 1 0.9005824862597769 3.640803803062267 13.76507442823125 0 0 1
2386 1 6.225908702399538 5.080364415544335 15.142194835888981 1 0 -1
3896 1 9.543649796060429 6.6084322312581865 15.399033005288251 1 1 -1
1526 1 15.972532738422771 3.3624635153002305 11.712990371590038 -1 0 0
2351 1 15.825288341919016 4.235165841419307 14.358141362042605 1 1 1
4486 1 0.9769875950027027 48.99260659493329 9.442501578719616 2 0 1
4293 1 0.4797233879674696 9.67274724031253 13.433745317411063 0 1 0
1819 1 6.867447502650676 9.355503388336846 17.053727237875147 0 0 0
4482 1 13.601184856925345 6.3799125595400055 15.045829288025992 0 1 0
4483 1 9.555240683577212 9.783248825635946 12.939673035176023 1 0 0
4314 1 14.464039064191883 8.498804456165827 13.325783311267278 1 0 2
3223 1 7.1218132288584926 6.867406399707392 17.25693214525379 2 0 1
1293 1 9.760851122519293 12.195224570796888 11.514520183321938 0 0 1
2994 1 9.790363888163673 14.85868564283886 13.155782939013978 0 0 1
694 1 13.743353393730104 12.06711293554958 18.168675812046917 0 -2 0
1366 1 13.420842170391355 13.005761714735266 13.427191087363537 1 1 0
904 1 2.52313026203319 14.564962590027408 14.578406175736555 -1 -1 1
1696 1 17.31409820082152 25.473582081685823 23.065718540304225 0 -1 0
2023 1 3.8045178806258173 7.069532346476503 14.269108476067727 -1 0 -1
4013 1 7.980558517980505 10.65500040826978 19.447178008209242 1 0 0
4227 1 11.395656658040629 13.851725514474943 15.052637133394402 1 -1 0
3044 1 2.5552589867990636 18.427178101784804 12.413306644391628 0 1 0
1275 1 17.502654027311166 45.152976865931855 6.726594005343157 0 -1 0
2131 1 3.8715030560525268 16.178306758109947 12.72422335524176 -1 0 0
3477 1 10.31959069097532 18.94652444428163 11.528387339036605 0 0 0
640 1 13.128981879643275 19.06238537064269 15.256324959028069 -1 1 0
1514 1 16.070565286602932 14.273095949351752 16.8332658773055 1 1 0
265 1 5.516815298589659 20.21534557722329 14.417566486661704 -1 0 0
2163 1 5.1953152463888825 17.376754541595698 14.81934669853101 1 0 -2
2986 1 10.816741739180872 20.617328713651244 18.269347481883035 1 1 0
672 1 14.300495736378046 21.02008653850184 19.102323428695513 0 0 -1
1020 1 5.350812312310075 15.82285823367392 1.9063737854777725 -1 0 1
1339 1 3.2902143086865046 35.51271168252742 24.487771341532934 1 -1 0
1180 1 7.924094837374415 21.644491293125586 11.61173690198586 0 0 0
68 1 5.8511624933659805 21.944815778014117 19.482148407732442 0 -1 1
2358 1 10.01643851190314 22.06047057753821 13.044110771084107 0 0 1
665 1 15.151503799846335 26.218456293988854 15.993471155363451 0 1 1
4180 1 16.444137247576947 21.582144026949752 14.406134757639208 1 0 1
3150 1 1.854853525160249 48.18577902438432 2.783190598055032 1 0 1
3671 1 17.084075110693888 43.09170619824009 15.913507769716482 1 -1 1
2758 1 8.848654886218343 22.430320125200947 18.51524363176643 0 1 1
4275 1 7.703360784430397 26.113697058353104 16.522672892197644 0 1 1