
# Set production fixes - Nose/Hoover
#
fix                 2 all nph iso ${PRES} ${PRES} ${PCOUPL}
fix                 2 all nph iso 1 ${PRES} ${PCOUPL}
fix                 2 all nph iso 1 1 ${PCOUPL}
fix                 2 all nph iso 1 1 10000.0
fix                 3 all temp/csvr ${TEMP} ${TEMP} ${TCOUPL} 837492
fix                 3 all temp/csvr 277 ${TEMP} ${TCOUPL} 837492
fix                 3 all temp/csvr 277 277 ${TCOUPL} 837492
fix                 3 all temp/csvr 277 277 5000.0 837492

# Define Order parameter
#
compute             2 all orientorder/atom nnn NULL cutoff 3.5
thermo              200
thermo_style        custom step temp press vol etotal ke pe c_1[4]

# Run 1ns simulation
dump		    1 all custom 400 prod.${NAME}.dump id type x y z vx vy vz c_2[*]
dump		    1 all custom 400 prod.ice_277K_1atm_mW.dump id type x y z vx vy vz c_2[*]
run                 200000
Neighbor list info ...
  update every 1 steps, delay 0 steps, check yes
  max neighbors/atom: 2000, page size: 100000
  master list distance cutoff = 6.3065
  ghost atom cutoff = 6.3065
  binsize = 3.15325, bins = 18 16 16
  2 neighbor lists, perpetual/occasional/extra = 1 1 0
  (1) pair sw, perpetual
      attributes: full, newton on
      pair build: full/bin/atomonly
      stencil: full/bin/3d
      bin: standard
  (2) compute orientorder/atom, occasional, copy from (1)
      attributes: full, newton on
      pair build: copy
      stencil: none
      bin: none
Per MPI rank memory allocation (min/avg/max) = 5.839 | 5.839 | 5.841 Mbytes
Step Temp Press Volume TotEng KinEng PotEng c_1[4] 
       0    272.94631   -15.164195    140872.22   -48991.844    3748.2602   -52740.104   0.37981587 
     200    280.14881   -10.451028    140881.41   -48982.383    3847.1693   -52829.552   0.37757837 
     400    279.05708    43.518258    140923.19   -48976.054    3832.1769   -52808.231   0.36988251 
     600    275.69031   -27.430225    140941.76   -49012.523    3785.9426   -52798.466   0.35872584 
     800    275.90113   -8.2143503    140879.43   -49027.258    3788.8377   -52816.095   0.38976077 
    1000    275.01104    62.122148    140799.96   -49039.466    3776.6143    -52816.08   0.38508189 
    1200    271.55568    49.294902    140806.98   -49062.431    3729.1634   -52791.595   0.36818536 
    1400    274.19724   -29.981833    140901.15   -49053.897    3765.4388   -52819.336   0.39045255 
    1600     274.2915    -76.00972     140955.7   -49056.711    3766.7333   -52823.445   0.36271759 
    1800    272.54284   -24.393322    140881.49   -49062.343    3742.7196   -52805.062    0.3726043 
    2000    274.08664    85.726505    140734.56   -49018.697    3763.9199   -52782.617   0.39036766 
    2200    273.33503    48.924825    140788.14   -48989.456    3753.5984   -52743.054   0.37513649 
    2400    276.45856     -87.6007    141022.49   -49006.667    3796.4926    -52803.16   0.36012385 
    2600    271.39756   -141.65608    141036.56   -49047.747    3726.9919   -52774.739   0.37018344 
    2800    272.87734      95.5112    140743.04   -49063.304    3747.3132   -52810.617   0.39504877 
    3000    275.10016    164.04718    140599.23   -49075.123    3777.8382   -52852.961   0.38199199 
    3200    277.79616    17.790839    140893.26    -49024.16    3814.8614   -52839.021   0.37507467 
    3400    268.87184   -223.28349    141201.28   -49060.846    3692.3072   -52753.153   0.37395934 
    3600    271.81996   -50.131748    140951.29   -49087.399    3732.7925   -52820.191   0.35332243 
    3800    276.85488    273.79989    140466.44   -49016.995    3801.9351    -52818.93   0.41167688 
    4000    272.19738    122.09679    140640.32   -49012.595    3737.9756   -52750.571   0.40199538 
    4200    270.97895   -238.82041    141254.36    -49027.42    3721.2433   -52748.663   0.35254736 
    4400    277.04372   -206.78406     141281.4   -49014.143    3804.5284   -52818.671   0.37037909 
    4600    274.29802    124.56562    140681.72   -48995.147    3766.8228    -52761.97    0.3976522 
    4800    279.52851    245.07751    140437.03    -48987.33     3838.651   -52825.981   0.40649356 
    5000    274.92866    -62.66219    141009.32   -48969.106    3775.4831    -52744.59   0.37606726 
    5200    278.32195   -295.44175    141468.35    -48969.64    3822.0817   -52791.722   0.34658042 
    5400     276.3884     -77.2708    141080.08   -48931.901    3795.5291    -52727.43    0.3758521 
    5600    283.57317    305.20312    140511.54   -48915.982    3894.1946   -52810.177   0.38921049 
    5800    279.01257    169.02223       140706    -48906.93    3831.5657   -52738.496   0.40262599 
    6000    278.77382   -209.74271    141337.16   -48893.906    3828.2871   -52722.193   0.35779907 
    6200    282.16952   -229.85031    141333.91   -48887.402    3874.9188   -52762.321   0.34519779 
    6400    284.29625    160.10496    140711.75   -48856.723    3904.1244   -52760.848   0.40729424 
    6600    279.41814    225.14187    140533.68   -48894.705    3837.1353    -52731.84   0.38421337 
    6800    278.06686   -60.374031    141053.77   -48933.987    3818.5786   -52752.565   0.37134556 
    7000    277.09623   -210.05908    141365.14   -48935.004    3805.2495   -52740.254   0.36859414 
    7200    283.59058   -41.003557    141035.83   -48886.305    3894.4336   -52780.739   0.37118962 
    7400    277.75447    202.42734    140632.52   -48870.894    3814.2887   -52685.183    0.3932254 
    7600    285.60789    116.94291    140781.57   -48904.261    3922.1366   -52826.398   0.38461337 
    7800     278.5581    -123.9054    141183.16   -48930.724    3825.3246   -52756.049   0.36379154 
    8000    278.51757   -137.92227    141148.15   -48897.554    3824.7682   -52722.322   0.36988258 
    8200    275.67712    135.01244    140728.63   -48931.363    3785.7613   -52717.125   0.39815398 
    8400    281.50146    173.18929    140615.78   -48956.444    3865.7446   -52822.189   0.41083979 
    8600    275.97401   -4.5947683    140936.55   -48916.298    3789.8385   -52706.136   0.36104952 
    8800     282.2851    -134.1542    141201.53   -48848.765    3876.5061   -52725.271    0.3670614 
    9000    285.11428   -51.327914    141020.07   -48829.059     3915.358   -52744.417   0.37578344 
    9200    281.84518    99.914699    140674.57   -48813.989    3870.4649   -52684.454   0.38832532 
    9400     280.4799    104.58152    140742.16   -48862.232    3851.7159   -52713.948   0.40434867 
    9600    280.68804   -69.840924    141131.37   -48852.394    3854.5744   -52706.969    0.3581586 
    9800    274.98682   -163.09231    141260.22     -48868.4    3776.2817   -52644.682   0.36019821 
   10000    277.99817    5.3534706    140946.66   -48864.417    3817.6355   -52682.052   0.38402921 
   10200    285.84314    130.69108    140720.32   -48858.208    3925.3672   -52783.575   0.38043867 
   10400    278.90527    20.263021    140926.36    -48846.17    3830.0922   -52676.262   0.38257502 
   10600    279.57844   -152.31645    141238.43   -48829.438    3839.3367   -52668.775   0.35855051 
   10800    282.55224   -72.832954    141148.71   -48859.855    3880.1747   -52740.029   0.37018201 
   11000    277.14168    74.745539    140801.63   -48900.017    3805.8736   -52705.891    0.3768115 
   11200     280.7975    152.26018       140738   -48917.313    3856.0775   -52773.391   0.37315868 
   11400    271.40261   -77.158707    141038.77   -48943.557    3727.0613   -52670.618    0.3861153 
   11600    278.36783   -121.72175    141192.49   -48914.874    3822.7118   -52737.586    0.3456397 
   11800    275.94881   -16.409921    140959.75   -48984.629    3789.4925   -52774.122   0.38773176 
   12000    276.38879    171.32302    140692.81   -48985.792    3795.5345   -52781.327   0.39590282 
   12200    279.88817     107.9202    140837.52   -48968.138    3843.5901   -52811.728   0.35978514 
   12400    278.91334   -103.26974    141210.77   -48937.852    3830.2031   -52768.055   0.35643208 
   12600    282.46096   -138.39699    141249.49   -48948.755    3878.9211   -52827.676   0.34691671 
   12800    278.86399    39.273948    140873.92   -48958.713    3829.5253   -52788.238   0.36595468 
   13000    274.56112    154.96993    140639.38   -48939.564    3770.4358       -52710   0.39606925 
   13200    274.86773    10.149276    140909.03   -48913.516    3774.6463   -52688.163   0.38158987 
   13400    280.05439   -140.10978    141243.67   -48931.259    3845.8726   -52777.132   0.35090371 
   13600    275.84439   -83.088924    141148.88   -48922.117    3788.0584   -52710.175   0.35977215 
   13800    281.19642    98.955131    140743.63   -48917.142    3861.5556   -52778.698   0.39981089 
   14000    283.46787    181.36498    140672.31   -48937.162    3892.7486    -52829.91   0.38044216 
   14200    278.56303   -100.45509    141070.35   -48962.266    3825.3924   -52787.658   0.36638453 
   14400    281.72216   -144.94083    141250.29    -48985.49    3868.7755   -52854.265   0.36666742 
   14600    274.02544    36.835157    140907.57   -48980.228    3763.0796   -52743.307   0.36178018 
   14800    276.91076    187.84072    140622.15   -48964.128    3802.7025    -52766.83   0.39570526 
   15000    273.80821    45.392358    140857.91   -49015.591    3760.0964   -52775.687   0.38699249 
   15200    276.62035   -144.04884    141190.59   -49066.842    3798.7143   -52865.556    0.3505999 
   15400    271.74953   -116.64237    141034.91   -49081.677    3731.8253   -52813.502   0.37499414 
   15600    273.31974     124.6859    140625.56   -49116.123    3753.3884   -52869.511   0.39677257 
   15800    274.32626    164.31892    140630.57   -49071.154    3767.2106   -52838.365   0.37955749 
   16000    274.52718   -104.48883    141067.17   -49058.926    3769.9697   -52828.896    0.3614228 
   16200    276.13917   -174.44406    141221.49    -49007.57    3792.1065   -52799.676    0.3522229 
   16400    276.38765    11.838293    140863.17   -49004.274    3795.5188   -52799.792   0.36805704 
   16600     276.8229    163.46224    140625.11   -49021.255    3801.4959   -52822.751   0.37935195 
   16800     277.3276    12.814599    140900.44   -48978.131    3808.4267   -52786.558   0.37924657 
   17000    277.29211   -191.64084     141217.3   -48999.666    3807.9394   -52807.606   0.36095933 
   17200    275.82011   -64.190449    141063.94   -48982.016     3787.725   -52769.741   0.35421736 
   17400    274.25819    155.01236    140696.29   -49026.153    3766.2758   -52792.429   0.38420095 
   17600     275.1854    108.18901    140675.94   -49062.174    3779.0088   -52841.183   0.37185895 
   17800    276.11132   -77.562093    140995.75    -49080.51    3791.7241   -52872.234   0.36107982 
   18000      275.315   -121.43842    141094.63     -49110.4    3780.7885   -52891.188   0.37211436 
   18200     269.9095     35.94444    140801.65   -49135.257     3706.557   -52841.814   0.36968398 
   18400    271.89665    167.88375    140583.45   -49154.486    3733.8458   -52888.332   0.38540985 
   18600    271.93051   -14.828082    140783.05   -49113.578    3734.3107   -52847.888   0.38247992 
   18800    272.77947   -108.70048     141042.4   -49050.391    3745.9692    -52796.36   0.35762535 
   19000    272.08712    -77.95941    140974.51   -49075.902    3736.4614   -52812.363   0.36683593 
   19200    275.69365    109.03548    140700.39   -49051.492    3785.9884    -52837.48   0.37949341 
   19400    271.21861    86.937618    140722.99   -49042.285    3724.5345   -52766.819   0.39227763 
   19600    272.31969   -82.151955    141042.65   -49070.011    3739.6552   -52809.666   0.35028424 
   19800    269.01239   -126.46771    141109.48   -49066.563    3694.2374   -52760.801   0.36712171 
   20000    269.89258    40.522186     140829.8   -49053.671    3706.3247   -52759.996     0.381269 
   20200    275.26784    151.35517    140621.34   -49077.674    3780.1409   -52857.815   0.37123067 
   20400    272.74131    51.165616    140782.37   -49058.063    3745.4451   -52803.508   0.39588142 
   20600    273.28383   -122.83095    141097.69   -49054.955    3752.8953   -52807.851   0.36459326 
   20800    270.20422   -108.31535    141025.06    -49056.62    3710.6043   -52767.225    0.3606911 
   21000    277.61003    106.61598    140682.33   -49051.896    3812.3052   -52864.202   0.39092019 
   21200    275.48909    102.69918       140650   -49042.976    3783.1792   -52826.155   0.38545296 
   21400    273.68615   -67.163961    140995.22     -49038.7    3758.4202   -52797.121   0.36932887 
   21600    274.02743   -169.60173    141221.39   -48997.362    3763.1069   -52760.469   0.35977908 
   21800    276.09704   -39.214179    140975.18   -48951.095     3791.528   -52742.623    0.3718797 
   22000    278.14619    150.63897    140636.05   -48957.361    3819.6681   -52777.029   0.39498371 
   22200    281.19453    70.927281    140780.12   -48919.154    3861.5298   -52780.684    0.3822731 
   22400     278.0456   -143.07856    141246.17   -48896.418    3818.2867   -52714.705   0.36356111 
   22600    277.29063   -176.52306    141314.99   -48901.908    3807.9191   -52709.827   0.35385386 
   22800    275.96951    80.221896    140817.78   -48937.728    3789.7767   -52727.505   0.37926185 
   23000    281.62316     214.2203     140530.6   -48954.995    3867.4159   -52822.411   0.39277291 
   23200    277.21913   -27.823555     140933.9    -48950.47    3806.9372   -52757.407    0.3717175 
   23400    273.41012    -233.0868    141401.64   -48956.811    3754.6296   -52711.441   0.35210722 
   23600    276.78667   -129.80195    141075.65   -48972.201    3800.9984   -52773.199   0.35913453 
   23800     276.8971      290.849    140424.49   -48912.996    3802.5149   -52715.511   0.41122718 
   24000    280.94667    206.23432    140578.09   -48951.024     3858.126    -52809.15   0.39371419 
   24200    278.34827   -235.74701    141326.74   -48933.464    3822.4432   -52755.907   0.34160701 
   24400    271.09541   -259.11657    141421.35   -48936.547    3722.8426    -52659.39   0.36282967 
   24600    272.14911    132.47264    140663.54   -48936.416    3737.3127   -52673.729   0.38592605 
   24800    282.37648    352.47262    140334.37   -48863.768    3877.7609   -52741.529   0.39923023 
   25000      278.775   -74.814607    140997.94    -48864.04    3828.3034   -52692.344   0.38455139 
   25200    278.57477   -313.27435    141510.36   -48883.835    3825.5536   -52709.389   0.33621589 
   25400    275.40782    -92.54725    141051.59   -48943.844    3782.0632   -52725.907   0.37668918 
   25600    280.45369    329.72939    140387.84   -48964.472    3851.3561   -52815.828   0.41183368 
   25800     279.6349    166.66924    140575.02   -48944.977    3840.1119   -52785.089   0.39289905 
   26000    274.66182   -219.42179    141273.68   -48923.891    3771.8187    -52695.71   0.35761413 
   26200    273.74603    -230.2636    141314.54   -48966.301    3759.2426   -52725.544   0.34967396 
   26400    279.08789    118.16007    140675.59    -48989.16    3832.6002    -52821.76   0.39087562 
   26600    275.25703    257.74856    140444.73   -48998.324    3779.9925   -52778.317   0.39664356 
   26800    279.27234   -50.609082    140950.79   -49004.996     3835.133   -52840.129   0.38321098 
   27000    273.98014   -227.18175    141290.01   -49003.661    3762.4574   -52766.119   0.35210891 
   27200    273.39166   -36.534735    140949.23   -48997.292    3754.3761   -52751.668   0.35319281 
   27400    276.34437    221.31811    140549.28   -48964.473    3794.9244   -52759.397   0.40528392 
   27600    277.22459    77.888535    140742.15   -48970.301    3807.0122   -52777.314   0.37535598 
   27800    275.23573   -171.70948    141206.97     -48966.8       3779.7     -52746.5   0.35872796 
   28000    273.52053   -153.40684    141216.82   -48955.848    3756.1458   -52711.994   0.37430157 
   28200    278.42365    97.068643    140820.37   -48973.648    3823.4784   -52797.126   0.35975105 
   28400    275.33517    134.25066    140675.97   -48970.056    3781.0655   -52751.122   0.39464439 
   28600    277.18602   -10.132531    140957.86   -48990.734    3806.4825   -52797.217   0.37048994 
   28800    272.92793   -176.26547    141176.14   -49000.916    3748.0078   -52748.923    0.3513346 
   29000     275.5397   -34.320464    140972.21   -49035.977    3783.8742   -52819.851   0.37111545 
   29200    274.94191    104.62773    140663.12   -49071.394    3775.6651   -52847.059    0.3917114 
   29400    273.76372    49.942924    140704.16   -49071.104    3759.4854   -52830.589   0.39396682 
   29600    273.03886   -104.32927    140979.58   -49033.624    3749.5312   -52783.155   0.37106446 
   29800    278.27401   -114.05817    141085.69   -48959.271    3821.4235   -52780.694   0.36261324 
   30000    279.75441    11.730217    140884.61   -48949.869    3841.7532   -52791.622   0.36764656 
   30200    279.81397    124.43432    140710.07   -48958.542    3842.5711   -52801.113   0.37295263 
   30400    278.72095    -10.50272    140836.39   -49008.956    3827.5611   -52836.517   0.38836894 
   30600     278.7834   -66.718955     141038.1   -48958.225    3828.4187   -52786.644   0.36912512 
   30800    280.38819   -7.9787837    141002.41   -48926.982    3850.4566   -52777.439   0.36983498 
   31000    282.75097    79.448171    140832.85   -48914.255    3882.9037   -52797.158   0.38088762 
   31200    280.99179    54.235971    140804.66   -48916.151    3858.7456   -52774.896   0.37204276 
   31400    285.51718    39.472258    140979.01   -48914.401    3920.8909   -52835.292   0.36070961 
   31600    275.02048   -111.29437    141098.32   -48973.545     3776.744   -52750.289   0.36061365 
   31800    276.42964     -18.1814    140954.38   -48946.379    3796.0954   -52742.475   0.37504039 
   32000    274.99848    65.421752    140743.41   -48918.323    3776.4418   -52694.765   0.38130091 
   32200    280.00624    54.550505    140809.12   -48951.965    3845.2115   -52797.176   0.38587512 
   32400    274.04629   -82.652263    141040.31   -48946.246    3763.3659   -52709.612   0.37281539 
   32600    273.96137   -45.713074    141100.49   -48931.358    3762.1997   -52693.558   0.35667476 
   32800      273.352    12.787701    140894.11   -48927.622    3753.8314   -52681.454   0.39500696 
   33000    278.99875     92.27897    140763.29   -48918.797    3831.3759   -52750.172   0.38735221 
   33200    280.79387    27.746876    140958.63   -48913.825    3856.0276   -52769.853   0.35718709 
   33400    280.22337   -112.82638    141151.77   -48877.014    3848.1932   -52725.208   0.36815181 
   33600    281.09114    6.6919881    141022.55   -48812.262    3860.1099   -52672.372   0.36643992 
   33800    282.73419    83.501989    140808.05   -48846.858    3882.6732   -52729.531   0.37701647 
   34000    281.39347    31.372172    140846.14   -48867.777    3864.2617   -52732.039   0.38677299 
   34200    279.79909   -51.634593    141079.82   -48897.866    3842.3667   -52740.233    0.3614108 
   34400    280.98854   -133.35495    141113.38   -48960.751    3858.7009   -52819.452   0.35147048 
   34600    276.55405    62.763411    140786.09   -48934.854    3797.8038   -52732.658   0.38173317 
   34800    276.91403    151.34385    140632.48   -48974.798    3802.7474   -52777.545   0.39397497 
   35000    279.81362   -8.0275448    140941.39   -48999.812    3842.5662   -52842.378   0.35996027 
   35200    278.06405   -187.63518    141248.75   -48987.006    3818.5401   -52805.546   0.35145397 
   35400     276.2695   -14.209033    141025.93   -48949.811    3793.8963   -52743.707   0.36565814 
   35600    283.31176    208.66894    140656.82   -48944.712    3890.6048   -52835.317   0.37769337 
   35800    276.93472    49.582791    140804.27   -48947.761    3803.0315   -52750.792   0.39117372 
   36000    278.73625   -117.94178    141233.06    -48947.54    3827.7711   -52775.311    0.3622412 
   36200    277.40214   -159.79773    141214.69   -48961.406    3809.4504   -52770.857   0.34989332 
   36400    274.12278    108.16537    140737.19   -48987.012    3764.4162   -52751.428   0.37989945 
   36600    280.96407    235.34337    140563.44   -48964.162    3858.3649   -52822.527   0.39007651 
   36800    273.23174   -57.155054    141030.88   -49007.328    3752.1799   -52759.508   0.36655807 
   37000    275.13329   -207.40477    141353.67   -48996.103    3778.2932   -52774.396   0.34333118 
   37200    278.84151    3.8182717    141012.21   -48960.322    3829.2166   -52789.538   0.35804345 
   37400    278.49046    211.70091     140616.7   -48953.148    3824.3958   -52777.544    0.3957029 
   37600    279.79305    60.185276    140847.14   -48981.657    3842.2838   -52823.941   0.37141587 
   37800    275.63882   -197.02745    141299.84   -48947.795    3785.2355    -52733.03   0.35784181 
   38000    273.15448     -105.125     141212.9   -48998.386     3751.119   -52749.505   0.36755435 
   38200    277.71087    155.56837     140729.1   -48993.522      3813.69   -52807.212   0.36598431 
   38400    274.31415    184.47792    140613.74   -48961.122    3767.0443   -52728.166   0.38326224 
   38600    278.96369   -124.26765    141048.04   -48959.771    3830.8946   -52790.665   0.37863192 
   38800    274.35852   -211.28116    141311.38   -49006.855    3767.6536   -52774.509   0.34808138 
   39000    276.79482   -50.769727    140965.16   -49033.152    3801.1103   -52834.262   0.37070207 
   39200    275.07525     208.6811    140533.27   -49052.129    3777.4961   -52829.625    0.3911323 
   39400    272.83144     104.8582    140727.34   -49043.805    3746.6828   -52790.487   0.37803013 
   39600    272.95794   -194.05419     141205.2   -49110.517      3748.42   -52858.937   0.34644716 
   39800    271.15069   -144.69904    141141.04   -49098.342    3723.6018   -52821.944   0.35476754 
   40000    270.50864    130.10748    140613.91   -49109.618    3714.7847   -52824.403   0.38635288 
   40200    276.82024    211.51606    140508.77   -49087.163    3801.4593   -52888.622   0.37831945 
   40400    277.92013   -64.985038    141049.07    -49084.46    3816.5637   -52901.024   0.36147185 
   40600    273.00076   -259.73761    141351.98   -49108.352     3749.008    -52857.36    0.3435444 
   40800    276.64174   -3.1127376    140871.37   -49125.778    3799.0081   -52924.786   0.36227215 
   41000    274.97755    234.10665    140405.72   -49083.598    3776.1545   -52859.753   0.40831901 
   41200    274.02772    117.21371    140687.81   -49116.341    3763.1109   -52879.451   0.38093937 
   41400    272.00508   -160.26776    141247.47   -49081.566    3735.3348   -52816.901   0.34479148 
   41600    274.30086    -152.9718    141202.53   -49076.029    3766.8618   -52842.891   0.34930556 
   41800    273.20561    113.30806    140683.83   -49075.734    3751.8211   -52827.555   0.37777992 
   42000    276.03731    173.45528    140564.79   -49050.166    3790.7077   -52840.874   0.38653446 
   42200    276.22923   -73.420146    141012.38   -49076.476    3793.3433   -52869.819   0.35774473 
   42400    272.43846   -173.79702     141231.3    -49122.86    3741.2862   -52864.146   0.35385729 
   42600    269.04704   -52.511111    140878.46   -49147.817    3694.7132    -52842.53   0.37352428 
   42800    272.44308    229.95793    140544.88   -49149.309    3741.3497   -52890.659   0.37842397 
   43000    272.16654    94.979374    140762.43   -49106.788     3737.552    -52844.34   0.38726722 
   43200      276.282   -119.42749    141152.19   -49110.802     3794.068    -52904.87   0.35388634 
   43400    276.58305   -127.75205    141100.65    -49102.47    3798.2022   -52900.672   0.35768285 
   43600    273.61578     59.26098    140789.74   -49098.434    3757.4538   -52855.888   0.37245779 
   43800     271.9277    84.583015    140733.16   -49073.774    3734.2721   -52808.046   0.37075689 
   44000    275.60624   -55.568596    140944.71   -49091.141    3784.7881   -52875.929   0.37708793 
   44200    273.65183   -81.299683    141023.55   -49131.906    3757.9489   -52889.855   0.36971355 
   44400    270.40094    26.097395    140870.06   -49106.219    3713.3057   -52819.524   0.36399297 
   44600    272.14633    77.297391    140744.19   -49046.579    3737.2745   -52783.853   0.38862614 
   44800    277.95199    45.474447       140869   -49013.934    3817.0013   -52830.936   0.38011809 
   45000    270.94776   -120.86793     141056.5   -49048.868    3720.8151   -52769.683   0.37115406 
   45200    272.76037   -84.096485     140998.9   -49067.649    3745.7069   -52813.356   0.37497928 
   45400    273.38112    91.795542    140745.34   -49113.779    3754.2314   -52868.011   0.37552823 
   45600     270.8837    83.555674    140696.59   -49101.787    3719.9353   -52821.722   0.38036634 
   45800    276.11493   -24.991357    140939.13    -49077.43    3791.7736   -52869.204   0.36522662 
   46000    276.18398   -109.04645    141090.02   -49073.613    3792.7219   -52866.335   0.36137477 
   46200    273.88891   -21.560448    140910.12   -49105.073    3761.2047   -52866.278   0.37419739 
   46400    268.26645    130.73743    140674.82   -49087.803    3683.9936   -52771.797   0.37963836 
   46600    273.17638    74.394224    140757.75   -49086.249    3751.4197   -52837.669   0.37636809 
   46800    273.88476   -107.36797    141015.52   -49052.371    3761.1476   -52813.519    0.3735484 
   47000    276.02853   -102.74625    141064.44   -49031.546    3790.5871   -52822.133   0.35741432 
   47200    280.60662    55.989307    140865.25   -49004.116    3853.4562   -52857.572   0.37402278 
   47400    279.19551    140.36682    140764.07   -48938.126     3834.078   -52772.204   0.37705436 
   47600    279.70571    13.477245    140956.89   -48912.772    3841.0844   -52753.857   0.35211297 
   47800    275.50374   -149.65288    141147.29   -48883.271    3783.3804   -52666.651    0.3728239 
   48000    278.76807   -81.563162    141058.68   -48885.883    3828.2082   -52714.091    0.3778032 
   48200     276.7342    76.502371    140806.17   -48885.703    3800.2779    -52685.98   0.36868611 
   48400    280.73167    86.545436    140783.32   -48867.668    3855.1734   -52722.841   0.38124097 
   48600    277.75868   -56.705137    141048.28   -48928.768    3814.3467   -52743.114   0.37143449 
   48800    279.62658   -122.43268    141135.99   -48871.925    3839.9978   -52711.923   0.35632136 
   49000     278.2737    18.230763    140903.48    -48850.44    3821.4191   -52671.859   0.37719463 
   49200    280.22612    119.11141    140701.55   -48881.911     3848.231   -52730.142   0.39640455 
   49400    281.44269    47.472548    140870.47    -48891.88    3864.9375   -52756.818   0.36948299 
   49600    279.05779   -125.92166    141202.81   -48908.392    3832.1868   -52740.579   0.35511122 
   49800    278.16719   -120.21633    141151.79   -48889.149    3819.9565   -52709.105   0.37859809 
   50000    283.22458    125.43017    140780.95     -48890.6    3889.4076   -52780.007   0.38008193 
   50200    280.56741    142.97228    140717.84   -48926.748    3852.9177   -52779.666   0.38349846 
   50400    276.24208   -118.40637    141090.66   -48931.295    3793.5197   -52724.815   0.37225701 
   50600    278.39181   -202.64179    141289.75   -48950.357    3823.0411   -52773.398   0.33345562 
   50800    281.98371    34.970656    140919.29   -48961.494    3872.3673   -52833.861   0.36768661 
   51000    278.64294    219.37907    140550.67   -48899.772    3826.4898   -52726.262   0.40534898 
   51200    275.89462    64.128077    140822.54   -48930.389    3788.7483   -52719.137   0.37252254 
   51400    279.51727   -213.53522    141366.85   -48893.944    3838.4966   -52732.441   0.35101035 
   51600    279.70539   -156.95343       141292   -48893.974      3841.08   -52735.054   0.35132101 
   51800    278.99458    125.85247    140639.02   -48890.511    3831.3187    -52721.83    0.3889497 
   52000    282.43997    326.28587    140472.15   -48853.803    3878.6328   -52732.436   0.39101762 
   52200    280.61651   -83.128448       141169   -48828.396    3853.5921   -52681.988   0.36616138 
   52400    285.08948   -326.25649    141617.21   -48808.413    3915.0174    -52723.43   0.33560282 
   52600    279.22178   -68.033981     141063.8   -48845.677    3834.4388   -52680.116   0.35775839 
   52800    279.94471    296.58978    140398.09   -48862.936    3844.3665   -52707.302   0.41507377 
   53000    282.28912    141.50686    140664.46   -48870.016    3876.5613   -52746.577   0.38939256 
   53200    278.51374   -265.40202    141385.32   -48877.513    3824.7156   -52702.229   0.34977631 
   53400    275.91384   -233.79309    141376.97   -48903.141    3789.0122   -52692.154   0.35545688 
   53600    278.65468    111.04456    140659.95   -48928.781    3826.6511   -52755.432    0.3872228 
   53800    275.59625    255.12612    140445.62   -48905.741    3784.6509   -52690.392   0.40846075 
   54000    278.11303   -34.867862    141032.07   -48898.942    3819.2128   -52718.155   0.36231103 
   54200    274.24143   -275.37953     141437.4   -48903.811    3766.0456   -52669.856    0.3459785 
   54400    272.41564   -65.726798    141015.46   -48929.396    3740.9728   -52670.369   0.37381642 
   54600    280.07924    256.36033    140432.87   -48924.796    3846.2139    -52771.01    0.3947082 
   54800    283.88257    185.10598    140669.58   -48871.843    3898.4434   -52770.287   0.39376478 
   55000    286.02715   -215.77416    141347.89   -48874.297    3927.8942   -52802.191   0.35819796 
   55200    278.01056   -209.89193    141397.55   -48901.388    3817.8056   -52719.193   0.33963223 
   55400    279.89281    107.21795    140764.11   -48924.985    3843.6538   -52768.639   0.38637729 
   55600    275.95939    229.70557    140455.58   -48959.907    3789.6377   -52749.545   0.40890223 
   55800    281.58189    6.8005952    140910.82   -48936.055    3866.8491   -52802.904   0.37034351 
   56000    275.70421   -214.25037    141368.83   -48919.514    3786.1334   -52705.647   0.35296077 
   56200    274.79041   -90.749921    141116.23   -48952.683    3773.5846   -52726.268   0.37506699 
   56400    278.01967    186.44717    140604.71   -48955.953    3817.9307   -52773.884   0.38904056 
   56600    276.63021    148.12094    140634.57   -48959.735    3798.8498   -52758.585   0.38737554 
   56800    277.77013    -118.7873    141097.25   -48912.796    3814.5038     -52727.3   0.38137171 
   57000    279.05769   -146.27193    141263.46   -48919.066    3832.1854   -52751.252   0.34831673 
   57200    277.66531    20.700221     140925.5   -48946.801    3813.0644   -52759.866     0.363926 
   57400    282.04968    172.10405    140629.05   -48965.299    3873.2731   -52838.572   0.39622101 
   57600    276.16603    53.033744    140796.68   -48955.732    3792.4754   -52748.208   0.37379853 
   57800    281.34301   -155.03461    141125.21   -48967.187    3863.5687   -52830.756   0.36460294 
   58000    273.42374   -83.097032    141048.36   -48978.838    3754.8167   -52733.655   0.36555737 
   58200    276.75751    94.104209    140715.31   -49017.498     3800.598   -52818.096   0.37045055 
   58400      279.369    108.67686    140700.18   -49010.936    3836.4604   -52847.396   0.38775478 
   58600    274.28643   -73.351109    141014.37   -48991.192    3766.6636   -52757.856   0.37486908 
   58800      272.367   -149.72871    141123.52   -49021.143    3740.3049   -52761.448   0.36231198 
   59000    276.62964    22.241194    140801.33   -49043.485    3798.8419   -52842.327   0.37645703 
   59200    273.37301    154.42558    140554.16   -49043.414      3754.12   -52797.534   0.39596339 
   59400    277.43795    12.074614    140816.54   -48989.421    3809.9421   -52799.363   0.37440606 
   59600    280.80203   -140.60772    141147.11   -48983.928    3856.1396   -52840.067   0.35325276 
   59800    277.10276   -112.87611    141027.22   -48970.484    3805.3392   -52775.823   0.38556282 
   60000    278.56225    125.06186    140677.35   -48958.271    3825.3816   -52783.653   0.37661987 
   60200    278.52249     92.17383    140717.29    -48932.51    3824.8357   -52757.346   0.37999002 
   60400    277.68505   -86.983139    141061.71   -48901.956    3813.3354   -52715.291   0.37872222 
   60600    281.81927   -138.31763    141147.81   -48938.784     3870.109   -52808.893   0.35195621 
   60800    279.51468    42.029283    140874.71   -48878.903     3838.461   -52717.364   0.38593743 
   61000    282.50662    151.21564    140715.88   -48918.329    3879.5481   -52797.877   0.38936322 
   61200    277.33995    -9.350021    140924.19   -48921.646    3808.5963   -52730.242   0.37674691 
   61400    277.28715   -134.46492    141119.67   -48919.004    3807.8713   -52726.875   0.36664494 
   61600    281.90743   -7.1665455    140990.32   -48911.324    3871.3197   -52782.644    0.3671438 
   61800    279.83951    81.602649    140772.39   -48911.742    3842.9218   -52754.664   0.39555376 
   62000    278.45225    56.133097    140809.03   -48935.446    3823.8711   -52759.317   0.36784554 
   62200    281.22113   -68.930636    141040.61   -48946.713    3861.8951   -52808.608   0.37714545 
   62400    277.50859   -89.688618    141100.02   -48908.217    3810.9122   -52719.129   0.38660551 
   62600    275.05899   -2.4071613    140858.84   -48927.899    3777.2729   -52705.172   0.36067858 
   62800    279.84355    134.90045    140667.53   -48906.749    3842.9773   -52749.727   0.40403082 
   63000    282.24591    23.621913    140905.01   -48875.613    3875.9679   -52751.581   0.38176949 
   63200    278.86474   -175.21924    141287.11     -48879.1    3829.5357   -52708.636   0.34349531 
   63400    281.26246   -104.24027     141180.3   -48837.437    3862.4626   -52699.899   0.37283381 
   63600    284.58959    100.90313    140733.35   -48819.711    3908.1527   -52727.864    0.3811086 
   63800    280.32742    204.26643    140681.43   -48848.023    3849.6221   -52697.646   0.38246234 
   64000    281.49305   -104.28642    141174.25    -48842.15    3865.6292   -52707.779     0.363825 
   64200    280.96574   -270.97431       141418   -48842.757    3858.3878   -52701.144   0.35519649 
   64400    279.66444     8.294057    140903.44   -48829.559    3840.5176   -52670.076   0.37434404 
   64600    279.74427    299.05764    140407.39   -48881.497    3841.6139   -52723.111   0.39589142 
   64800    280.10388     89.50131     140780.1   -48893.869    3846.5523   -52740.421   0.39360714 
   65000    280.08401   -305.11719     141508.5   -48882.367    3846.2794   -52728.646   0.33440069 
   65200    276.92119   -234.05607    141393.32   -48907.877    3802.8457   -52710.723   0.34539634 
   65400    279.76396    222.89019    140578.37    -48934.04    3841.8843   -52775.924   0.39323671 
   65600    278.93158    303.28561    140376.33    -48958.74    3830.4535   -52789.194   0.37916723 
   65800    272.24661   -151.51436    141135.85   -48935.951    3738.6516   -52674.602   0.38013223 
   66000    279.44038   -351.61464    141617.13   -48933.202    3837.4408   -52770.643   0.32893828 
   66200    279.44709   -26.872453    141061.38   -48959.359    3837.5329   -52796.891   0.35146555 
   66400    275.04983    308.75558    140397.73   -48953.926    3777.1471   -52731.073   0.41860802 
   66600    282.25312     129.0576    140666.95   -48968.636     3876.067   -52844.703   0.36818998 
   66800    272.88061   -225.44043    141324.14   -48950.614    3747.3581   -52697.972   0.35444658 
   67000    277.32984   -214.30867    141309.26   -48977.685    3808.4575   -52786.142   0.35988002 
   67200    277.32684    129.07804    140696.87   -48998.252    3808.4163   -52806.668   0.38566943 
   67400    274.94193    229.92922    140505.78   -49030.236    3775.6653   -52805.901   0.38531882 
   67600     276.7567   -3.0511576    140961.32   -48989.437    3800.5869   -52790.024   0.36847977 
   67800    286.01411   -170.83186    141316.34   -48938.965    3927.7151    -52866.68     0.358978 
   68000    275.54565   -36.673795    141065.02   -48934.038    3783.9559   -52717.994   0.34981499 
   68200    280.28668    147.15852    140662.28   -49004.091    3849.0625   -52853.153   0.38838912 
   68400      282.093    114.18075    140686.31   -48950.135     3873.868   -52824.004   0.39630561 
   68600    278.53023    -85.52614    141052.38   -48934.934    3824.9419   -52759.876   0.35359187 
   68800    277.40526   -111.56788    141148.91   -48902.182    3809.4932   -52711.675   0.36765761 
   69000    273.98508    34.695544    140897.16   -48945.252    3762.5252   -52707.777   0.37508442 
   69200    278.53046    134.05432    140753.56   -48951.322    3824.9451   -52776.267   0.37688531 
   69400    275.22288    7.0799266    140934.57   -48988.973    3779.5235   -52768.496    0.3803477 
   69600    273.09142    -132.3213    141099.61   -49000.978     3750.253   -52751.231    0.3711296 
   69800    280.32366     2.315594    140960.98   -48969.563    3849.5704   -52819.134   0.37263774 
   70000    278.43567    119.33733    140780.08   -48931.969    3823.6434   -52755.612   0.36473224 
   70200    280.67612     61.79525    140860.04   -48916.006    3854.4106   -52770.416   0.39258028 
   70400    276.65256   -76.385789    141084.73    -48928.23    3799.1566   -52727.386   0.37063923 
   70600    277.68722   -46.090126    141073.16   -48901.387    3813.3652   -52714.752   0.35375878 
   70800    281.15929    21.090139     140847.6    -48925.16    3861.0458   -52786.206   0.39711835 
   71000    274.56825    70.073578       140783   -48968.135    3770.5337   -52738.669   0.37187483 
   71200    275.43063   -54.561647    140976.23   -48977.326    3782.3764   -52759.703   0.37086823 
   71400    273.41687   -78.801614    141102.85   -48944.531    3754.7222   -52699.254   0.37853138 
   71600    274.28365   -22.560195    140982.58   -48924.255    3766.6254    -52690.88   0.37342748 
   71800    277.19871    60.252588    140818.18   -48942.385    3806.6567   -52749.042   0.38224236 
   72000    274.22665      32.4304    140873.93   -48966.083    3765.8427   -52731.925   0.37505288 
   72200    279.23276    -51.77319    141051.53   -49000.243    3834.5895   -52834.833   0.37831673 
   72400    274.68624   -73.332306    141027.16   -48982.792    3772.1541   -52754.946   0.37060003 
   72600    279.80209    65.828448    140828.92   -48951.008     3842.408   -52793.416   0.37492467 
   72800    275.76522    53.633361    140771.74   -49024.212    3786.9712   -52811.183   0.38852078 
   73000    275.67909   -28.493437    140916.92   -49022.487    3785.7885   -52808.275   0.36265096 
   73200    276.79847   -83.558002    141041.63   -49035.387    3801.1605   -52836.547   0.36630081 
   73400    272.10089   -12.577464    140913.09   -49030.581    3736.6504   -52767.232   0.39545725 
   73600     278.3124    107.32864     140721.9   -49014.743    3821.9507   -52836.694   0.36727059 
   73800    279.67615    82.991445    140798.09   -49010.392    3840.6785    -52851.07    0.3749696 
   74000    273.34009   -28.753194    141069.79   -49054.374    3753.6679   -52808.042   0.36475183 
   74200    274.41409   -113.58579    141105.28   -49050.239    3768.4167   -52818.655   0.35889434 
   74400    274.83735    64.669792    140827.08   -49015.536    3774.2291   -52789.765   0.37970104 
   74600    274.00264    92.004855    140701.94   -49038.415    3762.7665   -52801.181   0.38964723 
   74800    271.53309   -55.925961    140956.66   -49048.409    3728.8531   -52777.262   0.37185252 
   75000     274.5634   -146.39625    141168.09   -49012.665    3770.4671   -52783.132   0.35143052 
   75200    277.91643   -62.901965    140962.81   -48999.836    3816.5128   -52816.349   0.38528685 
   75400    273.73214    119.44898    140659.08   -48987.822    3759.0518   -52746.874   0.38878832 
   75600    278.47131    112.93513    140764.01   -48968.732    3824.1328   -52792.865   0.36734344 
   75800     271.4018   -126.40793    141142.83   -48945.743    3727.0502   -52672.793   0.37652397 
   76000     279.8463   -194.68719    141185.12   -48931.512    3843.0151   -52774.528   0.35172156 
   76200    274.85932    32.618173    140776.45   -48956.187    3774.5309   -52730.717   0.38464236 
   76400    282.91574    240.03999    140565.81   -48927.308    3885.1663   -52812.474   0.41042567 
   76600    275.53525   -7.2846807    140965.46   -48916.202    3783.8132   -52700.016    0.3634314 
   76800     275.6896   -194.51952    141373.98   -48913.787    3785.9327    -52699.72   0.35201481 
   77000    275.18404   -76.282267    141120.83   -48916.682    3778.9902   -52695.672   0.36643834 
   77200     274.7543    209.59799    140607.38   -48961.711    3773.0887     -52734.8   0.38502735 
   77400    279.92319    150.40525    140651.61   -48953.318     3844.071   -52797.389   0.39588462 
   77600    275.68182   -93.660635     141200.2   -48969.459    3785.8259   -52755.285   0.35879557 
   77800    275.59274   -225.04665    141370.55   -48979.906    3784.6026   -52764.509   0.35244627 
   78000      279.248    78.745642    140878.86   -48981.224    3834.7989   -52816.023   0.36931191 
   78200    276.78279    215.19254    140505.77   -48975.273    3800.9452   -52776.218   0.40119904 
   78400    273.02764     52.10871    140843.23   -48995.856    3749.3772   -52745.233   0.38104774 
   78600    274.89233   -255.94106    141346.29   -49011.369    3774.9842   -52786.354   0.33975113 
   78800    277.23408   -106.34245     141124.4   -48998.717    3807.1425    -52805.86   0.37239458 
   79000    279.24402    216.64299    140522.48   -48982.179    3834.7442   -52816.923   0.40031857 
   79200    276.18334    191.83887    140524.55    -48992.06    3792.7131   -52784.773   0.39122601 
   79400    274.82907   -149.90885    141134.74   -48946.837    3774.1155   -52720.953   0.37156882 
   79600    276.68083   -233.11112    141343.04   -48935.507    3799.5449   -52735.052   0.34692052 
   79800    275.62018    51.376842    140841.61   -48960.015    3784.9794   -52744.994   0.38713519 
   80000    276.76096    224.53459    140483.83   -48933.159    3800.6453   -52733.805   0.40398251 
   80200    276.60569    46.467719    140866.43   -48901.178     3798.513   -52699.691   0.37561292 
   80400    281.02897   -215.40599    141370.72   -48870.789    3859.2562   -52730.045   0.35154202 
   80600    277.05794   -88.728663    141166.76   -48888.599    3804.7236   -52693.323   0.35655193 
   80800    280.14197     234.7339    140600.66    -48835.33    3847.0753   -52682.406   0.40258669 
   81000    279.17112    117.46936     140682.6   -48887.927     3833.743    -52721.67   0.39411893 
   81200    280.85045   -138.89613    141253.04   -48868.491    3856.8047   -52725.296   0.34923228 
   81400    278.59186   -240.78241    141408.59   -48844.694    3825.7884   -52670.483    0.3494684 
   81600    279.87887    53.666594    140920.89   -48865.199    3843.4623   -52708.662   0.37353637 
   81800    281.78235    201.48404    140591.46   -48870.476     3869.602   -52740.078   0.39876222 
   82000    277.88309   -1.8253608     140915.3   -48838.409    3816.0551   -52654.464   0.38346684 
   82200    283.21533   -194.90263    141316.61   -48880.919    3889.2806     -52770.2   0.35191618 
   82400    280.29621   -60.140837    141122.99   -48881.209    3849.1935   -52730.402   0.35815008 
   82600    278.32576    154.31125     140637.8   -48923.666    3822.1341     -52745.8   0.38925968 
   82800    273.35921    103.75208    140611.57   -48961.123    3753.9305   -52715.053   0.40455628 
   83000     277.9902   -73.760132    141036.99    -48945.61    3817.5259   -52763.136   0.37089207 
   83200     276.1669   -193.74703    141244.48   -48964.517    3792.4874   -52757.005     0.347296 
   83400    275.80993   -56.226373    140951.11   -48982.562    3787.5853   -52770.147   0.38041257 
   83600    275.69012    168.93208    140628.42   -48998.718    3785.9399   -52784.658   0.39026956 
   83800    278.47365    126.78797    140783.26   -48952.335    3824.1649     -52776.5     0.381639 
   84000    277.17163   -172.46786    141189.09   -48980.622    3806.2848   -52786.906   0.35968269 
   84200    279.88742   -104.25383    141154.95   -48968.798    3843.5797   -52812.378   0.35231657 
   84400    279.89112    72.442275    140777.52   -48973.201    3843.6306   -52816.831    0.3794005 
   84600    282.32031    187.93079    140670.24   -48970.511    3876.9896   -52847.501   0.37738791 
   84800    273.46384   -43.690737    140981.75   -48980.982    3755.3673    -52736.35   0.37405762 
   85000    279.99236   -123.62443    141157.51   -48945.016    3845.0209   -52790.037   0.35944271 
   85200     280.7835    21.394485    140923.87   -48915.253    3855.8852   -52771.138   0.36508423 
   85400    281.96784    138.15636    140715.66   -48902.723    3872.1492   -52774.873    0.3988725 
   85600    277.27744   -14.996302    140914.16   -48901.706    3807.7379   -52709.444   0.37550798 
   85800    280.17761    -122.7217    141173.69   -48913.718    3847.5648   -52761.282    0.3449653 
   86000    275.53487   -44.318108    141076.62   -48869.288    3783.8079   -52653.096   0.37351731 
   86200    276.16139    110.59988    140771.76   -48879.738    3792.4116   -52672.149   0.37697934 
   86400    277.26451    66.406382    140770.62   -48874.324    3807.5604   -52681.885   0.39325773 
   86600    278.01375    -38.03297    141092.05   -48873.986    3817.8494   -52691.835   0.36542151 
   86800    279.94181   -158.40823    141273.18   -48902.894    3844.3267   -52747.221   0.35286679 
   87000    280.25947    -20.62204    141004.92   -48924.125    3848.6889   -52772.814   0.36282866 
   87200    279.39335    171.91298    140655.67   -48894.731    3836.7949   -52731.526   0.38635185 
   87400    282.18936     97.52605    140801.92   -48860.736    3875.1914   -52735.927    0.3953872 
   87600    275.98544   -216.28944    141295.56   -48923.807    3789.9954   -52713.802   0.34793243 
   87800    276.63973   -203.98846    141337.47   -48929.443    3798.9805   -52728.424   0.34475185 
   88000    279.77983    133.69492    140760.65   -48883.478    3842.1023   -52725.581    0.3903988 
   88200    276.67639    279.02591    140474.03   -48894.364     3799.484   -52693.848   0.38303814 
   88400    278.09415   -35.903258    140997.59    -48882.73    3818.9534   -52701.683   0.37278303 
   88600    274.22738   -302.58021    141513.03   -48894.125    3765.8527   -52659.978   0.34390768 
   88800    281.04807   -84.112336    141092.35   -48883.697    3859.5185   -52743.216    0.3523079 
   89000     280.7338    328.43515    140372.29   -48903.208    3855.2027   -52758.411   0.41274587 
   89200    276.53209    186.06014     140556.3   -48878.775    3797.5023   -52676.277   0.40017719 
   89400    280.54717   -233.20923    141405.31   -48852.363    3852.6397   -52705.003   0.34999635 
   89600    277.85005   -356.33198    141527.34   -48871.633    3815.6013   -52687.235   0.33619025 
   89800    279.26667    182.13381    140680.37   -48905.968    3835.0553   -52741.023   0.38010788 
   90000    279.62024    383.80223    140246.47   -48921.651    3839.9107   -52761.562   0.41558165 
   90200    276.10659    8.0141512    140914.73   -48968.552    3791.6592   -52760.211   0.36442605 
   90400    273.83742   -347.97697    141544.08   -48984.122    3760.4975    -52744.62   0.34571733 
   90600    279.10947   -102.27288    141128.26   -48977.559    3832.8964   -52810.455   0.35658303 
   90800    275.11956    264.27152    140476.46   -49000.321    3778.1047   -52778.426   0.38298929 
   91000      276.431    179.60769    140641.54   -49004.276    3796.1141    -52800.39   0.39006481 
   91200    274.21711   -147.17656    141219.51   -49017.645    3765.7117   -52783.357   0.34489293 
   91400    273.68554   -237.68566    141304.36   -49007.514    3758.4118   -52765.926   0.34940292 
   91600    275.67987    73.306785    140846.59   -49012.589    3785.7992   -52798.389    0.3790402 
   91800    280.24099    155.96024    140632.92   -48991.823    3848.4352   -52840.258   0.38774087 
   92000    275.04191    28.435162    140924.65   -49006.433    3777.0382   -52783.471   0.36054124 
   92200    280.06181   -152.73409    141175.09   -49028.376    3845.9745   -52874.351   0.35946465 
   92400    280.42951   -22.582305     141015.9   -49008.659    3851.0241   -52859.683   0.36693102 
   92600    273.33495    74.492852    140751.84   -49062.028    3753.5973   -52815.625   0.37177493 
   92800    275.94759    76.075142       140788   -49033.086    3789.4757   -52822.561   0.38232509 
   93000     275.9556   -54.133272    141037.86    -48964.52    3789.5856   -52754.105   0.36896003 
   93200    277.85048   -85.427865    141081.52   -48963.457    3815.6072   -52779.064   0.34684785 
   93400    281.40601    23.227108     140875.3     -48966.7    3864.4339   -52831.134   0.37839969 
   93600    277.05173    102.03679    140760.72   -48949.859    3804.6384   -52754.498   0.38328232 
   93800    274.12881    11.898109    140914.85   -48941.665    3764.4991   -52706.164   0.36010821 
   94000    282.35847   -80.455929     141082.9   -48942.831    3877.5136   -52820.345   0.37304185 
   94200    273.74018   -1.5255204    140939.99   -49019.544    3759.1622   -52778.706   0.37218632 
   94400    276.16045    86.345233    140703.64   -49004.384    3792.3988   -52796.782   0.36549156 
   94600    275.63828    86.755034    140729.73   -49002.033    3785.2281   -52787.261   0.38923214 
   94800    270.14216    -56.17833     140959.4   -49050.862    3709.7521   -52760.614   0.37168362 
   95000    272.95271   -83.481846    141034.69   -49056.725    3748.3482   -52805.073   0.35480297 
   95200    274.66156    56.329682    140794.85   -49061.504    3771.8151   -52833.319    0.3932584 
   95400    277.04117     127.5736    140617.42   -49074.054    3804.4934   -52878.547    0.3975964 
   95600    274.92029   -1.8257504    140789.74   -49037.876    3775.3681   -52813.244   0.36919984 
   95800    275.57289   -121.33624    141073.72   -49002.422      3784.33   -52786.752   0.36709434 
   96000    275.33916   -64.049384    141037.85   -48993.357    3781.1203   -52774.477   0.37242456 
   96200    273.77075    14.743779    140746.76   -49033.961     3759.582   -52793.543   0.36710118 
   96400    276.88858    105.21845    140667.77   -49028.071    3802.3978   -52830.469   0.39321933 
   96600     274.4463   -38.940954    140943.96   -49040.769     3768.859   -52809.628   0.38508747 
   96800    274.18255   -162.24258       141126   -49088.938     3765.237   -52854.175   0.33948932 
   97000    271.70017    8.5537422    140855.34    -49074.14    3731.1475   -52805.288   0.37385672 
   97200     274.8839    188.65078     140595.9   -49062.267    3774.8685   -52837.135   0.39221629 
   97400    279.00134    103.19487    140863.04   -49020.625    3831.4115   -52852.037   0.35437127 
   97600    276.77692   -178.34266    141313.84   -48994.128    3800.8644   -52794.993   0.35475449 
   97800    273.05764    -136.3874    141190.15   -48988.608    3749.7892   -52738.397   0.36469671 
   98000    279.18975    208.71676    140631.82   -48960.576    3833.9989   -52794.575   0.37143553 
   98200    276.44265    217.52535    140544.34    -48971.32     3796.274   -52767.594     0.394365 
   98400    280.61185   -63.110439    141090.96   -48904.847     3853.528   -52758.375   0.37107792 
   98600    278.62299   -287.86736     141372.9   -48947.375    3826.2158   -52773.591   0.34690217 
   98800    275.50206    31.381165    140866.56   -48910.987    3783.3573   -52694.344   0.36380021 
   99000    276.97144    300.09107    140427.49   -48914.213    3803.5357   -52717.749    0.4257138 
   99200    276.06999    55.311164    140858.44   -48978.275    3791.1565   -52769.432    0.3635393 
   99400    280.51197   -288.44845    141453.04   -49065.909    3852.1564   -52918.065   0.33009876 
   99600    270.94137   -149.66955     141172.9   -49087.716    3720.7273   -52808.443   0.36785136 
   99800     279.3055    266.59484     140410.9   -49061.622    3835.5885    -52897.21   0.36992941 
  100000    273.65573    221.30403    140455.44   -49063.242    3758.0025   -52821.245   0.38884917 
  100200     276.1039   -182.88989    141287.14   -49023.542    3791.6221   -52815.164   0.36315764 
  100400    272.98917    -343.5495    141556.97   -49018.823    3748.8489   -52767.672   0.33170421 
  100600    277.43373    120.16444    140779.33   -48970.196    3809.8843    -52780.08   0.37435951 
  100800    281.21877    409.55492    140240.66   -48998.833    3861.8626   -52860.696    0.4050898 
  101000    277.19106    72.211652    140834.29   -48985.142    3806.5518   -52791.693   0.36166399 
  101200    275.01888   -370.84421     141574.1   -48962.925    3776.7221   -52739.647   0.32772499 
  101400    277.07269   -186.71531    141281.45   -48969.261    3804.9262   -52774.187   0.36373497 
  101600    275.72004     232.2148    140547.74    -48984.62    3786.3508   -52770.971   0.39566334 
  101800    276.26585    174.19104    140539.29   -48954.529    3793.8461   -52748.375   0.38550557 
  102000    277.71227   -79.255397    141085.08   -48955.554    3813.7092   -52769.263   0.37163905 
  102200    280.05231   -179.30237    141271.15   -48946.169    3845.8441   -52792.013   0.34751285 
  102400    282.31286     48.08331    140901.69   -48891.894    3876.8873   -52768.782   0.36278881 
  102600    278.53456    204.83172    140694.14   -48903.431    3825.0014   -52728.433   0.39998718 
  102800    280.04466    -25.48257    140980.84    -48916.47     3845.739   -52762.209   0.36323791 
  103000    274.84396   -159.02144    141244.42   -48909.761      3774.32    -52684.08   0.34570399 
  103200    280.54611     -46.7846    141054.05   -48890.253    3852.6253   -52742.878   0.37507921 
  103400    277.68261    110.68737    140728.45    -48917.29     3813.302   -52730.592   0.38290978 
  103600    280.17459    75.269415    140783.25   -48921.559    3847.5233   -52769.083   0.37137408 
  103800    281.31968   -57.016543    141095.73   -48926.001    3863.2483    -52789.25   0.36758488 
  104000    273.81252   -118.60378    141169.56   -48932.846    3760.1557   -52693.002    0.3613934 
  104200    279.01612    38.674387    140892.23   -48946.954    3831.6144   -52778.568   0.36673692 
  104400    277.25293    127.21149    140701.89    -48963.27    3807.4014   -52770.672   0.39403844 
  104600    276.16514    15.167063    140881.76   -48959.071    3792.4632   -52751.535   0.38111951 
  104800     272.3141   -162.60343    141116.37   -48949.773    3739.5784   -52689.351    0.3581804 
  105000    276.58532   -43.790089    141014.66   -48976.906    3798.2334    -52775.14   0.37658788 
  105200     275.8684    102.22594    140742.82   -48978.258    3788.3882   -52766.647   0.39018697 
  105400    274.99082    80.180105    140785.16   -48970.926    3776.3368   -52747.262   0.36465605 
  105600    282.50177   -43.572941    141080.16   -48969.295    3879.4815   -52848.776   0.36950457 
  105800    271.30843   -128.00724    141138.67   -48983.889    3725.7679   -52709.657   0.37325244 
  106000    281.40779    38.757118    140865.69   -48966.444    3864.4583   -52830.902   0.36097246 
  106200    277.97704    86.635953    140721.63   -48943.835    3817.3452    -52761.18   0.38972151 
  106400    275.65523    26.459281    140928.82   -48955.548    3785.4607   -52741.009   0.37816979 
  106600    274.97676   -106.20118    141149.51   -48956.574    3776.1437   -52732.717   0.34899976 
  106800    280.05822   -31.900987    141026.09   -48950.751    3845.9253   -52796.676   0.36398911 
  107000     281.2739    120.97838    140784.83   -48909.545    3862.6196   -52772.165   0.38584267 
  107200    277.20239     89.42332    140846.38   -48899.164    3806.7072   -52705.871   0.37076291 
  107400    280.12117   -97.266195    141119.48   -48905.239    3846.7897   -52752.029   0.36328401 
  107600    278.73608   -131.05631    141112.55   -48882.559    3827.7688   -52710.328   0.38096908 
  107800     278.3781    97.214971       140802   -48903.617    3822.8529    -52726.47   0.37539989 
  108000    281.59836    115.80358    140697.33   -48880.658    3867.0753   -52747.733   0.38921345 
  108200    280.21243   -14.516729    140948.37   -48911.973    3848.0429   -52760.016   0.37316701 
  108400    279.21142   -111.61229    141134.21   -48907.064    3834.2964    -52741.36   0.34421801 
  108600    282.21254   -20.934479    140949.09   -48879.551    3875.5096   -52755.061   0.36810051 
  108800    277.06645    79.790886       140688    -48899.96    3804.8405     -52704.8   0.40591052 
  109000    270.38849    75.414298    140759.49   -48935.843    3713.1347   -52648.978   0.37632932 
  109200    282.76903   -64.764973    141051.96   -48937.793    3883.1517   -52820.945   0.35978274 
  109400    281.24448   -64.233007    141091.04   -48922.274    3862.2157    -52784.49   0.36138419 
  109600    281.12548    99.480831    140772.69   -48885.493    3860.5815   -52746.074   0.38567239 
  109800    276.09231    169.47959    140628.02   -48933.728    3791.4631   -52725.191   0.38646461 
  110000    278.45975   -18.195093    140931.81   -48876.033    3823.9741   -52700.007   0.38118536 
  110200    278.80463   -189.41369    141269.03   -48861.664    3828.7102   -52690.375   0.35905026 
  110400    280.16595   -54.482114    141045.26   -48910.085    3847.4046    -52757.49   0.34720926 
  110600    277.13441    181.70786    140538.46   -48979.014    3805.7738   -52784.788   0.40940784 
  110800    279.46523    181.62872    140581.16   -48976.294     3837.782   -52814.076   0.38756673 
  111000    281.01601   -127.52832    141172.97   -48979.068    3859.0782   -52838.146    0.3450144 
  111200    272.62703   -250.05494    141357.35   -48965.838    3743.8757   -52709.714   0.36979853 
  111400    278.46117    48.677623    140784.54   -49018.399    3823.9936   -52842.393   0.37274161 
  111600    275.05153    263.84009    140376.97   -49069.605    3777.1704   -52846.776   0.39412651 
  111800    278.93806    68.478517    140788.38   -49102.624    3830.5425   -52933.167   0.37839192 
  112000    270.54927   -262.45381    141318.89   -49092.443    3715.3427   -52807.786   0.33597381 
  112200    277.21052   -67.554249    141054.76   -49052.346     3806.819   -52859.165    0.3501403 
  112400     278.3743    222.40874    140472.33   -49022.656    3822.8007   -52845.457   0.39828623 
  112600    273.74675    181.17746    140567.01   -48999.777    3759.2525    -52759.03   0.39096241 
  112800    277.51874   -184.22888    141206.53    -49016.12    3811.0516   -52827.171   0.34624125 
  113000    275.89733   -247.12944    141315.01   -48993.069    3788.7854   -52781.855   0.35746473 
  113200    276.30674    121.62827    140730.89   -49026.074    3794.4077   -52820.482   0.37719425 
  113400    278.64859    262.95601    140464.07   -49008.533    3826.5673     -52835.1   0.37577909 
  113600    273.80703  -0.77252708    140951.07   -49014.537    3760.0802   -52774.617   0.37829397 
  113800     275.4585   -238.02295     141404.3   -48996.879    3782.7592   -52779.638   0.33556256 
  114000     276.2321   -94.303725    141126.48   -48983.671    3793.3827   -52777.054   0.35069483 
  114200    276.02263    176.74148    140608.81   -48995.835    3790.5062   -52786.341   0.41282688 
  114400     280.6424    136.98879    140665.74   -48941.425    3853.9475   -52795.373   0.37672301 
  114600    280.76499   -106.43637    141196.49   -48917.183     3855.631   -52772.814   0.34670616 
  114800    280.45257   -213.04025    141333.32   -48901.956    3851.3406   -52753.296   0.35624092 
  115000    273.41999    41.567204    140857.13   -48929.625    3754.7652   -52684.391   0.37093227 
  115200    280.84351    193.48596    140577.14   -48944.507    3856.7093   -52801.217   0.39095504 
  115400    275.81045    28.177022    140899.94   -48957.741    3787.5924   -52745.334   0.37178801 
  115600    274.14021   -189.33375    141260.93   -48940.264    3764.6556   -52704.919   0.35297654 
  115800    283.18661   -71.834368    141095.13   -48955.951    3888.8861   -52844.837   0.34644305 
  116000    283.32699    168.63887    140709.77   -48941.704     3890.814   -52832.518   0.37372209 
  116200    278.69984    93.400415    140745.01   -48959.892    3827.2712   -52787.164   0.39008891 
  116400    275.41174   -119.28163    141082.78   -48999.579     3782.117   -52781.696   0.35043358 
  116600    274.43526   -78.333657    141119.85   -49010.684    3768.7074   -52779.391   0.35169722 
  116800    273.25371    52.694869    140832.22   -48967.701    3752.4816   -52720.183   0.38066965 
  117000    280.66723    137.48733    140717.87   -48975.408    3854.2885   -52829.696   0.36881069 
  117200    280.11063    17.887218    140956.35   -48966.398     3846.645   -52813.043   0.35896339 
  117400    273.58871   -133.25653    141142.06   -48990.472    3757.0821   -52747.554   0.35876098 
  117600    275.74921   -60.101882     140956.4   -48971.328    3786.7513   -52758.079   0.37134813 
  117800    276.21808    121.77929    140725.16    -48933.74    3793.1902    -52726.93   0.38266415 
  118000    280.13582    74.864402    140840.73   -48927.242    3846.9909   -52774.233   0.38351883 
  118200    278.73622   -107.15786    141076.61   -48959.465    3827.7707   -52787.236   0.36305769 
  118400    277.74132   -60.074271    141022.95   -49006.637    3814.1082   -52820.746   0.34951948 
  118600      276.265    54.055814    140802.09   -49032.894    3793.8345   -52826.728   0.37786659 
  118800    276.72559    66.064228    140766.15   -49080.976    3800.1596   -52881.136   0.37183501 
  119000    273.86904   -16.891612    140882.94   -49079.713    3760.9318   -52840.645   0.35951857 
  119200    271.58918   -46.293316    140948.05   -49080.228    3729.6233   -52809.851   0.37249301 
  119400    272.79406    40.368071    140886.69   -49104.933    3746.1695   -52851.102   0.36718346 
  119600     277.3392     29.06266    140824.12   -49048.337     3808.586   -52856.923   0.36445166 
  119800    275.95698    22.300972    140863.24   -49045.452    3789.6046   -52835.056   0.37444021 
  120000    276.22747   -14.010265    140938.34   -49062.427    3793.3191   -52855.746   0.36852026 
  120200    273.03646   -9.2752403    140949.89   -49036.535    3749.4983   -52786.033   0.35720591 
  120400    273.31707   -29.797416    140904.54    -49080.74    3753.3518   -52834.092   0.37288669 
  120600    275.75097    16.139586    140862.77   -49074.136    3786.7755   -52860.912   0.36748975 
  120800    275.72949    57.105191    140879.49   -49066.094    3786.4806   -52852.574   0.35604513 
  121000    274.48233   -16.087242    140928.26   -49051.215    3769.3539   -52820.569   0.36270085 
  121200    275.17444   -18.085853    140905.21   -49049.387    3778.8583   -52828.245   0.36490009 
  121400    275.68951    3.8745277       140871   -49048.698    3785.9315   -52834.629   0.36743334 
  121600    275.74962   -4.7603861    140885.27   -49039.888     3786.757   -52826.646   0.37124568 
  121800    272.82418      -5.2158    140903.18   -49037.423    3746.5831   -52784.006   0.37483522 
  122000    274.43402    14.831905    140894.27   -49016.203    3768.6905   -52784.893   0.36458021 
  122200    275.21814   -20.696165    140890.49   -48985.156    3779.4584   -52764.615   0.36907845 
  122400    277.58894    5.9268077    140892.29   -48941.009    3812.0156   -52753.025   0.36939934 
  122600    284.55906    12.716793    140921.32   -48866.392    3907.7334   -52774.126   0.37080459 
  122800    276.91967   -78.012155     140987.7   -48865.595    3802.8248    -52668.42    0.3739352 
  123000     279.5516   -54.313678    141014.64   -48910.621     3838.968   -52749.589   0.36306159 
  123200    276.09958    27.792693    140925.73   -48932.455    3791.5629   -52724.018   0.37552696 
  123400    275.84285    37.244513    140888.09   -49012.194    3788.0373   -52800.231    0.3646672 
  123600    279.37332    8.1935045    140929.67   -48962.837    3836.5198   -52799.357   0.36509282 
  123800    272.85161   -22.444243    140991.31   -48983.604    3746.9598   -52730.564   0.36525232 
  124000    279.82521   -22.755914    140956.89   -48968.376    3842.7254   -52811.101   0.35702192 
  124200    276.41323    60.224754    140868.87   -48951.934    3795.8701   -52747.804   0.37665222 
  124400    273.86125   -0.9739051    140872.98    -48965.37    3760.8247   -52726.195   0.38050688 
  124600     279.2495    9.7100703    140957.42   -48982.835    3834.8194   -52817.654   0.35494782 
  124800     278.0246   -32.213387    140976.31   -48986.873    3817.9984   -52804.872   0.36753753 
  125000    280.00337   -14.330316     140879.2   -48995.636     3845.172   -52840.808   0.37075314 
  125200    283.38954    77.647183    140805.33   -48987.128    3891.6729     -52878.8   0.36657792 
  125400    273.60425   -22.363785    140899.65   -49051.797    3757.2955   -52809.092   0.37586328 
  125600    281.43734   -34.552685    141011.49   -49047.344    3864.8642   -52912.208   0.35930656 
  125800    269.91309   -37.007436    140960.69   -49037.679    3706.6063   -52744.285   0.36598709 
  126000    282.21415    63.612761    140807.32   -49008.073    3875.5318   -52883.605   0.37724728 
  126200    275.24517     21.93536    140797.27    -48988.05    3779.8295    -52767.88   0.38186504 
  126400     276.1093   -44.287553    140940.54   -49016.125    3791.6963   -52807.822   0.36609433 
  126600    276.86491   -88.223713    141005.91    -49039.68    3802.0729   -52841.753   0.36486584 
  126800    275.01689    16.448068    140885.46   -49012.353    3776.6947   -52789.048   0.37391164 
  127000    275.00229    62.296108    140773.54   -49028.658    3776.4942   -52805.152   0.37080737 
  127200    273.88705    53.543352    140845.29   -49061.474    3761.1791   -52822.653   0.37622245 
  127400    274.86523   -60.340193    140998.39    -49060.97    3774.6121   -52835.582   0.35549325 
  127600    274.70746   -21.674882    141000.42   -49055.824    3772.4454    -52828.27   0.34912709 
  127800    273.16713    56.923029    140830.22   -49045.728    3751.2927   -52797.021   0.38982248 
  128000    274.16777    88.138191    140768.96   -49043.753    3765.0341   -52808.787    0.3825088 
  128200    275.63671   -37.165885    140958.06    -49011.66    3785.2064   -52796.867   0.36477825 
  128400    274.94187   -108.38637    141081.68   -49036.156    3775.6644   -52811.821   0.35851044 
  128600    274.79603  -0.33406428    140868.75   -49065.682    3773.6617   -52839.344   0.36238448 
  128800    272.85818    114.15263     140616.2   -49099.976      3747.05   -52847.026   0.38798207 
  129000    267.95643    49.591851    140723.54   -49130.397    3679.7363   -52810.133   0.38609298 
  129200    272.50236   -77.495624    140995.45   -49090.156    3742.1637   -52832.319   0.36691514 
  129400     276.5468   -72.324796    140996.67   -49089.705    3797.7043   -52887.409   0.35957745 
  129600    271.84788    44.660554    140708.77   -49088.865     3733.176   -52822.041   0.36947677 
  129800     274.1035    100.66027    140607.46   -49100.018    3764.1515    -52864.17   0.39624033 
  130000    271.07591   -33.103487    140869.45   -49108.967    3722.5749   -52831.542   0.37860372 
  130200    271.64651   -141.79836    141061.08   -49125.467    3730.4107   -52855.878   0.35526157 
  130400     275.0756    3.6013241    140863.71   -49110.914     3777.501   -52888.415   0.37394526 
  130600    274.24955    176.56513    140610.06   -49068.339    3766.1571   -52834.497   0.37713936 
  130800    275.55685    50.951703    140766.23   -49090.359    3784.1097   -52874.469   0.37996259 
  131000    272.69091   -133.53312    141093.15   -49107.566     3744.753   -52852.319    0.3620428 
  131200    274.60779   -119.12017    141023.21    -49081.66    3771.0767   -52852.737   0.36013029 
  131400     273.8625    147.57881    140616.67   -49081.989     3760.842   -52842.831   0.38604232 
  131600    276.62406    167.85207    140553.42       -49077    3798.7653   -52875.766   0.38245715 
  131800     276.7882   -92.438884    140998.62   -49050.845    3801.0195   -52851.864   0.37481349 
  132000    274.49629   -163.46058    141229.02   -48995.932    3769.5455   -52765.478   0.35284193 
  132200    275.59506    21.169901    140878.26    -49002.56    3784.6345   -52787.195   0.37011333 
  132400    273.82566    219.55742    140499.12   -49005.848     3760.336   -52766.184   0.39684714 
  132600     279.7189    91.750308    140732.69   -48984.603    3841.2655   -52825.869    0.3731013 
  132800    275.30116   -229.99275    141257.79   -48954.827    3780.5984   -52735.426   0.36728863 
  133000    275.55378   -230.20219    141244.19   -48949.363    3784.0677   -52733.431   0.36157586 
  133200    279.55941     153.9466    140681.82   -48898.834    3839.0753   -52737.909   0.38471684 
  133400      280.484    240.72242    140521.07   -48887.027    3851.7722   -52738.799   0.40677436 
  133600    280.37569   -56.803308    141112.96   -48901.107    3850.2849   -52751.392   0.34691572 
  133800    276.60412   -325.91154    141526.06    -48918.09    3798.4915   -52716.582   0.34270284 
  134000    280.05965   -35.157267     141033.9   -48871.881    3845.9449   -52717.825    0.3815019 
  134200    279.46724    293.16683     140440.9   -48884.164    3837.8096   -52721.974   0.39839426 
  134400     283.2313     130.1239     140713.9   -48884.727    3889.4999   -52774.226   0.38861473 
  134600    283.41191   -211.44661    141356.51   -48899.073    3891.9801   -52791.053     0.346321 
  134800    277.53694   -218.58749     141294.8   -48938.069    3811.3015    -52749.37   0.35321188 
  135000    279.38785    127.41257    140620.84   -48992.077    3836.7194   -52828.796   0.39313657 
  135200    277.09988    264.90262    140419.02   -49001.293    3805.2996   -52806.593   0.40370975 
  135400    277.42867    6.3683396    140989.03   -49023.179    3809.8147   -52832.993   0.36854954 
  135600    280.20802   -262.58488    141378.62   -48987.079    3847.9823   -52835.061   0.33698876 
  135800    275.81967   -9.5358318     140975.5    -49054.88     3787.719   -52842.599   0.36209566 
  136000    277.11358    242.64906    140480.28   -49085.036    3805.4877   -52890.523    0.3894058 
  136200    275.11061    130.02878    140662.26    -49097.24    3777.9818   -52875.222   0.37029963 
  136400     274.5735   -136.28761    141138.41   -49052.991    3770.6058   -52823.597   0.37074462 
  136600    274.40464   -150.83022    141151.06   -48997.706     3768.287   -52765.993   0.35248851 
  136800     276.4091    36.465559    140792.02   -49006.565    3795.8134   -52802.379   0.37547707 
  137000    274.51074    98.940638    140668.47   -49010.903    3769.7439   -52780.647   0.39653932 
  137200    281.85342    13.811626    140861.91   -49042.034     3870.578   -52912.612   0.36237134 
  137400    277.37165   -62.005035    141024.76   -49002.141    3809.0316   -52811.173   0.37282445 
  137600    279.87922   -67.291725    141001.05   -48994.415    3843.4671   -52837.883   0.36119182 
  137800      273.556    36.954606    140913.88   -48969.942    3756.6329   -52726.575   0.36739526 
  138000    278.65482    56.423018    140920.51   -48969.167    3826.6529    -52795.82   0.36745384 
  138200    271.82764     -38.1695    141011.93    -49016.24    3732.8981   -52749.138   0.36573415 
  138400    272.05309   -45.465125    141004.05   -49002.498     3735.994   -52738.492   0.36797952 
  138600    272.14339    54.615814    140902.33   -49016.443    3737.2341   -52753.677   0.35911295 
  138800    277.61774       46.859    140900.63    -48968.89    3812.4111   -52781.302   0.37265355 
  139000    277.75807   -14.788145    141021.15   -48958.825    3814.3382   -52773.163   0.36374856 
  139200     277.5967   -27.174087     141075.7   -48959.387    3812.1221   -52771.509    0.3601299 
  139400    277.09157   -30.219837     140975.9   -48985.351    3805.1854   -52790.536   0.38253189 
  139600    276.73381    70.251539    140854.53   -48967.908    3800.2724    -52768.18   0.35887473 
  139800    275.76263    23.287868    140951.28   -48930.893    3786.9356   -52717.828   0.36583305 
  140000    279.48454   -67.077285    141139.86   -48899.866    3838.0471   -52737.913   0.36769321 
  140200    276.42669   -75.552313    141112.36   -48940.233    3796.0549   -52736.288   0.35601067 
  140400    278.36567    45.856249    140937.87   -48965.774    3822.6821   -52788.456   0.36775695 
  140600     280.6155     65.06095    140868.71   -48966.474    3853.5782   -52820.052   0.37600497 
  140800    282.05087    14.846603    140977.32   -48959.365    3873.2895   -52832.654   0.35029301 
  141000     274.4918   -65.040096     141046.4    -48994.24    3769.4838   -52763.724   0.36594939 
  141200    280.46729    11.949653    140938.19   -48948.462    3851.5429   -52800.005   0.37923334 
  141400    275.31666     60.43239    140870.85   -48952.714    3780.8114   -52733.526   0.36977102 
  141600    277.07604     29.94125    140946.18     -48936.5    3804.9722   -52741.472   0.36104977 
  141800    278.10869    -24.01831     141019.9   -48986.976    3819.1532   -52806.129   0.37079137 
  142000    276.22754   -7.8498362    140943.76   -49001.411    3793.3201   -52794.731   0.35802886 
  142200    277.01048     57.14593    140863.71   -48998.537    3804.0719   -52802.609   0.35905227 
  142400    276.26331    20.014551    140926.26   -49002.541    3793.8114   -52796.353   0.38569086 
  142600    277.18112   -74.534865    141042.25   -48994.039    3806.4151   -52800.454   0.35385148 
  142800     275.3473   -15.363943     141030.8   -48997.857    3781.2321   -52779.089   0.35395105 
  143000    275.62515    13.206396    140883.34   -49057.628    3785.0477   -52842.675   0.38000913 
  143200    271.92858    40.512432    140827.63   -49026.834    3734.2842   -52761.118   0.37303535 
  143400    276.18414    19.595808     140964.2   -48993.039    3792.7241   -52785.763   0.35835556 
  143600    275.60446   -75.636735    141080.09   -48980.913    3784.7636   -52765.677   0.37002577 
  143800    276.07794    2.0650514    140974.21   -48992.246    3791.2657   -52783.512   0.36861288 
  144000    276.57486    79.973489    140794.62   -48981.049    3798.0897   -52779.139   0.36861429 
  144200    273.26718     13.62068    140840.69   -48956.381    3752.6667   -52709.048   0.39092086 
  144400    279.86063   -49.610971    141088.03   -48959.182    3843.2118   -52802.394   0.36321522 
  144600    280.48324   -64.225909    141134.49   -48933.358    3851.7619    -52785.12   0.35029319 
  144800    279.87721    32.879284    140925.45   -48904.446    3843.4396   -52747.886   0.37961485 
  145000     279.6807    118.50681    140787.29   -48945.895     3840.741   -52786.636   0.38243847 
  145200    275.68275    60.555221    140894.67   -48975.162    3785.8387   -52761.001   0.36231433 
  145400    271.87512     -87.0006    141110.55   -48979.581    3733.5501   -52713.131    0.3608434 
  145600    274.35678   -101.46093    141073.19    -48997.15    3767.6297   -52764.779   0.36600259 
  145800    275.18046    52.500223    140808.85   -49012.266    3778.9409   -52791.207   0.37122851 
  146000    275.81296    120.23973    140693.63   -48998.947    3787.6268   -52786.574   0.37715749 
  146200     274.9699    2.5924253    140896.28   -49028.459    3776.0495   -52804.509   0.37688885 
  146400    276.21883   -131.31596    141059.54   -48982.453    3793.2005   -52775.653   0.37017357 
  146600    279.96521    4.4422824    140927.36   -48947.613     3844.648   -52792.261   0.36434383 
  146800    280.15457     127.6574    140761.88   -48905.834    3847.2484   -52753.082    0.3868977 
  147000     280.2843    22.265056    140926.15   -48920.655    3849.0299   -52769.685   0.35725543 
  147200    278.41131   -166.59302    141168.05   -48887.784    3823.3088   -52711.093   0.35910859 
  147400    274.78107   -99.440353    141064.99   -48949.882    3773.4563   -52723.338   0.37708612 
  147600    273.11689    97.117676     140758.2   -48961.845    3750.6028   -52712.447   0.37963743 
  147800    277.04942    113.82549    140755.63   -49003.209    3804.6066   -52807.815   0.38023434 
  148000    274.56722    -75.90461    141105.98   -48970.091    3770.5196    -52740.61   0.36025627 
  148200    276.02666   -159.49468    141265.32   -49009.465    3790.5614   -52800.027   0.34276153 
  148400    272.65975    30.523646    140901.39   -49056.241    3744.3251   -52800.566   0.37198851 
  148600    276.76492    223.36497    140542.23   -49026.465    3800.6997   -52827.164   0.38396828 
  148800    278.40244    44.224911    140821.34   -49029.822    3823.1871   -52853.009   0.36467572 
  149000    274.19165    -202.5696    141328.99    -49034.39     3765.362   -52799.752   0.34068085 
  149200    276.41866   -152.70406    141197.99   -49040.522    3795.9447   -52836.467   0.34739433 
  149400    275.51281    187.69341    140588.08   -49061.638     3783.505   -52845.143   0.38240028 
  149600    278.13162    230.86377    140477.79   -49063.062     3819.468    -52882.53   0.39266739 
  149800     278.0943   -66.180929    141064.56   -49050.802    3818.9556   -52869.758   0.34841874 
  150000     276.9954   -280.20441    141422.52   -49010.742    3803.8648   -52814.607   0.33443602 
  150200    277.09029   -21.651923    140988.08    -48959.45    3805.1678   -52764.618   0.37401966 
  150400    275.30752    251.26664    140499.61   -48930.951    3780.6858   -52711.637   0.39827893 
  150600    274.95078    101.15558    140752.91    -48982.03    3775.7869   -52757.817   0.37808214 
  150800    278.70528   -215.61705    141323.95   -48945.532    3827.3459   -52772.878   0.34920708 
  151000    277.52655    -196.5478     141284.8   -48981.343    3811.1589   -52792.502   0.34466923 
  151200    283.58628    159.39155     140677.7   -48969.473    3894.3746   -52863.847   0.38395665 
  151400    280.13313    209.14247    140532.55   -48887.442    3846.9539   -52734.396    0.3977728 
  151600     278.6513    -46.52356    141079.93   -48875.051    3826.6045   -52701.656   0.36946317 
  151800    279.17962    -239.3746     141438.7   -48885.692    3833.8598   -52719.552   0.34122863 
  152000    280.25141    -37.19448    141016.16   -48886.627    3848.5782   -52735.205   0.35482396 
  152200    278.82363     224.7794     140496.8   -48905.084    3828.9711   -52734.055   0.39135308 
  152400     278.0032     114.2283    140670.55   -48951.912    3817.7045   -52769.616   0.38549333 
  152600    276.74887   -124.59079    141164.78   -48921.299    3800.4793   -52721.779   0.37048977 
  152800    274.71668   -170.32329    141191.98   -48855.923    3772.5721   -52628.495   0.36330326 
  153000    281.86468    47.788236    140804.18   -48922.319    3870.7327   -52793.052   0.37632364 
  153200    282.00911    189.05491    140622.18   -48865.549     3872.716   -52738.265    0.3884249 
  153400    278.51223   0.15400351    140888.83   -48917.239    3824.6948   -52741.934   0.36467767 
  153600    274.16701   -118.77278    141089.05   -48941.365    3765.0236   -52706.388   0.36904917 
  153800     280.7446     -44.7071    140953.22   -48968.884     3855.351   -52824.235   0.37557016 
  154000    274.38415     61.36922    140768.55   -48982.708    3768.0056   -52750.713   0.37423234 
  154200    278.71676    24.266938    140832.07   -48931.988    3827.5036   -52759.491   0.37225978 
  154400    281.33339   -49.416239     141027.2   -48926.983    3863.4366   -52790.419   0.36624316 
  154600    277.77427   -103.74241    141101.84   -48947.434    3814.5607   -52761.994     0.357097 
  154800    277.51445   -30.745179    140915.58   -48961.766    3810.9926   -52772.758   0.37355893 
  155000    274.40246    82.992966    140764.22   -48951.275     3768.257   -52719.532   0.37916153 
[...]
  163200    273.03544    195.48493    140518.02   -49019.871    3749.4843   -52769.355   0.40181828 
  163400    272.81141   -247.06884    141251.08   -49052.371    3746.4078   -52798.779   0.35288725 
  163600    271.42478   -221.36907     141317.4   -49002.078    3727.3658   -52729.444   0.34363843 
  163800    274.11841    86.101791    140730.95   -49059.812    3764.3563   -52824.168   0.40065911 
  164000    271.45542    224.41389    140489.29   -49076.666    3727.7865   -52804.453   0.39106092 
  164200    268.97528   -31.587498    140939.78   -49075.057    3693.7277   -52768.785   0.37176605 
  164400    275.25852   -194.02268    141329.38   -49019.711    3780.0129   -52799.724   0.34404456 
  164600    277.41273   -62.370059    141058.29   -48999.872    3809.5958   -52809.468   0.35040747 
  164800    272.35554     162.9156    140596.04   -49036.115    3740.1475   -52776.262   0.39753504 
  165000    272.79277    148.91903    140653.29   -49013.718    3746.1517   -52759.869   0.38792982 
  165200    276.57173    -127.9055     141119.7   -49010.825    3798.0467   -52808.871   0.36231136 
  165400    274.50151   -208.68071    141223.87   -49036.483    3769.6172     -52806.1   0.34697364 
  165600    274.33526    73.499162    140798.59   -48978.277    3767.3341   -52745.611   0.38036066 
  165800    278.50358    120.90835    140582.72   -49003.112     3824.576   -52827.688   0.39355754 
  166000    275.76012   -41.973699    140922.02   -48963.577    3786.9012   -52750.479   0.36289254 
  166200    274.62223   -162.49314    141241.91   -48991.413     3771.275   -52762.688   0.36430779 
  166400    274.87267   -39.433097    141020.73   -48986.936    3774.7142   -52761.651   0.36400177 
  166600     275.5411    147.11573    140640.22   -48983.257    3783.8935    -52767.15   0.38804441 
  166800    276.87548    116.89766    140692.98   -49040.553     3802.218   -52842.771   0.39529657 
  167000    278.10536   -71.479552    141033.62   -49041.497    3819.1074   -52860.604   0.35401604 
  167200    280.62263   -119.23352    141124.65   -48991.333     3853.676   -52845.009   0.35255388 
  167400    276.41299    4.5563904    140856.23   -49035.498    3795.8668   -52831.365   0.37408575 
  167600    277.60571    156.43311    140676.51   -49017.848    3812.2459   -52830.093   0.37795877 
  167800    268.14755   -4.3292768    140854.93   -49083.113    3682.3608   -52765.474   0.38104895 
  168000     276.2263   -109.04912    141046.46   -49071.751     3793.303   -52865.054   0.35651039 
  168200     276.4723   -38.723116    140909.43    -49068.69    3796.6813   -52865.372   0.36765112 
  168400    276.53049    85.050415    140672.09   -49027.124    3797.4803   -52824.605   0.37933396 
  168600    277.32715    98.167277    140734.04   -49039.005    3808.4206   -52847.425   0.37869007 
  168800    273.73188    -128.1792    141035.55   -49076.318    3759.0482   -52835.366   0.35881477 
  169000    276.09057    -124.1337    141078.53   -49061.938    3791.4391   -52853.377    0.3575811 
  169200    272.29917    7.7541677    140792.87   -49033.121    3739.3733   -52772.494   0.38655829 
  169400    272.85357    111.00149    140647.51    -49057.91    3746.9868   -52804.896   0.37702423 
  169600     272.6897    13.521669    140896.04   -49068.107    3744.7363   -52812.843   0.35982879 
  169800    275.82712   -165.80364    141151.77   -49073.535    3787.8213   -52861.356   0.35520885 
  170000    273.94098   -52.915778    140935.14   -49110.026    3761.9197   -52871.946   0.35679069 
  170200    274.14545    177.31103    140511.04   -49118.591    3764.7276   -52883.318   0.39013765 
  170400    272.67524     193.9183    140577.43   -49090.727    3744.5378   -52835.265   0.38496471 
  170600    275.77401   -127.20798    141131.71   -49072.464    3787.0919   -52859.556   0.35210526 
  170800    273.60646    -221.3436    141294.05   -49093.511    3757.3258   -52850.836   0.34327889 
  171000    270.62595    59.460947    140704.67    -49092.66    3716.3957   -52809.056   0.38199019 
  171200     271.0468     333.5341    140283.27   -49118.536    3722.1752   -52840.711   0.40259195 
  171400    272.72527    59.009616    140818.17    -49116.37    3745.2249   -52861.595   0.36327182 
  171600    269.41961   -364.03265    141519.49   -49079.918    3699.8296   -52779.747   0.34076302 
  171800    275.88733   -147.88467    141200.51   -49059.088    3788.6482   -52847.736   0.35247515 
  172000    273.35845    282.12962    140368.04   -49064.695      3753.92   -52818.615   0.39216407 
  172200    275.23063    314.70809    140405.44   -49072.154    3779.6299   -52851.784   0.39539868 
  172400    269.68633   -207.59346    141273.64   -49043.385    3703.4923   -52746.877   0.34728012 
  172600    274.38932   -353.52833    141560.29   -49026.456    3768.0766   -52794.532   0.32739485 
  172800    277.85358    37.130829    140806.06   -49034.883    3815.6499   -52850.533   0.38630908 
  173000    273.57608    364.63236    140237.52   -49052.018    3756.9086   -52808.926   0.40876062 
  173200    272.75769    44.139649    140749.04   -49090.637    3745.6701   -52836.307   0.37131531 
  173400     277.6757   -268.74013    141440.78   -49075.723    3813.2071    -52888.93   0.32736493 
  173600    273.93842    -177.2577    141230.48   -49028.002    3761.8846   -52789.886   0.34952326 
  173800     272.5954    196.73441    140567.93   -49028.674    3743.4414   -52772.116   0.38498663 
  174000    275.19097     210.7744    140541.12   -48995.301    3779.0853   -52774.386   0.39635901 
  174200    275.81198   -174.80279    141131.34   -48990.097    3787.6133    -52777.71   0.36648456 
  174400    273.32836   -220.93564    141352.36   -48971.477    3753.5069   -52724.984   0.33549108 
  174600    276.87056    10.612216    140898.51   -48983.347    3802.1504   -52785.497   0.37103632 
  174800     280.4475     231.5127    140514.95   -48948.323    3851.2711   -52799.594   0.39542862 
  175000    278.87818    88.174532    140786.64   -48994.496    3829.7202   -52824.217   0.35754425 
  175200     279.1376   -188.16918    141253.85   -48990.448    3833.2827   -52823.731   0.35724826 
  175400    270.93238   -164.51229    141140.95   -48998.629    3720.6038   -52719.233   0.36412943 
  175600    274.16504    171.44728    140638.76   -49008.985    3764.9966   -52773.981   0.37649699 
  175800    274.58335    185.70735    140571.17   -48994.476    3770.7411   -52765.217   0.38838151 
  176000    275.25924   -58.657313    141012.19   -48982.704    3780.0229   -52762.727   0.36817631 
  176200    276.62575    -199.1088     141263.2   -48932.792    3798.7886   -52731.581   0.34976967 
  176400    280.57813   -27.179313    140970.17   -48971.476     3853.065   -52824.541   0.35940214 
  176600    277.41871    209.93159    140634.99    -48952.06    3809.6779   -52761.738   0.39358002 
  176800    279.55046    61.218095    140819.49   -48961.325    3838.9524   -52800.277   0.36836766 
  177000    277.04211   -186.87947     141229.1   -48975.913    3804.5063    -52780.42   0.34895387 
  177200    272.57231   -163.64522    141198.15   -48989.275    3743.1242   -52732.399    0.3662327 
  177400    274.33502    79.016668    140753.13   -49074.853    3767.3308   -52842.184   0.36029223 
  177600    274.03959    223.70048    140591.91   -49041.998    3763.2739   -52805.271   0.39041793 
  177800    276.86371   -1.1799612    140992.12   -49023.393    3802.0564   -52825.449   0.37017451 
  178000    278.99887   -200.35146    141309.91   -48981.943    3831.3777    -52813.32   0.34216617 
  178200    274.20601   -36.060183    141045.78   -49016.649    3765.5592   -52782.208   0.36296979 
  178400    278.12457    158.79891    140645.87   -48993.888    3819.3712    -52813.26   0.36923806 
  178600     282.0128    116.56426     140750.1   -49010.752    3872.7666   -52883.519   0.36928493 
  178800    277.22238   -151.10577    141183.73   -48981.242    3806.9818   -52788.224   0.35252849 
  179000    280.56348   -111.58518    141258.22   -48956.543    3852.8638   -52809.406     0.343964 
  179200    284.48566    66.390121    140900.08   -48980.047    3906.7255   -52886.773   0.36872099 
  179400    281.15367    194.63551    140689.94   -48954.817    3860.9686   -52815.785   0.36807988 
  179600    282.06127   -5.7055246    140963.09   -48962.963    3873.4322   -52836.395   0.36916481 
  179800    274.85613   -146.18447    141230.35   -48988.516    3774.4871   -52763.003   0.34681714 
  180000    277.21682   -38.966054    141044.76    -48956.49    3806.9054   -52763.396   0.36051185 
  180200    276.70848    122.70333    140724.56   -48919.125    3799.9246    -52719.05   0.39253159 
  180400    281.79769    89.034555    140774.71   -48877.606    3869.8126   -52747.419   0.37218534 
  180600    275.79871   -70.589739    141089.47   -48960.268    3787.4311   -52747.699   0.36675714 
  180800    280.90881   -85.600764    141164.14   -48926.414    3857.6061    -52784.02   0.35530807 
  181000    277.06883    38.727515    140878.01   -48965.267    3804.8731   -52770.141   0.36944267 
  181200    277.85567     157.4651    140687.41   -48949.858    3815.6785   -52765.537   0.38572829 
  181400    278.39086   -12.780813    140910.21   -48987.222    3823.0281    -52810.25    0.3653553 
  181600     271.5181   -187.73243    141164.59   -49006.083    3728.6473    -52734.73   0.37112293 
  181800     280.9835    4.3178323    141024.02   -48978.894    3858.6317   -52837.525   0.35658395 
  182000    277.00855    129.64853    140669.07   -48986.436    3804.0454   -52790.482   0.37765941 
  182200    276.36276    106.78422    140700.16   -49001.981     3795.177   -52797.158   0.37913482 
  182400    276.25057   -138.14066    141121.06   -49002.327    3793.6363   -52795.963   0.35412708 
  182600    280.57537   -186.71925    141253.62   -48967.352     3853.027   -52820.379   0.35555891 
  182800    280.64653    74.134883    140826.39   -48932.797    3854.0042   -52786.802   0.37484644 
  183000    279.38083    266.42854    140461.37   -48932.838    3836.6229   -52769.461   0.39362871 
  183200    279.01291    48.130959    140841.45   -48916.543    3831.5705   -52748.114    0.3843569 
  183400     280.5315   -250.68046    141423.44   -48921.151    3852.4246   -52773.575   0.33793259 
  183600    274.52731   -169.23052    141192.09   -48946.512    3769.9716   -52716.484   0.34916579 
  183800    274.65841    233.32487     140446.2   -48978.793    3771.7718   -52750.564   0.39633576 
  184000    275.05521    261.12488    140431.47   -48991.824     3777.221   -52769.045    0.3923544 
  184200    276.05435   -177.66993    141234.33   -49033.278    3790.9417   -52824.219   0.34832434 
  184400    274.32358   -348.29275    141538.19   -49040.718    3767.1738   -52807.892   0.32658622 
  184600    275.54063    91.916564    140787.11   -49049.025     3783.887   -52832.912   0.37664885 
  184800    278.15752    371.41634    140246.18   -49038.134    3819.8237   -52857.958   0.40447933 
  185000    274.25489    52.750565    140795.86    -49031.56    3766.2305   -52797.791   0.37114923 
  185200    272.07707   -347.62505     141460.4   -49083.592    3736.3233   -52819.915    0.3434843 
  185400     269.7793   -188.61843    141114.06    -49062.02     3704.769   -52766.789   0.35193124 
  185600     272.8407    276.29779    140388.77   -49065.509      3746.81   -52812.319   0.40550694 
  185800    278.05326    221.18118    140492.01   -49016.137    3818.3919   -52834.529   0.39660882 
  186000    275.08564   -177.69739       141204   -49002.462    3777.6389   -52780.101   0.34629338 
  186200     274.0212   -244.56355    141354.21   -48991.918    3763.0214   -52754.939   0.34742043 
  186400    279.33562    76.062128    140796.43   -48944.899    3836.0021   -52780.901   0.37625236 
  186600    278.09842    264.19066    140491.48   -48976.946    3819.0122   -52795.958   0.40006074 
  186800    277.02358    12.413359    140863.51   -49003.649    3804.2517   -52807.901   0.37023865 
  187000    275.05818   -173.61735    141267.62   -48975.281    3777.2618   -52752.543   0.35052645 
  187200    279.23009    -107.3295    141091.42   -48993.659    3834.5528   -52828.212   0.35293121 
  187400    273.89525    132.12466    140679.59   -48979.824    3761.2917   -52741.115   0.37497401 
  187600    274.36025    114.09596    140666.37   -49019.807    3767.6774   -52787.485    0.3847834 
  187800    278.89894   -68.129537     141045.9   -49009.703    3830.0054   -52839.709   0.35190792 
  188000    278.37053   -134.43985    141219.67   -48984.085    3822.7488   -52806.834   0.34826635 
  188200    278.30944   -15.634474    140946.33   -48976.066      3821.91   -52797.976   0.37368272 
  188400    276.86596     153.5184    140725.47   -48964.443    3802.0872    -52766.53   0.37113542 
  188600    278.07439    21.259537    140897.71    -48970.65     3818.682   -52789.332   0.36371428 
  188800    274.11765   -100.12723    141134.81   -48983.016    3764.3459   -52747.362   0.34990574 
  189000    278.63059   -39.975404    141067.48   -48976.707    3826.3202   -52803.027    0.3576276 
  189200    277.10346    95.468762    140816.29   -48980.217    3805.3487   -52785.566   0.36769761 
  189400     276.0853    103.91536     140784.1   -48943.811    3791.3667   -52735.177   0.37837445 
  189600    276.96552   -33.629354    141047.62   -48957.983    3803.4545   -52761.437   0.36131995 
  189800    277.20517    -93.36743    141164.58   -48993.887    3806.7454   -52800.633   0.34287785 
  190000    274.24557     34.31028    140965.52   -49024.077    3766.1024   -52790.179   0.37326775 
  190200    277.42071    141.51667    140754.29   -49000.315    3809.7054    -52810.02   0.37329455 
  190400    271.27228    55.530087    140873.48   -48999.566    3725.2716   -52724.838   0.37342808 
  190600    278.05204   -105.44454    141138.12   -48945.612    3818.3753   -52763.987   0.36221949 
  190800      277.418   -83.805055    141127.83   -48975.676    3809.6682   -52785.345   0.35195962 
  191000    276.47337    58.910711    140805.41   -48988.527     3796.696   -52785.223   0.37944824 
  191200    277.66244     191.6791    140659.91   -48982.292     3813.025   -52795.317   0.37988408 
  191400    274.63911   -2.7722435    140942.12    -49006.67    3771.5068   -52778.176   0.36160544 
  191600    277.05417   -144.84434    141191.02   -48963.376    3804.6719   -52768.048   0.35996732 
  191800     273.7546   -50.948733    141002.82     -48994.8    3759.3602    -52754.16      0.36258 
  192000    276.55944    137.28577    140660.68   -48995.324    3797.8779   -52793.202   0.38941271 
  192200    281.04292     138.5006     140722.7   -48967.267    3859.4478   -52826.715   0.38003208 
  192400    277.37343   -93.879552    141116.19    -48975.09    3809.0561   -52784.146   0.35932334 
  192600    276.67893   -181.52996    141189.14   -49002.434    3799.5189   -52801.953   0.35252376 
  192800     275.4859    72.066708    140800.08   -48979.405    3783.1354    -52762.54   0.37649484 
  193000    277.94275    173.88733    140609.74   -48970.795    3816.8743   -52787.669   0.39507249 
  193200    278.59512   -22.086584    140992.79    -48928.35    3825.8331   -52754.183   0.36475698 
  193400    276.43608   -216.94396    141363.67   -48928.781    3796.1838   -52724.965   0.34784885 
  193600    276.64594   -65.620923    141104.51    -48939.84    3799.0658   -52738.906   0.36263635 
  193800    279.54078    195.95416    140590.21   -48987.691    3838.8194   -52826.511   0.38034829 
  194000    276.36234    147.45772    140658.25   -49012.144    3795.1713   -52807.315   0.39193964 
  194200     279.7579   -177.72964    141220.01   -49000.523    3841.8011   -52842.324   0.35386667 
  194400    280.79347   -183.97032     141376.2   -48981.094    3856.0222   -52837.116   0.33724776 
  194600    280.22301    50.653744    140841.03   -49005.395    3848.1883   -52853.583   0.37671684 
  194800    276.83277    241.80493    140476.72   -48992.533    3801.6315   -52794.165   0.39718916 
  195000     274.1848    10.163505     140923.3   -48976.923     3765.268   -52742.191   0.36736521 
  195200    276.78578   -260.60542    141471.41   -48960.718    3800.9862   -52761.704   0.34041597 
  195400    284.64893   -130.38362    141175.07   -48962.617    3908.9676   -52871.585   0.35316374 
  195600    278.27456    267.01663    140415.02   -48966.446    3821.4309   -52787.877   0.40571257 
  195800    275.61013    260.95933     140424.5    -49010.88    3784.8414   -52795.721   0.40952908 
  196000    280.35012   -194.09913       141246   -48982.791    3849.9337   -52832.725   0.35616207 
  196200    280.51978    -365.9208    141566.51   -48967.176    3852.2636    -52819.44   0.32152254 
  196400    282.00708    101.89705    140782.63   -48967.926    3872.6882   -52840.614   0.37936633 
  196600    274.16148    441.84371    140136.02   -49029.117    3764.9477   -52794.065   0.41765702 
  196800    275.92277    92.343083    140738.21   -49024.499    3789.1348   -52813.634   0.38720761 
  197000    278.64748   -398.11009    141628.16   -49030.711    3826.5521   -52857.264   0.33803007 
  197200    273.51932   -272.32525    141275.37   -49081.906    3756.1292   -52838.035    0.3433446 
  197400    275.53161    365.74457    140224.83     -49041.4    3783.7632   -52825.163   0.40034011 
  197600    274.58565    388.76584    140246.81   -48960.615    3770.7726   -52731.388   0.43378958 
  197800    277.56975   -224.17303    141329.17   -48950.273    3811.7521   -52762.025   0.34489207 
  198000    276.33334   -405.90412    141647.12   -48973.754     3794.773   -52768.527   0.32339592 
  198200    275.21364     15.55445    140794.36   -48999.301    3779.3966   -52778.697   0.38510512 
  198400     279.6393    380.30729    140283.86   -48929.509    3840.1724   -52769.681     0.405912 
  198600    278.40989    58.458621    140852.03   -48922.923    3823.2895   -52746.212   0.38303265 
  198800     278.9157   -306.50798    141440.64     -48953.2    3830.2354   -52783.435    0.3562917 
  199000    281.17554   -98.986682    141136.24   -48958.502     3861.269   -52819.771   0.35155462 
  199200    272.94371    191.54761    140548.23   -48952.563    3748.2246   -52700.788   0.38194079 
  199400    278.10991    134.93733    140623.68   -48964.812    3819.1699   -52783.982   0.40332647 
  199600    278.39918   -117.24147    141133.89   -48986.767    3823.1423   -52809.909   0.36653707 
  199800    274.75972   -204.22432    141229.24   -48965.488    3773.1631   -52738.651   0.34533796 
  200000    275.76113    87.380852    140863.02   -48983.168    3786.9151   -52770.083   0.38201355 
Loop time of 242.871 on 6 procs for 200000 steps with 4608 atoms

Performance: 355.745 ns/day, 0.067 hours/ns, 823.484 timesteps/s
99.0% CPU use with 6 MPI tasks x no OpenMP threads

MPI task timing breakdown:
Section |  min time  |  avg time  |  max time  |%varavg| %total
---------------------------------------------------------------
Pair    | 201.5      | 202.97     | 206.38     |  12.1 | 83.57
Neigh   | 12.914     | 13.199     | 13.717     |   9.2 |  5.43
Comm    | 12.555     | 16.537     | 18.11      |  47.3 |  6.81
Output  | 3.0365     | 3.0375     | 3.0415     |   0.1 |  1.25
Modify  | 5.6914     | 5.8271     | 5.9089     |   3.3 |  2.40
Other   |            | 1.302      |            |       |  0.54

Nlocal:        768.000 ave         779 max         749 min
Histogram: 1 0 0 0 1 1 0 0 1 2
Nghost:        1669.17 ave        1682 max        1647 min
Histogram: 1 0 1 0 0 0 0 1 0 3
Neighs:        0.00000 ave           0 max           0 min
Histogram: 6 0 0 0 0 0 0 0 0 0
FullNghs:      24325.0 ave       24732 max       23682 min
Histogram: 1 0 0 1 0 1 0 1 0 2

Total # of neighbors = 145950
Ave neighs/atom = 31.673177
Neighbor list builds = 13307
Dangerous builds = 0
write_data		data.${NAME}
write_data		data.ice_277K_1atm_mW
System init for write_data ...
Total wall time: 0:06:01
