
# Create simulation box of size 50 x 50 x 50 Angstrom
#
lattice	            sc 1
Lattice spacing in x,y,z = 1.0000000 1.0000000 1.0000000
region 	            all block 0 ${X} ${YZ_LO} ${YZ_HI} ${YZ_LO} ${YZ_HI} units box
region 	            all block 0 53.4 ${YZ_LO} ${YZ_HI} ${YZ_LO} ${YZ_HI} units box
region 	            all block 0 53.4 0.43946334865399805.0 ${YZ_HI} ${YZ_LO} ${YZ_HI} units box
region 	            all block 0 53.4 0.43946334865399805.0 50.467656651347426.0 ${YZ_LO} ${YZ_HI} units box
region 	            all block 0 53.4 0.43946334865399805.0 50.467656651347426.0 0.43946334865399805.0 ${YZ_HI} units box
region 	            all block 0 53.4 0.43946334865399805.0 50.467656651347426.0 0.43946334865399805.0 50.467656651347426.0 units box
create_box          1 all
Created orthogonal box = (0.0000000 0.43946335 0.43946335) to (53.400000 50.467657 50.467657)
  3 by 1 by 2 MPI processor grid

# fill box with 4175 randomly distributed atoms
#
create_atoms        1 random 4608 63782 all
Created 4608 atoms
  create_atoms CPU = 0.001 seconds
mass                1 18.015

# Define potential
#
pair_style          sw
pair_coeff          * * /data/emrosky-sim/Freezing_Simulations/Melting/mW_fancy/mW.sw mW
Reading sw potential file /data/emrosky-sim/Freezing_Simulations/Melting/mW_fancy/mW.sw with DATE: 2019-02-27

# Run minimization
#
minimize            1.0e-8 1.0e-8 10000 1000
WARNING: Using 'neigh_modify every 1 delay 0 check yes' setting during minimization (../min.cpp:187)
Neighbor list info ...
  update every 1 steps, delay 0 steps, check yes
  max neighbors/atom: 2000, page size: 100000
  master list distance cutoff = 6.3065
  ghost atom cutoff = 6.3065
  binsize = 3.15325, bins = 17 16 16
  1 neighbor lists, perpetual/occasional/extra = 1 0 0
  (1) pair sw, perpetual
      attributes: full, newton on
      pair build: full/bin/atomonly
      stencil: full/bin/3d
      bin: standard
Per MPI rank memory allocation (min/avg/max) = 4.236 | 4.254 | 4.260 Mbytes
Step Temp E_pair E_mol TotEng Press 
       0            0    4783806.7            0    4783806.7    3420193.2 
     678            0   -52206.329            0   -52206.329    473.84165 
Loop time of 2.08432 on 6 procs for 678 steps with 4608 atoms

99.6% CPU use with 6 MPI tasks x no OpenMP threads

Minimization stats:
  Stopping criterion = max force evaluations
  Energy initial, next-to-last, final = 
      4783806.65539254  -52205.8340710111   -52206.329001827
  Force two-norm initial, final = 1.0959781e+08 5.3210988
  Force max component initial, final = 57824094.0 1.4631981
  Final line search alpha, max atom move = 0.041895459 0.061301356
  Iterations, force evaluations = 678 1001

MPI task timing breakdown:
Section |  min time  |  avg time  |  max time  |%varavg| %total
---------------------------------------------------------------
Pair    | 1.8774     | 1.9292     | 1.9579     |   2.3 | 92.56
Neigh   | 0.043212   | 0.044141   | 0.044923   |   0.3 |  2.12
Comm    | 0.060147   | 0.089108   | 0.14139    |  10.6 |  4.28
Output  | 0          | 0          | 0          |   0.0 |  0.00
Modify  | 0          | 0          | 0          |   0.0 |  0.00
Other   |            | 0.02188    |            |       |  1.05

Nlocal:        768.000 ave         772 max         763 min
Histogram: 1 0 0 1 1 0 1 0 1 1
Nghost:        1696.33 ave        1707 max        1681 min
Histogram: 1 0 1 0 0 1 0 0 1 2
Neighs:        0.00000 ave           0 max           0 min
Histogram: 6 0 0 0 0 0 0 0 0 0
FullNghs:      26092.3 ave       26272 max       25731 min
Histogram: 1 0 0 1 0 0 0 0 2 2

Total # of neighbors = 156554
Ave neighs/atom = 33.974392
Neighbor list builds = 38
Dangerous builds = 0

# Add velocity/set timestep
#
velocity            all create ${TEMP} 120598 rot yes dist gaussian
velocity            all create 277 120598 rot yes dist gaussian
timestep            5.0

# Define output
#
compute	            1 all msd
thermo	            100
thermo_style        custom step temp press vol etotal ke pe c_1[4] density

# Neighbor lists
#
neigh_modify        delay 0 every 1 check yes

# Set fixes
#
fix                 1 all momentum 10 linear 1 1 1 rescale
fix                 2 all nve
fix                 3 all temp/csvr ${TEMP} ${TEMP} 500.0 928347
fix                 3 all temp/csvr 277 ${TEMP} 500.0 928347
fix                 3 all temp/csvr 277 277 500.0 928347
fix                 4 all press/berendsen iso ${PRES} ${PRES} 1000.0 modulus 20000
fix                 4 all press/berendsen iso 1 ${PRES} 1000.0 modulus 20000
fix                 4 all press/berendsen iso 1 1 1000.0 modulus 20000

# Run 0.5 ns equilibration
#
dump                1 all custom 1000 eq.${NAME}.dump id type x y z vx vy vz
dump                1 all custom 1000 eq.liq_277K_1atm_mW.dump id type x y z vx vy vz
run                 100000
Per MPI rank memory allocation (min/avg/max) = 3.504 | 3.507 | 3.510 Mbytes
Step Temp Press Volume TotEng KinEng PotEng c_1[4] Density 
     678          277    1774.8924    133650.59   -48402.401     3803.928   -52206.329 6.1319075e-34    1.0313947 
     700    135.86511    1297.1992    135152.36   -48051.238    1865.7801   -49917.018   0.13871262    1.0199342 
     800    190.63268     303.0062    136720.56   -46616.841    2617.8808   -49234.722   0.56196992    1.0082355 
     900    221.09734    261.63793       137278   -45696.225    3036.2396   -48732.465    1.0524399    1.0041414 
    1000    238.01005   -36.817636    137617.55   -45038.973    3268.4949   -48307.468    1.5277306    1.0016638 
    1100    252.45296    112.63132    137685.04   -44579.078    3466.8335   -48045.911     2.157092    1.0011728 
    1200    257.73795    122.60026    138013.69   -44234.056    3539.4102   -47773.466    2.8956922    0.9987887 
    1300    264.02169    -276.3008    138171.36   -43916.191    3625.7021   -47541.893    3.7261138   0.99764898 
    1400    265.30278    71.565975    138409.94   -43782.948    3643.2948   -47426.243    4.6421496   0.99592928 
    1500    271.13037     22.60457    138397.92   -43586.258    3723.3227    -47309.58    5.7048833   0.99601578 
    1600      274.662   -48.472016    138485.96   -43489.352    3771.8211   -47261.173    6.6970066   0.99538258 
    1700    273.18675    40.702484    138243.84   -43462.248    3751.5622    -47213.81      7.69538   0.99712592 
    1800     270.8748    95.920134    138266.68   -43334.934     3719.813   -47054.747    8.9144776   0.99696118 
    1900    271.89176    86.328842    138143.05   -43276.767    3733.7786   -47010.545    10.240933   0.99785342 
    2000    277.11532   -222.61651    138117.89   -43196.465    3805.5116   -47001.977     11.76709   0.99803518 
    2100    275.50483    103.15688    137982.25   -43282.199    3783.3954   -47065.595    13.293629   0.99901632 
    2200    271.44936    104.00608     137814.2   -43265.612    3727.7032   -46993.316    14.571455    1.0002345 
    2300    275.23014   -173.87626    137782.46    -43179.85    3779.6232   -46959.473     16.02191    1.0004649 
    2400    277.78671   -110.30071     137803.5   -43180.547    3814.7316   -46995.278     17.42966    1.0003122 
    2500    276.90816    60.761791    137818.48   -43154.702    3802.6667   -46957.369    19.010312    1.0002035 
    2600    286.01507   -232.05227    137527.34   -43075.848    3927.7282   -47003.576    20.625697    1.0023208 
    2700    276.39342    183.43188    137673.72   -43045.819     3795.598   -46841.417    22.209479    1.0012551 
    2800    278.59831   -65.697787    137795.22   -43147.721    3825.8768   -46973.598    23.623275    1.0003723 
    2900     275.2102    15.981228    137727.36     -43140.7    3779.3494   -46920.049    25.140022    1.0008652 
    3000    277.77502   -51.678649    137884.26   -43105.577     3814.571   -46920.148    26.397966   0.99972627 
    3100    277.73011   -217.76323    137690.42   -43121.503    3813.9542   -46935.457    27.731294    1.0011337 
    3200    276.85514   -130.35113    137613.14   -43116.727    3801.9386   -46918.666    29.323767    1.0016959 
    3300    281.41842   -81.569137    137817.24   -43131.836    3864.6043    -46996.44    30.693723    1.0002125 
    3400    279.16966   -122.34539    138056.49   -43087.705     3833.723   -46921.428    32.359405   0.99847909 
    3500    279.02108   -176.08635    137686.91   -43048.229    3831.6826   -46879.912    33.834959    1.0011592 
    3600    281.71604   -52.505125    137857.68    -43027.35    3868.6914   -46896.041    35.234856   0.99991906 
    3700    285.12484   -73.941428    137377.75   -43032.185     3915.503   -46947.688     36.52395    1.0034123 
    3800    280.49314   -187.32616    137438.25    -43078.64    3851.8979   -46930.538    38.245737    1.0029706 
    3900    277.76809    91.254154    137552.95   -43186.929    3814.4759   -47001.405    39.642674    1.0021342 
    4000    274.40229   -127.87918    137666.14   -43215.009    3768.2547   -46983.263    41.150269    1.0013103 
    4100    276.62677    175.10076    137579.27   -43172.266    3798.8026   -46971.068    42.623483    1.0019425 
    4200    280.09307   -183.07281    137836.87   -43145.657    3846.4039   -46992.061    44.282809      1.00007 
    4300    275.78954    190.50421    137698.36   -43099.041    3787.3051   -46886.346     45.72303     1.001076 
    4400    276.34033    -98.98658    137903.27   -43080.942    3794.8689   -46875.811    47.251043   0.99958844 
    4500    279.29114    107.97038    137901.64    -43091.58    3835.3912   -46926.971    48.901265   0.99960028 
    4600    276.79422   -108.90144    137906.65   -43121.021     3801.102   -46922.123    50.550551   0.99956394 
    4700     275.0275   -109.30822    137587.52   -43173.175    3776.8404   -46950.016    52.181779    1.0018824 
    4800    273.20688   -201.79981    137508.71   -43131.348    3751.8386   -46883.187    53.563647    1.0024566 
    4900     279.4645    60.505747    137501.61   -43120.497    3837.7719   -46958.269    55.189201    1.0025084 
    5000    274.74156   -13.311187    137599.41    -43168.95    3772.9138   -46941.864    56.791812    1.0017959 
    5100    274.48561   -32.100538    137581.03   -43112.466    3769.3988   -46881.865    58.565339    1.0019297 
    5200    271.32379   -106.61835    137561.88   -43164.384    3725.9789   -46890.363    60.159804    1.0020691 
    5300    276.54639    45.063184     137452.1   -43137.627    3797.6988   -46935.326    61.846637    1.0028695 
    5400    275.95234   -13.617962    137534.75   -43057.266    3789.5409   -46846.807    63.495664    1.0022668 
    5500    277.90753   -37.402533    137727.63   -43029.972    3816.3907   -46846.363    65.220527    1.0008632 
    5600     278.7722   -8.1924677    138000.69   -42953.329    3828.2648   -46781.594    66.828922   0.99888278 
    5700    279.52061    239.67085    137977.19   -43052.913    3838.5424   -46891.455    68.647322   0.99905297 
    5800    284.65793    56.180138    138071.12   -42995.765    3909.0912   -46904.856    70.124436   0.99837325 
    5900    276.42684   -103.52597    137864.03   -43158.557     3796.057   -46954.614    71.761206   0.99987293 
    6000    277.24528     -94.3779    137951.85   -43208.578    3807.2963   -47015.874    73.300104   0.99923641 
    6100    273.34203   -110.65115    137975.52   -43217.664    3753.6946   -46971.359    74.576457   0.99906503 
    6200    277.49015   -151.59587     137789.5   -43216.146    3810.6589   -47026.805    75.713867    1.0004138 
    6300    277.93289    51.979647    137537.52   -43222.707     3816.739   -47039.446    76.769041    1.0022467 
    6400    271.73654   -35.832603    137526.79   -43198.436    3731.6471   -46930.083    77.877298    1.0023249 
    6500    279.04451    107.87973    137579.27    -43158.87    3832.0044   -46990.874    79.405574    1.0019425 
    6600    276.84677    -152.3677    137494.45    -43249.47    3801.8237   -47051.294    81.153697    1.0025606 
    6700    275.11809    138.98615    137482.32   -43267.389    3778.0845   -47045.474    82.249198     1.002649 
    6800    267.98067    42.284825     137426.8   -43319.426    3680.0692   -46999.495    83.913525    1.0030541 
    6900    278.05286   -94.129149    137342.43   -43265.789    3818.3865   -47084.176    85.160674    1.0036703 
    7000     278.9232    64.436501    137550.32   -43120.788    3830.3384   -46951.127    86.295943    1.0021534 
    7100    271.31464   -132.38403    137203.61    -43229.87    3725.8532   -46955.723    87.675984    1.0046858 
    7200    271.63538   -45.695177    137234.62     -43241.1    3730.2579   -46971.358    89.375285    1.0044588 
    7300    268.31352    131.59149    137468.41   -43240.423      3684.64   -46925.063    90.965236    1.0027505 
    7400    275.48177   -77.684053    137527.46   -43257.256    3783.0788   -47040.334      92.1419      1.00232 
    7500    273.84505    78.559914    137523.39   -43200.449    3760.6024   -46961.052    93.828271    1.0023496 
    7600    276.62681    79.389393    137790.65   -43147.123     3798.803   -46945.926    95.640135    1.0004054 
    7700    278.08857     -116.418    137821.62   -43102.479    3818.8769   -46921.356    97.341648    1.0001806 
    7800    276.12331    1.6412186    137728.58   -43143.459    3791.8887   -46935.348    98.928706    1.0008563 
    7900     275.8364   -8.5242307    137491.97   -43255.765    3787.9487   -47043.714    100.67021    1.0025787 
    8000    272.57248    12.647259    137703.92   -43262.239    3743.1267   -47005.366    102.07126    1.0010355 
    8100    280.00662    4.8513829    137655.52   -43137.044    3845.2166   -46982.261    103.43365    1.0013875 
    8200    276.50574    -79.00017    137590.87   -43179.944    3797.1404   -46977.084    104.89499     1.001858 
    8300    280.34338   -66.672681     137357.9   -43139.692    3849.8412   -46989.533    106.19066    1.0035572 
    8400    269.87632    301.39503    137053.35   -43194.323    3706.1014   -46900.424    107.37248    1.0057873 
    8500    274.26157    74.684275    137345.19   -43190.512    3766.3222   -46956.834     109.1473    1.0036501 
    8600    279.54591    -95.10871    137280.58   -43124.196    3838.8899   -46963.086    110.43514    1.0041225 
    8700    276.81635    14.193552    137279.54     -43077.6     3801.406   -46879.006    112.40017    1.0041301 
    8800    284.37134   -119.77451    137155.95    -43059.68    3905.1556   -46964.836    114.30223    1.0050349 
    8900    274.77626    41.766363    137345.05   -43103.974    3773.3902   -46877.364    116.10808    1.0036511 
    9000    279.01487   -153.41845    137344.62    -43034.19    3831.5974   -46865.788    117.64883    1.0036543 
    9100    278.23507    120.09401    137508.97   -43031.539    3820.8887   -46852.428    119.24822    1.0024548 
    9200    276.60244     35.40559    137533.88   -43084.183    3798.4684   -46882.651    120.58845    1.0022731 
    9300    281.09639    177.51874    137874.69   -43073.206     3860.182   -46933.388    122.16665   0.99979566 
    9400    275.82807   -232.53324    137642.76   -43122.208    3787.8343   -46910.042    123.71521    1.0014803 
    9500    277.84798   -93.752384    137675.39   -43156.511    3815.5729   -46972.083    125.35148     1.001243 
    9600    272.63995    17.666281    137433.43    -43204.65    3744.0532   -46948.703    126.95301    1.0030057 
    9700    279.78495   -123.28018    137659.01   -43128.641    3842.1726   -46970.814    128.36566    1.0013621 
    9800    280.86665    222.21517    137745.03    -43154.37    3857.0271   -47011.397    129.99797    1.0007368 
    9900    282.05267      23.4665    137861.58   -43060.319    3873.3142   -46933.633     131.1456   0.99989075 
   10000     272.1121    -100.3357    137560.48   -43246.292    3736.8045   -46983.097    132.52152    1.0020794 
   10100    275.55253     106.8536    137463.49   -43135.543    3784.0505   -46919.594    134.01259    1.0027864 
   10200    274.02242   -104.60756    137505.78   -43210.683    3763.0381   -46973.721    135.37228     1.002478 
   10300    278.57587    44.652234    137398.25   -43134.279    3825.5687   -46959.847    136.79664    1.0032625 
   10400    277.22914    69.167162    137534.45   -43073.014    3807.0747   -46880.089    138.46938     1.002269 
   10500    276.19603    314.34399    137653.33   -43087.185    3792.8873   -46880.072    140.01842    1.0014034 
   10600     277.9414   -125.30464    137724.59   -43070.711    3816.8558   -46887.567    141.90611    1.0008853 
   10700    281.12864   -8.8219645    137968.52   -43130.961    3860.6248   -46991.586    142.74016   0.99911573 
   10800      282.627    52.290029    138244.67   -43074.019    3881.2013    -46955.22    144.57434   0.99711997 
   10900    284.32983    38.626914    137922.58   -42981.193    3904.5855   -46885.778    145.97197    0.9994485 
   11000    279.02034    149.46671    137858.65   -43029.211    3831.6725   -46860.884    147.00913   0.99991199 
   11100    277.09654   -43.590583    137727.54    -43091.05    3805.2537   -46896.304    148.24704    1.0008638 
   11200    274.45545   -13.874365    137675.27   -43048.813    3768.9847   -46817.798    149.86943    1.0012439 
   11300     281.5629   -218.55116    137693.48   -43093.697    3866.5884   -46960.286    151.13946    1.0011114 
   11400    282.42412   -67.804619    137659.46   -43121.781    3878.4152   -47000.196    152.78327    1.0013589 
   11500    268.61382    187.05113    137820.55   -43262.413     3688.764   -46951.177    154.75423    1.0001884 
   11600    272.46091    -73.19911    137858.46   -43282.242    3741.5944   -47023.836    156.27843   0.99991336 
   11700    277.81331    67.937635    137439.55   -43191.686    3815.0968   -47006.782    157.75146     1.002961 
   11800    271.63036    96.552907    137401.69   -43154.537    3730.1889   -46884.726    159.06574    1.0032374 
   11900    274.19913    68.898066    137487.48     -43225.3    3765.4647   -46990.765    160.60615    1.0026114 
   12000    267.32705    51.221107    137754.97    -43184.93    3671.0933   -46856.024    162.20591    1.0006646 
   12100    273.06182   -12.242948    137792.55   -43196.785    3749.8466   -46946.631    163.59468    1.0003917 
   12200    281.17451    204.37301    137867.96   -43037.449    3861.2548   -46898.703    164.89247   0.99984446 
   12300    284.34112    251.44787    137971.78   -42979.827    3904.7405   -46884.567    167.08571    0.9990921 
   12400    282.28101    1.1559344    137949.44   -42971.706    3876.4499   -46848.156    168.78621   0.99925389 
   12500     276.9431    42.068182    138120.38    -42986.08    3803.1466   -46789.227    170.68104   0.99801722 
   12600    276.83655   -179.45945    137897.96   -43048.126    3801.6833   -46849.809    172.22272   0.99962696 
   12700    274.32338   -303.53599    137719.12   -42996.395     3767.171   -46763.566    173.32895     1.000925 
   12800    278.53712    156.73198    137541.94   -43093.761    3825.0366   -46918.797    174.98577    1.0022144 
   12900     280.1401   -124.23521    137335.94   -43082.383    3847.0497   -46929.433    176.66916    1.0037177 
   13000    271.90594    52.187361    137310.44   -43122.938    3733.9734   -46856.912    178.41246    1.0039041 
   13100     278.3391    264.77977    137600.85   -43104.447    3822.3172   -46926.764    180.08676    1.0017854 
   13200    277.79283    10.914756    137707.75   -43054.062    3814.8156   -46868.878    181.68966    1.0010077 
   13300    280.94198    36.017387    137526.65   -43045.205    3858.0615   -46903.266    183.11888    1.0023258 
   13400    281.53026    36.289145    137451.23   -43111.834    3866.1402   -46977.974    184.57868    1.0028759 
   13500    275.59427    94.211913    137697.72   -43114.429    3784.6237   -46899.053    185.98044    1.0010806 
   13600    277.23736   -96.835759    137803.27   -43109.305    3807.1875   -46916.493    187.79236    1.0003139 
   13700     274.4798    102.76662    137723.51   -43128.238    3769.3191   -46897.557    189.08868    1.0008931 
   13800    273.77224    27.552157    137848.64   -43162.667    3759.6024    -46922.27      190.064   0.99998461 
   13900    275.05572    11.536518    137792.05   -43171.664    3777.2279   -46948.892    191.64569    1.0003953 
   14000     273.2959   -88.267167    137625.36   -43274.729     3753.061    -47027.79    193.31233    1.0016069 
   14100    274.26586     94.97378    137417.98   -43254.654    3766.3811   -47021.035    194.86047    1.0031185 
   14200    275.61199    60.438692    137612.44    -43192.72     3784.867   -46977.587    196.53634     1.001701 
   14300    276.83103    -42.78052    137686.26   -43203.071    3801.6076   -47004.678    198.18429     1.001164 
   14400    273.51381     86.60919    137737.97   -43195.403    3756.0536   -46951.456    200.09526    1.0007881 
   14500     275.5811   -256.77904    137674.32    -43210.01    3784.4428   -46994.453    202.30217    1.0012507 
   14600    276.93074    124.80563    137809.86   -43102.736    3802.9768   -46905.713    204.37449     1.000266 
   14700    281.01165   -92.206831    137807.35   -43075.846    3859.0183   -46934.864    206.47003    1.0002842 
   14800    276.69986   -20.966677    137573.71   -43142.288    3799.8062   -46942.095    207.89765     1.001983 
   14900    274.58648   -124.82207    137466.93   -43104.872     3770.784   -46875.656    209.43374    1.0027613 
   15000      275.468    26.927679    137505.38   -43152.274    3782.8896   -46935.164    210.82937    1.0024809 
   15100    277.12638    103.33069    137459.78   -43161.197    3805.6635    -46966.86    212.44082    1.0028134 
   15200    276.22546   -36.760259    137507.93   -43219.025    3793.2916   -47012.317    214.11535    1.0024623 
   15300    277.61913    210.37683    137689.23   -43156.773    3812.4302   -46969.203    215.85135    1.0011423 
   15400    281.02452    16.436815    137631.92   -43069.357    3859.1951   -46928.552     217.4263    1.0015592 
   15500     278.1299    26.254601     137554.1   -43098.406    3819.4444    -46917.85    218.71511    1.0021259 
   15600    279.19484    -54.44434     137748.2   -43137.707    3834.0688   -46971.776    220.48817    1.0007137 
   15700    275.05692   -5.0809638    137675.56   -43197.133    3777.2444   -46974.378    221.79535    1.0012417 
   15800    279.05834   -151.21001    137596.16   -43172.128    3832.1942   -47004.323    223.14609    1.0018195 
   15900    274.53707   -74.421418    137524.13   -43105.342    3770.1056   -46875.448    224.89909    1.0023442 
   16000     279.3648    172.14904    137595.58   -43167.044    3836.4027   -47003.446     226.4176    1.0018237 
   16100    279.73753    53.882994    137783.06    -43178.67    3841.5213   -47020.192    228.59814    1.0004605 
   16200    282.00631   -98.469736    137761.41   -43046.575    3872.6775   -46919.253     230.1586    1.0006177 
   16300    279.74376   -140.09542    137622.01   -43070.186    3841.6068   -46911.792    231.68109    1.0016314 
   16400    279.26537   -203.11991    137680.23   -43015.495    3835.0373   -46850.532    233.36427    1.0012078 
   16500    280.62823    162.03428    137724.77   -43001.573    3853.7529   -46855.326    234.78192     1.000884 
   16600    279.53456   -304.81599    137443.86   -43077.899     3838.734   -46916.633    235.45642    1.0029296 
   16700    274.86799    -176.5797    137162.71    -43109.89    3774.6499    -46884.54    237.38532    1.0049854 
   16800    272.95982   -5.6454871    137201.97   -43103.906    3748.4458   -46852.351    239.39013    1.0046978 
   16900    281.27628    87.068423    137347.96   -43066.444    3862.6524   -46929.097    240.76146    1.0036299 
   17000    274.30466    82.095303    137908.46   -43108.214    3766.9139   -46875.128    242.97278   0.99955085 
   17100    277.78118    15.496065     137664.1   -43134.455    3814.6555   -46949.111    244.51824    1.0013251 
   17200    279.09863    66.111735    137686.93   -43053.676    3832.7476   -46886.424     246.4311    1.0011591 
   17300    280.15554    205.65124     137774.9   -43010.472    3847.2617   -46857.733    248.13535    1.0005198 
   17400    278.90385   -37.339339    137858.36   -43099.306    3830.0728   -46929.379    250.02067   0.99991412 
   17500    278.28252   -115.61066    137974.36   -43066.888    3821.5402   -46888.429    251.96792   0.99907344 
   17600     274.4048   -232.28256    137717.02   -43162.528    3768.2892   -46930.818    252.91832    1.0009403 
   17700    274.25412     9.745809    137781.28   -43116.619    3766.2199   -46882.838    254.32529    1.0004735 
   17800    279.56799   -64.636124    137464.29   -43115.966    3839.1932    -46955.16     255.1056    1.0027806 
   17900    278.70361   -120.79907    137522.61   -43197.708    3827.3229    -47025.03    257.41424    1.0023553 
   18000    274.21771   -101.86363     137697.7    -43249.85    3765.7199   -47015.569    259.20799    1.0010808 
   18100    272.35676    128.65269    137760.31   -43259.871    3740.1642   -47000.035    260.62857    1.0006258 
   18200    278.72711    61.932546    137776.63   -43150.239    3827.6456   -46977.885    261.51132    1.0005073 
   18300    276.94374   -95.431884    137838.81   -43198.764    3803.1554   -47001.919    262.87339    1.0000559 
   18400    270.22614    99.207989     137761.3   -43284.378    3710.9053   -46995.283    264.54912    1.0006186 
   18500    275.33573    263.92553    137858.21   -43192.923    3781.0732   -46973.996    266.17033   0.99991518 
   18600    279.10777    43.777939    138161.05   -43173.374    3832.8731   -47006.247    268.20573    0.9977234 
   18700    280.10457   -241.09415    138232.84   -43080.061    3846.5618   -46926.623    270.51815   0.99720529 
   18800    280.48101    78.931831     137943.5   -43077.501    3851.7312   -46929.232    272.00716   0.99929693 
   18900    278.74091    124.03218    137927.19   -43169.715    3827.8351    -46997.55    273.17266   0.99941508 
   19000    275.06903    352.99831    138137.64   -43174.648    3777.4108   -46952.059    275.40755   0.99789253 
   19100    275.86906   -2.4151804    137839.37   -43204.163    3788.3972    -46992.56    276.74209    1.0000518 
   19200    275.37383   -14.832298    137924.56   -43164.423    3781.5964   -46946.019    278.17532   0.99943415 
   19300    275.03504   -70.050377    138221.26   -43119.983    3776.9439   -46896.926    280.60853   0.99728881 
   19400    274.28386    38.695085    138029.43   -43168.683    3766.6283   -46935.311    282.80532    0.9986748 
   19500    282.21586    125.50591    138013.67   -43124.647    3875.5552   -47000.202     284.3203   0.99878889 
   19600    278.71641   -55.644197    137958.98   -43153.841    3827.4987    -46981.34    285.45785   0.99918481 
   19700    275.51025    7.9881903    138029.56   -43158.906    3783.4698   -46942.376    286.69061   0.99867392 
   19800    275.98604     193.4962    137919.01   -43114.443    3790.0037   -46904.447    287.29197   0.99947435 
   19900    276.61517   -9.2549609    137832.89   -43084.559    3798.6433   -46883.202    288.52471    1.0000989 
   20000     282.1031   -15.237628    138139.71   -42995.818    3874.0067   -46869.825    290.21803   0.99787757 
   20100    278.73313   -11.633033     137791.5   -43058.891    3827.7283   -46886.619    291.23709    1.0003992 
   20200    283.06464   -168.20592    137785.17   -43005.673    3887.2112   -46892.884     292.8545    1.0004452 
   20300      283.601    62.201836    137619.02   -42991.162    3894.5768   -46885.739    294.36781    1.0016531 
   20400     282.0883    46.319159    138004.76   -43068.291    3873.8035   -46942.094    296.18543   0.99885338 
   20500    283.90877   -19.344546    138139.82   -43025.651    3898.8033   -46924.455    297.89771   0.99787673 
   20600    274.92635   -100.90947    137862.72   -43092.647    3775.4513   -46868.099    298.38236   0.99988244 
   20700    274.96069    162.16092    137812.19   -43135.078    3775.9229   -46911.001    299.67204    1.0002491 
   20800    277.17081    65.930149    137805.17   -43170.224    3806.2736   -46976.498    300.80734       1.0003 
   20900    275.63267    54.305642    137693.56   -43186.991    3785.1509   -46972.142    301.63427    1.0011108 
   21000    275.33885    80.855545    137759.14   -43103.492     3781.116   -46884.608    303.84334    1.0006343 
   21100    276.85981   -1.3850211    137881.44   -43122.335    3802.0028   -46924.338    305.80223   0.99974675 
   21200    274.04266   -110.94895    137822.13   -43192.879     3763.316   -46956.195    306.67171     1.000177 
   21300    274.58001    76.741747    137824.87   -43247.526    3770.6952   -47018.221    307.79607     1.000157 
   21400    279.78134   -104.70702    137847.71   -43187.575     3842.123   -47029.698    308.98279   0.99999136 
   21500    278.38626   -136.31592    137560.88   -43047.927    3822.9649   -46870.892     309.3199    1.0020764 
   21600    277.64723    -153.7442    137293.44   -43125.665    3812.8162   -46938.481    310.45375    1.0040284 
   21700    286.32302    9.0860749    137456.79   -43096.485    3931.9572   -47028.442     311.2847    1.0028353 
   21800     276.4354    12.546429     137718.8   -43058.048    3796.1746   -46854.223    312.08706    1.0009274 
   21900    281.33964   -147.70087    137383.95   -43033.916    3863.5225   -46897.439    312.28931     1.003367 
   22000     278.9961    236.30118     137232.4   -43069.397    3831.3397   -46900.737    313.04266     1.004475 
   22100    284.46739    51.661317    137321.56   -43034.298    3906.4746   -46940.772    314.33827    1.0038229 
   22200     284.4945    -31.64888    137609.53    -43004.55    3906.8469   -46911.397    316.66283    1.0017221 
   22300    280.16923   -47.385069    137379.94   -43029.221    3847.4497   -46876.671    318.16388    1.0033962 
   22400     273.9508    40.979874    137389.97   -43117.952    3762.0545   -46880.006     320.4186     1.003323 
   22500     277.4811    155.99979    137403.98   -43122.307    3810.5347   -46932.842    321.58804    1.0032207 
   22600    277.59562   -63.266506    137958.03   -43110.096    3812.1073   -46922.203    324.04616   0.99919165 
   22700    273.68951   -25.472898    137850.11   -43136.388    3758.4663   -46894.854    324.78207   0.99997391 
   22800    271.41684    23.543342    137686.66   -43198.282    3727.2567   -46925.539    326.56996     1.001161 
   22900    274.87362   -55.474219    137451.82     -43267.9    3774.7272   -47042.627    327.45543    1.0028715 
   23000    276.76407   -20.000904    137616.28   -43147.016     3800.688   -46947.704    329.44164     1.001673 
   23100    279.26995   -78.019904    137848.67   -43106.316    3835.1002   -46941.416    330.96471   0.99998435 
   23200    271.83704    116.29526     137461.2   -43124.769    3733.0271   -46857.796     332.4299    1.0028031 
   23300    272.56283     -323.463    137206.65   -43151.098    3742.9942   -46894.092    333.62319    1.0046635 
   23400    273.92051    67.374066    137009.88   -43165.192    3761.6386    -46926.83    334.34203    1.0061064 
   23500    270.03858     93.65214    137379.94   -43097.812    3708.3296   -46806.141    336.22146    1.0033962 
   23600    275.41912    187.84509    137363.71   -43145.777    3782.2183   -46927.996    337.66014    1.0035148 
   23700    274.70364   -94.225121    137274.37   -43192.354     3772.393   -46964.747    338.59698    1.0041679 
   23800    275.68291    45.362689    137533.93   -43174.044    3785.8409   -46959.885    340.15536    1.0022728 
   23900     272.5513    81.922656    137634.43   -43076.798    3742.8358   -46819.634    341.33378    1.0015409 
   24000    274.40969    17.535344    137674.55   -43024.668    3768.3563   -46793.025    342.97358    1.0012491 
   24100     277.9803    90.104695    137532.16   -43033.492      3817.39   -46850.882    344.10312    1.0022857 
   24200    281.98072    337.75499    137562.39   -42960.453    3872.3261   -46832.779     346.1513    1.0020655 
   24300    280.73734   -3.0606713    137850.36   -43026.488    3855.2513   -46881.739    347.62929   0.99997213 
   24400    278.24501    153.33168     137657.5   -42999.479    3821.0252   -46820.505    348.26233    1.0013731 
   24500    278.73107   -159.06339    137560.48   -43066.579    3827.7001   -46894.279    349.45367    1.0020794 
   24600    278.49037   -28.476322    137775.22   -43114.497    3824.3946   -46938.892    350.80742    1.0005175 
   24700    281.29261   -20.115212    137622.04   -43057.803    3862.8766    -46920.68    352.52909    1.0016311 
   24800    277.78039   -162.32917    137590.47   -43022.747    3814.6447   -46837.392    353.94101    1.0018609 
   24900    274.82184   -43.509565    137620.04   -43152.372    3774.0161   -46926.388    355.55281    1.0016457 
   25000    278.68268    114.76627    137359.97   -43184.195    3827.0356    -47011.23    356.85949    1.0035421 
   25100    278.75518   -16.529531     137226.4   -43156.027    3828.0311   -46984.058    358.20811    1.0045189 
   25200    274.94847    180.59152    137131.47   -43165.168    3775.7552   -46940.923    359.41719    1.0052143 
   25300    276.93991   -98.194586    137353.78   -43171.456    3803.1027   -46974.558    361.29996    1.0035874 
   25400    277.35839    75.668535    137501.09   -43173.986    3808.8496   -46982.836    363.74404    1.0025121 
   25500    276.09266    24.518251    137770.75    -43169.96    3791.4678   -46961.428    365.43045      1.00055 
   25600    279.65128    167.86731    137878.48   -43226.006    3840.3369   -47066.343    367.10431   0.99976821 
   25700     275.0432    10.196007    137899.84   -43243.519     3777.056   -47020.575    367.90352   0.99961333 
   25800    267.43211   -19.807203    137809.12   -43265.503     3672.536   -46938.039    368.86393    1.0002714 
   25900     274.4451    114.23659    137648.36   -43365.728    3768.8425    -47134.57    369.97982    1.0014396 
   26000    275.06729   -58.718666    137718.18   -43192.663    3777.3869    -46970.05    371.05948    1.0009318 
   26100    274.11237   -104.08057     137674.8    -43247.01    3764.2733   -47011.284    372.81636    1.0012473 
   26200    276.88649     86.61507     137605.9   -43147.708    3802.3692   -46950.077    374.34805    1.0017486 
   26300    281.63026   -6.3523372    137552.59    -43093.88    3867.5134   -46961.393    376.58713    1.0021368 
   26400    276.69499   -23.382286    137436.23   -43157.887    3799.7394   -46957.626    377.90287    1.0029853 
   26500    280.62454    31.945753    137595.94   -43043.035    3853.7022   -46896.737    379.94097    1.0018211 
   26600    273.88019   -128.40801    137605.42   -43065.181    3761.0849   -46826.266    381.64724    1.0017521 
   26700    271.89644    -72.28966    137696.61   -43087.385    3733.8428   -46821.228    384.09342    1.0010887 
   26800    277.40475    155.46137    137914.62    -43028.03    3809.4863   -46837.516    385.93269   0.99950621 
   26900    277.05787   -54.012113    137952.15   -43115.961    3804.7227   -46920.683    388.53337    0.9992343 
   27000     278.0628   -7.1635144    137750.61   -43158.844     3818.523   -46977.367    388.94712    1.0006963 
   27100     278.0384   -208.56753    137566.06   -43142.289    3818.1879   -46960.477    389.61439    1.0020387 
   27200    277.55198   -34.656006    137438.43   -43106.079    3811.5081   -46917.587    390.86569    1.0029693 
   27300    278.38956     18.54017    137619.85   -43060.033    3823.0102   -46883.044    392.48744     1.001647 
   27400     281.1454    78.345388    137638.69   -43037.933     3860.855   -46898.788    394.13151      1.00151 
   27500    276.14246   -187.19189    137587.19   -43103.139    3792.1517   -46895.291    396.11003    1.0018848 
   27600    273.66354    117.83167    137483.07   -43038.891    3758.1097   -46797.001    397.60208    1.0026436 
   27700    277.11669    218.73903    137634.97   -43054.992    3805.5305   -46860.523    399.15372     1.001537 
   27800    279.01867   -184.37293    137837.39   -43042.607    3831.6495   -46874.256    401.11158    1.0000662 
   27900    278.86104   -152.70576    137921.54   -43052.433    3829.4848   -46881.918    402.74349   0.99945602 
   28000    284.21509   -61.153059    137974.06    -42928.09    3903.0098     -46831.1    405.36983   0.99907563 
   28100    283.05429    83.855505    137762.05   -42983.098    3887.0691   -46870.167    406.54366    1.0006131 
   28200    280.24605    88.284335    137712.79   -43085.725    3848.5047    -46934.23    407.79428    1.0009711 
   28300    272.54964   -26.018082    137624.83   -43183.081     3742.813   -46925.894    408.98155    1.0016108 
   28400    284.12809   -76.813948    137663.71   -43083.337    3901.8152   -46985.153    410.13748    1.0013279 
   28500    282.35891   -9.9029473    137833.74   -43116.927    3877.5196   -46994.447    412.34387    1.0000927 
   28600    272.36401    56.051954    137954.83   -43196.096    3740.2638    -46936.36    414.09281   0.99921483 
   28700    274.46466   -81.794146    137665.37   -43257.404    3769.1112   -47026.516    415.58928    1.0013158 
   28800    279.10078     20.42923    137726.37   -43213.088    3832.7771   -47045.865    417.55686    1.0008723 
   28900    275.48398   -90.709131    137826.55    -43182.02     3783.109   -46965.129      418.814    1.0001449 
   29000    277.61686   -96.210409    137713.74   -43144.955     3812.399   -46957.354    419.58682    1.0009641 
   29100    275.99712   -155.46944    137783.32   -43144.979    3790.1558   -46935.135    421.21706    1.0004587 
   29200    273.58688    -115.6546    137594.25   -43213.044    3757.0569   -46970.101    422.16556    1.0018334 
   29300    272.68928   -39.061875    137375.99   -43200.143    3744.7306   -46944.873    422.84208    1.0034251 
   29400    276.47701    128.34999    137317.35   -43162.621    3796.7459   -46959.367    424.64518    1.0038536 
   29500    277.99018    -45.52792     137451.7   -43165.928    3817.5257   -46983.453    426.35478    1.0028724 
   29600      278.427   -52.071196    137389.86   -43140.087    3823.5243   -46963.612    427.63794    1.0033238 
   29700    279.70846    94.851324       137688   -43092.388    3841.1221    -46933.51     430.2595    1.0011512 
   29800    279.79643     99.45073    137953.63   -43074.002    3842.3302   -46916.332    430.70288   0.99922352 
   29900    278.98205    117.51246    137730.01   -43024.195    3831.1466   -46855.342     431.4239    1.0008459 
   30000    277.04273   -292.05982    137688.73   -43073.863    3804.5147   -46878.378    432.64546    1.0011459 
   30100    280.89563    185.34414    137641.62   -43052.972     3857.425   -46910.397    434.49603    1.0014886 
   30200    275.11044   -178.52225    137696.52   -43116.627    3777.9793   -46894.606     435.4294    1.0010893 
   30300    280.14945    24.463385    137690.52   -43026.235    3847.1781   -46873.413    437.25719     1.001133 
   30400    275.02944    84.706924    137754.28   -43139.023    3776.8671    -46915.89    438.24844    1.0006696 
   30500    279.24293    61.226498    137849.58   -43137.412    3834.7292   -46972.141    440.08316   0.99997779 
   30600    274.67859    44.889014    137637.56   -43151.599     3772.049   -46923.648    441.18107    1.0015182 
   30700    275.38468   -18.306772    137565.55   -43172.261    3781.7454   -46954.006    442.71212    1.0020424 
   30800    278.67118    -168.3741    137302.94   -43152.681    3826.8776   -46979.559    443.47622    1.0039589 
   30900    277.05479     66.36446    137409.08   -43129.262    3804.6804   -46933.942    445.12753    1.0031834 
   31000    279.04451    267.09766    137583.83   -43073.845    3832.0044   -46905.849    447.02483    1.0019093 
   31100    274.09839     230.5685    137829.17   -43242.293    3764.0813   -47006.374    448.13141    1.0001259 
   31200    275.04078    145.35886    137701.92   -43252.783    3777.0229   -47029.805    449.69769    1.0010501 
   31300    274.66241   -98.849841     137655.9   -43134.878    3771.8268   -46906.705    451.26002    1.0013847 
   31400    276.23265    38.634311    137749.22   -43210.175    3793.3902   -47003.565    451.93084    1.0007063 
   31500    277.10916   -43.447122    137754.18   -43090.988     3805.427   -46896.415    453.34899    1.0006703 
   31600    274.47946    21.188708    137358.09    -43095.21    3769.3144   -46864.525    454.18546    1.0035559 
   31700    278.14361   -82.047922    137456.48   -43162.861    3819.6327   -46982.494    456.58387    1.0028375 
   31800    277.12244     63.81176    137558.53    -43092.68    3805.6094    -46898.29    458.58944    1.0020936 
   31900    275.92776    43.044219    137368.74   -43105.504    3789.2034   -46894.707    459.90749    1.0034781 
   32000     274.8619    102.49291    137510.02   -43034.571    3774.5663   -46809.138    462.06479    1.0024471 
   32100    277.04188    130.38374    137717.14   -43103.449    3804.5031   -46907.952    464.49591    1.0009394 
   32200    277.15145    180.42383    137760.48   -43093.896    3806.0077   -46899.903    466.51789    1.0006246 
   32300    276.81001    -127.0773    137818.66   -43130.271    3801.3189    -46931.59    469.05092    1.0002021 
   32400    281.64974    26.990734    137834.96   -43011.339    3867.7809    -46879.12    471.29843    1.0000838 
   32500    274.99596    61.852075    137678.32   -43125.486    3776.4073   -46901.893    471.74441    1.0012217 
   32600    278.50629   -131.69086     137542.7   -43163.076    3824.6132   -46987.689    473.50075    1.0022089 
   32700    278.24238    62.627566    137900.95   -43114.704    3820.9891   -46935.693    475.72954   0.99960526 
   32800    276.43031    145.91396    137601.93   -43193.362    3796.1047   -46989.467    476.28188    1.0017775 
   32900    274.66017    4.2112598    137506.01   -43280.583    3771.7961   -47052.379    477.45496    1.0024763 
   33000    272.38031   -217.29436    137431.18   -43245.763    3740.4877   -46986.251    478.96463    1.0030222 
   33100    272.94024    174.81242    137451.23   -43271.174     3748.177   -47019.351    481.66756    1.0028758 
   33200     275.0665    24.127975    137441.11   -43167.007     3777.376   -46944.383    483.15162    1.0029497 
   33300    277.24873    40.995846     137522.7   -43159.627    3807.3437   -46966.971    484.73399    1.0023547 
   33400    277.77447   -62.047054    137502.54   -43163.668    3814.5635   -46978.231    486.83535    1.0025016 
   33500    280.98083   -48.025078    137537.25   -43041.788     3858.595   -46900.383    488.06591    1.0022486 
   33600    281.27075    99.458425    137642.11   -43099.686    3862.5764   -46962.262    490.17798     1.001485 
   33700    278.94761   -178.62681    137511.59    -43136.56    3830.6737   -46967.234    492.14088    1.0024356 
   33800    277.65308    1.4654312    137774.72   -43093.011    3812.8964   -46905.908    493.19576    1.0005211 
   33900    278.44491   -40.021069    137914.88   -43147.826    3823.7704   -46971.597    494.85037   0.99950429 
   34000    274.10345    114.89044    138014.64   -43133.396    3764.1509   -46897.547    496.72366   0.99878184 
   34100    275.63671    180.80564    137874.65   -43173.659    3785.2065   -46958.865    497.44809   0.99979595 
   34200    279.88069   -282.22838     137728.3    -43152.32    3843.4872   -46995.807    497.77586    1.0008584 
   34300    276.56324    93.909001    137690.72    -43124.38    3797.9301    -46922.31    498.91228    1.0011315 
   34400    275.02598   -33.530663    137798.97   -43033.528    3776.8195   -46810.348    500.62764    1.0003451 
   34500    283.21869   -29.060683    137592.91   -42984.006    3889.3267   -46873.333    501.46398    1.0018432 
   34600    283.85155   -101.52454     137493.1   -43023.786    3898.0175   -46921.803    502.07271    1.0025704 
   34700    280.47991   -84.101226    137468.89   -43122.686    3851.7161   -46974.402    503.17891     1.002747 
   34800    280.82031    -87.95272    137520.07    -43187.08    3856.3907   -47043.471    504.14305    1.0023738 
   34900    275.56883    102.54693    137536.24    -43168.55    3784.2742   -46952.824    506.27342    1.0022559 
   35000    278.95978    110.64995    137392.44   -43178.369    3830.8409    -47009.21    506.91373     1.003305 
   35100    282.10936   -29.297129    137488.22   -43144.943    3874.0928   -47019.036    508.94264     1.002606 
   35200    279.25169    168.54678    137545.02   -42989.231    3834.8495   -46824.081    510.63462     1.002192 
   35300    273.46792    121.82003    137769.42    -43026.47    3755.4233   -46781.893    511.81973    1.0005596 
   35400    276.39104   -230.03003     137677.4   -43115.557    3795.5654   -46911.122    512.44426    1.0012284 
   35500    277.45028    16.890239    137578.37   -43107.042    3810.1115   -46917.153    513.50056    1.0019491 
   35600    275.67612   -72.775353    137560.16   -43109.584    3785.7477   -46895.332    515.68994    1.0020817 
   35700    279.99162    67.374889    137514.23   -43055.234    3845.0107   -46900.244    517.07931    1.0024164 
   35800    279.89191    8.4435286     137659.3   -43087.141    3843.6414   -46930.783    519.02197      1.00136 
   35900     284.2947   -244.07936    137480.02    -43058.39    3904.1031   -46962.493    519.70117    1.0026659 
   36000    276.19451     157.1137    137541.97    -43092.86    3792.8665   -46885.727    521.31438    1.0022142 
   36100    275.36996    78.900427    137613.21   -43106.849    3781.5433   -46888.392    523.22763    1.0016954 
   36200    277.60468    194.34694    137698.65   -43057.709    3812.2317   -46869.941    525.44285    1.0010739 
   36300    277.86035   -118.05346    137622.92   -43059.685    3815.7428   -46875.428    526.58365    1.0016247 
   36400    279.27185   -74.083619    137556.88   -43003.655    3835.1264   -46838.781    528.81945    1.0021055 
   36500    282.16664    -170.1985    137843.01    -42908.75    3874.8793   -46783.629    531.64127    1.0000255 
   36600     275.9515    13.204346    137794.09   -43015.612    3789.5293   -46805.141    532.66239    1.0003804 
   36700    278.45794    64.108348    137766.58   -43037.653    3823.9493   -46861.603     535.0287    1.0005802 
   36800    271.60898    171.02891    137710.88   -43134.768    3729.8953   -46864.663    536.37152    1.0009849 
   36900    273.30631   -153.11123    137855.87   -43189.999     3753.204   -46943.203    537.63455   0.99993214 
   37000    280.35209    114.13312    137894.31   -43106.275    3849.9608   -46956.236     537.8915   0.99965341 
   37100    272.95245   -94.676132    137862.68   -43145.654    3748.3446   -46893.999     539.0318   0.99988276 
   37200    278.48805   -91.078364     137876.7   -43155.517    3824.3628    -46979.88    540.06198   0.99978106 
   37300    278.29804   -132.99836    137598.63   -43135.061    3821.7534   -46956.815    540.09314    1.0018015 
   37400    279.87751   -14.907489    137477.14   -43197.332    3843.4436   -47040.776    541.10757    1.0026868 
   37500    272.42863    199.61933    137648.71   -43207.451    3741.1511   -46948.602    543.25166     1.001437 
   37600    276.74746    156.83748    137575.81   -43174.766      3800.46   -46975.226    544.32897    1.0019677 
   37700     273.7556    167.69748    137678.01   -43196.154     3759.374   -46955.528    546.24369    1.0012239 
   37800    273.76606    7.4125982    137745.25   -43213.045    3759.5176   -46972.562    548.18292    1.0007352 
   37900    272.97011   -17.734422    137807.96   -43263.478    3748.5871   -47012.065    549.14491    1.0002798 
   38000    275.97724   -104.11874    137680.35   -43242.457    3789.8828   -47032.339     550.1196    1.0012069 
   38100    275.77284   -66.120469    137849.36   -43251.075    3787.0759   -47038.151    551.76934   0.99997941 
   38200    272.90554   -38.305971    137684.57   -43261.863    3747.7004   -47009.564    552.40567    1.0011762 
   38300    268.60039    80.406557    137773.16   -43295.831    3688.5796    -46984.41    553.13589    1.0005324 
   38400    268.55447   -86.927943    137733.27   -43315.106     3687.949   -47003.055    554.45994    1.0008222 
   38500    271.85793   -16.900373    137497.76   -43365.664     3733.314   -47098.978    554.93919    1.0025364 
   38600    273.22851   -60.139459    137528.73   -43241.279    3752.1356   -46993.415    556.50925    1.0023107 
   38700    274.98907    4.0661415    137479.01    -43220.46    3776.3126   -46996.772    557.08597    1.0026732 
   38800    275.01537    171.92953    137785.71   -43120.584    3776.6739   -46897.258    558.89061    1.0004413 
   38900    278.99345    12.242979    137644.38   -43067.055    3831.3032   -46898.358    559.38714    1.0014685 
   39000    276.82964    59.594503    137748.44   -43078.846    3801.5885   -46880.434    561.11929     1.000712 
   39100    272.87135    141.36257    137832.21   -43100.246    3747.2309   -46847.476    562.46918    1.0001038 
   39200    278.10582   -56.344665    137734.96   -43089.727    3819.1138   -46908.841    564.29962    1.0008099 
   39300    279.19063   -101.98611    137677.51   -43074.034    3834.0109   -46908.045    564.99076    1.0012276 
   39400    278.96151   -44.598528    137676.39   -43109.315    3830.8646    -46940.18    566.86287    1.0012357 
   39500    280.33603   -258.69481    137676.51   -43029.015    3849.7403   -46878.755    567.35104    1.0012348 
   39600    283.29328   -190.68113    137599.85    -43049.06     3890.351   -46939.411    568.77262    1.0017926 
   39700    275.54436    67.784953    137613.39   -43128.405    3783.9382   -46912.344    569.65377    1.0016941 
   39800    277.19674   -39.292508    137659.87   -43120.972    3806.6298   -46927.601    571.47545    1.0013559 
   39900    275.01205   -71.978706    137351.06    -43247.11    3776.6282   -47023.738    572.04578    1.0036072 
   40000    276.47737    17.115398    137212.81   -43214.642    3796.7509   -47011.393    572.82703    1.0046184 
   40100    275.47258   -25.544983    137391.88   -43195.094    3782.9526   -46978.047    574.46123     1.003309 
   40200    276.15891    44.307509    137342.39   -43143.562    3792.3776    -46935.94     575.5648    1.0036706 
   40300    276.38579    16.692187    137362.22   -43114.479    3795.4932   -46909.972    577.17688    1.0035257 
   40400    278.05811    33.232931    137470.27   -43125.442    3818.4585     -46943.9    578.35686     1.002737 
   40500     276.4072    28.975162    137651.41   -43139.161    3795.7872   -46934.948    580.17393    1.0014174 
   40600    276.79249    97.155598    137627.92   -43097.048    3801.0783   -46898.126     582.5589    1.0015883 
   40700    275.64994   -222.34801    137787.44   -43138.812    3785.3881     -46924.2    584.58094    1.0004287 
   40800    274.91943    35.084525     137796.8   -43154.432    3775.3564   -46929.789    586.20845    1.0003608 
   40900    273.23992   -201.38958    137887.97   -43159.317    3752.2923   -46911.609    587.77657   0.99969939 
   41000    274.29281   -85.233171    137648.83   -43169.864    3766.7512   -46936.615    587.49098    1.0014362 
   41100    273.36648    56.275057    137494.54   -43212.577    3754.0303   -46966.608    588.61438    1.0025599 
   41200    278.01378    177.89646    137823.68   -43046.979    3817.8498   -46864.829    590.41795    1.0001657 
   41300    274.61115   -202.51936     137528.6   -43163.643    3771.1229   -46934.766    592.36904    1.0023116 
   41400    275.15325    66.091041    137267.11   -43178.388    3778.5673   -46956.955     594.3452     1.004221 
   41500    271.33157   -184.67531    137444.77   -43202.965    3726.0857   -46929.051    596.60872     1.002923 
   41600    278.63651    176.85166    137551.11   -43105.392    3826.4014   -46931.794    598.04801    1.0021476 
   41700    273.22419   -23.575157    137489.16   -43239.861    3752.0762   -46991.938    599.22172    1.0025992 
   41800    275.17104    117.28242    137395.34   -43132.364    3778.8116   -46911.175    600.21147    1.0032838 
   41900    278.24896    26.233311    137593.92   -43089.143    3821.0794   -46910.222    603.09926    1.0018358 
   42000    279.38717    62.844413    137707.12   -43121.751      3836.71   -46958.461    605.12752    1.0010123 
   42100      278.177   -233.08975    137613.35   -43120.632    3820.0912   -46940.723    607.33275    1.0016944 
   42200    286.19557   -90.963501    137521.81   -43067.723     3930.207    -46997.93    608.81599    1.0023611 
   42300    274.11593    -59.46682     137447.2   -43136.604    3764.3221   -46900.926       610.11    1.0029053 
   42400    278.29205    33.128295    137338.45   -43165.064    3821.6712   -46986.735     611.1326    1.0036994 
   42500    278.32856   -36.855298    137240.41   -43152.231    3822.1725   -46974.403    613.21806    1.0044164 
   42600    274.11417   -79.555256    137309.95   -43206.461     3764.298    -46970.76    613.97222    1.0039077 
   42700    274.63634    4.3419381    137322.78   -43226.371    3771.4688    -46997.84    616.27807    1.0038139 
   42800    273.83351   -7.7765269     137370.5    -43297.07    3760.4439   -47057.514    617.77163    1.0034652 
   42900    273.94609    199.18999     137815.3   -43236.942    3761.9898   -46998.932    620.79773    1.0002265 
   43000    281.58455   -230.23245    137559.65   -43181.586    3866.8858   -47048.472    621.34287    1.0020854 
   43100    282.14462   -46.977219    137563.83   -43169.883    3874.5769    -47044.46    623.23957     1.002055 
   43200    275.16955    -132.8406     137662.9   -43189.373    3778.7911   -46968.164    624.63668    1.0013338 
   43300    275.60105    15.999576    137242.55   -43150.302    3784.7167   -46935.019    623.27785    1.0044007 
   43400    273.14437    30.416612     137269.8   -43225.203    3750.9801   -46976.183    624.88678    1.0042013 
   43500    277.04459   -33.873445    137141.73   -43191.656    3804.5402   -46996.196    625.29559    1.0051391 
   43600    274.19955    130.97727    137408.32   -43210.233    3765.4705   -46975.703    627.23318     1.003189 
   43700    278.96499    163.14885    137565.22   -43202.608    3830.9123   -47033.521    629.03143    1.0020449 
   43800    278.10949   -103.81563     137593.1   -43139.669    3819.1642   -46958.833    630.14974    1.0018418 
   43900    274.24747    94.627632    137647.38   -43193.684    3766.1287   -46959.812    631.19458    1.0014467 
   44000    274.09296   -55.739212     137411.8    -43127.23    3764.0068   -46891.236    631.04082    1.0031636 
   44100    273.75105   -116.62894    137468.46   -43076.743    3759.3115   -46836.055    632.86147    1.0027501 
   44200    273.51793    136.74502     137495.7   -43077.622    3756.1101   -46833.732    634.80065    1.0025515 
   44300     278.9085    17.086073    137328.16   -43161.209    3830.1365   -46991.346    635.81475    1.0037746 
   44400    272.75666      198.466    137382.47   -43141.917    3745.6559   -46887.573    637.29704    1.0033778 
   44500    277.11761    125.66315    137409.09   -43228.469     3805.543   -47034.012      638.006    1.0031834 
   44600    274.68573   -231.66485    137542.43   -43238.933     3772.147    -47011.08    640.68949    1.0022109 
   44700    266.45823   -7.6666231    137503.41   -43290.289    3659.1621   -46949.451    641.31546    1.0024953 
   44800     274.5958   -67.647783    137465.81   -43191.811    3770.9121   -46962.723    642.19725    1.0027694 
   44900    275.97362    248.13637    137553.37   -43190.301    3789.8331   -46980.134    643.89552    1.0021312 
   45000    278.37768    21.340493    137748.52   -43182.646     3822.847   -47005.493    645.36118    1.0007114 
   45100     280.3977    133.85267    137732.82   -43175.891    3850.5872   -47026.478    647.09909    1.0008255 
   45200    275.60043   -170.14384    137711.84   -43206.956    3784.7082   -46991.664    648.79674     1.000978 
   45300    273.45462   -75.409957    137885.51   -43200.683    3755.2407   -46955.924    649.99306   0.99971723 
   45400    269.26905    4.8737733     137829.6   -43247.653    3697.7619   -46945.415    650.81125    1.0001228 
   45500    275.92291    26.321724    137686.15   -43170.577    3789.1367   -46959.714    652.02305    1.0011647 
   45600    269.92735    93.476905    137928.73   -43184.534    3706.8021   -46891.337    654.60671   0.99940393 
   45700    279.25284   -240.96541    137622.53     -43186.9    3834.8654   -47021.765    655.53668    1.0016276 
   45800    278.77994    15.641087    137586.87   -43074.463    3828.3712   -46902.834    657.02099    1.0018871 
   45900    277.54158   -202.50257    137543.11   -43078.513    3811.3652   -46889.878    658.97494    1.0022059 
   46000    281.43244   -81.273937    137718.44   -43078.302    3864.7968   -46943.099    661.11108      1.00093 
   46100    275.09825    159.06539    137458.97   -43136.827     3777.812   -46914.639    662.56558    1.0028194 
   46200     276.3505    46.448836    137720.07   -43117.417    3795.0086   -46912.425     666.2253    1.0009181 
   46300    279.92816    129.02195    137812.02   -43101.613    3844.1392   -46945.752    668.40757    1.0002503 
   46400    277.82648    -26.82611    137805.59   -43065.294    3815.2777   -46880.571    670.11439     1.000297 
   46500    274.98467    90.182176    137622.69   -43074.595    3776.2522   -46850.847    670.75724    1.0016264 
   46600    272.79282    66.149259    137826.33   -43019.591    3746.1525   -46765.744    672.20745    1.0001465 
   46700    279.17036    30.726236    137831.83   -43002.035    3833.7326   -46835.768    673.31863    1.0001066 
   46800    280.53008    98.795714    137954.48   -42938.531    3852.4051   -46790.936    674.79198   0.99921743 
   46900     277.8238     209.7966    138027.31   -42966.168    3815.2408   -46781.409    677.20486   0.99869016 
   47000    279.78186   -223.69186    137960.29   -43044.998    3842.1301   -46887.128    678.23579   0.99917533 
   47100    279.37114   -46.154989    137920.78   -43047.754    3836.4898   -46884.244     679.2243   0.99946158 
   47200    282.87245    -9.245859    137948.71   -43057.734    3884.5719   -46942.306     682.1558   0.99925921 
   47300    279.45537   -44.656226    137897.46   -43085.112    3837.6465   -46922.759    683.96795   0.99963059 
   47400    279.12704    77.221167    137576.85   -43002.731    3833.1378   -46835.869    683.24674    1.0019601 
   47500     276.5186    109.92845    137564.12   -43092.367    3797.3172   -46889.684    684.42077    1.0020528 
   47600    282.29517    -81.06912    137619.38   -43062.831    3876.6444   -46939.475    685.72005    1.0016505 
   47700    278.98616   -133.16944    137604.73   -43113.839    3831.2031   -46945.042    687.09428    1.0017571 
   47800    275.82679    26.708068    137344.96   -43152.204    3787.8167   -46940.021    687.55452    1.0036518 
   47900    278.41898    122.40893    137407.68   -43130.812    3823.4142   -46954.226    689.55345    1.0031937 
   48000    275.22014    78.716308    137728.69   -43225.839    3779.4859   -47005.325    691.72269    1.0008555 
   48100    276.94132   -38.016124    137593.28   -43218.889    3803.1222   -47022.011    693.35583    1.0018405 
   48200    273.96322   -33.283669    137494.23   -43205.474    3762.2251   -46967.699    694.39767    1.0025622 
   48300    279.69065   -71.297004    137461.03   -43145.473    3840.8775   -46986.351    695.47525    1.0028043 
   48400    280.02992     104.4528    137574.56   -43118.249    3845.5366   -46963.786    698.10336    1.0019768 
   48500    275.00186   -26.480617    137605.11   -43177.013    3776.4883   -46953.502    699.56767    1.0017543 
   48600     281.3179   -209.02888    137653.32   -43219.164    3863.2239   -47082.388    701.45677    1.0014035 
   48700    273.65934    92.794915    137733.11   -43286.579     3758.052   -47044.631    702.99644    1.0008234 
   48800    276.50212    7.9038099    137836.05   -43262.622    3797.0908   -47059.712    704.10997     1.000076 
   48900    271.68981    32.481708    137757.88   -43227.831    3731.0053   -46958.837     706.0601    1.0006434 
   49000     276.4952   -76.127077    137674.85   -43207.791    3796.9957   -47004.787    706.89744    1.0012469 
   49100    274.21352   -158.85994    137781.93   -43201.984    3765.6624   -46967.646    708.19801    1.0004687 
   49200    272.61093    107.39871    137797.75   -43301.942    3743.6546   -47045.597    709.83212    1.0003539 
   49300     275.0396    37.400653     137939.7    -43310.27    3777.0065   -47087.276    711.90293   0.99932444 
   49400    273.23033   -70.301231    137790.21   -43217.061    3752.1606   -46969.221    712.95801    1.0004087 
   49500     278.0375   -134.63246    137747.52   -43171.323    3818.1756   -46989.499    713.98538    1.0007187 
   49600    278.64187   -24.786605    137619.52   -43208.323    3826.4751   -47034.798    714.84879    1.0016494 
   49700    280.49711   -20.382998     137662.2   -43168.118    3851.9524   -47020.071    716.45257    1.0013389 
   49800     281.0832    113.68573    137713.93   -43128.146    3860.0009   -46988.147    718.87151    1.0009627 
   49900    274.50753    52.779315    137687.74   -43164.578    3769.6999   -46934.278    720.56586    1.0011531 
   50000    274.41856   -136.49662    137881.36     -43211.5    3768.4781   -46979.978    723.42493   0.99974733 
   50100    275.56261    58.517618    137781.85   -43238.568    3784.1889   -47022.757    724.73813    1.0004693 
   50200    275.01801   -107.71048    137319.05   -43200.856      3776.71   -46977.566     725.4364    1.0038412 
   50300    274.50696     133.3504    137470.84    -43181.05    3769.6921   -46950.742    728.25997    1.0027328 
   50400    278.56175    136.76727    137732.83   -43167.166    3825.3749   -46992.541    731.02061    1.0008254 
   50500    273.27461   -164.20969     137528.7   -43218.049    3752.7687   -46970.818    732.60179    1.0023109 
   50600     271.9437   -86.883466    137602.67   -43200.557    3734.4919   -46935.049    733.87853    1.0017721 
   50700    275.75782   -62.297468    137662.85   -43125.681    3786.8695   -46912.551    735.22196    1.0013341 
   50800    277.89098    37.194278    137694.71    -43084.18    3816.1634   -46900.343    734.79668    1.0011025 
   50900    276.65569    236.54866    137813.68   -43067.107    3799.1997   -46866.307    737.00079    1.0002382 
   51000    273.41218    112.91289    137573.04   -43189.939    3754.6579   -46944.597    737.03984    1.0019879 
   51100    274.29231   -56.066497    137539.88    -43181.67    3766.7444   -46948.414    738.62709    1.0022294 
   51200    279.73699    256.41466    137747.33   -43082.674     3841.514   -46924.188    739.87892      1.00072 
   51300    281.74065   -53.133826    138010.02   -43000.897    3869.0294   -46869.926    741.97589   0.99881531 
   51400     276.4806    66.759608    137811.41    -43197.37    3796.7953   -46994.165    742.35828    1.0002548 
   51500     274.1924   -86.994279    137819.42   -43226.253    3765.3723   -46991.626    741.80781    1.0001966 
   51600    277.77991   -68.768218    137605.67   -43222.366    3814.6381   -47037.004    743.68863    1.0017503 
   51700    276.52448     36.68262    137622.76   -43188.685    3797.3979   -46986.083    744.64437    1.0016259 
   51800    270.44841    26.880245    137406.21   -43251.053    3713.9577   -46965.011    745.09376    1.0032044 
   51900    274.35136    232.87317    137291.33   -43243.771    3767.5552   -47011.327    745.89618    1.0040439 
   52000    277.79167    31.634696    137459.97   -43215.403    3814.7996   -47030.203    747.87352    1.0028121 
   52100    275.80258    -28.10088    137654.49   -43237.227    3787.4843   -47024.711    749.96315     1.001395 
   52200    273.21299   -133.86303    137537.65   -43250.778    3751.9225   -47002.701    750.48911    1.0022457 
   52300    272.90144    102.45048    137720.86   -43162.127    3747.6441   -46909.771    752.32165    1.0009124 
   52400    276.87007   -105.15262    137394.53    -43064.29    3802.1437   -46866.434    752.03934    1.0032897 
   52500    279.14713   -64.195816    137467.46   -43104.528    3833.4136   -46937.942    754.38873    1.0027574 
   52600    274.18329    157.77715    137397.27    -43182.01    3765.2472   -46947.257    755.71766    1.0032697 
   52700    272.86927   -58.904357    137491.31   -43165.844    3747.2024   -46913.046    757.78695    1.0025835 
   52800    270.00505    274.89117    137585.91   -43270.279    3707.8692   -46978.148    759.71938    1.0018941 
   52900    274.55626    40.060107    137630.17   -43317.071    3770.3691    -47087.44     761.1684    1.0015719 
   53000    270.47417    58.373902    137898.39    -43377.95    3714.3114   -47092.261    762.83898   0.99962382 
   53100    271.43775   -193.71639    137748.33   -43363.814    3727.5439   -47091.358    764.52559    1.0007128 
   53200    279.50332    63.379688    137871.16   -43212.606     3838.305   -47050.911    765.46876   0.99982124 
   53300    271.77694    182.26692    138001.94   -43240.965    3732.2019   -46973.167    766.41958   0.99887378 
   53400    280.41234   -248.92169    137639.98   -43166.357    3850.7883   -47017.145    765.63789    1.0015005 
   53500    277.45248    298.98238    137639.02   -43088.946    3810.1417   -46899.088    766.27966    1.0015076 
   53600    278.62674    208.11273    137707.62   -43089.003    3826.2673   -46915.271    768.43926    1.0010087 
   53700    277.48826   -34.185496    137951.01   -43089.665     3810.633   -46900.298    770.81469   0.99924256 
   53800    271.47659    -45.33966    137775.93   -43211.823    3728.0773     -46939.9    772.36938    1.0005123 
   53900    277.83553   -117.27287    137752.84   -43242.393     3815.402   -47057.795    773.38438    1.0006801 
   54000    278.22828   -41.595915    137613.29   -43177.479    3820.7955   -46998.275    774.48411    1.0016948 
   54100    274.54136   -88.190289    137882.64   -43209.367    3770.1645   -46979.532    777.66662     0.999738 
   54200    277.52931    3.9068344    137911.39   -43137.445    3811.1968   -46948.642     778.9991   0.99952961 
   54300    279.73483    93.306124    137789.54   -43159.692    3841.4843   -47001.176    779.77856    1.0004135 
   54400    273.89052     81.02938    138104.45    -43221.98    3761.2267   -46983.206    783.29889   0.99813233 
   54500    273.91673    19.370725    138110.98   -43224.508    3761.5867   -46986.094      785.145   0.99808516 
   54600     275.5649    233.68507    137847.73   -43225.377    3784.2203   -47009.597    784.75958   0.99999117 
   54700    276.08687   -44.947382       137834   -43204.726    3791.3883   -46996.114    786.29441    1.0000908 
   54800    275.78782   -127.67583    137565.72   -43208.249    3787.2816    -46995.53    788.03041    1.0020412 
   54900    278.16063   -64.442835    137322.67   -43135.572    3819.8664   -46955.439    788.41847    1.0038147 
   55000    275.21031     191.3253    137232.31   -43062.449    3779.3509     -46841.8    789.40956    1.0044757 
   55100    273.38665    44.737378    137428.28   -43039.207    3754.3073   -46793.515    791.94759    1.0030433 
   55200    276.38263   -253.88876    137318.51    -43084.29    3795.4499   -46879.739    792.95864    1.0038451 
   55300    278.85022   -3.9124373    137125.29   -43046.132    3829.3363   -46875.468    794.34144    1.0052596 
   55400    278.29691    44.081062    137046.74    -43032.58    3821.7379   -46854.318    794.91019    1.0058358 
   55500    275.06472    221.81466    137389.08   -43051.658    3777.3515   -46829.009    797.85327    1.0033295 
   55600    277.06445    115.68798    137408.57   -43029.858     3804.813   -46834.671    797.93273    1.0031872 
   55700    275.70301     134.0041     137535.2   -43044.033    3786.1169    -46830.15    800.42105    1.0022635 
   55800    276.17358   -103.06917     137420.2   -43116.763     3792.579   -46909.342    801.55128    1.0031023 
   55900    277.05411    46.170366    137437.37   -43192.377     3804.671   -46997.048    802.18768     1.002977 
   56000    271.35015    141.90788    137573.74   -43269.362    3726.3408   -46995.703     804.4242    1.0019827 
   56100    277.00518   -238.55896    137409.02   -43199.159    3803.9991   -47003.158    804.82414    1.0031839 
   56200    275.27732    160.04218    137517.06   -43211.821    3780.2711   -46992.092    805.82093    1.0023958 
   56300      280.199   -239.46517     137971.2    -43138.41    3847.8585   -46986.268    809.65034    0.9990963 
   56400    281.08447    16.102205    138021.74   -43116.356    3860.0184   -46976.375    812.71673   0.99873045 
   56500    274.94476    -254.5854    137723.14     -43121.7    3775.7042   -46897.404    811.75731    1.0008958 
   56600    278.31314    61.045786    137681.11   -43091.811    3821.9607   -46913.772    813.97417    1.0012013 
   56700    283.32659    -171.1781    137813.27   -43092.316    3890.8085   -46983.125    817.04979    1.0002413 
   56800    277.95022     164.1726    137662.99   -43070.571    3816.9769   -46887.548    817.20607    1.0013332 
   56900    272.19062   -139.65481     137883.1   -43117.882    3737.8827   -46855.764    819.74423   0.99973469 
   57000    273.03901    -104.9506    137676.36   -43171.453    3749.5333   -46920.986     820.6793    1.0012359 
   57100    274.51419    94.276487    137601.64   -43227.016    3769.7913   -46996.808    821.00461    1.0017796 
   57200    271.53221    25.728301    137761.25   -43315.037    3728.8411   -47043.878    823.69193    1.0006189 
   57300    271.62264    92.898375    137498.72    -43327.99    3730.0829   -47058.073     823.9303    1.0025294 
   57400    273.42857    167.21926    137716.36   -43301.405    3754.8829   -47056.288    825.40483    1.0009451 
   57500    272.71439    29.284563    137714.76   -43253.997    3745.0754   -46999.073    826.01818    1.0009567 
   57600    273.87618   -40.807596    137786.61    -43270.49    3761.0299    -47031.52    828.57014    1.0004348 
   57700    272.18118   -80.161293    137696.69   -43260.201    3737.7531   -46997.954    829.33491    1.0010881 
   57800    277.32735     -110.478    137569.98   -43130.438    3808.4233   -46938.861    830.33816    1.0020101 
   57900    274.30421    35.205033    137663.68   -43194.143    3766.9077   -46961.051    830.51364    1.0013281 
   58000    270.04586    154.08575    137676.91   -43284.595    3708.4296   -46993.024    831.66086    1.0012319 
   58100    276.31386    132.78739     137834.5   -43177.137    3794.5054   -46971.643    834.97672    1.0000872 
   58200    275.70283   -164.45454    137883.82   -43233.135    3786.1144    -47019.25     836.1088   0.99972943 
   58300    273.66006    37.513331     137887.7   -43269.039    3758.0619   -47027.101    837.49597   0.99970133 
   58400    273.65472    110.77384    138086.39   -43171.915    3757.9886   -46929.903    840.22101   0.99826291 
   58500    270.40389   -58.346177    137806.08   -43127.228    3713.3463   -46840.574    840.98332    1.0002934 
   58600    273.37391   -238.80897    137476.84   -43173.865    3754.1324   -46927.997    841.92149     1.002689 
   58700    280.75588   -132.57255    137495.13   -43142.946     3855.506   -46998.452    843.83404    1.0025557 
   58800    274.76026    101.65185    137605.83   -43134.855    3773.1705   -46908.025    845.44802    1.0017491 
   58900     279.3589    28.340731    137675.71   -43044.574    3836.3218   -46880.896    846.37937    1.0012407 
   59000    274.19385    88.082669    137804.63   -43159.166    3765.3923   -46924.559    848.20079     1.000304 
   59100    278.44228   -185.47122    137646.86   -43180.309    3823.7342   -47004.043    848.96337    1.0014505 
   59200    278.53094   -55.476094    137372.45   -43176.968    3824.9518    -47001.92    850.05953     1.003451 
   59300    271.69264    110.89077    137270.03   -43198.327    3731.0441   -46929.371    852.73373    1.0041996 
   59400    276.48236   -7.9506314    137325.83   -43155.232    3796.8195   -46952.052    854.48722    1.0037916 
   59500    275.11816   -116.96807    137221.41   -43176.723    3778.0854   -46954.809    855.71764    1.0045555 
   59600    281.23389   -80.318247    137253.71   -43097.148    3862.0703   -46959.218    856.54699    1.0043191 
   59700    278.21385   -103.52341    137227.54   -43127.223    3820.5973   -46947.821    858.40901    1.0045106 
   59800    279.01333   -69.285208    137488.62    -43105.64    3831.5762   -46937.216    859.81245    1.0026031 
   59900    269.83858    140.79812    137668.41   -43183.878    3705.5831   -46889.461    863.31879    1.0012938 
   60000    273.78094    123.04273    137844.69   -43155.242    3759.7219   -46914.964    865.37905    1.0000133 
   60100    277.76551    36.491111    137758.86   -43118.239    3814.4403   -46932.679     865.6696    1.0006363 
   60200    273.29037   -91.295272    137653.13   -43218.821    3752.9852   -46971.806    866.60176    1.0014049 
   60300    276.40996     9.854547       137845   -43191.632    3795.8251   -46987.457    869.92888     1.000011 
   60400    280.87328   -218.67535    137756.43   -43182.719    3857.1182   -47039.837     871.0597    1.0006539 
   60500    272.42425    135.48801    137424.89   -43281.974     3741.091   -47023.065    872.06064    1.0030681 
   60600    269.36692    22.289061    137834.63   -43219.698     3699.106   -46918.804    874.52984    1.0000862 
   60700    274.40399     53.46562    137972.51   -43202.535     3768.278   -46970.813    876.20229    0.9990868 
   60800     278.7687   -179.96075    138075.49   -43183.341    3828.2169   -47011.558     878.3233   0.99834166 
   60900    276.63994   -48.698558    137736.48   -43187.158    3798.9834   -46986.142     878.4206    1.0007989 
   61000    275.40738    128.96672    137465.17    -43126.86    3782.0571   -46908.917    878.87195    1.0027741 
   61100      281.394   -54.337449    137445.21   -43053.254     3864.269   -46917.523    879.29694    1.0029198 
   61200    281.93737    -101.3459    137440.32   -43073.876    3871.7308   -46945.607    881.40334    1.0029555 
   61300    277.83629    110.20374    137421.22   -43025.618    3815.4124   -46841.031    882.53614    1.0030949 
   61400    286.70657   -136.31298    137442.23   -42930.165    3937.2243   -46867.389    885.86237    1.0029415 
   61500    281.30354   -72.030722    137376.62   -42982.579    3863.0267   -46845.605    887.59049    1.0034205 
   61600     281.7341    185.56365    137755.69   -43031.799    3868.9395   -46900.739    889.16884    1.0006594 
   61700    271.27782     45.55473    138051.29   -43075.347    3725.3475   -46800.694    892.41902   0.99851666 
   61800    274.73337   -45.447508    137851.88   -43139.612    3772.8013   -46912.413    894.42466   0.99996107 
   61900    275.17537   -4.7139573    137800.73   -43047.754     3778.871   -46826.625     895.4723    1.0003322 
   62000    275.40312   -41.826595    137705.84   -43131.646    3781.9987   -46913.644    895.60752    1.0010216 
   62100     277.0887    118.87071    137624.18   -43106.199    3805.1461   -46911.345    897.14491    1.0016156 
   62200    273.02255   -3.1705348    137522.07   -43159.871    3749.3072   -46909.179    897.84224    1.0023593 
   62300    275.25583    148.25187    137471.63   -43139.619     3779.976   -46919.595    898.95181     1.002727 
   62400    276.73621   -32.997882    137630.27   -43203.459    3800.3054   -47003.764    900.76803    1.0015712 
   62500    279.58908   -111.14305    137651.82   -43181.603    3839.4828   -47021.086    902.22466    1.0014144 
   62600    277.76628   -289.72481    137854.42   -43152.617    3814.4509   -46967.068    905.56047   0.99994264 
   62700    276.42088    32.521073     137599.1    -43121.16    3795.9751   -46917.135    905.74263    1.0017981 
   62800    273.82991    329.02007    137642.26   -43170.937    3760.3944   -46931.331    906.73078     1.001484 
   62900    275.23926   -33.913374     137702.4   -43141.679    3779.7484   -46921.427    908.76941    1.0010466 
   63000    274.35338    211.23541    137463.16   -43153.242     3767.583   -46920.825    909.42468    1.0027888 
   63100    277.53543    -74.35962     137631.6   -43152.429    3811.2808    -46963.71    910.97532    1.0015615 
   63200    276.60857    272.87809    137499.78   -43160.317    3798.5526   -46958.869    911.06197    1.0025217 
   63300    275.65402   -30.367365    137709.76   -43250.623    3785.4442   -47036.067    913.14997    1.0009931 
   63400    271.27217   -86.736423    137500.61   -43278.826    3725.2701   -47004.096    914.80432    1.0025156 
   63500    280.58398   0.94663468    137550.21   -43170.164    3853.1453   -47023.309    916.54134    1.0021542 
   63600     278.4045    192.81288    137744.62   -43168.976    3823.2154   -46992.192    919.16683    1.0007397 
   63700    270.84523   -297.20982     137553.3   -43195.708     3719.407   -46915.115    920.48149    1.0021317 
   63800     275.2268    205.63448    137558.76   -43195.451    3779.5773   -46975.028    921.89225    1.0020919 
   63900    274.72126   -193.64175     137968.5   -43142.444     3772.635   -46915.079    924.58156   0.99911586 
   64000     274.3903   -131.65023    137759.48   -43229.924    3768.0901   -46998.014    924.92104    1.0006318 
   64100    273.44356    118.96448    137584.56   -43224.859    3755.0888   -46979.948    925.05986     1.001904 
   64200    273.94963   -17.670599    137907.86   -43212.631    3762.0385    -46974.67    927.42331   0.99955516 
   64300    273.40071    13.014685    137829.84   -43247.902    3754.5004   -47002.402    927.94053     1.000121 
   64400    278.28934    -107.0346    137622.68   -43261.575     3821.634   -47083.209    928.43485    1.0016264 
   64500    275.84381    16.836245    137427.68   -43328.118    3788.0505   -47116.169    928.16325    1.0030477 
   64600    275.34519   -98.639469    137400.59   -43256.374    3781.2032   -47037.577     929.1169    1.0032455 
   64700    272.94087    88.358941    137263.76   -43174.853    3748.1856   -46923.039    930.10962    1.0042455 
   64800     279.0664    27.666844    137410.48   -43100.658    3832.3049   -46932.963    932.37549    1.0031733 
   64900    277.73619    76.297745     137790.3   -43104.178    3814.0377   -46918.215    936.44669     1.000408 
   65000    277.31917   -72.039087    137691.72   -43119.104     3808.311   -46927.415    937.46725    1.0011243 
   65100    274.57711   -1.3540396    137276.38   -43204.856    3770.6553   -46975.511    936.30357    1.0041532 
   65200    273.06485   -148.01923    137285.48   -43147.328    3749.8881   -46897.216    937.21798    1.0040866 
   65300    276.09905     17.28808    137350.62   -43160.698    3791.5555   -46952.254    939.23284    1.0036105 
   65400    275.04489    17.865439    137554.71   -43185.139    3777.0793   -46962.219    941.40062    1.0021214 
   65500    272.92938    57.431968    137357.05   -43120.851    3748.0279   -46868.879    939.92712    1.0035635 
   65600    282.13591    36.028278    137607.68   -43060.591    3874.4573   -46935.048    942.44096    1.0017356 
   65700     280.7222    70.017718    137730.21   -43076.534    3855.0433   -46931.577    945.62205    1.0008445 
   65800    278.36543    83.522683    138092.35   -43170.436    3822.6788   -46993.114    947.95276   0.99821977 
   65900    277.33113   -252.62714    137962.44   -43142.549    3808.4753   -46951.024    949.37051   0.99915975 
   66000    275.28768   -222.86659    137686.75   -43150.316    3780.4134   -46930.729    950.07668    1.0011603 
   66100    276.45248   -33.039616    137466.91   -43115.272    3796.4091   -46911.681    949.03124    1.0027614 
   66200    271.88112   -8.4134814    137210.46   -43073.586    3733.6324   -46807.218    949.78698    1.0046356 
   66300    275.03185    176.93566     137321.8   -43020.757    3776.9001   -46797.657    952.80391    1.0038211 
[...]
   84600     276.0502    60.911134    137724.91   -43270.158    3790.8847   -47061.042    1240.1143     1.000883 
   84700    276.92759    -181.4761    137771.54   -43284.253    3802.9335   -47087.187    1242.9168    1.0005442 
   84800    274.98426   -172.28869    137765.58   -43248.811    3776.2466   -47025.057    1243.5214    1.0005875 
   84900    279.67011     91.86088     137974.8       -43183    3840.5954   -47023.595    1245.2223   0.99907021 
   85000    274.91098    21.997195    137835.22   -43175.974    3775.2403   -46951.215    1244.4399     1.000082 
   85100    275.24142   -95.309075     137703.7   -43168.168    3779.7782   -46947.946     1245.271    1.0010371 
   85200    278.48648    78.781572    137588.62   -43165.854    3824.3412   -46990.195    1245.1681    1.0018744 
   85300    276.94868   -154.02683    137712.28   -43139.863    3803.2232   -46943.087    1248.0559    1.0009748 
   85400     273.2529    29.342084    137575.41   -43111.654    3752.4705   -46864.124    1248.3018    1.0019706 
   85500    277.47202    66.179394    137530.76   -43135.232      3810.41   -46945.642     1249.989    1.0022959 
   85600    281.30672    94.024802    137666.92   -43091.707    3863.0704   -46954.778    1253.1668    1.0013045 
   85700    275.03522    191.75957    137478.93   -43118.104    3776.9464    -46895.05    1253.5601    1.0026737 
   85800    275.61289    116.75345    137648.08   -43149.404    3784.8793   -46934.283    1256.3047    1.0014416 
   85900    274.07109   -20.267272    137473.24   -43158.016    3763.7064   -46921.722    1257.6935    1.0027152 
   86000    277.69111    54.902234    137520.51   -43151.252    3813.4187   -46964.671    1259.6897    1.0023706 
   86100     277.0002   -152.11423    137494.24   -43145.377    3803.9307   -46949.308    1260.5908    1.0025621 
   86200    274.79928   -49.184244    137507.32   -43146.299    3773.7064   -46920.005    1260.1213    1.0024667 
   86300    275.62344   -109.04113    137586.09   -43180.134    3785.0243   -46965.158    1263.2728    1.0018928 
   86400    276.26917    281.85584    137771.74   -43136.042    3793.8918   -46929.933    1264.1109    1.0005427 
   86500     274.4574     160.3196    138095.65   -43155.535    3769.0115   -46924.547    1268.0869    0.9981959 
   86600    273.15408   -74.373724    138015.78   -43149.019    3751.1136   -46900.132    1269.3478   0.99877357 
   86700    278.67318   -116.34064     137963.1   -43158.266    3826.9051   -46985.171    1271.1026   0.99915498 
   86800    278.95403    20.336836    137943.67   -43104.394    3830.7619   -46935.156    1272.0474   0.99929571 
   86900    275.80067   -229.62533    137673.32   -43085.841    3787.4581   -46873.299    1271.8271     1.001258 
   87000    276.31268    27.627481    137551.37   -43143.428    3794.4893   -46937.918    1272.4935    1.0021457 
   87100    273.33323   -86.535911    137426.82   -43175.967    3753.5737    -46929.54    1275.2903     1.003054 
   87200    276.76623   -46.556426    137627.16   -43190.648    3800.7177   -46991.366    1278.2001    1.0015938 
   87300    279.54546    63.724732       137479   -43073.807    3838.8837   -46912.691    1278.2245    1.0026733 
   87400    279.32456    115.00321    137608.96    -43078.42    3835.8502   -46914.271    1280.6511    1.0017263 
   87500    277.26942    22.984602    137797.13   -43185.974    3807.6277   -46993.601    1282.9151    1.0003584 
   87600    273.37639   -56.306227    137888.46   -43177.539    3754.1663   -46931.705    1284.9717   0.99969584 
   87700     278.1994   -49.290571    137721.66   -43189.864    3820.3988   -47010.262    1286.1409    1.0009066 
   87800    280.59099   -87.574156    137973.34   -43079.619    3853.2416   -46932.861    1288.1202   0.99908081 
   87900    278.36612   -98.651896    138027.93   -43082.605    3822.6883   -46905.294    1290.8051   0.99868568 
   88000    280.02685    -5.953482    138009.01   -43060.017    3845.4944   -46905.511    1292.0973   0.99882262 
   88100    276.55876   -76.586236    137737.89   -43105.416    3797.8686   -46903.284    1290.2857    1.0007886 
   88200    278.87466    39.134616    137657.65   -43032.739    3829.6719   -46862.411     1291.668     1.001372 
   88300    278.79121    67.363008    137546.34   -43062.679    3828.5259   -46891.205     1292.981    1.0021824 
   88400    276.40726     -175.258    137540.35   -43139.723    3795.7881   -46935.511    1294.4622     1.002226 
   88500    272.84221    73.715482    137795.73   -43189.572    3746.8307   -46936.403    1297.2651    1.0003686 
   88600    269.81879    36.725413     137975.5   -43173.662    3705.3113   -46878.974     1298.599   0.99906517 
   88700    269.21664    41.712747    137783.66   -43186.899    3697.0423   -46883.941    1298.1512    1.0004562 
   88800    274.68062    71.167897    137800.07   -43168.074    3772.0768   -46940.151    1298.3592    1.0003371 
   88900    275.00557    2.7912492    137836.03   -43191.099    3776.5393   -46967.638    1300.2932    1.0000761 
   89000    275.90001    -198.7045    137388.31   -43160.748    3788.8223    -46949.57    1299.5373    1.0033351 
   89100    273.35404    153.10115    137576.67   -43105.352    3753.8594   -46859.212    1302.6644    1.0019614 
   89200    276.28164   -24.239209    137473.24   -43180.523     3794.063   -46974.586     1304.491    1.0027153 
   89300    274.28033   -11.651076    137455.88    -43173.88    3766.5799    -46940.46    1305.5106    1.0028419 
   89400    277.54294     172.3733    137572.63   -43107.051    3811.3839   -46918.435     1307.833    1.0019908 
   89500    272.14119    28.778674    137747.76   -43213.848     3737.204   -46951.052    1309.9379     1.000717 
   89600    272.56799    170.32063    137651.37   -43147.904    3743.0649   -46890.969    1310.1064    1.0014177 
   89700    274.08414    83.872617    137535.98   -43112.785    3763.8856   -46876.671    1312.0378    1.0022578 
   89800    278.14343    158.20891     137386.5   -43184.423    3819.6302   -47004.054    1313.0751    1.0033483 
   89900    280.72173    193.27324     137416.6   -43175.334     3855.037   -47030.371    1314.8048    1.0031285 
   90000    276.88625   -19.897057     137484.2   -43159.774    3802.3659    -46962.14    1315.1416    1.0026353 
   90100    273.74305    8.2605177    137475.66   -43122.011    3759.2016   -46881.212    1317.8277    1.0026976 
   90200    271.30632   -189.04458     137610.8   -43234.648    3725.7389   -46960.387     1318.993    1.0017129 
   90300    275.18861    143.66586    137416.19   -43264.062    3779.0529   -47043.115    1318.6222    1.0031316 
   90400    279.43535    217.46908    137834.95   -43160.106    3837.3716   -46997.478    1322.3933    1.0000839 
   90500     279.6465    49.756953    137791.57   -43070.778    3840.2712   -46911.049    1323.4919    1.0003988 
   90600     278.6263    28.271618    137630.08   -43104.412    3826.2613   -46930.673    1324.1387    1.0015726 
   90700    281.30564   -38.997293    137742.13   -43137.843    3863.0556   -47000.898    1328.3233    1.0007578 
   90800     277.7075   -155.88769    137819.08    -43087.54    3813.6438   -46901.184    1329.5826     1.000199 
   90900    274.24914   -164.42632    137619.49   -43178.398    3766.1515    -46944.55    1330.1351    1.0016497 
   91000    275.57731   -19.141098    137447.13   -43132.696    3784.3907   -46917.086    1329.7692    1.0029058 
   91100    278.12472    70.768022    137609.73   -43076.048    3819.3733   -46895.421    1332.6701    1.0017207 
   91200    278.89537    -43.28803     137720.3   -43137.056    3829.9562   -46967.012    1333.8218    1.0009165 
   91300    277.68621    87.588142    137807.59   -43183.449    3813.3514   -46996.801    1335.4888    1.0002825 
   91400    274.00915   -27.524356    137896.09    -43246.77    3762.8558   -47009.626     1339.009   0.99964048 
   91500    275.75031    77.911914    138002.84   -43206.561    3786.7664   -46993.327    1341.6021   0.99886723 
   91600    277.42714    52.854668    138054.51   -43197.056    3809.7937    -47006.85    1343.9935   0.99849337 
   91700    277.08213   -104.54111    137919.14   -43224.139    3805.0559   -47029.195    1344.1148   0.99947341 
   91800    271.20911   -147.82724    137473.36   -43314.186     3724.404    -47038.59    1341.7885    1.0027144 
   91900    269.00635   -12.443859    137406.85   -43239.637    3694.1545   -46933.792    1343.2786    1.0031997 
   92000    275.42899   -63.924658     137250.7   -43177.314    3782.3539   -46959.668    1343.7316    1.0043411 
   92100    275.99831    111.49852    137302.25   -43115.028    3790.1722   -46905.201    1345.6729     1.003964 
   92200    276.86538    31.780177    137180.15    -43028.13    3802.0793   -46830.209    1346.1777    1.0048576 
   92300    280.70076   -13.983657    137574.61   -43062.845     3854.749   -46917.594    1349.7196    1.0019764 
   92400    278.11681    19.206249    137425.77   -43134.898    3819.2647   -46954.163    1350.5198    1.0030616 
   92500    277.62222    178.72771    137412.92   -43072.628    3812.4727   -46885.101    1351.7622    1.0031554 
   92600     273.8382     75.96623    137798.92   -43106.514    3760.5082   -46867.022    1355.0029    1.0003454 
   92700    275.79125    10.992075    137872.97   -43123.273    3787.3287   -46910.601    1357.4958   0.99980812 
   92800    278.95476    111.02973    137460.68   -43132.691    3830.7719   -46963.463    1356.4844    1.0028069 
   92900    277.54967    225.78539    137593.95   -43145.295    3811.4764   -46956.771    1358.9204    1.0018356 
   93000    277.14709   -10.979643     137613.7   -43071.009    3805.9478   -46876.957    1361.2209    1.0016918 
   93100    282.89683   -132.14561    137509.32   -43107.745    3884.9067   -46992.652    1362.8761    1.0024521 
   93200    280.51817    120.86616    137778.03   -43077.121    3852.2416   -46929.363    1367.1759     1.000497 
   93300    284.46495   -125.86639    137864.39   -43015.248    3906.4411   -46921.689    1367.7317   0.99987037 
   93400    279.46536   -136.26536    137506.97   -43146.936    3837.7838    -46984.72    1367.5539    1.0024693 
   93500    275.87365    206.68649    137532.17   -43182.617    3788.4603   -46971.077    1369.0787    1.0022856 
   93600    278.92685   -178.19086    137391.04   -43224.848    3830.3886   -47055.237    1369.5442    1.0033152 
   93700    272.31977    70.513845    137243.69   -43207.836    3739.6563   -46947.492     1369.503    1.0043924 
   93800    279.22178   -189.56028    137262.54   -43098.455    3834.4387   -46932.893     1369.913    1.0042545 
   93900    271.12987    58.888131    137346.86   -43206.951    3723.3159   -46930.266    1373.3684    1.0036379 
   94000    274.82226   -33.208526    137257.23   -43212.244    3774.0219   -46986.266    1375.1854    1.0042933 
   94100    275.23682    145.59479    137356.19   -43282.621    3779.7149   -47062.336    1376.8936    1.0035697 
   94200    274.60035    29.387188    137533.57   -43273.392    3770.9745   -47044.367    1378.8074    1.0022754 
   94300    275.58648   -84.131825    137601.43   -43198.861    3784.5167   -46983.378    1380.5212    1.0017811 
   94400    274.83589    223.87874       137555   -43197.162    3774.2091   -46971.371    1382.8924    1.0021193 
   94500    273.48174   -7.5269402    137754.79   -43178.483    3755.6132   -46934.096    1385.4343    1.0006659 
   94600    275.15758   -5.7229276     137784.7   -43265.055    3778.6268   -47043.681    1387.4299    1.0004487 
   94700    277.76769    140.02076    137781.46   -43181.048    3814.4704   -46995.518    1389.6636    1.0004722 
   94800    281.73965    13.637934    137798.21   -43127.512    3869.0156   -46996.527    1389.8832    1.0003505 
   94900    275.85062   -39.297653    137745.34   -43063.718     3788.144   -46851.862    1391.1538    1.0007345 
   95000    275.58049   -172.71771    137686.08   -43106.758    3784.4344   -46891.193    1393.3307    1.0011652 
   95100    278.22526   -53.655192    137688.12   -43103.272     3820.754   -46924.026    1395.7316    1.0011504 
   95200    278.76848    78.418496    137881.53   -43074.647    3828.2138   -46902.861    1399.7232   0.99974609 
   95300    281.68544    128.06322    138088.95    -43108.07    3868.2712   -46976.341    1403.2317   0.99824436 
   95400    273.11173   -46.635921    138110.35   -43122.416    3750.5319   -46872.948    1404.8755   0.99808966 
   95500    273.90802    57.860736    137984.14   -43117.118    3761.4671   -46878.585    1404.5879   0.99900259 
   95600    271.40992   -44.202263    137900.48   -43242.854    3727.1616   -46970.016    1406.3784    0.9996087 
   95700    274.29184   -86.265807    137947.56   -43186.109    3766.7379   -46952.847    1407.5133   0.99926751 
   95800    280.05969    101.65598    138164.99   -43134.361    3845.9455   -46980.306    1409.4558   0.99769501 
   95900    273.19958    92.412176    138159.21   -43181.921    3751.7384    -46933.66    1410.3484    0.9977367 
   96000    276.62614   -75.586099       137834   -43119.487    3798.7939   -46918.281     1408.848    1.0000908 
   96100    273.13542    39.603371    137645.63   -43124.069    3750.8573   -46874.927    1408.0618    1.0014595 
   96200    274.43353   -6.8213815    137822.14   -43123.497    3768.6836    -46892.18    1410.9125    1.0001769 
   96300    279.26775     11.92513    137813.83   -43106.553      3835.07   -46941.623    1413.8012    1.0002372 
   96400     273.1024   -82.459783    137758.55   -43161.616    3750.4038    -46912.02    1416.1106    1.0006386 
   96500    278.99565   -232.89336     137719.4    -43095.32    3831.3334   -46926.653    1416.4624     1.000923 
   96600    277.79562    13.342493    137483.71   -43062.614    3814.8539   -46877.468    1416.8405    1.0026389 
   96700    278.84126  -0.93562787    137602.91   -43027.502    3829.2132   -46856.716    1418.6146    1.0017703 
   96800    279.31347    -109.5174    137561.47   -43001.482    3835.6979    -46837.18    1420.2617    1.0020722 
   96900    273.61188     -209.985    137506.42   -43057.647    3757.4003   -46815.048    1420.9616    1.0024733 
   97000    275.04236    21.214396    137089.93   -43095.887    3777.0445   -46872.932    1420.5216    1.0055189 
   97100    274.57067    79.352549     137225.7   -43089.554     3770.567   -46860.121     1422.812    1.0045241 
   97200    275.82525     145.2229    137221.72   -43060.567    3787.7956   -46848.363    1422.3129    1.0045532 
   97300    277.78791    -87.41476    137409.17   -43131.537     3814.748   -46946.285     1424.814    1.0031828 
   97400    276.76953   -43.394596    137592.35   -43122.272     3800.763   -46923.035    1427.9984    1.0018473 
   97500    276.30379    2.8957059    137603.93   -43164.712    3794.3672   -46959.079    1429.4071    1.0017629 
   97600    276.95293    195.42488    137676.46    -43139.45    3803.2816   -46942.731    1431.3582    1.0012352 
   97700    278.01966    155.27195    137534.79   -43169.873    3817.9306   -46987.804    1431.4861    1.0022665 
   97800    276.51037    44.883825    137441.73   -43156.729    3797.2041   -46953.933    1432.2602    1.0029452 
   97900    279.60192    15.560557    137246.45   -43098.024    3839.6591   -46937.683    1431.7366    1.0043722 
   98000    277.75482   -20.331608     137445.9   -43077.283    3814.2936   -46891.577    1435.8711    1.0029147 
   98100     273.1255    136.72999    137723.99   -43131.924    3750.7211   -46882.646    1439.5042    1.0008897 
   98200    277.71964   -27.422317    137793.93   -43038.178    3813.8105   -46851.989    1441.0831    1.0003816 
   98300    284.78953    -28.09797    138000.34   -43015.576    3910.8983   -46926.474    1442.6582   0.99888536 
   98400    278.50205    123.85455    137939.09   -43054.967     3824.555   -46879.522    1444.0977    0.9993289 
   98500    277.60449    30.522314    137922.49   -43141.187    3812.2292   -46953.416    1443.6508   0.99944916 
   98600    273.64722   -77.245384    138007.29   -43108.329    3757.8856   -46866.215    1445.3628   0.99883502 
   98700     278.9611   -168.24569    137868.16   -43162.786     3830.859   -46993.645    1445.3236   0.99984298 
   98800    276.65511   -59.081646    137691.73   -43130.939    3799.1918   -46930.131    1446.8285    1.0011241 
   98900    275.35376    122.33746    137776.29   -43134.092    3781.3209   -46915.413    1447.6195    1.0005097 
   99000     278.8013   -18.452182    137788.24   -43059.526    3828.6645   -46888.191    1449.3778    1.0004229 
   99100    281.92226    130.30215    137464.79     -43144.4    3871.5233   -47015.924    1447.8733    1.0027769 
   99200    273.08262    98.567814    137582.76   -43093.417    3750.1322   -46843.549    1449.6275     1.001917 
   99300     274.8367    96.629637     137461.9   -43116.988    3774.2202   -46891.208    1451.1782     1.002798 
   99400    280.09116    144.18183    137492.09   -43051.156    3846.3776   -46897.533    1453.0024    1.0025778 
   99500     274.9101   -48.426912    137582.86   -43119.527    3775.2282   -46894.755    1454.8877    1.0019164 
   99600      280.204   -47.267055    137572.67   -43152.829    3847.9271   -47000.756    1456.3417    1.0019905 
   99700    280.78378   -45.103217    137683.09   -43147.022     3855.889   -47002.911    1458.5873     1.001187 
   99800    275.73915    200.67447    137582.01   -43205.786    3786.6132   -46992.399    1459.6682    1.0019225 
   99900    275.90543   -53.466714    137763.21   -43178.871    3788.8966   -46967.767    1463.0743    1.0006047 
  100000    275.22616    127.56031    137868.84   -43188.303    3779.5685   -46967.871     1465.937   0.99983811 
  100100    274.60175    -168.3389    137719.38   -43171.466    3770.9937    -46942.46    1466.8661    1.0009231 
  100200     277.2992    10.338336    137706.02   -43153.507    3808.0367   -46961.544    1468.3897    1.0010203 
  100300    276.84727    22.891325    137574.71   -43176.297    3801.8306   -46978.128    1469.0162    1.0019757 
  100400    276.05437   -110.20041    137565.83   -43172.123    3790.9421   -46963.065    1470.8535    1.0020404 
  100500    274.48643    75.732652    137607.08   -43175.047    3769.4102   -46944.457    1471.6999      1.00174 
  100600    273.14319    134.16239     137627.2   -43225.138     3750.964   -46976.102    1473.2022    1.0015935 
  100678    276.57511    49.238155    137800.26   -43149.122    3798.0931   -46947.215    1474.4649    1.0003357 
Loop time of 187.073 on 6 procs for 100000 steps with 4608 atoms

Performance: 230.926 ns/day, 0.104 hours/ns, 534.550 timesteps/s
99.3% CPU use with 6 MPI tasks x no OpenMP threads

MPI task timing breakdown:
Section |  min time  |  avg time  |  max time  |%varavg| %total
---------------------------------------------------------------
Pair    | 166.62     | 167.33     | 168.08     |   3.4 | 89.45
Neigh   | 7.5173     | 7.6476     | 7.9437     |   5.2 |  4.09
Comm    | 8.3539     | 9.3417     | 10.014     |  17.1 |  4.99
Output  | 0.17443    | 0.17522    | 0.17876    |   0.4 |  0.09
Modify  | 1.8564     | 1.9374     | 2.0095     |   3.4 |  1.04
Other   |            | 0.6433     |            |       |  0.34

Nlocal:        768.000 ave         780 max         761 min
Histogram: 2 0 1 1 0 1 0 0 0 1
Nghost:        1673.33 ave        1687 max        1659 min
Histogram: 1 0 1 0 1 1 0 0 1 1
Neighs:        0.00000 ave           0 max           0 min
Histogram: 6 0 0 0 0 0 0 0 0 0
FullNghs:      25770.3 ave       26433 max       25466 min
Histogram: 2 1 1 0 1 0 0 0 0 1

Total # of neighbors = 154622
Ave neighs/atom = 33.555122
Neighbor list builds = 7106
Dangerous builds = 0

undump              1
unfix               2
unfix               3
unfix               4


################################################
#######         Run Simulation         #########
################################################

reset_timestep      0
log                 log.run_${NAME}
log                 log.run_liq_277K_1atm_mW
