LAMMPS data file via write_data, version 29 Oct 2020, timestep = 100000

8511 atoms
1 atom types

-0.2754215436977745 104.82296127950866 xlo xhi
-0.21452448087515918 51.17826943895159 ylo yhi
-0.21452448087515918 51.17826943895159 zlo zhi

Masses

1 18.015

Atoms # atomic

107 1 1.1469524481423923 1.8640527953676758 0.8304988203508616 0 0 0
203 1 2.519987477501531 0.09033667594498135 2.385757912419499 0 0 0
108 1 8.027048471629126 1.3718780590900133 0.3364340539329461 0 0 0
109 1 9.235533487225846 -0.004066849488597535 2.2247569635690354 0 0 0
110 1 14.244395302170775 1.59712536204933 0.3665311627859539 0 0 0
111 1 15.880381705517202 0.5070563004733548 2.0783298083419113 0 0 0
851 1 20.19872270805264 1.6359103539862585 0.9184247263055234 0 0 0
934 1 21.72293737327194 0.07292199207134453 2.135716830622935 0 0 0
854 1 26.810838941267402 1.5089184164996583 0.5372740534800028 0 0 0
855 1 28.445316132738554 0.04273852970100783 2.3269451204310516 0 0 0
856 1 33.28185030411387 1.8229924359571203 0.8750649392198626 0 0 0
113 1 4.417459047415699 4.4367833348484655 0.7100822668835741 0 0 0
212 1 6.387622395617732 2.8015775079209315 2.126160202494987 0 0 0
115 1 12.384575469148858 3.2617069245790633 1.9080215232979958 0 0 0
114 1 10.990460915409155 5.206068298136944 0.5612625527537726 0 0 0
117 1 17.199282334556052 4.824034190362984 0.7174735094341593 0 0 0
1266 1 18.907975631488473 3.586118231769822 2.474367184068354 0 0 0
858 1 23.36203762069193 4.953850461327002 0.7801158891615392 0 0 0
939 1 25.286090277744915 3.314614013410998 1.9794114055154028 0 0 0
860 1 30.078857669940717 5.133414138687702 0.32595095927766105 0 0 0
941 1 31.543829301173666 3.602458440871833 2.224164770025175 0 0 0
118 1 1.5045889349816814 8.00941036742927 0.6864935205827737 0 0 0
219 1 3.0063675429782033 6.152495027030917 2.4122878015813694 0 0 0
120 1 7.430303706112615 8.062939082967688 0.8524263051535967 0 0 0
221 1 9.076298182009813 6.544363261909694 2.2332108731006066 0 0 0
122 1 14.12306499103109 8.301898658453156 0.928537846999355 0 0 0
123 1 15.622559978565398 6.655308475227462 2.189331520462758 0 0 0
862 1 20.73588304343619 7.931874046914142 0.43798284295063716 0 0 0
943 1 22.02100053977984 6.661795516173988 2.6472305862319514 0 0 0
864 1 28.27388165356644 6.736419544816885 2.0644719718525057 0 0 0
863 1 26.72500049075524 8.03810694718039 0.2900819028913959 0 0 0
866 1 33.36023974639172 8.244013992235065 0.537932633642489 0 0 0
6259 1 -0.1399418992732677 12.739719789658247 18.35752799514903 0 0 3
8458 1 0.17466318800591818 6.819905105179743 11.476203077683085 1 -1 1
126 1 4.179969903317072 11.43783548051354 0.8439188937314972 0 0 0
225 1 5.875319293822025 9.79166721772508 2.5413649717561824 0 0 0
128 1 10.74103261234098 11.399647586961299 0.7321633991644 0 0 0
129 1 12.249301457133262 9.581860555932936 2.215073792540864 0 0 0
131 1 17.19370092612209 11.160670618748547 0.29017461777892617 0 0 0
754 1 18.812708063150517 9.60859990815934 1.9205926960745607 0 0 0
868 1 23.688412890965278 11.336631520337715 0.8124713745655943 0 0 0
869 1 25.5544571187248 9.729061980462346 2.136721971420171 0 0 0
870 1 29.944502821748443 11.409028099616902 0.5849136736197272 0 0 0
952 1 31.587272283820216 9.694560052526809 1.994272287736806 0 0 0
138 1 1.231654588243514 14.412495866988749 0.3333673568564327 0 0 0
132 1 2.677801895127893 12.866466898211083 2.4749602291957866 0 0 0
134 1 7.400940586252234 14.245076738822757 0.7886993268365976 0 0 0
231 1 8.944664144892544 13.093053942007797 2.3002903506598735 0 0 0
234 1 15.592261156936784 12.865059303351154 2.035601452612884 0 0 0
136 1 13.976679888120287 14.60058458288235 0.9678726238723758 0 0 0
871 1 20.525164406812014 14.197863480193893 0.5478062805155091 0 0 0
954 1 21.932689803683413 12.862674762886002 2.3649300842241257 0 0 0
877 1 26.97789309351979 14.592456379460804 0.8084911889242723 0 0 0
872 1 28.37550826916148 12.925583112677629 2.54441583742954 0 0 0
879 1 33.2136204719082 14.512769882456059 0.5797566781887072 0 0 0
957 1 34.550061529715165 12.583590609875792 2.2554996727045324 0 0 0
139 1 5.906076018809689 15.974716517940514 2.3395741182976457 0 0 0
140 1 11.054765841582435 17.48148244268602 0.7324790429315031 0 0 0
142 1 12.589389784480916 16.150917893186158 2.56541377254766 0 0 0
709 1 18.794648491513456 15.952690112373645 2.090584724795612 0 0 0
147 1 17.172953050377924 17.624999299446475 0.7707089763360347 0 0 0
881 1 23.74087493951984 17.642795525482146 0.8774791127762309 0 0 0
876 1 25.358155062274324 16.009156766504756 2.3866274626001407 0 0 0
878 1 30.544426787601715 17.507887197098974 0.4988354275203005 0 0 0
961 1 32.06727751941969 16.01621304380621 2.2763373416814345 0 0 0
143 1 4.555194063706296 17.84994303677916 0.970749143859396 0 0 0
144 1 3.0334175731690856 19.394170669613214 2.2170539291223554 0 0 0
593 1 -0.24392974581844787 15.914552467964654 15.051525262851321 0 0 0
145 1 9.579815773996497 19.152710567225636 2.3962452442893256 0 0 0
148 1 15.516979704106424 19.271801558104524 2.072574754395416 0 0 0
880 1 22.149425762287223 19.382435640317215 2.2659517370235567 0 0 0
882 1 28.686334455189353 19.09614354336503 2.4275483398598174 0 0 0
149 1 1.3250731702721286 21.316879173913293 0.9808645556946567 0 0 0
151 1 5.918240575199896 22.44897355257652 2.393666094047466 0 0 0
152 1 8.095221420931313 21.058591928833426 0.9780932296362412 0 0 0
154 1 12.328215392665362 22.386464727794205 1.9568074403339448 0 0 0
146 1 13.864852917033032 20.812419526517548 0.3742460439859405 0 0 0
885 1 20.403036102454653 20.76086056962902 0.259802267778415 0 0 0
808 1 18.906732734952 22.18687943129158 2.1700178725041908 0 0 0
890 1 23.639776435047352 23.610252822826123 0.6525709320543805 0 0 0
886 1 27.175785328641837 20.759038227961824 0.9070324873994031 0 0 0
970 1 25.46752121504848 22.436245593050675 2.3997725057516655 0 0 0
887 1 33.26219643055704 20.90411525197333 0.6430503709951776 0 0 0
971 1 31.603807287300427 22.25697372102167 2.2339057485505585 0 0 0
308 1 -0.2441182740926478 9.61063529347211 2.1507608367428905 0 0 0
155 1 4.531748423157501 24.19117134646032 0.7500629011011376 0 0 0
250 1 2.906114648697203 25.736486992188123 2.3557409271387484 0 0 0
4262 1 34.741865072936356 22.830238938175462 24.749685942504946 0 0 0
156 1 10.974029275916148 24.32405777332447 0.3118219017625403 0 0 0
157 1 9.862301276077964 25.59929653676593 2.262924409659367 0 0 0
160 1 15.607114271468841 25.6995326517498 2.224557407103316 0 0 0
159 1 17.186582391681302 24.00834449232482 0.5113986404878403 0 0 0
975 1 21.914145816307943 25.691816772537422 1.8985354208715455 0 0 0
977 1 28.162575805890306 25.869457813999286 2.156822901042749 0 0 0
891 1 30.101527795310282 24.490092325701724 0.7354795274663325 0 0 0
893 1 34.645508147175526 25.94664586637273 2.4967488622184892 0 0 0
161 1 1.4076482077382984 27.326488812119162 1.035505217800704 0 0 0
164 1 8.100552538014828 27.249425268195054 0.8272762683456139 0 0 0
163 1 6.246762377747224 28.829504950441656 2.197496096493393 0 0 0
166 1 14.044570521877613 27.266289621945592 0.8331610985145268 0 0 0
257 1 12.599832811744502 29.043473877287273 2.2590949468758907 0 0 0
700 1 18.746274851040834 28.797745033108015 2.2983483602187986 0 0 0
895 1 20.162444173966403 27.237528511565493 0.5083698870706665 0 0 0
898 1 24.762529051864757 29.008048859843353 1.952673663505137 0 0 0
897 1 26.422739938208295 27.096387769665146 0.4636979386058836 0 0 0
901 1 33.24115781302441 27.548384414053718 0.5955777169387382 0 0 0
900 1 31.581856615555452 29.118195232882584 1.8429713789528996 0 0 0
262 1 2.786073613024666 31.556473899895988 2.5868003361447722 0 0 0
168 1 4.620782619208723 30.652084017987914 0.7922492313998 0 0 0
170 1 11.17419828392758 30.540730373779397 0.7174881095271978 0 0 0
265 1 9.342500000613326 32.35656378429914 2.1215060532631007 0 0 0
172 1 17.233898563232522 30.3038955891588 0.5159363295495759 0 0 0
267 1 15.75542001350082 32.28243690242438 1.9915961121162566 0 0 0
986 1 21.741458386405963 32.29292090738515 1.852220640223298 0 0 0
903 1 23.42964925952785 30.98469306304049 0.22872320242261235 0 0 0
905 1 29.516512335194836 30.276978069921864 0.5133370504145324 0 0 0
904 1 28.392242369450738 32.12717880823445 2.2220024421708247 0 0 0
174 1 1.215192073260656 33.03433231870345 0.7547520516226237 0 0 0
269 1 5.7807649158643 35.12900970489606 2.313350834068155 0 0 0
175 1 7.588167803420461 33.763652791850475 0.6826264624437131 0 0 0
271 1 12.243824105460973 35.34076785742161 2.5841480490428244 0 0 0
178 1 13.693015125149227 33.863458150160525 0.46777877222547926 0 0 0
499 1 18.580544531251224 35.65785968047996 2.193327787026241 0 0 0
907 1 20.03645144783349 33.978221387803956 0.33239582437495785 0 0 0
993 1 25.157335415752705 35.44893350707717 2.0844605001448775 0 0 0
909 1 26.80141918742882 33.766227905384596 0.45018593953762953 0 0 0
910 1 33.156700550324395 33.47109786529856 0.6491704006115429 0 0 0
911 1 31.582556035192724 35.12397187497919 2.2410602089944085 0 0 0
273 1 2.724088854730194 38.363670074590715 2.355090358625409 0 0 0
180 1 4.132356883571328 36.46284977900966 0.77583192966198 0 0 0
4215 1 34.728713346899085 48.004289273856514 24.501385314726566 0 -1 0
182 1 11.010862374832548 36.85790318805722 0.6426770296373149 0 0 0
181 1 9.447394329163242 38.33055194461011 2.5475885836207173 0 0 0
183 1 16.8847874185259 37.237258115741184 0.45469120567117816 0 0 0
281 1 15.688444398582629 38.844591177013584 2.328439097777595 0 0 0
997 1 21.811213783261433 38.84289723330444 2.0467721014666744 0 0 0
912 1 23.62682041727417 37.189106096882526 0.5183863118208315 0 0 0
913 1 29.971231885559977 36.55991408441413 0.6503201848651258 0 0 0
999 1 28.820379602646582 38.39317308942526 2.3174127423405375 0 0 0
914 1 34.5917282633837 38.102218630735905 2.2108513913879744 0 0 0
185 1 1.0122462632493894 39.857031922312785 0.7739527632311074 0 0 0
4343 1 34.73164727498505 9.863556696016326 24.65443253678965 0 0 0
189 1 5.801681230339135 41.48830308830716 2.4294392063146333 0 -1 0
186 1 7.686976959674493 39.840623732632395 1.0437952518321783 0 0 0
187 1 14.021990419935955 40.340414745285045 0.4284951081045304 0 0 0
736 1 18.597103152520173 41.54281203818289 2.158334971377346 0 -1 0
915 1 20.100664174063656 40.22819219605448 0.32483140029378144 0 0 0
916 1 27.235739574987125 40.194296051051964 0.8820732001363327 0 0 0
920 1 25.467601517131996 41.59731524926501 2.193809952251817 0 -1 0
917 1 32.99914634021658 39.75657911033201 0.5987498636752714 0 0 0
918 1 31.58724268765896 41.51956610631832 2.2439651383587953 0 -1 0
1387 1 1.1516417073393588 49.885503760558635 23.077969675558105 0 -1 0
95 1 4.136226883888684 43.48472695986962 0.7824036041169018 0 -1 0
97 1 10.328659996613506 43.559545118582136 0.9851469071725898 0 -1 0
191 1 12.429128209392756 42.10046933569454 2.1828069879358263 0 -1 0
98 1 17.238866503191215 43.46977546676099 0.578330410299732 0 -1 0
838 1 23.845653001102328 43.23492442041902 0.7754718027627755 0 -1 0
839 1 30.247924037448566 43.531683599315684 0.6545730726677467 0 -1 0
100 1 0.7603491798799811 46.692138791685906 0.2989697278217105 0 -1 0
99 1 2.7248878240532557 45.409951643067416 2.085871056806561 0 -1 0
101 1 7.561914598481648 46.701579021824685 0.7226592804992311 0 -1 0
96 1 8.758221547342432 45.09565880764876 2.5598723074717475 0 -1 0
1482 1 3.01465438534083 48.07864255841362 24.400317830925502 0 -1 0
102 1 13.965941066674075 47.01943693732591 0.7814086418200041 0 -1 0
103 1 15.631255712806057 45.1207246211559 2.1186572120233818 0 -1 0
841 1 20.182381138734847 46.71511521213087 0.47863973662789805 0 -1 0
924 1 22.162130519224952 45.15419988039115 1.9507478329151007 0 -1 0
843 1 27.111272722413496 46.68449349415303 0.6550118326130316 0 -1 0
844 1 28.68187080469128 45.37043503155168 2.516279049693291 0 -1 0
845 1 33.37236440472022 46.595925190273945 0.5489021180112971 0 -1 0
104 1 4.279392682285418 49.884888754365434 0.8432180558552613 0 -1 0
198 1 5.989354491661598 48.09875687353703 2.22753699571772 0 -1 0
105 1 10.70930947892587 49.92419306381163 0.4463073423687023 0 -1 0
201 1 12.571469338114218 48.6880829114869 2.316168442066777 0 -1 0
106 1 17.136396013705298 50.023706526311884 0.7624026606323886 0 -1 0
429 1 18.71078765176847 48.23124172683798 1.9337055204896143 0 -1 0
847 1 23.545164653667833 49.902288158523916 0.7326487220541059 0 -1 0
929 1 25.279547545108688 48.141919778529754 2.223054051746437 0 -1 0
848 1 30.000509153137394 50.05470940448585 0.4783664665963505 0 -1 0
849 1 31.673646316397704 48.25222559163865 1.9769908208235139 0 -1 0
204 1 4.54776056468418 1.8645060155386068 3.824211092626907 0 0 0
205 1 6.096082967326263 0.14353638465186036 5.361877323063382 0 0 0
206 1 10.83491732939078 1.6305239641988871 3.767584569817844 0 0 0
207 1 12.358811453455097 -0.01033386343743023 5.114801625989617 0 0 0
208 1 17.485997105901525 1.8266181423641767 3.8549828441571847 0 0 0
756 1 18.81220595051989 0.0665791557179421 5.642877094349914 0 0 0
935 1 23.487869500528124 1.730219507866609 3.664475927462215 0 0 0
1020 1 25.03291586272663 -0.02624351885973422 5.1807036294629585 0 0 0
936 1 29.97383326334218 1.7960426176901252 3.7689518027557596 0 0 0
937 1 31.894408605466587 0.05196023250462062 5.262322500597467 0 0 0
210 1 1.2670422079763022 4.931490998444507 3.915642839023458 0 0 0
211 1 2.552051866310413 3.0699688734017965 5.375917149710398 0 0 0
213 1 7.564360293863248 4.724152253672465 3.9318573219147153 0 0 0
214 1 9.272870491170568 3.2616350093724025 5.543554769691527 0 0 0
215 1 13.96695387872102 4.917357935858852 3.6194784806823512 0 0 0
216 1 15.880201070266448 3.212441373844058 5.389364175529653 0 0 0
938 1 20.465823551459362 5.138227517006817 4.103250995473493 0 0 0
1023 1 21.889126943856176 3.2466486096063134 5.569434259059614 0 0 0
1026 1 28.202225023576286 3.317602980182372 5.043583012948411 0 0 0
940 1 26.65741135305451 5.3059662965100856 3.7356063482424866 0 0 0
942 1 33.29298639826028 4.891444743875688 3.7104349103093157 0 0 0
220 1 4.473386615710413 8.037910561734344 3.923727828035938 0 0 0
312 1 5.901624322251946 6.573979776161641 5.581981381437594 0 0 0
314 1 12.067530025368825 6.476701200887574 5.265071766732906 0 0 0
222 1 10.542585692003033 8.279169372123391 3.847034849430946 0 0 0
223 1 17.328636925917053 8.179175962320313 3.8958726902899903 0 0 0
728 1 18.699372674048124 6.482112045139981 5.750036954311203 0 0 0
944 1 23.383739629057672 8.30283099809829 3.9783954292339994 0 0 0
1030 1 25.13394181208698 6.76991234243292 5.428843343710656 0 0 0
945 1 29.85759194854595 8.181768257717343 3.8491589198094953 0 0 0
946 1 31.71924354435138 6.3393278660691665 5.195336455605516 0 0 0
226 1 2.6078161741742782 9.632832267817394 5.254227011387819 0 0 0
224 1 1.0744952617377728 11.165250578079693 3.9641863854851094 0 0 0
227 1 7.77996608172187 11.177463851858386 4.070245292404876 0 0 0
316 1 9.329895200236967 9.473487290741183 5.738911400655205 0 0 0
229 1 15.293502359949517 9.626066495126771 5.224820082853262 0 0 0
228 1 13.759887029266187 11.53937688324778 3.592097676846652 0 0 0
949 1 20.25861461409711 11.182240878570772 3.762231487033886 0 0 0
1033 1 21.65177626177699 9.569814441059709 5.462703569795376 0 0 0
950 1 26.785730593286896 11.415571041176904 4.164512648054753 0 0 0
951 1 28.351839554937534 9.573185983024635 5.696060263523614 0 0 0
953 1 33.024135042045586 11.111048628755333 4.198042549178261 0 0 0
232 1 5.94418847817494 12.84122501581178 5.143194075844457 0 0 0
230 1 4.302041526273895 14.562913046387816 3.7219585041079792 0 0 0
238 1 10.774301720163106 14.610705312533378 3.9439653983734946 0 0 0
233 1 12.438438960930387 12.83106144523198 5.4629814416568445 0 0 0
235 1 17.39443242343815 14.292886329681219 3.8579222858830056 0 0 0
684 1 18.766058439181492 12.654523965241008 5.569725799566935 0 0 0
1036 1 24.897967534707654 12.904000988482096 5.430988271527358 0 0 0
960 1 30.123125683378834 14.594054432933854 3.9041332385349286 0 0 0
956 1 31.425883183970843 12.674572470611999 5.746356432959738 0 0 0
240 1 1.4910649486770342 17.232082594035397 3.4582390645194443 0 0 0
236 1 2.7120022252436615 15.79181008102714 5.447487915661548 0 0 0
237 1 9.017630019734195 16.043288358961853 5.558781094317761 0 0 0
239 1 16.145787135888764 16.278985307462126 5.190054199335605 0 0 0
1039 1 21.742569194333882 16.13707116478775 4.99756974061197 0 0 0
955 1 23.5507497321001 14.712064609233616 3.697328687982639 0 0 0
964 1 27.14478685510082 17.503757801502225 4.042586187874878 0 0 0
1045 1 34.4693231361411 15.954186456299002 5.5844990177083496 0 0 0
20 1 0.06376199939228921 18.918296533683602 4.9693719752348855 0 0 0
245 1 4.394146265165368 20.70157064173222 3.868392575019267 0 0 0
241 1 7.591415404592273 17.725834872827974 3.829789708066416 0 0 0
329 1 6.118675718977228 19.556000916986676 5.470032086301864 0 0 0
242 1 14.277339878908409 18.037857840903648 3.925095975846471 0 0 0
243 1 12.529326515265792 19.468944741176628 5.503590322965739 0 0 0
441 1 18.44940393900648 19.284707273808454 5.6317068579965035 0 0 0
958 1 20.05635531351367 17.76792177276091 3.5599241452468657 0 0 0
963 1 25.235581104607594 18.975941393163026 5.341251846719408 0 0 0
965 1 30.30020943278939 20.673236283138873 4.077268637365742 0 0 0
962 1 33.238092062530605 17.851081622456356 3.9534492857268333 0 0 0
966 1 31.747086041752034 19.225379415485627 5.759729596879732 0 0 0
332 1 2.9133150181965237 22.240055378973604 5.469564152459589 0 0 0
246 1 10.80612567398897 21.38058854099963 4.08620525015251 0 0 0
335 1 9.369154819872463 22.825676855088318 5.721182008477115 0 0 0
247 1 15.487807641931285 22.90186199873732 5.32866108151645 0 0 0
248 1 17.087267257364996 20.74194717230823 3.844793716185566 0 0 0
968 1 21.566922105896204 22.493532583353186 5.173268888100515 0 0 0
969 1 23.65482197344826 20.795328729193024 3.82213712978108 0 0 0
972 1 28.501571595379616 22.730054191263 5.261160400776839 0 0 0
249 1 1.1008397094003088 23.96559255014734 3.95260419583634 0 0 0
339 1 5.936217121088428 25.429690972565872 5.155062708345563 0 0 0
251 1 8.024229934059365 24.002933634088617 3.812768924680297 0 0 0
252 1 13.831030956271592 24.100071278335598 3.6009239489781835 0 0 0
253 1 12.722564235855993 26.02515423445735 5.568385408793239 0 0 0
974 1 20.18159654267166 24.277662241648198 3.602102648253937 0 0 0
737 1 18.81670214745511 25.799795141378198 5.481107311436366 0 0 0
978 1 24.93431432007439 25.59021103726091 5.461920625437986 0 0 0
976 1 26.73762349554649 24.262294419772417 3.734768297272971 0 0 0
979 1 31.50339851955336 25.65505917264795 5.170040226237566 0 0 0
980 1 33.227451341054355 24.130727419255837 3.8915990484322123 0 0 0
5961 1 -0.1803395289651225 41.161993501716864 9.719818477056556 2 0 2
255 1 4.717427065871686 27.23861316869102 3.584044434475408 0 0 0
345 1 2.9848031993841238 28.458835311395593 5.536931155811328 0 0 0
347 1 8.890336514395647 28.955822642668807 5.567384002685998 0 0 0
256 1 11.176539898953349 27.679761145668742 4.0994786318284895 0 0 0
258 1 17.08416668041402 27.143000685025523 3.9218474076320113 0 0 0
259 1 15.722145340199555 28.819084561368307 5.388330598755545 0 0 0
1061 1 21.65963484623931 29.070339139169175 5.1102222836054345 0 0 0
982 1 23.206798000030293 27.25093330933294 3.635919665422584 0 0 0
1062 1 28.208983346330427 28.844140946443424 5.214582709751942 0 0 0
983 1 30.191841728949463 27.552330417899242 3.58329917506322 0 0 0
261 1 1.1517908123321368 30.137517867249958 4.557985116766566 0 0 0
264 1 6.011294075143286 32.372449834172244 5.656163403022427 0 0 0
263 1 7.778987547299074 30.810311282818326 3.778264190620662 0 0 0
266 1 14.019984486632488 30.737227042711414 3.832451205554749 0 0 0
352 1 12.55102809290126 32.22769718791167 5.50688964923349 0 0 0
984 1 20.03663590606969 30.73611469955826 3.508653166173957 0 0 0
888 1 18.91240924587717 32.55568685449418 5.400762447462844 0 0 0
1066 1 25.019110647455705 32.138055046777666 5.237619957508726 0 0 0
987 1 26.726135016154487 30.465691192288247 3.621517711545724 0 0 0
988 1 33.28024296796203 30.346139519344188 3.778063058550348 0 0 0
989 1 31.662323778272725 31.710595488229266 5.301818683289882 0 0 0
356 1 2.56123140310975 34.9996396410524 5.554224815514794 0 0 0
268 1 4.2834706378399465 33.64150217171331 3.9015711270116356 0 0 0
358 1 9.24449308004113 35.67756688917218 5.575391303683641 0 0 0
270 1 10.543424169951756 33.73412537318163 4.196283043757779 0 0 0
272 1 17.225227725121254 34.02152017369998 3.898000016576378 0 0 0
360 1 15.732324496735153 35.42415588027899 5.438317795222924 0 0 0
991 1 23.637879655577105 33.68094171156149 3.631386154355209 0 0 0
992 1 22.246596492193987 35.61745685135381 5.020387448815682 0 0 0
994 1 28.022988820360634 35.206757334897176 5.278898721481652 0 0 0
995 1 30.076180770871016 33.53603865888577 3.8595004066769114 0 0 0
274 1 1.1622725749349765 36.6738675702381 3.851023407347599 0 0 0
275 1 5.715132917339346 38.40892508555626 5.426156286680131 0 0 0
276 1 7.444633236538479 36.985587537099875 3.638018919766086 0 0 0
278 1 13.979498442293535 37.08267970865455 3.832249891995568 0 0 0
277 1 12.515280498046884 38.81004948215744 5.426584277627015 0 0 0
715 1 18.778325437360692 38.52325748961478 5.378151864830653 0 0 0
996 1 20.42832897393976 36.97869457923245 3.5327806808806455 0 0 0
998 1 27.021622732397486 36.83813124642032 3.5371349450786576 0 0 0
1078 1 25.29528100357485 38.5446039588153 5.071087789913202 0 0 0
1000 1 32.89433140010964 36.70872830102188 3.8482360430045572 0 0 0
1001 1 31.741944086089333 38.59375032589554 5.347967900372722 0 0 0
367 1 2.1374173610918024 41.57536291370907 5.465182770222042 0 -1 0
279 1 4.225869664501424 40.16552628658782 4.060735344317807 0 0 0
280 1 11.032827083903785 40.411197376023125 3.9835039555662286 0 0 0
282 1 17.147620576338138 40.149270627671584 4.168875100188361 0 0 0
1003 1 23.551301023069062 40.09718606677514 3.8411297234425703 0 0 0
1004 1 30.23041070184099 40.18847636464953 3.8394328209105906 0 0 0
1005 1 28.388879953194945 41.63031651767723 5.531888927203634 0 -1 0
188 1 1.2413412381544469 43.48423147944072 3.704832916743749 0 -1 0
190 1 7.121742654434626 43.47351841542739 3.9469808516193474 0 -1 0
368 1 9.082790352104045 41.92824275827678 5.52451433009265 0 -1 0
192 1 14.016418852184568 43.64848940895071 3.872398549503986 0 -1 0
286 1 15.64134760608881 42.213279811258346 5.614262336792056 0 -1 0
919 1 20.348669901722353 43.559454054488796 3.299745259129768 0 -1 0
1006 1 21.87787516050524 42.00881763966245 5.111892574295731 0 -1 0
1011 1 25.06976577077251 44.88396600094508 5.387475590285215 0 -1 0
921 1 27.06362639324334 43.526231784934396 4.023611777720782 0 -1 0
923 1 33.3248890013908 43.59966745120086 3.771178456831736 0 -1 0
2145 1 29.88497397230806 46.81800435437201 23.416695446027052 0 -1 0
1486 1 15.755852014122127 48.44920779627894 24.692897792002874 0 -1 0
194 1 4.351141794986504 46.829724517742775 3.936809816382336 0 -1 0
289 1 5.678545736948142 45.158961688140224 5.624538891725867 0 -1 0
195 1 10.918495889957642 46.65796073362871 3.862656348931579 0 -1 0
291 1 12.327096357678355 45.164345620289566 5.6957122491049175 0 -1 0
196 1 17.069611574853855 46.59702984387641 3.648081907305174 0 -1 0
753 1 18.805186839931526 44.97365625825775 5.132177883229627 0 -1 0
925 1 23.68293608978017 46.64176134552105 3.7194916218650746 0 -1 0
926 1 30.271434162349696 46.77968025323544 3.9888088143392295 0 -1 0
922 1 32.099342840360585 45.17650713103579 5.551219421214276 0 -1 0
197 1 0.9541096482328517 49.78431182010647 3.940761173299398 0 -1 0
294 1 2.776474537776762 48.57905693573797 5.605380524554179 0 -1 0
200 1 7.681075805329197 49.87753353539112 3.9822745492030824 0 -1 0
199 1 9.280073168858506 48.26504890746668 5.524500598874204 0 -1 0
202 1 14.256805597024115 50.15487974509762 3.6482129742415896 0 -1 0
297 1 15.508164837429879 48.21667921086042 5.352149183267599 0 -1 0
927 1 20.309258859661558 49.5354674948379 3.8772363887315784 0 -1 0
1015 1 21.83976319258778 47.97523602057282 5.284940948956431 0 -1 0
931 1 26.981016082198728 49.68343810729422 3.695981258271442 0 -1 0
930 1 28.641959466526473 48.32427803442812 5.524607193359766 0 -1 0
932 1 33.22053703440963 50.017926038527904 3.77770090296183 0 -1 0
299 1 1.112238210857644 1.4734113679482768 6.908238253623065 0 0 0
392 1 2.6938961324433626 0.18910464593232457 8.740180297020325 0 0 0
301 1 7.641285059250347 1.7901011571736989 7.003903550905305 0 0 0
300 1 9.384440972539524 0.3085858359932999 8.48372411571943 0 0 0
302 1 13.998314743118117 1.7352554948885872 6.817264170443607 0 0 0
303 1 15.29379507275737 0.1697753761945765 8.82280971659655 0 0 0
1019 1 20.544844800194525 1.4757908255803804 7.155335253066953 0 0 0
1094 1 22.223507567920198 51.117312036954246 8.386579657528948 0 -1 0
1021 1 26.93958236630484 1.5252546576611865 6.723626674318885 0 0 0
1097 1 28.163474712342314 0.05361516235223046 8.776728699205158 0 0 0
1022 1 33.11341778604874 1.976633024905119 6.513863280400685 0 0 0
304 1 4.2618877278406835 4.564229845897895 6.836971490249694 0 0 0
305 1 6.105038900148147 3.402995196643403 8.425202909561127 0 0 0
306 1 11.089678790223534 4.512219649010452 7.041598752182248 0 0 0
307 1 12.684023981021351 3.3041355081486907 8.793557864966825 0 0 0
309 1 17.011792803098423 4.9060697364278685 7.2357637142550395 0 0 0
861 1 18.91391786016213 3.3011189300553356 8.631265986692165 0 0 0
1025 1 23.52103271126448 4.800454105930529 6.905032555797735 0 0 0
1024 1 25.38877494837036 3.1911273022329265 8.492790604525318 0 0 0
1027 1 29.701347932029034 4.829462937854295 6.779738729583817 0 0 0
1102 1 31.38443852703559 3.279504211809992 8.571196441584423 0 0 0
311 1 1.1478250406259882 7.945664552438934 6.906246544214606 0 0 0
310 1 2.58432683155352 6.018003630137022 8.503852439544858 0 0 0
313 1 7.72269771683997 8.022582923110438 7.2971170451824445 0 0 0
404 1 9.531620316445414 6.447205409220705 8.536764039615198 0 0 0
315 1 13.79015730390758 8.009348672967992 6.747428548669289 0 0 0
407 1 15.800382430861752 6.481655784018245 8.722729745076986 0 0 0
1029 1 19.959867777907505 7.9285124395819455 7.304176447630726 0 0 0
1104 1 21.81453002676452 6.279164147985817 8.38042034038661 0 0 0
1031 1 26.658860553893597 8.025682630308815 7.233424346802206 0 0 0
1107 1 28.34752196971788 6.566629082207854 8.787680224598736 0 0 0
1032 1 33.154368919783344 7.821684753002804 7.195462875116856 0 0 0
410 1 5.7991294653047 9.5604078177206 8.438609233250528 0 0 0
319 1 4.10412886039915 11.318924450043367 6.748318151025797 0 0 0
317 1 10.99484261791314 11.145409502125423 7.228155606571969 0 0 0
414 1 12.689736178873202 9.435037100799864 8.762287475390705 0 0 0
318 1 17.117558752118384 10.831941726395177 7.0276590178381 0 0 0
1034 1 23.469361269313357 11.238300609967778 7.094667959997776 0 0 0
1110 1 24.90735777753641 9.487089671120922 8.791543581771377 0 0 0
1035 1 29.653363050044433 11.104527803970859 7.258996470603076 0 0 0
1111 1 31.47051987446475 9.347380935663816 8.82184804322775 0 0 0
324 1 0.9092936500612796 14.305710453868532 7.344960873491761 0 0 0
320 1 2.370651048622655 12.590507601530952 8.726271282735514 0 0 0
321 1 7.713442636298306 14.289827885889721 6.930371101735099 0 0 0
418 1 9.232711563693863 12.697189105325773 8.630353339307485 0 0 0
322 1 14.24104193255397 14.482051041431076 6.868515858711526 0 0 0
420 1 15.79157304106796 12.774994244702677 8.226031539250755 0 0 0
1040 1 20.17261396522186 14.675638877794098 6.9830248117449365 0 0 0
1112 1 21.837822500689384 12.839592885359307 8.828197145829558 0 0 0
1037 1 26.66878280801448 14.068660912791803 7.01303441235826 0 0 0
1115 1 28.076654451988553 12.488246977607538 9.083390529712325 0 0 0
1044 1 32.70497375393022 14.48610228865171 7.514752488446534 0 0 0
3393 1 34.747977489370626 16.294684292146698 18.381064429965527 0 0 0
325 1 4.708498536436669 17.362717209737074 7.0847509200922705 0 0 0
421 1 6.259417742935614 15.563116691728812 8.750937732067314 0 0 0
326 1 12.476594551627187 16.346417237906387 8.560385688983622 0 0 0
827 1 18.859495889444453 16.247711013150013 8.839995829218353 0 0 0
1047 1 23.403354671342655 17.276712241792232 6.758134988369725 0 0 0
1041 1 25.149402279040356 16.102158874912174 8.570641003260949 0 0 0
959 1 28.64461970453717 15.758482855159512 5.976512862257935 0 0 0
1043 1 31.282911098350013 16.21745416183555 8.714470227619628 0 0 0
328 1 1.3688686115145037 20.578131902578164 6.954910059747368 0 0 0
426 1 2.90373007865188 19.077470116940262 8.825471009455786 0 0 0
427 1 8.887537390355236 19.209684990981028 8.73255343107551 0 0 0
330 1 10.726584921689872 17.99175231989658 7.148055016812953 0 0 0
428 1 15.355990784988956 19.384566666859637 8.780108549403526 0 0 0
331 1 17.153819940803874 17.83940313392939 7.390439975290866 0 0 0
1046 1 21.974925681415932 18.90131774091519 8.379108264617535 0 0 0
1051 1 26.75184948737104 20.670578361738265 6.69863896244738 0 0 0
1048 1 27.946032807931832 19.157891296439487 8.561436763798062 0 0 0
1042 1 29.74642721467719 17.866900733996623 7.075036813118642 0 0 0
333 1 5.901576141149769 22.642465632083386 8.634310274277032 0 0 0
334 1 7.718657879366779 21.002651475129593 7.210591648439413 0 0 0
433 1 12.404719206867595 22.683846069446147 8.820423519370658 0 0 0
336 1 13.870982160532439 21.18265189286386 7.045881085965026 0 0 0
1049 1 20.3263701765595 20.7298634269836 6.9478131089914745 0 0 0
514 1 18.819631424517098 22.46170842748942 8.684846538679793 0 0 0
1050 1 25.153355748098058 22.504141467795463 8.146034279438783 0 0 0
973 1 34.52914009844519 22.512796912677356 5.981932134881414 0 0 0
1052 1 33.33586746022998 20.73390124982118 7.358510199879263 0 0 0
1053 1 31.561813387987616 22.729822260320994 8.64995734281084 0 0 0
437 1 2.593610784358699 25.84483756962982 8.793028466297486 0 0 0
338 1 4.291815210855642 24.28086373703608 6.961199932614642 0 0 0
340 1 11.083135649128362 24.493936297455416 6.95063756442574 0 0 0
341 1 9.363464358491006 26.070693976922048 8.439721455978825 0 0 0
440 1 15.564116170113538 25.70092590674298 8.710953134035082 0 0 0
342 1 17.37497219452758 23.98647450818557 7.06583276076323 0 0 0