LAMMPS data file via write_data, version 29 Oct 2020, timestep = 200000

4608 atoms
1 atom types

-0.24395879569262036 53.643958795690764 xlo xhi
-0.12373195825233196 51.03085195825149 ylo yhi
-0.12373195825233196 51.03085195825149 zlo zhi

Masses

1 18.015

Atoms # atomic

3542 1 0.07663402277370218 36.556935875463864 18.66037043675254 2 -1 -1
3132 1 1.9624790272728725 25.944760839474494 12.572950661217597 0 1 0
2149 1 0.2543585206746556 15.989262345259885 1.3374034311714265 0 -1 0
2389 1 17.38605930492517 50.03133951156836 1.9378738706094865 0 0 0
2568 1 7.787271133289561 19.51661967634181 23.28135513561247 1 1 0
3335 1 8.054565244101251 31.449722874814956 24.683429883793714 1 -1 -1
2745 1 0.4859017421509947 11.290714308963013 18.39214676574465 1 -1 0
931 1 1.707427040864499 4.244540280976594 10.50153451154535 0 1 1
522 1 13.950333460280943 2.9475511432880706 0.3946438483849587 0 1 0
570 1 11.296024361244601 1.3142166406284113 0.7914672842356203 -1 1 1
3728 1 15.532189637327631 4.0657938225669 2.6679045642069643 0 0 0
2926 1 2.8287568583256553 31.175860731134122 24.238260680612747 0 -1 0
2048 1 2.9954035527089036 17.94072743876067 25.233220394711346 0 0 -1
947 1 0.5987893611540266 27.547989956178288 15.628480397939143 1 0 0
1130 1 3.1972558223964413 46.405559403374724 14.180820236449273 0 -2 0
1821 1 9.95298877835888 6.933816365539848 2.300770379454434 -1 0 0
1135 1 0.5691405474718408 39.64993325772578 20.34995839722666 0 0 2
4280 1 0.30668943267830895 24.822487679574113 9.993449249158436 0 -1 0
817 1 4.427452025647872 10.753105625990452 23.95385055133483 0 1 0
3320 1 0.5370875817353112 0.41094950805862407 2.2349260127533306 0 1 0
418 1 11.097175986292148 14.634398355368363 2.6159280737034862 1 0 0
4371 1 10.131729890849119 17.70423499616463 25.090694728472453 1 0 1
1727 1 6.19551489634049 6.099047519253686 0.035947010723450634 1 0 0
520 1 1.4142769868677398 28.37463507100504 -0.011364028847895252 1 0 0
2617 1 11.507013599031223 6.507397450855413 -0.10741721454248473 0 1 2
1084 1 15.144705784043333 10.55838787083615 0.6800288666375873 0 -1 2
2987 1 11.729627072771867 11.726034174724077 2.232001581332399 0 1 0
2271 1 2.494885744055898 13.765343872354338 0.45279848517376897 1 0 0
2419 1 17.33810553321399 36.69653073218218 24.75678357605143 0 0 1
607 1 3.4511328851194025 18.566207570999218 3.417797359773791 -1 0 0
1194 1 0.5854985534942845 18.333986462540086 3.097278603968159 0 0 1
2107 1 4.083763954307495 15.72070812747783 3.7360088411293986 0 0 0
1750 1 0.15085858384210687 37.57881163331999 15.890774011426995 1 1 -1
1222 1 15.138789703596371 49.932893633450874 -0.019964676085661284 0 0 0
2379 1 15.282772731683643 17.385609967366328 3.103824225856748 0 1 1
4195 1 1.8804777916415425 22.771345448980107 2.6619229046148174 1 1 2
362 1 15.731722803947324 0.1537381389842783 21.15228568992762 0 0 -1
1039 1 12.543729006845584 20.1066173758738 -0.06505706302653262 0 -1 1
1828 1 6.794005470308941 16.849758902542703 1.4608129355574149 0 0 0
2167 1 1.9616890751861678 20.990322611340556 4.968703261027282 0 0 -1
2567 1 13.666611085926252 15.532136086362563 1.6735515193951913 1 1 1
2941 1 15.556944694325932 23.494634027474245 2.459609884345392 0 1 1
2431 1 0.8420808202293233 48.190626062877385 20.608482492984283 2 0 0
3370 1 4.0540400869466815 28.287046293893606 3.3151218404221026 0 -1 1
3407 1 0.8385914221880202 19.486414142468984 10.656921205480828 1 -1 0
3701 1 10.820095938586855 27.072371191019307 2.6870057723694267 1 0 1
1717 1 12.572291445633185 23.841964273618213 1.4860277740849714 0 0 1
3267 1 16.93884496035059 47.93650155570538 22.61368373053278 1 0 0
1604 1 9.596996843397507 15.586326569304827 0.6988225956869111 0 0 0
4071 1 6.662870997013002 29.305905255535425 2.454855967078195 0 0 2
1894 1 6.643156006510329 31.7940429227412 5.569516234116712 0 1 -1
1502 1 12.632677066131048 31.494138688550663 3.739989357448367 0 1 0
1049 1 17.572493736024068 27.194099860420543 2.032706010068191 0 0 1
3169 1 8.583897139379939 33.054760909143894 0.9214044836091233 1 1 0
2786 1 9.505065828859266 35.34948164707467 2.5858552621634225 0 -1 0
1734 1 14.710180424726985 29.976110370208506 2.5372657553015094 2 -1 0
2863 1 12.973758587871068 29.8610441943707 0.09351884898982382 2 0 1
1248 1 2.3581556001265986 11.647759627642781 10.86553092703705 1 0 0
1195 1 3.2017928545201726 34.695843693287046 0.5824347745033599 0 0 1
3280 1 6.202006672795914 35.219712590436544 0.6324726574775499 1 -1 1
3999 1 8.149664752417436 36.81720271436291 4.256626172913676 1 0 1
3931 1 0.46247208740543344 16.34204344004647 8.266244684330164 0 -1 1
381 1 3.695012298232986 45.291059804677886 24.972101721446272 1 0 1
1108 1 3.754885423709371 16.28375352135213 0.7984372651930828 1 1 1
3290 1 5.541329787016092 36.391570952149806 3.327253671828442 0 1 1
1153 1 3.486299060655359 40.24884959503153 2.843587700208708 1 1 0
2965 1 11.155753135659781 36.06309793499712 -0.008469691098608456 0 -1 2
4241 1 12.297133119086347 36.0112637668294 3.38712807883668 1 1 0
3642 1 11.926863721818274 38.677064650856565 1.1050992513059248 0 -1 0
492 1 10.631245110393992 41.438562147896675 1.0713011014446585 1 -1 0
3100 1 1.524583309498912 42.87241900318277 1.0107015082777877 1 0 0
3310 1 10.523992299142359 13.972652908007154 24.534279995116744 1 1 0
2744 1 2.928855194556095 46.759256375752315 22.319643581855736 1 -1 0
971 1 2.37864025021111 1.9114130079274543 5.771007800782319 0 1 1
2204 1 5.131359873639296 46.344555874733246 2.004064948639746 1 1 -1
400 1 0.7032040768637239 50.84560242216304 7.179147734215024 1 0 0
2867 1 14.817904105498476 38.98597787189999 0.43152530007970336 0 0 1
2170 1 4.477948577408597 24.02365688272191 25.055849255134163 1 0 1
3763 1 16.3935708445899 44.14740060531071 3.0077544523498583 0 0 0
3497 1 4.290467948037942 44.239132028483226 0.1789647571068967 0 0 0
2591 1 6.558558896786398 39.271190807378645 -0.07584677476818587 1 -1 1
1516 1 2.2459756453318085 41.66429382233915 19.338214566401746 1 0 0
3878 1 12.702887122897204 41.65860335100764 2.6729343413485145 1 0 2
3206 1 15.095661643082328 42.15752621838311 1.4217966715634618 0 0 0
3004 1 6.8854883476539905 48.88792374963481 1.8976155472227454 -1 0 1
1152 1 11.404617900573562 2.1869492635310857 25.342255988993085 0 0 0
1251 1 15.63571907694485 47.88241312062304 5.913242287055475 -1 -1 1
2451 1 4.52897304494852 2.3837276597570596 23.364207357509862 1 0 1
2396 1 16.981673199605996 47.87735565787159 3.5021692825878055 0 1 0
3143 1 1.662297002929181 49.113137680666384 0.7084179787906891 2 0 1
859 1 4.891009323383538 50.77466885449249 5.784947570188208 0 -1 1
275 1 16.236431871935938 0.34941276723451453 4.521003994617836 -1 1 0
835 1 12.361728168896324 48.818903590662316 5.007560585098481 0 -1 0
85 1 10.808754480300589 50.99222326162466 5.020103869608534 0 0 0
4428 1 15.597937203587108 13.020580862681648 24.722713030689967 1 -1 -1
2365 1 3.7360619992823954 2.884700932931315 2.8004215520483915 1 -1 1
3685 1 16.328713583173965 14.637596850647828 12.04926830862983 0 0 0
1119 1 9.383931412402099 3.8350808253655986 4.414878488845361 -1 2 1
3879 1 11.779974495359564 2.1496658831395448 3.6222680189331333 1 0 1
2752 1 7.92084103880517 3.3397510858648958 0.2508644449022281 0 0 0
3969 1 5.476158933018011 8.396561148204317 3.8312628278807246 0 -1 0
170 1 16.84210903469131 17.118779308341068 22.1135710407164 0 1 -1
2868 1 1.1372421426767243 50.901856764378195 21.0247213300037 0 -1 1
4453 1 17.37385520496091 27.53549900506035 25.219310522935814 1 0 0
2417 1 12.12568622753469 4.424184650954564 5.864377532188778 0 -1 0
449 1 14.363892435088463 2.518039473413457 4.398527308463127 1 0 -1
4165 1 15.12334327738643 6.855488221044511 2.5510681045545724 2 0 1
2707 1 6.3840698879863345 14.25134112124408 2.946605971029723 0 1 0
4559 1 6.325311459893048 8.75715901102777 0.8943470975888042 0 1 0
239 1 10.416755164590521 7.066606369473808 5.3467310699994774 0 1 0
2339 1 13.917428300247975 6.300334600838126 5.449415892971031 0 1 0
3368 1 3.2894149865316864 0.5594776677987191 0.45618619653699144 1 2 1
4528 1 1.394232394165208 9.992492314172505 3.514378649116821 2 -1 1
4507 1 2.2839423795959655 13.482646360749529 7.104836951843374 0 0 2
3508 1 9.446121959425447 14.282248947866048 4.9070394397888935 2 0 1
2320 1 15.251493490832576 13.338631749247577 2.4447121870802735 0 0 0
2972 1 13.624159167828681 12.108890447176384 6.084012493786122 0 1 2
417 1 2.572183718534817 18.92840875576415 0.4780765905027484 0 1 1
1168 1 3.4236935458926703 18.5090607364514 7.6655679195168664 1 0 2
2792 1 6.123683970383179 14.226167407617469 10.824302052181327 0 -1 0
1951 1 12.244859526936208 17.32346733537361 3.895535260977786 0 1 1
476 1 0.6217601727046201 23.503917649642602 7.220961940967092 0 0 0
4531 1 7.473387147266477 19.08408359890744 3.737513011004932 1 0 1
554 1 10.325053102133774 18.302647432145005 1.264705395242405 0 1 1
871 1 6.823846723111693 18.54508122392796 8.65775067646946 0 -1 1
1031 1 10.969072100223437 18.66767200133432 5.757710035131005 -1 2 1
421 1 14.635449863793946 20.0730442410258 3.9884064150414336 -1 1 1
542 1 4.339893507392099 7.803377883580044 24.11487191632814 2 0 -1
2442 1 3.421457340972442 21.322635331707957 8.235165019483302 1 -1 0
2985 1 4.527526175113142 22.35758392316288 5.973218679382004 1 -1 1
3247 1 10.1444589387808 20.438499228269244 3.7588831130738565 2 1 1
4029 1 9.933602647437807 21.558153924184072 0.9006251663647193 0 0 0
2873 1 11.247567049081761 47.899891620816646 0.48121130764356634 1 0 0
405 1 7.951433954311433 27.584951174431744 4.5709520728362145 1 0 1
235 1 5.820476095489292 23.096483210537958 3.2991003436240267 0 0 0
2356 1 7.8582933113446085 24.60926137643175 3.780441799012321 0 0 0
1693 1 14.556325588267129 24.982795378354343 4.475431996427367 0 -1 1
2135 1 16.41476932009834 21.98637418472318 4.890913529454657 0 -1 0
679 1 16.142161225447623 6.631556601053924 22.89558919763685 1 1 0
2268 1 3.732734270751504 29.53046434824551 10.287647967128562 1 1 0
1436 1 2.764814201765344 30.445097397260582 5.25182871795615 0 1 0
2387 1 5.637104974503035 31.71519078692975 8.415944338423637 1 0 0
2301 1 9.040920260241982 29.479093089983714 6.028577421752178 0 -2 1
2080 1 13.53218835532 27.027185338601893 2.7413336640327235 0 0 0
2481 1 13.657228831841374 27.980938389366706 5.615953056429642 1 0 1
1227 1 3.964569532099877 45.47318875450023 7.361992200210442 0 0 0
4502 1 3.9826581479932033 32.76838457653437 4.817253461637745 0 0 1
2497 1 8.03761446452568 30.29958534634526 8.840245125421042 0 0 0
2371 1 10.994939358833207 33.687015918587704 4.663935038073393 1 -1 1
55 1 11.843613520238126 30.01588082831294 6.007286466056764 0 0 0
3886 1 16.544141550560308 32.17738599416238 1.351564561565672 0 0 1
706 1 1.2015671584119902 32.02989109933014 19.650685352420414 0 -1 -1
825 1 3.721465362556748 35.46629785132829 4.658706389933784 0 0 1
4366 1 6.027424466080353 36.92054605952143 8.661415328452524 1 0 1
1542 1 8.630486018884529 33.389878032215975 6.477263836696021 1 0 0
4451 1 12.281953190245442 32.21783504344087 7.724465558023558 2 -1 2
1762 1 14.768572430868181 34.089350088481666 3.1550987710063243 0 0 2
4305 1 0.03657778512891696 39.73743743829712 6.294484029450498 0 0 1
632 1 2.0896526183512134 46.44055986454798 10.283405676056491 0 0 0
2104 1 4.1102450651701306 39.40835788863606 5.666350378831172 1 0 0
469 1 8.029709831682796 40.09515885027763 2.1512058581244373 0 0 1
805 1 16.623006047400384 36.48736807846912 4.254551232271147 -1 0 1
4342 1 3.859775166560162 20.719058532561316 25.17217357226521 0 1 1
2643 1 4.724624468022237 39.88060558964986 10.399206108487654 -1 1 1
1929 1 8.775425256926237 40.04506155524594 7.358058128052111 -1 -1 0
3729 1 11.983575147918746 38.86975388804369 4.468887574513462 1 0 1
758 1 15.011199079012318 40.61036047822249 4.784883453064833 1 1 0
3813 1 11.16856890448611 41.69064974047632 6.715491852140415 1 -1 0
4358 1 13.591004675173465 40.34329047342044 7.032957825746212 0 -1 0
3567 1 7.529018350617151 42.96236319771117 7.94716954555625 1 0 1
2717 1 5.530432959011704 14.578665203524874 24.660649684798017 0 -1 1
3265 1 7.399478846444201 42.61253172350753 3.1630020007563284 0 0 -1
3202 1 4.7345034386602745 42.73418549713247 2.7646856795686605 1 -1 0
2057 1 2.715253304293021 44.89502504287617 4.577864976126112 1 -1 0
3144 1 1.8866496196808686 41.2091495663761 6.882003466977518 1 -1 0
1907 1 3.43482120930155 48.841026501347 2.636493054263197 2 -1 -1
3698 1 5.795026123738349 43.7019909814818 5.687680385794489 1 0 -1
4401 1 7.945797992752762 44.7266283765492 1.6937270358767011 1 0 1
1323 1 12.203423877119159 46.68632188159637 2.9785466309157913 0 0 1
3834 1 14.731202058293393 50.54776794302819 17.778046219318735 -1 -1 0
3871 1 1.010138037598274 50.176789851198265 12.226617159889035 1 -1 0
1987 1 17.653055495954757 3.6850480934439522 20.446847370981992 0 2 0
3624 1 2.2294073539782473 47.82697564705657 4.9392154606578 0 -1 0
2571 1 5.061124410155681 -0.019865716920374213 2.8377814250323663 -1 0 2
4027 1 8.578119391199392 49.52440127486672 4.12067861189047 0 0 2
1993 1 12.30322092813571 15.965426796530064 23.912153601460954 0 0 0
8 1 0.9259431626870442 3.065155347082082 3.35311031382076 0 0 0
1881 1 7.602981999639994 1.298896408737699 3.5435880168639944 1 1 -1
244 1 11.533874491604983 -0.07076143764238055 7.6369416031066795 1 1 0
1528 1 13.966720491743365 50.43616089608567 6.5839007554745805 0 0 -1
4169 1 2.6945644764408185 7.375311869133415 4.1478790005205175 1 -1 1
1493 1 17.501872000675156 30.341792972278395 24.88495775038395 1 0 -1
563 1 4.997237516810016 5.044935177190839 4.074694602068678 0 0 0
974 1 10.411668523991166 28.594139506023726 0.43774979594632346 0 0 1
4309 1 7.682526184011202 4.94861785256483 2.5884130431043824 1 0 1
2287 1 6.784214214266729 8.156741858038762 6.277765562721463 0 0 0
3367 1 15.47871950222594 1.7486560900687118 7.449255407068027 1 1 0
247 1 14.424630372784447 7.860337718885741 7.969653287877753 0 0 0
1050 1 0.8945440248216228 33.82549511361894 21.789050070814937 0 0 1
3359 1 9.485627538333032 9.708583180020675 5.660775347736007 1 1 1
4243 1 9.705360957659474 5.577781080223369 8.064641167802215 0 -1 1
2781 1 12.515506197381448 9.257501710944997 6.1174655128262145 0 1 1
4402 1 15.78702716427225 11.881116763237392 8.05635239922253 0 0 0
3410 1 4.653642943301915 6.8654471134539445 8.410870634460958 0 -1 0
3915 1 7.528412110362588 6.683638080035902 9.4095327636078 1 0 1
967 1 9.027963441570748 11.75456867133043 3.2731645932978233 0 1 1
4274 1 6.7035931896456225 12.57042781032555 5.497214406721263 -1 1 1
1620 1 -0.2155210148291753 44.674319098920876 6.788960201782532 1 0 0
4586 1 2.205178424226738 12.959926387079495 22.505654265953453 0 0 1
1872 1 15.240258500434173 17.805219392284805 11.496930244774688 0 1 0
3337 1 4.946510556447032 13.899536418312996 7.463516493227242 2 -1 0
1317 1 8.042631243737889 12.985283023520115 0.733810722470377 0 -1 0
1625 1 12.505611497381262 14.34593173123527 10.871740864196427 0 -1 0
670 1 11.616014692813357 14.02471334703489 6.777728893608596 0 1 -1
2314 1 2.0730394411468693 36.67674936780497 24.39331077668539 0 -1 0
2957 1 1.0740208988433924 17.81958899849598 5.956528432141747 1 0 1
4443 1 16.790173515501728 26.691632350801115 13.80935413171747 1 1 1
1802 1 5.212401952097913 15.260165082786708 13.593872680990268 0 0 0
2901 1 5.489915197228836 16.415418608000465 6.39884164358866 1 0 2
1619 1 9.199837934823016 17.14785260749895 7.2456726993668354 0 -1 0
2400 1 13.635563070456604 16.341617413107823 8.84921587088238 1 0 2
1706 1 17.25898041879824 5.991845292622824 18.624274732190326 1 1 0
3094 1 13.883605946373669 18.930859712965706 6.6353836870368905 1 0 0
1448 1 5.816677636351487 19.745314290192404 5.829257074780746 0 2 0
3139 1 7.359454478756697 21.627178569607874 7.576526987876761 -1 0 1
924 1 12.148878662668311 20.938595957691554 8.13257793098947 -1 1 1
3758 1 17.145573632204925 14.092545491022406 7.53147907689992 0 0 -1
2672 1 2.3107199353343226 26.931204504372584 8.316431359270892 1 1 1
102 1 3.2065868767771466 25.013176799033978 6.577918069093536 0 1 0
2751 1 9.1314129827586 23.43658625393304 6.208531502125014 0 0 0
3936 1 6.197543515983941 21.39131749739302 10.037955619271846 1 0 1
3088 1 12.510071546471922 21.862129201241693 3.419694538071418 0 0 0
4166 1 16.738351525831327 22.338093275584267 7.900224067689026 1 0 0
3205 1 3.9131606176750733 27.04066667840008 10.607958950690453 1 1 0
1577 1 4.08163612243565 28.831534409473477 7.399171947786469 0 1 0
3984 1 10.002394145368513 25.737904263645017 7.65842367789058 -1 -2 1
3384 1 5.408944491377932 27.19510630768211 5.4580714059274955 0 1 1
2521 1 12.77219688594457 18.973818372195513 10.345214172863848 0 0 1
3029 1 14.127144120152344 22.823281371125894 8.727610310446856 0 1 1
4331 1 7.48578909134965 50.52443348073787 24.503545306352613 1 0 0
3965 1 4.7031890539173835 10.973244966251782 4.968135036219812 0 1 1
2460 1 6.240890751763837 27.075041889574894 12.084462842674311 0 0 1
761 1 10.237097020538037 27.875544737414973 11.922621073370218 0 0 0
3027 1 14.773681233355662 27.964096643277212 12.238221376066132 0 0 0
3548 1 12.686016659840414 25.4938206496391 6.847927557635794 0 -1 1
4430 1 11.978008891401489 22.789244930118198 5.909338355579018 1 0 1
276 1 5.7579749282425965 34.474164391206344 9.854610681508362 0 0 -1
1713 1 6.93198601353768 34.72903264635849 12.890597917071272 0 1 0
3400 1 9.56489821363601 30.82528793844612 11.617585493857698 1 0 0
1752 1 8.363463305831814 27.20834279496362 10.010587270382802 0 0 1
3215 1 12.514448300284352 28.32461804918419 10.456522964841946 0 -1 0
4289 1 16.31111610541227 28.097459666452913 5.867228474762707 -1 -2 0
1030 1 1.1190539893552318 37.74893024486252 8.0033164649549 0 -1 1
2225 1 3.310129772800649 37.45419567122282 10.486472833463942 0 0 -1
3790 1 12.774930827189221 34.3891669029512 6.845443570197248 1 -1 0
1513 1 8.336852001947433 36.26339972074294 6.981150110378962 -1 -1 1
1363 1 15.44442270923907 33.226791139539046 6.030718662037553 0 -1 0
2465 1 15.260177758468334 9.95720891781852 16.431458364748227 0 1 1
41 1 3.7825473864344437 37.18636298015207 6.8615163697077195 1 0 1
3250 1 9.222017091707219 39.48750859337824 4.650521876218946 0 0 0
4170 1 12.610575433037871 37.79522328473081 7.864476788358822 1 2 0
1229 1 13.317177277080537 34.78268809494007 12.604083988710816 0 0 1
195 1 14.173542435602045 36.565433443796536 5.843064940051567 1 0 0
2770 1 16.51838898426272 35.366875701337406 7.671351018326268 -1 0 1
1257 1 8.524506107645193 36.33367829436634 10.810910840931001 0 0 1
2097 1 6.360529830046641 39.61786372094653 12.978390480588901 1 -1 0
2943 1 13.789516846033205 44.873980890013144 8.234917003645585 0 -1 0
1983 1 14.446635182398602 37.175810559741194 13.220434532493908 0 0 0
3792 1 14.345508837295943 2.3920188145249672 22.123264184586215 0 1 0
916 1 0.5819817819933176 5.1560052069336635 8.093896083504402 1 0 0
3620 1 3.8254211630439396 48.38402596428587 7.172894262585432 0 0 0
2704 1 9.871826042644486 41.36760258134528 14.262645797155484 0 -1 1
3945 1 9.059136667779834 43.47800748949696 5.307545591984835 0 -1 1
3438 1 1.86730183035864 44.23610221943008 8.366436746475378 1 -1 1
3627 1 6.819607682324359 45.767613823141616 8.245233499319514 2 -1 1
2663 1 5.907342250644245 40.35266025666678 8.117280403615382 0 -2 1
152 1 6.817334813219716 46.03115459271835 4.566572350434774 0 -2 1
1488 1 11.081216159128843 43.942375183918486 3.3358686980078396 0 0 0
4316 1 8.737380747061062 43.50968968263585 10.466563081678062 0 0 1
2877 1 5.659339302737279 48.67548398513459 24.097692806672473 0 0 0
1302 1 13.759849997983478 44.94826857284822 5.069069517307873 -1 0 0
254 1 6.780416268390603 48.385525645690976 6.136270575580286 1 -1 1
1840 1 9.302373968769212 47.12551306823673 7.886465060212149 0 -1 0
1669 1 9.543381979839411 46.86097777041151 5.080059496487404 1 0 1
2829 1 12.625997470588734 47.32621855395598 7.517151183953152 0 -1 1
2837 1 7.258331114802114 1.719335944221793 9.780664736936943 0 0 1
391 1 7.309453152397629 2.040429187205084 6.559853637224282 1 -2 -1
2738 1 12.7130988819963 2.6927001565562745 8.381937145087763 1 0 1
2280 1 14.653861153314786 50.90370764892468 15.048027105781008 -1 -1 0
2163 1 0.6046527697329798 22.983315503622805 15.823962272358525 1 0 0
2261 1 7.000028619272207 4.97825490744908 6.5800575737599685 1 1 -1
886 1 9.770673942185116 2.835834920492658 11.044647176709491 0 1 1
3706 1 15.43638893306972 25.697398419783383 10.325882797051023 -1 -1 -1
2179 1 3.7544569961905077 4.688848735317182 6.670410368810441 0 0 -1
1733 1 8.95498523770783 9.182777511511752 1.7533792273358593 2 0 0
435 1 7.330728442847862 5.021847747649404 11.614043305162802 0 0 1
1331 1 11.412675836612102 7.427732596162867 9.391393655886 -1 0 2
3574 1 16.917792174367253 42.94632645294381 20.01066024461603 0 -1 0
699 1 2.433192985960767 8.738065220929451 8.375897105739407 0 1 1
2732 1 6.862391145225255 10.594552869697763 8.063756173647775 1 1 0
3674 1 10.78423117161396 12.937223266272424 12.329307050653545 0 1 0
948 1 9.97710680773009 11.261460909660437 7.9018179251542815 0 0 0
1562 1 12.722243772314759 10.499425424092527 8.798654080488838 0 -2 0
4120 1 0.46746318487264016 9.552161795509376 10.720789827025502 1 0 1
4245 1 1.7441539234845305 15.134770150773404 5.091553113064265 0 -1 1
223 1 14.36635294714608 37.7513786818982 10.596859255302764 -1 0 0
1026 1 8.380558118715427 11.02766338036836 13.611574732325455 -1 1 0
1543 1 8.788417384155895 13.797081327002676 10.118750074952878 1 0 0
691 1 10.286499091655012 15.34250459162008 8.75257260247171 0 1 1
732 1 13.794858114173833 15.879211876200795 13.10212344164457 -1 0 1
4187 1 2.523535131429135 16.98184407071549 10.614110487976422 1 -1 0
2898 1 8.448881991685319 14.462688425633562 13.07735091920769 1 0 1
1958 1 10.11742441116347 17.850505941928553 10.612786642378026 1 0 -1
2003 1 13.211499359307957 15.982328061197403 6.129424624075521 0 2 1
1154 1 2.8473371961565843 16.842383618816854 13.614228466875579 0 -1 0
3457 1 4.018481226443324 19.603797296823647 10.606779600069027 1 2 -1
2945 1 0.3006074922540338 20.210450106341696 13.13143339278742 0 -1 0
3710 1 5.60396556573614 17.093926393067303 10.747028236294211 1 1 1
1649 1 7.193159265769273 17.171763786746027 13.518471127566139 1 0 0
3118 1 10.44469700065853 21.85198525328714 13.362527110102423 0 0 1
121 1 13.960357330649215 21.6652544158217 11.050629403847093 -1 0 -1
4597 1 6.227707120896859 32.078802262174236 2.5603212971614844 1 1 2
2534 1 3.2354509186881826 24.03015640111817 9.46433986068497 1 1 0
1567 1 8.555117286506261 20.104073230899463 11.194447770356184 0 1 2
4012 1 9.73983126405804 21.799678411236105 9.051088317034868 1 0 1
1837 1 15.961128306004703 23.56208299670717 12.28011838220941 0 0 -1
3349 1 16.26221260553159 9.31586669219917 3.4051829674073026 0 1 0
1812 1 3.177860145948538 23.350117124182294 12.332099348323117 0 -1 -1
1904 1 7.106818271417501 23.46866312772003 12.073980498990133 1 -1 2
548 1 9.391063365610513 27.550605944372304 16.13413396555269 0 1 0
4287 1 12.638386280426577 25.07455250778365 10.266357137889626 2 0 1
3949 1 12.676732220504077 28.693895612646408 13.891406852714244 1 0 1
735 1 0.9846610743935669 30.73151589334318 9.451998297224788 0 -1 0
2997 1 0.7461497450081154 30.170807904825605 15.073746382480248 1 0 2
3028 1 8.556907739104858 26.425135067952468 13.773152395481123 0 0 2
1132 1 6.546573700159677 29.49999818797437 13.944916358703649 1 -1 1
1767 1 9.427772349504917 24.311317485204928 10.323987845827423 0 0 0
1595 1 17.34806901072648 27.101306386416333 8.513549209837327 -1 -1 0
3888 1 5.353344433685708 32.68694767058538 12.06691123829589 1 -1 1
3333 1 9.805181002852233 32.49210560591149 8.740152984126224 0 -1 0
808 1 14.235063278786818 30.930675668415493 14.937573721257506 0 2 0
1661 1 17.55899299023179 0.05346545257266211 14.7902974158236 0 1 0
3259 1 2.7694035127137786 34.703103255391966 9.241802337672327 0 0 0
2816 1 8.54067826274528 47.76655366797067 0.08868506628303494 1 1 -1
903 1 12.911890922900112 35.13504103639353 9.848093624935943 0 0 0
48 1 12.28379580643958 31.617239368647933 12.445756010357394 -1 0 0
3504 1 6.388669615822183 29.186606797579447 25.089674382324688 3 1 -1
1349 1 5.321432910844649 37.014404765678336 12.540272459942699 0 -1 0
2391 1 10.155021098238446 34.30517047291005 11.085899690000891 1 1 1
3651 1 9.885871308294135 37.85626723000972 8.632516124314117 -1 -1 -1
4294 1 16.528316756731755 34.464489892123225 13.223953091341604 -1 0 0
2144 1 16.24605271030957 32.77144632269088 10.924003480731708 1 -1 0
2189 1 16.97587621892522 20.510953030948826 10.135974555190474 1 -1 0
533 1 9.189028718198928 38.08137224926847 12.739093742580668 1 -2 0
2967 1 8.10183287194012 43.22822322971807 16.302575406783884 0 0 1
1329 1 10.667685255737338 41.347283336351424 9.560049571679933 -1 1 0
3654 1 9.729130923664723 35.02265252593941 24.95285573551342 0 0 -1
3725 1 1.2738144535381748 38.276909434877055 12.327022915611625 0 -1 0
1147 1 2.396812855772815 41.478757944679245 9.745091043918421 1 1 1
774 1 2.766320455132165 42.5247368669158 12.584668875495339 0 0 1
2613 1 7.500258612743764 42.92450280612054 13.318745806374794 1 0 1
4554 1 10.809158178667973 45.02261646912886 9.249067009656715 0 1 0
3551 1 13.877395455505363 46.45435156919949 12.709998959977034 1 0 -1
4589 1 13.125547209933327 40.4010195437574 10.91598299692488 0 -1 1
4352 1 5.014935861540162 43.25185245322987 9.961426375589777 0 1 0
4059 1 6.7868819507232 47.18245230751937 10.43384408096113 1 1 0
3019 1 8.880465955658588 46.0386933651492 11.90652979845673 0 -1 0
47 1 11.436766464866594 46.9575466135568 11.396039016846515 1 0 -1
1861 1 8.046922137132418 42.373023945708724 21.278093198030692 1 0 0
3396 1 2.3204325467354154 48.96788972761779 9.268726944701982 1 -1 0
3287 1 0.9660452919683564 5.456125854335788 5.182413306342677 1 0 0
663 1 4.64598702524975 2.3795191712715695 7.650816064945469 0 1 -1
2161 1 8.273467756278722 49.27274604371166 13.017368541763576 0 -1 0
3967 1 9.714260278699658 49.65081428221677 9.144751310006546 0 0 2
2642 1 10.973680704409343 49.62736332045964 11.735810101258195 0 0 -1
3943 1 0.13287294196828958 0.5216937078309152 9.948708408805075 0 2 1
2237 1 5.254050541883212 3.018506116143042 11.327627054287769 1 0 -1
4325 1 12.618664383203884 0.30063161886631035 10.498234145327762 1 2 0
2147 1 8.407311023731028 8.106569612286206 25.397370043399945 1 -1 0
1100 1 3.564587840294774 0.9477608828892805 14.39388337015845 1 0 1
2817 1 14.706947542551472 36.21403585988118 1.523928593819112 2 0 1
4106 1 3.100065363841963 1.6403128825823825 9.963504349910705 1 -1 1
3884 1 1.616090716668647 4.6235428801666005 13.314122867143466 1 1 1
837 1 9.399494525762302 4.591711641799628 13.66498648108236 0 1 1
4374 1 12.777535902124823 3.0238440999409057 11.517853425777282 0 -1 1
990 1 15.756927968683794 3.2629764369672762 12.744370531469965 0 0 1
4042 1 11.862282029726524 5.860117675379438 11.766600396516425 2 1 1
648 1 17.43381840819863 0.8835763152748175 12.186032811691389 0 -1 0
252 1 2.0961795408145782 7.953099965274301 12.523444933811744 0 -1 0
4569 1 14.575709684880024 40.486424824135156 24.30082497932404 0 -1 0
797 1 4.018465300366461 5.981962415077859 10.796400783604593 1 2 0
3939 1 5.759332272631141 7.575342205564686 12.75299666354091 2 1 1
2198 1 13.832426932738501 10.504690623598636 12.126965661909258 0 0 0
144 1 15.57466465153566 48.47837684140376 20.041805145926148 0 0 0
937 1 4.926339340380166 11.772521889743876 9.885537584364512 -1 0 1
1268 1 5.639946673131554 10.351781077413856 12.509664110839797 -1 0 0
745 1 8.084000617958568 7.6477793373486636 14.891444133914423 1 0 1
3369 1 8.630000858696071 9.231767253909583 9.663758814926782 1 -2 0
110 1 10.035118714808123 14.817373840160437 15.862478758530239 0 0 1
494 1 13.702974498924856 7.480476396079125 13.086675303291988 -1 0 0
3877 1 14.781970527466376 11.805293786551896 14.372172500183076 0 0 0
1639 1 3.976861096010613 13.087572994044203 15.62728885702788 1 -1 -1
2388 1 7.01085105617686 14.374139217451372 15.95446602392548 1 1 0
3808 1 12.420345301901348 13.736308196468642 14.602974429394568 -1 0 0
1157 1 5.95844465653972 46.03181175515866 23.410621653283176 1 1 0
2963 1 17.404886508528936 2.169302653860477 16.57371380522114 0 0 0
1945 1 1.6413658104426245 12.528975920401013 13.494058797721724 1 0 0
2764 1 10.960726820092953 16.463027751636332 12.834796706020072 -1 0 0
238 1 12.390327804497119 20.576489184831136 14.768505132414852 0 0 -1
1365 1 15.353249021548947 14.654852734020276 5.022087450350337 0 0 -1
1115 1 0.20880501085654213 32.36306664362769 6.317609521918729 0 -1 0
1621 1 4.645616892631307 16.336648284313103 16.178980322744852 1 0 0
112 1 7.8375612855814865 20.108408703435405 14.168520156520346 -1 0 0
1850 1 15.002393478039485 20.163403379167093 13.463155945773746 1 0 0
4454 1 0.5671632886538536 42.821407821086794 4.623018430365492 1 0 2
4584 1 16.402530252331346 7.8753833607094235 12.367690928141428 0 -1 -1
2471 1 3.3097992558238856 19.915222300250225 13.630829614234184 0 0 0
1124 1 5.05294076002823 25.08021925380792 13.491821348245612 -1 0 1
3757 1 11.358688981004448 24.449903742345587 12.78539432755141 0 0 0
2282 1 8.40425229316628 23.666517060486054 14.705795372462978 0 1 0
1075 1 15.294826274847678 50.75845366119725 10.753430867599203 0 -1 1
2429 1 0.5262851739351299 23.033069175499094 12.829025562305414 0 0 0
120 1 8.716962597088296 22.20519750899463 17.316907744772408 1 0 0
2761 1 13.2431386313482 24.387672061735397 14.648153117255003 -1 -1 2
3804 1 3.201749137291203 26.64907442095332 15.550975167989908 2 0 0
1073 1 5.651995015992189 28.18153813923449 16.27793324372382 0 0 0
2651 1 6.523618573582965 30.53152857903661 11.334296866926705 1 0 0
2812 1 9.494157326110187 29.790411939768973 14.452861339591735 2 0 1
1233 1 12.194636782615056 31.80013671873395 16.709510613697454 0 -1 0
565 1 13.681421687895226 26.879940546472618 15.673100623557845 1 -1 0
621 1 15.870636680627737 27.563748390492133 17.2515239818358 -1 1 0
2470 1 3.066016822573806 30.026088335398164 16.653354691161454 0 0 0