LAMMPS data file via write_data, version 29 Oct 2020, timestep = 200000

4608 atoms
1 atom types

-0.031851538917486266 57.30236153892013 xlo xhi
-0.028312479038429927 50.93543247903648 ylo yhi
-0.028312479038429927 50.93543247903648 zlo zhi

Masses

1 18.015

Atoms # atomic

5 1 1.8241389644131554 1.1355709047544202 1.1740114576758784 0 0 0
13 1 7.541910582238083 1.726458754559005 1.6654477224804864 0 0 0
21 1 14.055154005235007 2.0023670273384173 1.652019644164367 0 0 0
172 1 3.11963661410596 47.71891141273025 0.2018825648425403 0 0 0
8 1 4.733275952840652 5.154910510509541 1.8350915166164057 0 0 0
16 1 11.083896607224185 4.958885115770159 1.5217687043718182 0 0 0
18 1 12.363522479218439 3.376269488379032 3.6467523604880285 0 0 0
24 1 17.833022856017354 4.569071301023054 1.3537375544889574 0 0 0
27 1 2.9156377156318762 6.361117138019307 3.3427948646401977 0 0 0
29 1 1.866655214808118 8.049957327569587 1.2218062629885178 0 0 0
37 1 7.478310776706485 7.891483796336479 1.3248374303610628 0 0 0
35 1 9.260428395222567 6.343556037613224 2.927676227877128 0 0 0
45 1 14.402232104863499 8.125206590143668 1.656652771207562 0 0 0
43 1 16.2915821498223 6.250460398654076 2.9568772770260643 0 0 0
32 1 4.530178473259909 11.21508065528115 1.6703072936615733 0 0 0
34 1 6.352906684084327 9.683416607906574 3.263250674380212 0 0 0
40 1 11.243580818922057 11.358901600955322 1.3018986185792822 0 0 0
42 1 12.83936734006282 9.705530973863178 3.0386406038545672 0 0 0
48 1 17.721632073756044 11.321753547116868 1.913967715539034 0 0 0
290 1 0.4050029179965281 28.30298914447797 9.065748597394357 0 0 0
53 1 1.5097066744178882 14.402508900566936 1.3729948373437624 0 0 0
595 1 15.758703029103078 0.24563774507920144 22.03064668074386 0 0 0
61 1 8.008209295888296 14.397397782023162 1.431853695000531 0 0 0
59 1 9.653814493769113 13.028724444279682 2.994641845745857 0 0 0
69 1 14.353372630072318 14.548788401638811 1.4125281169583417 0 0 0
458 1 0.06835079779877416 21.918643050149935 16.012650235363335 0 0 0
92 1 16.05596668352113 22.158110477819907 0.03541443139531203 0 0 0
56 1 4.877522894700869 17.50172778128928 1.4216768388082484 0 0 0
64 1 11.180612527694176 17.427504674797323 1.9630481340340245 0 0 0
26 1 0.10302130171082757 9.679387219268664 2.9004677773008387 0 0 0
72 1 17.76586880354327 17.521778765508778 1.244851339782916 0 0 0
113 1 12.648474851378069 25.42903568079404 0.053110752304428174 0 0 0
77 1 1.7893642885839665 20.46731047358792 1.5936076281853413 0 0 0
796 1 3.3568470671405906 9.310735010343672 25.446019159325093 0 0 0
85 1 7.7487981026814925 20.07856191075438 1.6340378920807461 0 0 0
93 1 14.391710348897256 20.641967344446417 1.7287387195137054 0 0 0
766 1 14.335957803737264 49.39659040639714 23.855338286772636 0 0 0
80 1 4.724414748626314 23.97218129839157 1.7578742427810718 0 0 0
88 1 10.930776976435471 23.532470465376395 1.666354801040003 0 0 0
98 1 0.1893756784120896 28.986694874964197 3.329082058026675 0 0 0
194 1 0.059752745659346865 3.383377429266222 9.401433004672944 0 0 0
577 1 0.04309268466748406 50.81753424618201 19.163623734922908 0 -1 0
99 1 3.329713320417228 25.818857797028194 3.49912564804021 0 0 0
109 1 7.881522689118746 27.153379010779997 1.795813071419609 0 0 0
107 1 9.506014862251442 25.368686071439193 3.4716254464928853 0 0 0
96 1 17.66778695201352 23.870110200108154 1.3302130128267478 0 0 0
587 1 9.50361387511665 0.39782385989577634 22.232517270784154 0 0 0
101 1 2.0237311639998077 27.348543810969083 1.8853786069029561 0 0 0
758 1 7.743313179748826 49.29945394162854 23.596088598693164 0 0 0
106 1 6.626150379723493 28.633990425112447 3.7700953748948054 0 0 0
114 1 12.660676145860473 28.576639703448393 2.7307273760797215 0 0 0
112 1 10.895284565817521 30.174046887680365 1.1562229433040252 0 0 0
117 1 14.306909617348747 26.733918262111985 1.6006634900352397 0 0 0
9 1 6.231676292722647 50.747633861860194 0.4054702430118261 0 -1 0
123 1 3.3000040100552797 32.012424900236596 3.3944370974621645 0 0 0
104 1 4.927323544247095 30.13253393943271 2.034337112349982 0 0 0
133 1 8.099469933350024 33.920612272324846 1.6055566132264143 0 0 0
131 1 9.219181878264893 31.84124195715108 3.1618607490432584 0 0 0
44 1 15.987799429423177 9.8114568524725 0.1072986162477991 0 0 0
120 1 17.086612782392372 30.012885883648583 1.5008212512499097 0 0 0
125 1 1.553511348262014 33.39566924830061 1.5384226276072122 0 0 0
130 1 6.7697817929451425 35.089462228534586 3.645156953401942 0 0 0
820 1 3.1874765788166064 16.066872673323907 25.414539208938304 0 0 0
141 1 14.073074492694937 33.50958704422713 1.1954454208327305 0 0 0
128 1 5.174914606114781 36.56550154351186 1.8761128842230879 0 0 0
825 1 6.3291219807771855 13.120241671087786 25.439092351809585 0 0 0
136 1 11.157736844459812 36.91685332333202 1.687114472260427 0 0 0
144 1 17.321566943658166 36.16599860420857 1.5123458347435095 0 0 0
149 1 1.5647348305303643 39.79411814263307 1.5787304319133417 0 0 0
12 1 9.102489543253293 3.140428550644704 0.0706578355771731 0 0 0
913 1 0.0146450627401239 38.33914139501388 25.32300074690945 0 0 0
157 1 8.004798387973477 39.71698611321864 1.3904715225008322 0 0 0
553 1 0.15796345763534136 44.14908700596719 12.980061245976467 0 0 0
165 1 14.712163432456133 39.68081670232927 1.5008595512998635 0 0 0
171 1 2.8678853267007516 44.0928279136878 3.3643138129769614 0 0 0
89 1 12.700308600798756 18.952710515204156 0.1626616283361315 0 0 0
152 1 4.581245619666919 42.788418972840276 1.4313798032990224 0 0 0
36 1 9.187171068558992 9.784223013292632 0.20075405870905058 0 0 0
160 1 11.46520484809136 43.03040573868533 1.2476113018181514 0 0 0
602 1 0.04715333388052127 9.358627417569151 22.371687902833262 0 0 0
168 1 17.529377550191235 43.295253215749625 1.5781416869010665 0 0 0
721 1 0.10716048450909599 38.028186206163724 18.81914225201825 0 0 0
173 1 1.6843207398611486 45.97019461248286 1.6508575142024933 0 0 0
178 1 6.602476796836189 47.32656110975951 3.714110218215559 0 0 0
181 1 8.00455299704679 46.050695027012736 1.5691684256250753 0 0 0
164 1 16.112917605030635 41.78907428962316 0.038814796417063674 0 0 0
189 1 14.347961862569719 46.487345096249086 1.57255666973634 0 0 0
176 1 4.7857965427869225 49.279242282134234 2.289640352319944 0 0 0
11 1 9.153415530094886 0.19375112066111508 3.419063042172656 0 0 0
184 1 11.022624936674093 49.68005048696439 1.9481461794698032 0 0 0
186 1 12.833865545148726 47.82528768643442 3.207027692677828 0 0 0
192 1 17.608132514963277 49.5053041048544 1.635501767846693 0 0 0
19 1 15.894349602927118 0.30777132154750003 2.984859536353596 0 0 0
10 1 6.083346735610343 3.2961683738407026 3.3550428218844983 0 0 0
7 1 4.458591578811091 1.6009681442049648 4.898187183429909 0 0 0
204 1 9.059162900972558 3.2044331848358865 6.667417167045223 0 0 0
15 1 10.62232223347019 1.6754395143393677 5.099990753904205 0 0 0
23 1 17.500499340800058 1.5860859525462867 4.695059886351877 0 0 0
196 1 3.0537941964462463 3.5172692460342856 6.195612952791076 0 0 0
6 1 1.098361357216767 4.793513347359265 4.416994064573821 0 0 0
14 1 7.868400937322045 4.802909821220915 4.838719779871117 0 0 0
22 1 14.242744194116774 5.119294438046476 4.897196832868553 0 0 0
212 1 15.900339964174291 3.2293828161526315 6.2282471413686435 0 0 0
31 1 4.601093791465043 7.971464640395219 4.9587197549738145 0 0 0
39 1 11.001207372817262 8.010586770998419 4.563648756653054 0 0 0
47 1 17.39850381081361 8.109638980072916 4.878278946032301 0 0 0
30 1 1.483172686205377 11.327793287153819 4.946059474215956 0 0 0
38 1 8.331378875114055 10.837899822949966 4.454284740323376 0 0 0
228 1 9.534262459116203 9.46833253691808 6.33385511147505 0 0 0
46 1 14.51990777037326 11.06210308536015 4.484242346497664 0 0 0
236 1 16.148311236563767 9.977086587285326 6.188106658659031 0 0 0
51 1 3.0762290124239624 12.918274029817399 3.208165477457547 0 0 0
55 1 4.738520207163202 13.888599000144206 4.826201061791309 0 0 0
63 1 11.281055648302061 14.654318261712737 4.678071139787917 0 0 0
257 1 12.668708361632882 12.718969169720047 6.018587767108996 0 0 0
67 1 15.766000816648118 12.799016806199887 3.146704167778284 0 0 0
71 1 17.46109864817876 14.274054914762113 4.8335580452995375 0 0 0
54 1 1.8391514972847327 17.44466660031456 4.802721651350859 0 0 0
58 1 6.007153428244953 15.818711092120846 3.023145391391602 0 0 0
62 1 7.737400072716399 17.49794720566944 4.967885323247254 0 0 0
66 1 13.163338868012882 15.992466948346397 3.26245142235109 0 0 0
70 1 14.399139835622323 17.73579918304755 5.043644081575379 0 0 0
260 1 15.8916845354076 16.0968410864071 6.2985938683331595 0 0 0
750 1 1.3579013002218918 49.07654714252237 23.683461788547962 0 0 0
75 1 3.5115421214815172 18.942791696359972 3.3605060671839366 0 0 0
79 1 4.502131845596366 20.857200669240566 4.959417344406461 0 0 0
83 1 9.32775424891747 19.1200083598298 3.466496136235963 0 0 0
87 1 11.032783466790757 20.819189779847584 4.848179846132041 0 0 0
281 1 12.534061356254073 19.009828347461394 6.3242168227745195 0 0 0
91 1 15.84243819308964 18.892017337927992 2.9094527518435624 0 0 0
95 1 17.455543110051487 20.581320490358266 4.4082397206194255 0 0 0
268 1 3.0069265148358646 22.27921025790716 6.5828986635277165 0 0 0
82 1 6.273940689470978 22.128888708358858 3.033039206122691 0 0 0
86 1 7.7081730534326605 23.65143012378328 4.904453724935448 0 0 0
90 1 12.823233608906131 22.258623705781687 3.321886859956223 0 0 0
94 1 14.253433240205805 24.005290158525334 5.082796538387041 0 0 0
129 1 6.390493604629161 31.988562780024335 0.4569411120451264 0 0 0
78 1 1.567482224629504 23.818073249946085 4.451232257650458 0 0 0
297 1 6.220237311345097 25.373052874324472 6.448140078853609 0 0 0
111 1 11.345062515632517 26.872834809903303 4.848494026863431 0 0 0
115 1 16.04770338373841 25.2258893329361 3.2793680120320694 0 0 0
305 1 12.87257334506419 25.548437541098696 6.67293294695582 0 0 0
103 1 4.875616809851346 27.239587557572268 5.085659725457629 0 0 0
292 1 3.360893883739047 28.77665756301362 6.326187781253597 0 0 0
300 1 9.876948967988364 28.536316648888366 6.504548529320983 0 0 0
118 1 14.142124596711403 30.188332714944554 4.491921468562634 0 0 0
119 1 17.43489140248862 27.01568645373464 4.886546761250999 0 0 0
308 1 15.78659363456761 28.654855642821794 6.182378279881045 0 0 0
102 1 1.6604678035260236 30.69045414865148 5.095728251492124 0 0 0
579 1 2.827294150772339 0.18773685573302132 22.13953850782574 0 0 0
321 1 6.2323454839742904 31.817301172869325 6.501981333661188 0 0 0
110 1 8.399235836955082 30.43336408708323 5.092969770767617 0 0 0
139 1 15.620331596724746 31.775305168353512 2.9092339754730663 0 0 0
329 1 12.612609518933228 31.755082081845952 6.067147557239186 0 0 0
127 1 4.852279841855668 33.55142373070011 4.865996382343802 0 0 0
135 1 11.264700170866426 33.683694217590656 4.429786667586929 0 0 0
324 1 10.158125125563673 34.95302214009715 6.371845648182877 0 0 0
138 1 12.698771125035622 35.257773617900256 2.970921370077813 0 0 0
143 1 17.44845757062831 33.36944429469803 4.62843835102799 0 0 0
332 1 15.876310420486774 35.05279365210221 6.333656479970799 0 0 0
126 1 1.742660098618216 36.672208731263254 5.150115649447413 0 0 0
147 1 3.2297228345498974 38.31257229570116 3.285642941207565 0 0 0
345 1 6.559344559817713 38.16825826100279 6.306720600854666 0 0 0
134 1 8.404542243854058 36.59550238346982 4.942851859015001 0 0 0
155 1 9.730436542288166 38.44422714047289 3.422346786066822 0 0 0
142 1 14.321009195059316 36.61228856949381 4.9487094124918505 0 0 0
163 1 15.77566109144194 37.981141238918 3.2980395445797113 0 0 0
151 1 4.9409013567793245 39.98238951840584 4.907987175386968 0 0 0
154 1 6.4329212771948 41.3146923419996 2.8111847763574294 0 0 0
159 1 11.463941378374624 39.87155200787984 4.8335725777197505 0 0 0
162 1 13.065850326300323 41.09344306793818 2.9717165833964247 0 0 0
167 1 17.495554427668903 39.63581497277825 4.632955007512116 0 0 0
767 1 17.83714951556336 46.341405083678254 23.99851555850401 0 0 0
150 1 1.5510960148141875 42.353595894127054 4.870663798250876 0 0 0
158 1 7.894532456407145 43.07953590438909 4.798872517357631 0 0 0
179 1 9.848179612229744 44.5031214235329 2.979457560403717 0 0 0
187 1 15.70475635951432 44.59215786325473 3.22976261346239 0 0 0
166 1 13.971083287716107 43.178878656316385 4.585020664592465 0 0 0
762 1 12.601501937550038 48.03836563922741 22.29337808460428 0 0 0
175 1 4.454739516276505 45.76622188223912 4.891645969249207 0 0 0
372 1 9.745141307899022 47.62526708826965 6.655190379306868 0 0 0
183 1 11.301362545213575 46.15944418488547 4.75910825359529 0 0 0
191 1 17.148061443031967 46.53704076997579 4.5719937600305185 0 0 0
3 1 2.666455141923827 50.82298518996393 3.6123309844550735 0 -1 0
174 1 1.3490908760213491 49.14467170048461 4.8897755129155325 0 0 0
182 1 7.992883623756057 49.12833956416934 5.158367258461204 0 0 0
190 1 14.298533753824017 49.62581400265333 4.545919083620783 0 0 0
197 1 1.577123976088108 1.6004749603709678 7.807070785789514 0 0 0
201 1 6.11632640166375 50.7683817848484 6.537588634487857 0 -1 0
205 1 7.430269227951258 1.5898115523257712 8.048096344238902 0 0 0
209 1 12.713054596109071 0.22312667272667425 6.2920995775736115 0 0 0
213 1 14.292988010766798 1.763971540302223 7.973859737484121 0 0 0
759 1 11.149533129120103 46.488224751797205 24.154421603437115 0 0 0
200 1 4.672510340881228 4.930461351786434 8.037972452621984 0 0 0
208 1 11.209424186909782 4.759493707529311 7.964162692845535 0 0 0
216 1 17.332028923558873 4.698845237668382 7.750582822142142 0 0 0
221 1 1.2912237291967787 7.871353888841554 8.041905494660627 0 0 0
225 1 6.303129781339941 6.1936116338776825 6.336622257937107 0 0 0
227 1 9.578595695508332 6.359132889977749 9.61830415229811 0 0 0
229 1 7.987009821766456 7.964143513489674 8.083226452510422 0 0 0
233 1 12.854735961501824 6.780206095142936 6.4248428899372945 0 0 0
237 1 14.532260542447093 8.240204199751267 7.750713281572054 0 0 0
220 1 2.84984358055726 9.562298493922539 6.494109807132887 0 0 0
224 1 4.868217765734248 11.328244406610661 7.925895633599067 0 0 0
226 1 6.409363561374946 9.615251617421107 9.456434649304535 0 0 0
232 1 11.126233020132506 11.095346882127142 7.8695315795748595 0 0 0
234 1 12.643063764359281 9.462094571116113 9.21050416925718 0 0 0
240 1 17.746484471991838 11.29053214697468 7.956524755423861 0 0 0
57 1 6.051607976888895 12.768147738482403 -0.010655521204078165 0 0 0
245 1 1.6027058197127726 14.381013651330584 8.016903586016596 0 0 0
243 1 2.881759348176608 12.528119840839382 9.470409400152526 0 0 0
249 1 6.699551679436308 12.260972492333988 6.2357153548370325 0 0 0
253 1 7.870835296696465 14.174635939406125 8.033042913390224 0 0 0
251 1 9.571426402849102 12.718897587847207 9.637270005401078 0 0 0
261 1 14.243752311693349 14.366946096701913 7.722111974852334 0 0 0
259 1 16.148131438572204 12.669931969034408 9.483794097854751 0 0 0
754 1 5.568709961435838 47.44514629923954 22.255984284580457 0 0 0
751 1 4.28580389181014 45.98014674028275 24.043286951389543 0 0 0
244 1 3.333969232755904 15.596358221625577 6.520516727985137 0 0 0
248 1 4.794188546386702 17.47303469377675 8.024951100412187 0 0 0
252 1 9.375765223184374 15.986410113658913 6.342269836411975 0 0 0
256 1 10.835256364932112 17.7131752489084 7.948613600334431 0 0 0
264 1 17.589853669924768 17.61364531712634 7.997225073615777 0 0 0
269 1 1.411051345068138 20.58587922118472 8.06522212898046 0 0 0
273 1 6.189623146412981 19.218662537398668 6.648995614416514 0 0 0
267 1 2.9372651836954513 19.060563801094325 9.349283306047965 0 0 0
277 1 8.085441733254305 20.598035885393642 8.170789443779496 0 0 0
285 1 14.037645234828254 20.958271418871917 7.694858083388652 0 0 0
283 1 15.564152127048162 19.053829388339114 9.320012681146169 0 0 0
272 1 4.623637656121294 23.967793232828978 7.8241169945887705 0 0 0
276 1 9.2447413211073 22.504747051342072 6.40903839484482 0 0 0
274 1 6.258173116195811 22.254085373795068 9.23876501767382 0 0 0
282 1 12.722322191514365 22.24396891223638 9.557070141646257 0 0 0
284 1 15.861526151413317 22.27780918737077 6.1455763525196785 0 0 0
288 1 17.655344199678062 23.699018113092052 7.959450572585111 0 0 0
291 1 3.0409683234911253 25.190994224417764 9.54164842947053 0 0 0
299 1 9.317368992867559 25.441306878987437 9.652425754708165 0 0 0
280 1 11.065898369447376 24.0153639777266 8.045094867876585 0 0 0
307 1 16.41248649002476 25.675911351936296 9.285407940477088 0 0 0
293 1 1.8256901958152558 26.62459095092127 7.5616199171990575 0 0 0
301 1 7.897765004669282 27.116054645596645 7.931448391677437 0 0 0
309 1 14.552699646175494 27.426631360478908 8.026312906740566 0 0 0
306 1 12.812788474248384 28.85108505034782 9.597490797309758 0 0 0
801 1 6.379456385843953 6.068257247306593 25.395311999675542 0 0 0
296 1 4.715315481656215 30.077997624239824 7.9698723310341 0 0 0
304 1 11.097574816520519 30.753868217363056 8.186675425755704 0 0 0
331 1 15.757556787399785 32.2680904422768 9.423372367882756 0 0 0
312 1 17.349602770469165 30.11818700613577 7.9463828549339395 0 0 0
317 1 1.4372736839584364 33.32689051143579 8.053693623773562 0 0 0
316 1 3.2341810192297924 35.089576706003896 6.464231953150637 0 0 0
325 1 8.328573401707853 33.364058516254644 7.914506501080349 0 0 0
333 1 14.108459403635981 33.46074591919853 7.7036434449929105 0 0 0
330 1 13.005130521446489 35.376905950870906 9.661985552363031 0 0 0
742 1 14.518557094728013 42.55001651212896 24.352992485988082 0 0 0
320 1 5.037097848151544 36.584740398971846 7.686842168485703 0 0 0
328 1 11.466272139813697 37.02384361727873 8.199887284170117 0 0 0
353 1 12.882967968001582 38.38123542353645 6.36803393528682 0 0 0
336 1 17.34651656495815 36.48957108736184 8.023079395917346 0 0 0
355 1 15.99080831035712 38.157886171325586 9.48276531179752 0 0 0
868 1 2.935861457384947 28.49334299145723 24.90471341343242 0 0 0
341 1 1.4879886241625129 39.470208425864556 8.65626855226412 0 0 0
340 1 3.1146963840432043 40.88258747571946 6.6942203819985435 0 0 0
349 1 8.08446773442189 40.13988338630624 7.880161699419674 0 0 0
346 1 6.324967672972293 41.694781291625176 9.749356688068119 0 0 0
348 1 9.640733173549021 41.67896887495348 6.231082777985175 0 0 0
357 1 14.296537118193577 40.06713789791283 7.934097552897352 0 0 0
356 1 16.023928752696367 41.60518557752947 6.1017749805466925 0 0 0
344 1 4.605152845346413 42.95795146284394 8.002897097595621 0 0 0
369 1 6.0955070360990256 44.43856427115753 6.422038341793548 0 0 0
352 1 10.83609095646368 43.05014534783831 8.296242999355702 0 0 0
377 1 12.528609392575925 44.649340906502474 6.691580388474537 0 0 0
360 1 17.48692377963621 43.33620804883097 7.999342539562866 0 0 0
364 1 3.052998930414368 47.65823171288163 6.463584400078196 0 0 0
365 1 1.4984218028975769 45.976261587925194 7.952583670943305 0 0 0
370 1 6.03017924751064 47.703276962992646 9.520415674417467 0 0 0
373 1 7.751663184541078 46.28653670603043 7.740566477412432 0 0 0
378 1 12.798807561523068 48.102542113650244 9.520841681589417 0 0 0
381 1 14.2562387301392 46.38317884704877 7.933897172443279 0 0 0
368 1 4.547818857454519 49.45173616694677 8.161323575116606 0 0 0
376 1 11.323225445976366 49.69626854983309 8.084450160469562 0 0 0
380 1 15.957263575492426 48.13692370478705 6.437056670107623 0 0 0
384 1 17.409676346635997 49.43555585440386 8.268962093952654 0 0 0
199 1 4.336251259258285 1.341548132550587 11.316243064562451 0 0 0
393 1 6.0102712293115745 50.80704245338819 13.035357009886416 0 -1 0
207 1 11.067784534555456 1.496954346895279 11.350330710937252 0 0 0
211 1 15.910385080667593 0.33541426206699004 9.707649836869738 0 0 0
215 1 17.459951059360414 2.1640108557934368 11.392020870550592 0 0 0
198 1 1.3504905650919619 4.896551943008698 11.539797965550019 0 0 0
202 1 5.993761651835882 3.2674426510529404 9.717878759091072 0 0 0
206 1 7.7421649248785736 4.673652917529919 11.297542119237875 0 0 0
210 1 12.611495670769104 3.2728016282146988 9.78872222185962 0 0 0
214 1 14.320099045201506 4.966703739791627 11.33677167206389 0 0 0
100 1 3.741523125779756 28.674248538806676 0.22243028261381692 0 0 0
219 1 3.105141801331443 6.671685464134609 9.698809192592357 0 0 0
223 1 4.62659326548599 8.23456348345713 11.29039893402032 0 0 0
231 1 10.94021766449731 8.070531811306116 10.87969798698741 0 0 0
235 1 15.777819625552613 6.310987391059799 9.446751600270101 0 0 0
239 1 17.199344233335594 8.126166268676137 11.232468854367923 0 0 0
222 1 1.4486193523847992 10.938962516222011 10.995628064454081 0 0 0
420 1 9.682479745477158 9.779536050413645 12.563811414586704 0 0 0
230 1 7.947403509205123 11.25418442113936 11.09084994488616 0 0 0
238 1 14.274967815796872 11.199592973198024 10.905075653944744 0 0 0
428 1 15.564443483107532 9.641368988989946 12.901325324649816 0 0 0
247 1 4.583669973984032 14.015454785694406 10.924691628635742 0 0 0
441 1 6.418277982680785 12.859602558537823 12.505561459232755 0 0 0
255 1 11.379813639766015 13.963685660526236 11.128370425675516 0 0 0
449 1 12.96676890399573 12.761201093170103 12.872209057859365 0 0 0
265 1 0.0985496959598374 19.038469711625414 6.260201963037294 0 0 0
263 1 17.274478146764427 14.35571021904229 11.321635416512619 0 0 0
436 1 2.913884716190372 15.462490203879454 12.583846441906049 0 0 0
246 1 1.484041234147993 17.381216252638435 10.993645586789414 0 0 0
250 1 6.2158062487822345 16.015889352830047 9.67551850650952 0 0 0
254 1 8.028438812150481 17.457778100071078 11.38270436949359 0 0 0
258 1 12.353132450650406 15.919061672087354 9.36007779502224 0 0 0
262 1 14.067775204153154 17.444605191811892 10.835563726261416 0 0 0
275 1 9.628186797502794 18.90195740163941 9.831721141641081 0 0 0
279 1 11.285417041240676 20.566130110317637 11.314062573060484 0 0 0
287 1 17.379753861547062 20.254115284587208 11.114495303193989 0 0 0
271 1 4.426642332410678 20.738840801585656 10.836449205234295 0 0 0
460 1 2.7011993388218296 22.00453005621182 12.805234354701433 0 0 0
278 1 8.019226629700666 23.69597384544929 11.017658324918706 0 0 0
286 1 14.516569943912769 23.88730603019386 10.956089786246192 0 0 0
2209 1 18.712074776477863 25.401063383497064 18.96549874986477 0 0 0
270 1 1.2466154570167918 23.711782796365853 11.430326437559398 0 0 0
295 1 5.028210703215272 26.754620063986682 11.171322579590237 0 0 0
497 1 12.760300927780023 25.74303072960298 12.64011765489006 0 0 0
2281 1 18.80738272842363 44.441231726126446 19.27349503290368 0 0 0
294 1 1.704060249145721 29.955131034217747 11.042083542758219 0 0 0
298 1 6.431851593686104 28.93773771332323 9.564088105948668 0 0 0
303 1 11.018402742423735 27.380739542511442 11.234333256397477 0 0 0
311 1 17.415846976518065 27.229096508076317 11.475594739824349 0 0 0
315 1 3.2413480143995668 31.609351352901363 9.563622341019935 0 0 0
513 1 6.215758291004019 32.00989640000837 12.713699593396521 0 0 0
302 1 8.024417699670801 30.37768292217622 11.296580025378136 0 0 0
323 1 9.667264445436992 32.19225842329662 9.81407392671522 0 0 0
310 1 14.148225430642215 30.556849022551248 11.132632910474463 0 0 0
1993 1 18.78778118605257 19.077518030693042 13.222333264660408 0 0 0
319 1 4.613458740550955 33.640700389361655 11.048344261525482 0 0 0
322 1 6.250238707032182 34.78420271222025 9.250578638046433 0 0 0
327 1 11.373300826689679 33.852785340207774 11.037830850818342 0 0 0
516 1 9.661600359831459 35.422234612727166 12.520012710944146 0 0 0
335 1 17.635974170595805 33.347675679811275 11.1524921075501 0 0 0
763 1 15.911589157466391 44.58667974864957 22.628812375883147 0 0 0
318 1 1.56971066818216 36.58301703957436 11.286429268750663 0 0 0
339 1 3.3125048417420255 37.79930670749431 9.630677092538617 0 0 0
326 1 7.470304520027109 36.66199624771701 11.39941938394781 0 0 0
347 1 9.190665503832994 38.29399045990189 9.660988787858907 0 0 0
334 1 14.493798894221106 36.77915668455864 11.181398395506315 0 0 0
343 1 4.980588103252008 39.58432241570027 11.109844195601978 0 0 0
540 1 9.506194330918202 41.58191753423584 12.974712393094691 0 0 0
351 1 11.017702681607844 39.89941305797626 11.155405286587875 0 0 0
354 1 12.83438946321224 41.55069958628437 9.600774830918022 0 0 0
359 1 17.373254796243906 40.24173531661542 11.129276369067595 0 0 0
755 1 9.480441577918953 44.95251587095706 22.417501636860518 0 0 0
342 1 1.4258682672481529 42.48525626009639 11.110504626830016 0 0 0
363 1 2.8908963370363803 44.309793848642315 9.647890594648223 0 0 0
350 1 8.03209069390761 43.16120264359918 11.17187063485695 0 0 0
371 1 9.543180523451268 44.98457884588649 9.668958974330371 0 0 0
358 1 14.256188830908949 43.38143981351202 11.057819078788738 0 0 0
379 1 16.000940285630236 44.732342418727825 9.53252081332603 0 0 0
367 1 4.6474094353950575 46.09447393477316 11.105893124107368 0 0 0
375 1 11.417926338194617 46.352543811372044 11.196701650669544 0 0 0
17 1 12.558104350106793 0.24499874302257652 0.28630465809259237 0 0 0
383 1 17.954778547019398 46.20059640038623 11.122451713000098 0 0 0
734 1 7.980355411024746 43.123615048060756 23.91492743779435 0 0 0
366 1 1.346601183922045 49.41204600800302 11.329292283598646 0 0 0
195 1 2.469046709417045 50.85503808050298 9.55926126686455 0 -1 0
203 1 9.382227301513671 0.051698380247970965 9.618317819870862 0 0 0
374 1 7.706163793265607 49.43455914603665 11.16194928412435 0 0 0
564 1 9.476867486313335 47.885766730667 12.924255710224013 0 0 0
382 1 14.08079237441781 49.72386134874944 11.37062060104627 0 0 0
122 1 0.14102678736476573 34.93772742654127 3.694584767957385 0 0 0
389 1 1.3201828306365193 1.7835937379789473 14.556638170552851 0 0 0
387 1 2.922150389221687 0.004564399469096696 16.283958179976416 0 0 0
397 1 7.543654300302281 1.860374579364608 14.194850838677919 0 0 0
401 1 12.593401542646827 0.43253704191587766 13.0945344605978 0 0 0
405 1 14.35155901880662 1.85357702334052 14.542482243123807 0 0 0
747 1 2.8272697733822176 44.16213965773727 22.57419905473665 0 0 0
388 1 3.0953008584812065 3.2253586336905338 13.234070542126814 0 0 0
392 1 4.447634536782432 5.0194260499048475 14.843686077636685 0 0 0
396 1 9.515469424525856 3.1957877030469075 12.95719178524465 0 0 0
400 1 10.98125178590133 4.857287219857382 14.617115734833005 0 0 0
404 1 15.605330773859755 3.449333700342767 12.881278886381079 0 0 0
408 1 17.50467333241319 4.755263851482757 14.55926887202664 0 0 0
726 1 1.2526207916193843 42.44195483903202 24.101807514903623 0 0 0
413 1 1.4192013756440949 7.869521709962945 14.435991244562942 0 0 0
417 1 6.006326085534596 6.599430003044926 12.884875768198823 0 0 0
421 1 8.003692441876382 8.131403673451372 14.284630747797697 0 0 0
425 1 12.57206248980443 6.516170327646306 12.645813630016207 0 0 0
429 1 14.28416361243489 7.858532047408224 14.323618932751144 0 0 0
697 1 0.13470135711606632 31.91444344452277 18.950546658100606 0 0 0
412 1 3.0229461539824922 9.660608665906304 12.819078899512915 0 0 0
416 1 4.948066642590622 10.987340829443987 14.16380387439255 0 0 0
418 1 6.578936750635648 9.612651986781604 16.130930220035463 0 0 0
424 1 11.402600789830693 11.018034447807056 14.374571255003875 0 0 0
432 1 17.41164311197902 11.36370235738855 14.283337294982127 0 0 0
437 1 1.4000878644657953 13.934904150335354 14.163935189869926 0 0 0
435 1 3.191953266360723 12.354324666479034 15.798689082867453 0 0 0
443 1 9.783785143330045 12.818093278139779 15.921400211168544 0 0 0
445 1 8.11305459268144 14.218206783563788 14.284171365464541 0 0 0
453 1 14.372656813743088 14.523785427419305 14.265058228293555 0 0 0
440 1 4.624682724841217 17.136696682541164 14.501166200137908 0 0 0
442 1 6.622853220957028 15.680571141221137 15.96524559227459 0 0 0
444 1 9.828976900513174 15.88970259594202 12.616605493889999 0 0 0
450 1 12.684555165702818 16.10149148590726 16.331279185477786 0 0 0
448 1 11.382357978221716 17.716299918028998 14.35117344667548 0 0 0
452 1 16.068682765400606 15.923993290300713 12.801709232373264 0 0 0
456 1 17.34297856584597 17.298212341638315 14.713736643268437 0 0 0
461 1 1.4995641838720712 20.133657041012068 14.532589151767146 0 0 0
465 1 6.113786464279342 18.988475044528982 12.518905643463558 0 0 0
459 1 2.850488513091823 18.523120936745038 16.230265249055954 0 0 0
469 1 7.798682343505045 20.589761563382858 14.117081655737744 0 0 0
467 1 9.358417086548119 19.108980421479075 15.677959403708305 0 0 0
473 1 12.972454625320422 18.86368543162245 12.841083609217891 0 0 0
477 1 14.214823196427457 20.786764041861712 14.079106612610197 0 0 0
1537 1 19.077386178198655 50.89851861581967 -0.01986856952014431 0 -1 0
464 1 4.734895552192762 23.317406245404076 14.176347098347117 0 0 0
468 1 9.531453615441905 22.110717082096752 12.70976099915921 0 0 0
472 1 11.300723147334448 23.93846312581238 14.184935234558903 0 0 0
476 1 16.05991420788283 22.188161587985917 12.307313265288757 0 0 0
489 1 6.571941266304067 24.963360848573863 12.82978647292621 0 0 0
493 1 7.898653340400321 26.748454361956057 14.189831190114742 0 0 0
501 1 14.129876490646602 27.290294069488624 14.477836553456557 0 0 0
480 1 17.47130893260137 24.023060477649807 14.22772718148177 0 0 0
485 1 1.539643087962522 26.79424747913355 14.537362298715507 0 0 0
484 1 3.2318075018709864 28.46142494453752 12.903974282188495 0 0 0
492 1 9.187879353973031 28.593026991310744 12.811487384745956 0 0 0
500 1 15.626350912883316 28.767098075636127 12.858822081024433 0 0 0
1753 1 18.96559800873541 6.325482408529559 6.044152716772607 0 0 0
488 1 4.693500059770114 30.275325683653865 14.451376374313012 0 0 0
515 1 9.277981226487594 31.87499740822208 15.678320305369803 0 0 0
496 1 11.122773061211227 30.28038724161051 14.258491952743464 0 0 0
521 1 12.688758731402194 32.05108503549634 12.89895018765263 0 0 0
523 1 15.994674495676382 32.202975063826926 16.061276897995576 0 0 0
504 1 17.38250252040001 30.52925071395496 14.427418644799564 0 0 0
509 1 1.6942961557355634 33.15507346034684 14.028838052214237 0 0 0
508 1 2.9231256370788827 35.19742506923593 12.871682112997192 0 0 0
517 1 7.96867677850112 33.61279828630249 14.074674565099045 0 0 0
525 1 14.395217160396891 33.734536159713144 14.550258543566692 0 0 0
524 1 15.833511619015663 35.05418044923893 12.789987206932093 0 0 0
1826 1 18.705425831878436 28.667701539427956 9.725013501224177 0 0 0
512 1 4.447015722333231 36.49797817068897 14.707140260813134 0 0 0