
# Set production fixes - Nose/Hoover
#
fix                 2 all nph iso ${PRES} ${PRES} ${PCOUPL}
fix                 2 all nph iso -500 ${PRES} ${PCOUPL}
fix                 2 all nph iso -500 -500 ${PCOUPL}
fix                 2 all nph iso -500 -500 10000.0
fix                 3 all temp/csvr ${TEMP} ${TEMP} ${TCOUPL} 837492
fix                 3 all temp/csvr 296 ${TEMP} ${TCOUPL} 837492
fix                 3 all temp/csvr 296 296 ${TCOUPL} 837492
fix                 3 all temp/csvr 296 296 5000.0 837492

# Define Order parameter
#
compute             2 all orientorder/atom nnn NULL cutoff 3.5
thermo              200
thermo_style        custom step temp press vol etotal ke pe c_1[4]

# Run 1ns simulation
dump		    1 all custom 400 prod.${NAME}.dump id type x y z vx vy vz c_2[*]
dump		    1 all custom 400 prod.ice_296K_-500atm_ML.dump id type x y z vx vy vz c_2[*]
run                 200000
Neighbor list info ...
  update every 1 steps, delay 0 steps, check yes
  max neighbors/atom: 2000, page size: 100000
  master list distance cutoff = 6.0032907
  ghost atom cutoff = 6.0032907
  binsize = 3.0016454, bins = 20 17 17
  2 neighbor lists, perpetual/occasional/extra = 1 1 0
  (1) pair sw, perpetual
      attributes: full, newton on
      pair build: full/bin/atomonly
      stencil: full/bin/3d
      bin: standard
  (2) compute orientorder/atom, occasional, copy from (1)
      attributes: full, newton on
      pair build: copy
      stencil: none
      bin: none
Per MPI rank memory allocation (min/avg/max) = 5.819 | 5.819 | 5.820 Mbytes
Step Temp Press Volume TotEng KinEng PotEng c_1[4] 
       0     295.0636    -515.9068    149271.64   -47406.842     4051.988    -51458.83   0.14986018 
     200    300.02474   -523.21483    149287.26    -47397.28    4120.1173   -51517.398   0.15344289 
     400    299.76852   -498.25638     149306.2   -47390.862    4116.5987   -51507.461   0.14865826 
     600    290.89797   -507.70358    149283.97   -47429.575    3994.7832   -51424.358   0.14648146 
     800    294.90134   -457.85211    149245.17   -47446.064    4049.7598   -51495.824   0.14538895 
    1000     296.3828   -484.20917    149240.06   -47460.452     4070.104   -51530.556   0.14710934 
    1200    293.47535    -546.7154    149295.69   -47484.904    4030.1773   -51515.081   0.15148429 
    1400    293.46176   -481.86914    149290.79   -47475.472    4029.9906   -51505.462   0.15030857 
    1600    290.28303   -465.79216    149228.45   -47478.471    3986.3383   -51464.809   0.15005837 
    1800    293.75027   -482.48915    149226.34   -47484.859    4033.9525   -51518.812   0.14716369 
    2000    295.88216   -499.84881    149289.47   -47438.409     4063.229   -51501.638   0.14769701 
    2200    296.79567    -516.8734    149307.47   -47404.217    4075.7738   -51479.991   0.15201832 
    2400    292.73518   -484.98311    149274.97   -47422.147    4020.0128    -51442.16    0.1489623 
    2600    289.89603   -505.49054    149239.15     -47467.3    3981.0239   -51448.324   0.14575185 
    2800    291.51206   -456.04033    149241.14   -47485.476    4003.2162   -51488.692   0.14190536 
    3000    291.01148   -518.12913    149280.98   -47497.387    3996.3419   -51493.729    0.1469429 
    3200    297.69279   -477.99547    149243.81   -47443.529    4088.0935   -51531.623    0.1475196 
    3400    296.68611   -511.18825    149210.12   -47484.206    4074.2693   -51558.476   0.14772896 
    3600    293.89901   -515.72876    149205.87   -47512.925    4035.9951    -51548.92    0.1476633 
    3800    290.15703   -527.08971    149251.54   -47436.135     3984.608   -51420.743   0.15236399 
    4000    296.27019   -525.22424    149303.11   -47430.353    4068.5576    -51498.91    0.1470445 
    4200    292.82557   -490.85842    149290.03   -47447.009    4021.2541   -51468.263    0.1453826 
    4400    290.61395   -461.24716    149230.73    -47433.73    3990.8828   -51424.613    0.1464257 
    4600    298.69977   -449.88967    149235.63   -47414.401    4101.9221   -51516.323   0.14739211 
    4800    296.80189    -517.0897    149314.31   -47404.568    4075.8592   -51480.427   0.14972857 
    5000    295.76669   -545.51815    149317.53   -47382.962    4061.6432   -51444.605   0.15148512 
    5200    294.62052   -460.99535    149224.74   -47386.074    4045.9033   -51431.977   0.15163419 
    5400    298.73554   -407.02196       149253   -47345.868    4102.4132   -51448.281   0.14828472 
    5600     295.2404   -552.63748    149374.48   -47328.076    4054.4159   -51382.491   0.15554557 
    5800    299.87788   -518.53111    149327.91   -47316.399    4118.1006   -51434.499   0.15607811 
    6000     303.2029   -449.75745    149212.04   -47302.036    4163.7616   -51465.798   0.15267247 
    6200    296.02438   -464.82621     149262.6   -47294.545     4065.182   -51359.727   0.15064663 
    6400    300.34101   -542.34802    149373.02   -47260.281    4124.4606   -51384.742   0.14992927 
    6600    296.14972   -505.49919    149296.84   -47300.121    4066.9032   -51367.024   0.15009308 
    6800     299.6064   -429.84674    149173.06   -47341.334    4114.3724   -51455.707   0.15078877 
    7000    294.50959   -557.50823     149243.5   -47343.509    4044.3799   -51387.889    0.1603575 
    7200    299.81531   -569.84893    149357.42   -47288.697    4117.2413   -51405.938   0.15469312 
    7400    300.59215   -489.05082    149272.55   -47274.042    4127.9093   -51401.952   0.14746055 
    7600    298.58366   -449.15943    149196.11   -47309.845    4100.3276   -51410.173   0.15006688 
    7800    296.78027   -515.03396    149252.83   -47337.746    4075.5624   -51413.309   0.15201208 
    8000    297.11714   -473.69263    149293.92   -47302.753    4080.1884   -51382.941   0.14828913 
    8200    298.90963   -490.68323    149238.75   -47340.288     4104.804   -51445.092   0.15065392 
    8400    300.58427   -458.93042    149224.67   -47366.851    4127.8011   -51494.652   0.14590127 
    8600     299.4053    -476.1426    149329.62   -47324.765    4111.6108   -51436.376   0.14731654 
    8800    299.49711   -573.30787    149376.64   -47253.456    4112.8716   -51366.327   0.15653548 
    9000    303.39606   -470.76867    149237.71    -47234.11    4166.4143   -51400.525   0.15871877 
    9200    300.75886   -414.56708    149164.52   -47219.279    4130.1987   -51349.477   0.16108819 
    9400    300.78468   -530.71664    149327.75    -47269.46    4130.5532   -51400.013   0.15400156 
    9600    303.27706   -592.12366    149392.67   -47258.363    4164.7801   -51423.143   0.15737605 
    9800    302.56037   -460.73771     149190.5   -47276.768    4154.9381   -51431.706    0.1533597 
   10000    303.96832   -394.03421       149162   -47273.308    4174.2729   -51447.581   0.14609603 
   10200    301.63011   -574.28615    149410.77   -47264.119    4142.1632   -51406.283   0.14810861 
   10400    301.96915   -621.38057    149398.11   -47250.568    4146.8191   -51397.387   0.15766529 
   10600    300.02074   -324.87643     149115.1   -47233.578    4120.0624   -51353.641    0.1528554 
   10800    304.71206   -435.58348    149195.55   -47265.998    4184.4864   -51450.485    0.1516439 
   11000    303.23817   -640.54835    149427.78   -47307.454     4164.246   -51471.699    0.1572963 
   11200    295.80797    -559.9923    149291.52   -47325.015    4062.2101   -51387.225   0.16050378 
   11400    295.80105   -357.62571    149040.35   -47354.108    4062.1151   -51416.223   0.15536149 
   11600    296.13455   -442.85549    149225.04   -47323.072     4066.695   -51389.767   0.15148802 
   11800    296.65487   -716.56714     149484.1   -47397.267    4073.8403   -51471.108    0.1566566 
   12000    292.07293   -478.32471    149194.69   -47398.751    4010.9184    -51409.67   0.14997252 
   12200    295.44302   -295.54057    148953.34   -47379.242    4057.1984    -51436.44   0.15028887 
   12400    301.23511   -564.81734    149312.26   -47345.448    4136.7388   -51482.187   0.15521322 
   12600    295.02333   -742.51599    149520.42   -47353.681     4051.435   -51405.116   0.16145434 
   12800    295.67041   -395.11667    149130.54   -47367.729    4060.3211    -51428.05   0.15390154 
   13000    298.12428   -302.04113    148979.76   -47349.746     4094.019   -51443.765   0.15548756 
   13200    298.60645   -649.22817    149445.07   -47317.848    4100.6405   -51418.489   0.16163058 
   13400    293.33437   -714.43319    149562.91   -47335.469    4028.2412   -51363.711   0.15939662 
   13600     296.3566   -347.25476    149034.24    -47330.26    4069.7442   -51400.004   0.15103998 
   13800    298.49035   -295.36736    148988.69   -47325.989    4099.0462   -51425.035   0.14781785 
   14000    298.73678   -746.40132    149581.48   -47342.534    4102.4303   -51444.965   0.14679638 
   14200    293.34217   -690.46037    149578.35   -47368.174    4028.3483   -51396.522   0.15120254 
   14400    298.06859   -242.29194    148970.43   -47399.321    4093.2544   -51492.575   0.14449542 
   14600    294.75627   -336.17727    149052.76   -47395.396    4047.7676   -51443.164   0.15001217 
   14800    301.91859   -817.10005    149696.36    -47372.74    4146.1248   -51518.864   0.15103704 
   15000     292.6412   -667.05775    149496.59   -47426.191    4018.7221   -51444.913   0.15324923 
   15200    295.81284   -174.35014     148838.5   -47485.104     4062.277   -51547.381   0.14692721 
   15400    287.56912   -423.61955    149115.86   -47500.111    3949.0694    -51449.18   0.15368503 
   15600    291.71665   -835.52055    149686.15   -47531.781    4006.0257   -51537.807   0.15416574 
   15800    290.30723   -556.94647    149313.79    -47484.45    3986.6707    -51471.12   0.14900052 
   16000    293.74253   -147.75264    148836.33   -47474.077    4033.8463   -51507.923    0.1397045 
   16200    292.38924    -524.2906    149283.21   -47419.786    4015.2622   -51435.049   0.14968104 
   16400     299.3714   -795.05412    149679.31   -47412.216    4111.1452   -51523.361   0.15536987 
   16600    299.46875   -471.70332    149219.51   -47434.524    4112.4821   -51547.006   0.14766076 
   16800    295.84051   -267.55137     148912.8   -47389.457     4062.657   -51452.114   0.15510662 
   17000    299.00553    -597.0103    149361.16     -47411.6    4106.1209    -51517.72   0.15324773 
   17200    294.23746   -757.13879     149547.4   -47390.853     4040.643   -51431.496    0.1584803 
   17400    293.45597   -400.98273    149124.03   -47440.473    4029.9111   -51470.385   0.15122519 
   17600    297.36085   -340.71291    148999.92   -47480.963    4083.5352   -51564.498   0.15097714 
   17800    288.07807   -573.71486    149343.96   -47496.288    3956.0586   -51452.347   0.15020974 
   18000    286.56419   -625.16223    149404.25   -47529.084    3935.2691   -51464.353   0.14789752 
   18200    295.52831    -423.2131     149117.5   -47558.982    4058.3697   -51617.352   0.14539246 
   18400    291.08781   -416.84247    149059.31    -47579.94    3997.3901    -51577.33   0.14882925 
   18600    294.97768   -518.89988    149274.47   -47534.318    4050.8081   -51585.126   0.14737976 
   18800    291.34829    -604.7732    149354.95   -47467.128    4000.9672   -51468.095   0.15134756 
   19000    291.93774   -473.94706    149213.41    -47497.27    4009.0619   -51506.332   0.15247541 
   19200    293.20984   -426.60873    149144.21   -47471.369    4026.5311     -51497.9   0.15039907 
   19400    295.14706   -561.54737     149255.1   -47461.238    4053.1341   -51514.372   0.14981165 
   19600     297.0443   -548.00354    149270.13   -47489.955    4079.1882   -51569.143   0.14741052 
   19800    288.49775   -457.70089    149172.09   -47486.995    3961.8218   -51448.817   0.15201295 
   20000    294.05814   -466.67439    149211.44   -47477.115    4038.1804   -51515.295   0.14605759 
   20200    295.53884   -556.44347    149311.12   -47503.145    4058.5143   -51561.659   0.14897671 
   20400    293.38258   -483.57605    149254.05   -47481.758    4028.9032   -51510.661    0.1484535 
   20600    292.50438   -481.58017    149190.94   -47478.656    4016.8433   -51495.499   0.14960158 
   20800    294.07123    -548.1998    149261.28   -47480.972    4038.3602   -51519.332   0.15008175 
   21000    293.69157   -546.62302    149312.14   -47474.798    4033.1465   -51507.945   0.14869039 
   21200    291.01406   -477.61566    149260.85   -47464.533    3996.3773    -51460.91   0.15545174 
   21400    292.70106   -421.07469    149241.37   -47461.471    4019.5443   -51481.015    0.1483851 
   21600    294.18695    -518.6131    149338.76    -47416.35    4039.9493     -51456.3   0.14608986 
   21800    295.49097   -514.77569    149373.07   -47366.412    4057.8569   -51424.269   0.14865621 
   22000    290.32149    -528.6784    149312.08   -47372.922    3986.8666   -51359.789   0.14979893 
   22200    297.59803    -488.7459    149305.72   -47331.726    4086.7922   -51418.518   0.15104878 
   22400    301.84882   -495.64308    149375.36   -47308.116    4145.1667   -51453.283   0.14608302 
   22600    297.57808   -507.34178    149376.37   -47315.232    4086.5184    -51401.75   0.14881147 
   22800    295.32997   -485.04234    149261.84   -47353.701     4055.646   -51409.347     0.152774 
   23000    296.30567   -430.26329    149219.75   -47372.001    4069.0449   -51441.046   0.14614243 
   23200    298.35456   -550.63307    149360.55   -47365.296    4097.1814   -51462.477   0.15123869 
   23400    297.35452   -581.76103    149402.11   -47374.587    4083.4482   -51458.035   0.15190782 
   23600     294.7365    -467.9436    149259.72   -47392.977    4047.4961   -51440.474   0.15026464 
   23800    299.45304   -381.79808    149218.88   -47330.306    4112.2664   -51442.573   0.14788577 
   24000    296.66911   -554.80074    149399.25   -47368.076    4074.0358   -51442.112   0.14679286 
   24200    297.49227   -612.21871    149432.27   -47350.682      4085.34   -51436.022    0.1497942 
   24400    300.54888   -414.45117    149217.67   -47358.345    4127.3151    -51485.66   0.14732907 
   24600    290.47707   -395.88221    149221.53   -47356.453    3989.0031   -51345.456   0.15026624 
   24800     300.9376   -603.35484    149508.39   -47278.237    4132.6533    -51410.89   0.15437783 
   25000    298.23673   -629.43477    149519.79   -47275.799    4095.5634   -51371.362   0.15421733 
   25200    306.01714   -340.45081    149119.69   -47304.045    4202.4085   -51506.453   0.14462242 
   25400    296.48185   -336.23155    149104.87   -47367.766    4071.4642   -51439.231   0.14893548 
   25600    295.16857   -672.91118    149559.72   -47386.571    4053.4295   -51440.001   0.15117438 
   25800    298.80714   -653.63841    149499.74   -47363.817    4103.3965   -51467.213   0.15470756 
   26000    298.91883   -245.63611    148999.67   -47345.707    4104.9304   -51450.637    0.1437089 
   26200    299.45984   -395.17377    149119.52   -47392.863    4112.3598   -51505.222    0.1415416 
   26400    296.42094    -738.5261    149603.61   -47411.881    4070.6279   -51482.509   0.15032481 
   26600    296.82142   -569.25431    149397.76   -47422.887    4076.1274   -51499.014   0.14981719 
   26800    297.61806   -229.51765    148926.44   -47430.639    4087.0674   -51517.706   0.14584491 
   27000    292.95364   -444.58132    149205.26   -47430.404    4023.0127   -51453.417   0.14972933 
   27200    294.85739   -820.74004    149653.34   -47419.753    4049.1562   -51468.909   0.15511874 
   27400    296.66765   -508.19752    149275.55   -47387.205    4074.0157    -51461.22   0.14995817 
   27600    296.03458    -177.2292    148863.55   -47394.324    4065.3221   -51459.646   0.15167373 
   27800    295.23732   -559.59193    149363.75   -47387.909    4054.3736   -51442.283   0.15859241 
   28000    295.37105   -810.85838    149729.52    -47371.86    4056.2101    -51428.07   0.15478787 
   28200    299.25318   -423.90881    149173.37   -47396.198    4109.5219    -51505.72   0.14381959 
   28400    295.00085   -167.67628     148846.4   -47392.866    4051.1263   -51443.992   0.14609306 
   28600     293.4881   -665.34252    149440.98    -47411.24    4030.3523   -51441.592   0.15465981 
   28800    295.36101   -820.69859    149643.37   -47419.461    4056.0722   -51475.533   0.15837505 
   29000    297.88086   -292.74107    148992.88   -47461.418    4090.6763   -51552.094   0.14578054 
   29200    293.64855   -243.72529    148880.49   -47497.739    4032.5556   -51530.295   0.14842817 
   29400    294.62358   -696.47337    149492.16   -47494.688    4045.9454   -51540.634   0.15111017 
   29600    292.34432   -716.78887    149537.12   -47452.378    4014.6453   -51467.023   0.15051804 
   29800    298.49258   -277.54993    149004.14   -47377.779    4099.0768   -51476.856   0.14762933 
   30000    300.00524   -319.49698    149074.59   -47368.171    4119.8495    -51488.02   0.14633639 
   30200    299.26392   -761.25696    149608.03   -47373.516    4109.6693   -51483.186   0.14900928 
   30400    291.20868   -618.08355    149452.18   -47426.749      3999.05   -51425.799   0.14788455 
   30600    297.90535   -260.06579     148959.5   -47376.976    4091.0126   -51467.989   0.15081457 
   30800    295.48759   -414.39757     149175.3   -47342.865    4057.8105   -51400.675   0.15205742 
   31000    299.13865   -688.12799    149567.87   -47326.003     4107.949   -51433.953   0.15626007 
   31200    298.09651   -511.65415    149314.15   -47329.661    4093.6377   -51423.299   0.15237143 
   31400    297.79008   -300.53139    149022.29   -47330.091    4089.4296   -51419.521   0.15209766 
   31600    295.52281   -485.61602    149292.95   -47391.525    4058.2942   -51449.819   0.14848388 
   31800    297.56906   -663.40156    149513.37   -47360.175    4086.3944   -51446.569   0.14658447 
   32000    295.96181   -448.37156    149239.39   -47331.717    4064.3227    -51396.04   0.15099252 
   32200     295.7965   -407.28912    149108.27   -47369.022    4062.0526   -51431.074   0.15524627 
   32400    290.22524   -546.59748    149359.16   -47361.255    3985.5448   -51346.799   0.15638053 
   32600    294.83778   -624.83981    149472.32   -47345.583    4048.8869    -51394.47   0.14838455 
   32800    297.32145   -410.50166    149244.32   -47344.195    4082.9941   -51427.189   0.14598817 
   33000    296.63026   -399.60885    149185.44    -47333.65    4073.5023   -51407.153   0.15577914 
   33200    297.71481   -534.79541    149415.09   -47326.641     4088.396   -51415.037   0.15609771 
   33400    299.70641   -558.32446    149440.38   -47286.599    4115.7459   -51402.345   0.15549026 
   33600    301.34394    -460.4967    149270.98   -47220.247    4138.2333    -51358.48   0.15217852 
   33800    301.47744   -470.31877    149289.43   -47257.219    4140.0666   -51397.286   0.14994857 
   34000    298.02477   -538.32286    149386.05   -47277.878    4092.6525    -51370.53   0.14656061 
   34200    295.10829   -560.37627    149331.32   -47310.274    4052.6018   -51362.876   0.15478999 
   34400    294.54939    -466.8643    149224.13   -47377.895    4044.9266   -51422.822   0.15627527 
   34600    292.92171   -473.42447    149255.17   -47350.023    4022.5743   -51372.598   0.15137369 
   34800    291.85023   -573.94592    149337.23   -47391.646    4007.8602   -51399.506   0.15164358 
   35000    295.64625   -513.48277    149307.83   -47417.471    4059.9893    -51477.46   0.14629322 
   35200    292.80182   -495.06763    149238.08   -47405.037    4020.9279   -51425.965   0.15906663 
   35400    295.10862    -524.4158    149251.93   -47365.223    4052.6063   -51417.829   0.15776824 
   35600    301.79458    -514.6098    149279.29   -47359.723    4144.4219   -51504.145   0.14978939 
   35800    301.23193   -474.37264    149250.72   -47359.917    4136.6951   -51496.612   0.14877748 
   36000    292.52066   -508.70873     149222.8    -47360.75    4017.0668   -51377.817   0.15303843 
   36200    297.32818   -500.55729    149250.67   -47376.432    4083.0865   -51459.519    0.1524976 
   36400    295.13273   -536.99982    149298.09   -47403.285    4052.9373   -51456.222     0.151308 
   36600    296.36334    -490.2178    149296.81    -47378.27    4069.8369   -51448.107   0.15655237 
   36800    293.87208   -524.41243    149244.77   -47423.135    4035.6254    -51458.76   0.15098995 
   37000    291.21879   -473.73613    149231.91   -47411.579    3999.1888   -51410.768   0.14763772 
   37200    292.29315   -511.89401    149283.09   -47371.423    4013.9426   -51385.365   0.15260803 
   37400    302.42104   -475.17874    149296.27   -47364.229    4153.0247   -51517.254   0.15177856 
   37600    295.83118   -514.16339    149260.42   -47392.151    4062.5288    -51454.68   0.15220503 
   37800    302.06293   -486.57238    149245.41    -47356.67    4148.1069   -51504.777   0.14853271 
   38000    290.30193    -501.5728    149260.39   -47411.423    3986.5979   -51398.021   0.15384842 
   38200    297.52312   -473.72844    149277.09    -47405.62    4085.7635   -51491.384   0.14722603 
   38400    297.15199   -485.09346     149276.8   -47370.412     4080.667   -51451.079   0.14804684 
   38600    297.01025     -497.932     149279.3   -47367.056    4078.7205   -51445.776   0.14696835 
   38800    295.09581   -496.98371     149285.9    -47419.55    4052.4303   -51471.981   0.15224353 
   39000    297.32812   -469.28214    149272.65   -47446.449    4083.0857   -51529.535   0.14555286 
   39200    292.36456   -458.69881    149228.04   -47467.473    4014.9232   -51482.396   0.14303672 
   39400    289.91088   -543.35148    149279.19    -47457.95    3981.2278   -51439.177    0.1505263 
   39600    289.30739   -546.00737    149331.62   -47529.457    3972.9403   -51502.397   0.15062404 
   39800    288.48466   -454.38341    149235.68    -47518.66    3961.6421   -51480.302   0.15273999 
   40000    292.86568   -463.47912    149203.86   -47532.236    4021.8048   -51554.041   0.15024808 
   40200    288.28028   -530.06188    149301.13   -47504.809    3958.8354   -51463.644   0.15633461 
   40400     295.6919    -551.5517    149327.62   -47499.558    4060.6162   -51560.174   0.14893001 
   40600    289.60633   -484.93687    149203.76   -47527.903    3977.0456   -51504.949   0.14952608 
   40800    294.05941    -448.6864    149164.52   -47546.235    4038.1979   -51584.432   0.14983393 
   41000    295.46842   -489.77222    149266.83    -47500.34    4057.5473   -51557.887   0.15512795 
   41200    289.52315   -552.47026    149284.21   -47532.034    3975.9033   -51507.938   0.15273817 
   41400    291.80577   -453.04516    149203.52   -47495.334    4007.2496   -51502.583   0.14178145 
   41600    296.29715   -423.93523     149200.8    -47491.51    4068.9278   -51560.438   0.14641499 
   41800    291.49079   -534.20508    149280.34   -47489.059     4002.924   -51491.983   0.15313525 
   42000    293.32638   -514.70195    149264.31   -47462.403    4028.1315   -51490.535   0.15394324 
   42200    292.65139   -466.07365    149203.28   -47490.063    4018.8621   -51508.926   0.15012699 
   42400    289.57998   -548.35461    149259.92   -47542.176    3976.6836   -51518.859   0.14964893 
   42600    288.20201   -504.43812     149307.2   -47568.536    3957.7606   -51526.296   0.14726631 
   42800    291.12792   -440.40923    149248.42   -47569.951    3997.9409   -51567.892    0.1401526 
   43000    289.88312   -425.27809    149242.04   -47524.247    3980.8466   -51505.093   0.14979928 
   43200    292.09536   -539.40989    149363.84   -47528.398    4011.2264   -51539.624    0.1525437 
   43400    293.14657   -556.97311    149380.82   -47520.323    4025.6623   -51545.985   0.14705804 
   43600    290.64421   -417.20994    149195.45   -47516.873    3991.2984   -51508.171   0.13916064 
   43800    293.20466   -440.46743    149217.81   -47489.948    4026.4599   -51516.408   0.14974088 
   44000     294.5003   -570.86063    149427.04   -47506.974    4044.2524   -51551.227   0.15718623 
   44200    289.75398   -580.60837    149354.49   -47551.359    3979.0732   -51530.432   0.15076167 
   44400    287.51788   -385.38751    149116.61   -47526.692    3948.3657   -51475.058     0.148419 
   44600    297.77973   -472.39464     149215.7   -47463.233    4089.2875    -51552.52   0.15157659 
   44800    297.97557   -653.35386    149467.47   -47425.323     4091.977     -51517.3   0.15828514 
   45000    292.03273   -535.54136    149350.54   -47461.864    4010.3664    -51472.23   0.14571542 
   45200     291.6492   -413.75217    149092.35   -47485.368    4005.0994   -51490.468   0.15316056 
   45400    291.71105   -476.60542    149231.28   -47535.079    4005.9488   -51541.028   0.14991622 
   45600    295.34965   -619.48241    149457.08   -47521.435    4055.9162   -51577.351      0.14534 
   45800    294.04734   -474.13606    149289.32   -47495.281    4038.0321   -51533.313   0.14380086 
   46000    289.89988   -336.35262    149078.75   -47493.964    3981.0767    -51475.04   0.15419974 
   46200    289.14503   -519.73751    149309.25   -47526.266    3970.7107   -51496.977   0.15087362 
   46400    288.60297   -679.18486    149494.54   -47506.615    3963.2668   -51469.882    0.1465848 
   46600    297.52378   -468.80225    149198.19   -47507.109    4085.7726   -51592.882   0.14846379 
   46800    292.59131   -297.97842    149014.85   -47470.933     4018.037    -51488.97   0.15012057 
   47000    293.49398   -569.16679    149331.96   -47447.435    4030.4331   -51477.868   0.15032337 
   47200    293.71913   -666.34446    149503.87   -47415.067     4033.525   -51448.592   0.14690772 
   47400    299.15272   -409.58801    149181.18   -47347.867    4108.1422   -51456.009   0.15376693 
   47600    295.88697    -356.0717     149081.9   -47321.626     4063.295   -51384.921   0.15750065 
   47800    296.31944   -634.84977    149491.15   -47286.265     4069.234   -51355.499   0.15793432 
   48000    300.89451   -667.59228    149527.94   -47288.992    4132.0615   -51421.053   0.15684915 
   48200    301.88232   -313.59286    149039.83     -47291.4    4145.6267   -51437.027   0.15549555 
   48400    295.86117   -322.88544    149076.16   -47270.028    4062.9407   -51332.969   0.16477307 
   48600    292.76845   -770.51135    149609.13   -47331.688    4020.4696   -51352.158   0.16496043 
   48800    293.18567   -611.52329    149482.93    -47271.55    4026.1991   -51297.749   0.16330063 
   49000     303.6366   -215.87653    148969.63   -47253.184    4169.7176   -51422.902   0.15546819 
   49200    300.45573   -378.00776    149193.87   -47287.239    4126.0359   -51413.275   0.15257573 
   49400     298.6397   -784.82311     149718.7   -47292.024    4101.0971   -51393.121   0.15511528 
   49600    307.00117   -550.11397    149366.88    -47313.44    4215.9218   -51529.362    0.1569106 
   49800    297.47098   -181.71861    148854.73   -47295.844    4085.0475   -51380.891   0.15913874 
   50000    300.95243   -525.05925    149279.94   -47295.866    4132.8569   -51428.723   0.15386705 
   50200    299.07809   -841.48921    149747.11   -47328.191    4107.1174   -51435.309   0.14887422 
   50400     295.2594   -482.22264    149251.82   -47337.135    4054.6768   -51391.811   0.15955219 
   50600    296.81675   -167.27703    148834.84   -47361.917    4076.0633    -51437.98   0.15648625 
   50800    299.84665   -590.88523    149393.54   -47371.831    4117.6716   -51489.502   0.15195339 
   51000    299.33515   -801.39345    149706.31   -47301.071    4110.6475   -51411.719   0.15383297 
   51200    299.32739   -339.65891     149091.4   -47337.793     4110.541   -51448.334   0.15336912 
   51400    300.48906   -204.78338    148893.98   -47303.031    4126.4937   -51429.525   0.15415256 
   51600    296.80078   -653.78669    149536.88   -47298.701     4075.844   -51374.545   0.15521854 
   51800    302.58036   -716.47887    149638.24   -47294.704    4155.2126   -51449.916   0.16063529 
   52000    296.62448   -319.08203    149035.33    -47259.74    4073.4229   -51333.163   0.16109656 
   52200    299.57079   -319.16881    149045.63   -47232.478    4113.8834   -51346.361   0.15068186 
   52400    301.37029   -690.69903    149541.94   -47209.563    4138.5952   -51348.158   0.15937721 
   52600    293.15602   -628.65072    149453.28   -47247.914    4025.7919   -51273.706   0.16975592 
   52800    300.60607   -363.45465     149101.7    -47271.32    4128.1005   -51399.421   0.15620309 
   53000     298.1777   -411.91324    149222.01   -47275.373    4094.7526   -51370.126   0.15086461 
   53200    297.58058   -667.03418    149482.94   -47283.633    4086.5527   -51370.186   0.15869137 
   53400    296.12059   -516.40448    149339.11   -47314.135    4066.5033   -51380.638   0.15755921 
   53600    302.99567   -396.26142    149152.56   -47343.426    4160.9158   -51504.342   0.15155225 
   53800    302.93403    -442.8712    149287.19   -47318.745    4160.0694   -51478.814   0.14820526 
   54000    299.07454   -545.45689    149425.95   -47307.447    4107.0687   -51414.515   0.15762076 
   54200     297.5617   -517.73216     149319.8   -47317.249    4086.2933   -51403.543   0.15394262 
   54400    299.09047   -412.56963    149183.41   -47345.641    4107.2874   -51452.928   0.15012759 
   54600    300.14289   -465.26284    149275.66   -47339.356    4121.7398   -51461.096   0.15342579 
   54800    297.87761   -574.96922    149394.33   -47281.229    4090.6317   -51371.861   0.15891462 
   55000    298.87634   -488.00265    149330.58   -47284.336    4104.3468   -51388.683   0.15378529 
   55200    299.87782   -427.42602     149228.5    -47316.16    4118.0997   -51434.259    0.1513808 
   55400    293.77072   -475.97836    149275.64   -47339.021    4034.2334   -51373.254    0.1635544 
   55600    295.93021   -542.63798    149365.67   -47376.293    4063.8889   -51440.181   0.15154084 
   55800    299.13563   -448.58006    149296.94   -47349.041    4107.9075   -51456.948   0.14768206 
   56000    297.47319   -454.35908    149215.25   -47333.597    4085.0779   -51418.675   0.15606857 
   56200    300.07247   -512.83285    149297.49   -47369.485    4120.7727   -51490.258   0.16129504 
   56400    294.50316   -590.55307    149371.01   -47371.407    4044.2918   -51415.699   0.16022712 
   56600    298.95143   -448.42231    149284.64   -47375.519    4105.3779   -51480.897   0.14445982 
   56800     294.5359   -479.65716    149215.85   -47324.876    4044.7413   -51369.617   0.15692295 
   57000    298.84323   -525.68592    149342.45   -47331.941    4103.8921   -51435.833   0.15412731 
   57200    291.76013   -590.61512    149391.51   -47361.513    4006.6228   -51368.136   0.16069283 
   57400    298.78047   -434.68043    149225.06   -47382.207    4103.0302   -51485.238   0.15563374 
   57600    289.71931   -450.32526    149207.57   -47370.457     3978.597   -51349.054   0.15916149 
   57800    300.07259   -570.70733    149392.46   -47383.732    4120.7744   -51504.506   0.15244086 
   58000    295.93593   -513.48091    149369.23   -47396.483    4063.9673   -51460.451    0.1455157 
   58200    292.18854   -404.15068    149160.54   -47438.158     4012.506   -51450.664   0.15645448 
   58400    295.28512   -457.90987    149191.64   -47431.468      4055.03   -51486.498   0.15783501 
   58600     295.4266   -609.80231     149443.6   -47407.233     4056.973   -51464.206   0.15335844 
   58800    292.18416    -566.2536    149359.72   -47441.119    4012.4459   -51453.565   0.15172094 
   59000    289.97541   -310.11141    149028.93   -47468.127    3982.1139   -51450.241   0.15134639 
   59200    293.31343   -423.82758    149165.68   -47467.675    4027.9536   -51495.629   0.15680847 
   59400    294.34011   -713.73782    149570.73   -47405.054    4042.0526   -51447.106   0.15963347 
   59600    293.95688   -551.49547    149430.67   -47401.684    4036.7898   -51438.474   0.15310738 
   59800    298.00981   -268.17746    148975.21    -47391.27    4092.4471   -51483.717    0.1534897 
   60000    296.41086   -430.67027    149188.12   -47378.392    4070.4894   -51448.882   0.15809087 
   60200    298.17308   -745.08759    149672.66   -47345.324    4094.6892   -51440.013   0.15245476 
   60400    299.49851   -585.16228    149346.45    -47315.17    4112.8908    -51428.06   0.15807768 
   60600     299.4219    -174.0253     148808.9   -47359.379    4111.8387   -51471.217   0.15699737 
   60800    298.96584   -476.75541    149243.85   -47295.813    4105.5758   -51401.388   0.15959785 
   61000    300.62005   -885.70112    149776.45   -47331.003    4128.2924   -51459.296   0.15616694 
   61200    296.86396   -454.07585    149222.56   -47339.444    4076.7116   -51416.156   0.15322389 
   61400    296.58529   -163.52183    148748.06   -47339.122    4072.8848   -51412.006   0.16126501 
   61600    302.14982   -526.18796    149341.85   -47327.991    4149.3002   -51477.292   0.14867701 
   61800    289.87922    -852.0305     149729.2   -47320.864     3980.793   -51301.657   0.16292639 
   62000    298.13746   -397.34027    149090.95   -47352.387       4094.2   -51446.587   0.15927158 
   62200    299.23065   -175.72463    148837.32   -47366.518    4109.2124   -51475.731   0.14904246 
   62400    297.18043   -635.13744    149497.66   -47320.903    4081.0575    -51401.96   0.15021626 
   62600     295.1796   -817.89466    149677.24   -47339.293    4053.5809   -51392.874   0.16114554 
   62800    296.37504   -292.30192    148989.91   -47320.591    4069.9975   -51390.589   0.16410375 
   63000    296.66817   -239.59087    148919.24   -47288.516    4074.0229   -51362.539   0.15683267 
   63200    301.50682    -735.1534    149614.91   -47288.845    4140.4701   -51429.315   0.15113646 
   63400     296.2929   -746.11173    149610.42   -47243.177    4068.8694   -51312.047   0.15948975 
   63600    302.97267   -274.33626    149002.07    -47228.48    4160.6001    -51389.08   0.15666961 
   63800    304.19575   -343.19826    149065.89    -47258.14    4177.3962   -51435.536   0.15690432 
   64000    301.30026    -718.3067    149568.94   -47246.945    4137.6335   -51384.578   0.16325925 
   64200    304.70853   -586.08106    149460.98   -47249.107    4184.4379   -51433.545   0.15470059 
   64400     297.9686   -309.98179    149019.07   -47238.162    4091.8812   -51330.043    0.1551619 
   64600    290.35895   -447.27859    149183.45   -47294.518     3987.381   -51281.899   0.15892248 
   64800    297.40958   -700.00862    149590.22   -47302.955    4084.2044   -51387.159   0.16311139 
   65000    301.68735   -582.02987     149391.3   -47295.095    4142.9492   -51438.045   0.15875882 
   65200    297.45065   -332.40212    149019.93   -47324.541    4084.7684    -51409.31   0.15324576 
   65400    299.53741   -469.68068    149248.48   -47350.865     4113.425    -51464.29    0.1496084 
   65600    298.46351   -721.04848    149578.55     -47372.5    4098.6776   -51471.178   0.15716253 
   65800      293.034   -505.18238    149304.25   -47348.403    4024.1164    -51372.52   0.15730692 
   66000    298.89079   -308.96595    149051.78   -47350.703    4104.5452   -51455.249   0.15379658 
   66200    297.00583   -545.95416    149355.06   -47374.268    4078.6598   -51452.928   0.15465096 
   66400    298.34498   -676.27812    149546.04   -47367.884    4097.0499   -51464.934   0.15084325 
   66600    294.46765   -468.92389    149229.88   -47383.607    4043.8041   -51427.412   0.15192233 
   66800    296.03315   -331.40159    149053.51   -47366.523    4065.3024   -51431.825   0.15023286 
   67000    298.02723   -539.03523    149376.78    -47395.75    4092.6864   -51488.436   0.15632157 
   67200     290.2804   -693.88077    149505.04   -47414.701    3986.3023   -51401.004   0.15745492 
   67400    300.07226   -399.04495    149179.93   -47451.845    4120.7698   -51572.615   0.14102524 
   67600    297.35946   -293.05545    149075.11   -47406.088    4083.5161   -51489.604   0.14436826 
   67800    300.36137   -578.05329    149430.42   -47351.366    4124.7401   -51476.106   0.15297968 
   68000    289.59814   -684.03895    149491.94   -47344.612    3976.9331   -51321.545   0.16025353 
   68200    297.19377   -418.66977     149107.4   -47421.866    4081.2408   -51503.107   0.15447819 
   68400    298.93215   -333.16557    149064.86   -47364.481    4105.1132   -51469.594   0.15149118 
   68600     298.1147   -630.70809     149496.5   -47346.066    4093.8875   -51439.954   0.15243106 
   68800    294.01161   -641.75976     149523.1   -47311.374    4037.5414   -51348.916   0.15305339 
   69000     297.7189   -335.38764    149073.42   -47361.822    4088.4521   -51450.274   0.14938855 
   69200    297.57593    -340.8923    149071.95   -47368.679    4086.4889   -51455.168   0.15505592 
   69400    293.36174   -724.12639    149546.18   -47403.961    4028.6171   -51432.579   0.16030111 
   69600     298.6821   -599.46908    149454.09   -47417.187    4101.6794   -51518.866    0.1471423 
   69800    292.89872   -296.80391    148900.35   -47386.989    4022.2586   -51409.247   0.15600235 
   70000    298.26588   -383.08057    149115.93   -47346.153    4095.9636   -51442.117   0.15654307 
   70200    295.62213   -889.24013    149831.67   -47320.689    4059.6581   -51380.347   0.16302194 
   70400    296.78203   -628.33119    149474.35   -47338.511    4075.5864   -51414.098   0.15636139 
   70600     300.0598    32.089883     148632.4   -47314.773    4120.5987   -51435.372   0.15282023 
   70800    297.78037   -445.82832    149191.56   -47339.681    4089.2963   -51428.977   0.15527957 
   71000    295.57317   -1054.4084    150044.51   -47375.937    4058.9858   -51434.923   0.15106014 
   71200    298.41356    -470.7482    149287.37    -47391.87    4097.9916   -51489.862   0.14856972 
   71400    296.54095     82.83151    148551.86   -47361.796    4072.2758   -51434.072   0.15690097 
   71600    298.07515   -585.39981    149444.82   -47338.169    4093.3444   -51431.514    0.1567617 
   71800    298.07873   -1040.2637       150043   -47351.173    4093.3935   -51444.567    0.1486218 
   72000    298.03116   -321.80954    149095.87   -47385.865    4092.7403   -51478.606   0.14586017 
   72200    294.34962   -55.769242    148689.91   -47424.046    4042.1832   -51466.229   0.15359381 
   72400    293.99737   -669.55322    149547.87   -47401.795    4037.3459    -51439.14   0.15824892 
   72600    298.01671   -858.73174    149810.68    -47364.14    4092.5419   -51456.682   0.15879456 
   72800    294.50762   -305.18609    149066.37   -47447.983    4044.3529   -51492.336   0.14894003 
   73000    292.09786   -246.32138    148937.23   -47448.001    4011.2608   -51459.262    0.1484612 
   73200     290.8393    -700.8483    149548.43   -47456.631    3993.9774   -51450.609   0.14791348 
   73400    296.30082   -688.41761       149539   -47451.947    4068.9782   -51520.925   0.15733266 
   73600    296.25316   -316.52696    149028.49   -47437.901    4068.3237   -51506.224   0.15577611 
   73800    296.32074   -372.66563    149129.72   -47432.792    4069.2518   -51502.044   0.15335791 
   74000    292.03286   -675.53459     149546.8   -47477.273    4010.3681   -51487.641   0.14961319 
   74200    294.16662   -568.19131    149365.64   -47474.315    4039.6701   -51513.985   0.15290473 
   74400    291.93279   -333.65447    149020.29   -47437.757    4008.9939    -51446.75   0.16082234 
   74600    295.18979   -469.29021    149237.89   -47460.596     4053.721   -51514.317   0.15248867 
   74800    292.37215   -663.36514    149517.74   -47467.838    4015.0274   -51482.866   0.15540192 
   75000    296.92533   -444.56856    149280.23   -47432.359    4077.5544   -51509.914   0.15174965 
   75200    299.01596   -360.68947    149074.62   -47421.141    4106.2641   -51527.406   0.14996993 
   75400     297.0346   -531.20319     149354.4   -47406.378    4079.0549   -51485.432    0.1481577 
   75600    294.97378   -692.01924    149516.98       -47383    4050.7545   -51433.754   0.15787611 
   75800    294.71711   -419.76149     149216.9    -47362.14    4047.2298   -51409.369   0.16158854 
   76000    299.26888   -365.37344    149128.79    -47349.04    4109.7374   -51458.777   0.15846306 
   76200    296.06679   -593.28507    149420.62   -47373.534    4065.7645   -51439.299   0.15627786 
   76400    299.16611   -590.78249    149465.31   -47342.387     4108.326   -51450.713   0.15520684 
   76600    300.44264   -384.75538    149175.39   -47331.139    4125.8562   -51456.995   0.15454806 
   76800      298.035   -399.45594    149182.24   -47330.558     4092.793   -51423.351   0.15461312 
   77000    296.47284    -590.5677    149438.23   -47330.363    4071.3405   -51401.703   0.15413243 
   77200    299.76713   -528.43295    149360.09   -47377.949    4116.5797   -51494.529   0.15045887 
   77400     295.9938   -381.58573     149092.4   -47369.707     4064.762   -51434.469   0.14886089 
   77600    294.73408   -439.69982    149202.64   -47385.181    4047.4628   -51432.643    0.1497766 
   77800    293.58769   -662.95515    149479.94   -47395.052      4031.72   -51426.772   0.15581735 
   78000    292.07376   -548.37453    149324.05   -47396.844    4010.9298   -51407.774   0.16379335 
   78200    294.82008   -324.96696    149022.54   -47392.048    4048.6438   -51440.692   0.15347063 
   78400    292.66585   -516.87139    149226.93   -47411.094    4019.0607   -51430.155   0.14940742 
   78600    294.71852   -668.40143    149485.79   -47426.479    4047.2491   -51473.729   0.15349729 
   78800    298.16401   -484.95078    149243.47   -47414.494    4094.5647   -51509.058   0.15504345 
   79000    298.63951   -306.49351     149036.7   -47398.486    4101.0945    -51499.58   0.14927969 
   79200    298.35407   -557.14652     149388.2   -47407.021    4097.1746   -51504.195   0.14973222 
   79400     294.1509    -690.6684    149549.65   -47356.984    4039.4543   -51396.438   0.15642113 
   79600     294.8908   -341.88019     149163.3   -47349.885     4049.615     -51399.5   0.14941335 
   79800    299.71792    -282.4634    149082.77   -47377.615    4115.9038   -51493.519   0.14587171 
   80000    298.55567   -693.10125     149533.3   -47346.668    4099.9432   -51446.611   0.16173917 
   80200    297.36258   -669.66126    149546.72   -47310.275     4083.559   -51393.834   0.16415036 
   80400     301.5428   -314.94357    149025.45   -47283.622    4140.9642   -51424.586   0.15406298 
   80600    299.11072   -313.92739    149091.26   -47304.157    4107.5654   -51411.722   0.14872588 
   80800    301.21238   -778.74585    149709.85   -47241.271    4136.4267   -51377.697   0.15888685 
   81000    297.19001   -679.64817     149495.3   -47296.432    4081.1891   -51377.621   0.15600457 
   81200    298.12055   -86.030404    148777.01   -47280.619    4093.9678   -51374.587   0.14702292 
   81400    301.82464   -415.11578    149159.13   -47256.189    4144.8346   -51401.023   0.15449131 
   81600    299.81752   -987.04648    149889.36   -47269.151    4117.2717   -51386.423   0.16643094 
   81800    299.69324   -503.19368    149335.66   -47277.971    4115.5649   -51393.536   0.15688783 
   82000    301.46019    -109.5868    148708.66   -47247.605    4139.8297   -51387.435   0.15947762 
   82200    298.29504   -581.79281    149361.02   -47290.519     4096.364   -51386.883    0.1634077 
   82400    298.44276   -907.57017     149831.2   -47286.117    4098.3926   -51384.509    0.1593128 
   82600    297.21236   -401.46358    149120.47   -47336.794     4081.496   -51418.291    0.1546134 
   82800    297.34384   -84.061409    148768.97   -47379.132    4083.3016   -51462.434   0.14639949 
   83000    299.96122    -643.4382    149491.68    -47359.71    4119.2451   -51478.955   0.15546092 
   83200    294.32656   -860.27195    149745.18   -47376.698    4041.8665   -51418.565   0.15574454 
   83400     293.3021   -353.48455    149043.68   -47403.178     4027.798   -51430.976   0.15242789 
   83600    300.99042   -171.44983    148921.34    -47421.41    4133.3785   -51554.788   0.15141499 
   83800    296.75905    -684.9558    149574.58   -47365.665    4075.2709   -51440.936   0.15903575 
   84000    298.66622   -716.73496    149612.58   -47395.055    4101.4613   -51496.516   0.15015507 
   84200    295.80967   -303.58598    149034.55   -47387.398    4062.2334   -51449.632   0.15232087 
   84400    296.15082   -309.29683    149079.09   -47392.449    4066.9184   -51459.367   0.15053565 
   84600    299.33879   -731.81974    149611.73    -47386.35    4110.6975   -51497.048   0.15396795 
   84800    291.14064   -623.83917    149487.15   -47396.264    3998.1156    -51394.38   0.15202522 
   85000    298.71094   -251.97426    149018.06   -47363.346    4102.0755   -51465.422   0.14436285 
   85200    298.43325   -433.00788    149224.07   -47331.718     4098.262    -51429.98    0.1518749 
   85400    301.23305   -713.65986    149627.24   -47314.772    4136.7105   -51451.483   0.15430362 
   85600    300.13807   -533.25924    149372.12   -47314.506    4121.6736   -51436.179   0.15569727 
   85800    295.97303   -297.99892    149003.52    -47331.36    4064.4768   -51395.837   0.15985274 
   86000    303.38397   -462.50879    149287.68   -47283.396    4166.2483   -51449.645   0.15582676 
   86200    299.40632   -723.12135    149597.27   -47290.628    4111.6248   -51402.253   0.15933089 
   86400    304.36392   -468.26951    149283.42    -47286.86    4179.7055   -51466.566   0.15327983 
   86600    300.89997    -274.6407    149051.25   -47287.469    4132.1364   -51419.605     0.154878 
   86800    299.40959   -594.35127    149437.97    -47316.19    4111.6697   -51427.859    0.1567913 
   87000    297.59218    -731.9509    149579.42   -47336.855     4086.712   -51423.567   0.15150913 
   87200     297.9807   -330.73825    149116.45   -47309.299    4092.0474   -51401.347   0.15046211 
   87400    298.98087   -331.62176    149050.41   -47272.789    4105.7823   -51378.571   0.15640126 
   87600    295.50343   -651.35145    149515.83   -47336.338     4058.028   -51394.366   0.16027591 
   87800    299.83887   -668.82699    149515.63   -47343.523    4117.5649   -51461.088   0.15557346 
   88000    296.53302   -285.86223     149008.3    -47296.41    4072.1669   -51368.577   0.15993599 
   88200    307.71119   -305.51761    149083.21    -47309.37    4225.6722   -51535.042   0.15292471 
   88400    301.61171   -705.92275    149568.15   -47289.922    4141.9106   -51431.833   0.15818776 
   88600    299.20496    -604.2901    149417.22   -47305.143    4108.8595   -51414.002   0.15578937 
   88800    300.90735   -275.30927    148983.92   -47298.167    4132.2378   -51430.405   0.15495603 
   89000    299.46781   -424.10092    149230.01   -47318.852    4112.4693   -51431.322   0.15462558 
   89200    302.80002   -735.83391    149626.42   -47287.682    4158.2291   -51445.911   0.15137604 
   89400    299.67135   -518.43801    149321.43   -47261.677    4115.2643   -51376.941   0.15875502 
   89600    298.37079   -243.10599    148974.07   -47286.475    4097.4044   -51383.879   0.16018676 
   89800    294.81262   -508.18751    149293.81   -47320.574    4048.5414   -51369.115   0.15867824 
   90000    298.59517    -692.9968    149571.54   -47335.548    4100.4856   -51436.034   0.15778609 
   90200    298.36344   -456.25919    149257.88    -47385.36    4097.3033   -51482.663   0.15203124 
   90400     296.4503   -327.13128    149057.53   -47407.882     4071.031   -51478.913   0.15212435 
   90600    297.29663   -522.21498    149389.72   -47397.502    4082.6533   -51480.156   0.14242926 
   90800    293.00473   -693.60747    149543.39   -47419.822    4023.7144   -51443.537   0.15326498 
   91000    295.30018    -397.4257    149147.38   -47423.356    4055.2369   -51478.593   0.15240249 
   91200    289.69574   -352.64798    149023.97   -47439.763    3978.2734   -51418.036   0.15232956 
   91400    296.30949   -631.10313    149421.74   -47427.014    4069.0973   -51496.111   0.15091869 
   91600    292.60555   -652.06575    149498.69   -47429.664    4018.2326   -51447.896   0.15585645 
   91800    292.68154   -384.57756    149106.71   -47407.861    4019.2761   -51427.137   0.15648956 
   92000    293.57326   -330.17381    149067.67   -47424.421    4031.5217   -51455.943   0.15212252 
   92200    289.32633   -639.57799    149440.29   -47444.755    3973.2004   -51417.955   0.15764387 
   92400     291.5924   -616.59445    149422.69   -47424.159    4004.3194   -51428.478   0.15712331 
   92600    295.75254   -372.92857    149099.29   -47484.845    4061.4489   -51546.294   0.14379444 
   92800     299.7063   -365.16265     149142.3   -47452.941    4115.7443   -51568.685   0.14000427 
   93000    299.23486   -650.04705     149424.2   -47376.402    4109.2702   -51485.672   0.15291899 
   93200    297.42748   -550.39511    149367.71   -47375.596    4084.4503   -51460.046   0.15955144 
   93400    296.60317   -378.98369    149136.65   -47378.898    4073.1303   -51452.029   0.15452478 
   93600     294.5982    -438.6823     149199.1   -47361.362    4045.5969   -51406.959    0.1509171 
   93800    296.04981   -603.45756    149403.47   -47349.384    4065.5312   -51414.915   0.15646594 
   94000    297.19862   -561.23448    149321.14   -47351.557    4081.3074   -51432.865   0.16052994 
   94200    294.11735   -405.21508    149128.89    -47436.51    4038.9935   -51475.503   0.15579069 
   94400    302.22243   -451.53935    149199.46   -47421.058    4150.2973   -51571.355    0.1520605 
   94600     295.2772   -613.79484    149395.94   -47416.347    4054.9212   -51471.269   0.15351304 
   94800    291.83665   -559.75137    149295.57   -47470.413    4007.6736   -51478.087   0.14665821 
   95000    292.87574   -321.43711     149070.8   -47476.961     4021.943   -51498.904   0.14351394 
   95200    294.51657   -465.15433    149190.08   -47482.581    4044.4758   -51527.057   0.14931552 
   95400     293.7055   -641.15626    149409.17    -47493.06    4033.3378   -51526.397   0.15447111 
   95600    295.46946   -518.64578     149256.1   -47455.706    4057.5616   -51513.268   0.15247624 
   95800    296.38275   -333.08887    149063.92   -47419.934    4070.1034   -51490.037   0.14843946 
   96000    301.84685   -481.65844    149249.13   -47411.281    4145.1395   -51556.421   0.15237738 
   96200    294.15317   -664.80098    149439.41   -47452.797    4039.4855   -51492.283   0.16225158 
   96400    293.28198    -487.9406    149224.03   -47447.104    4027.5217   -51474.626   0.15543793 
   96600    295.51069   -384.16552    149059.74   -47461.727    4058.1277   -51519.854   0.15109712 
   96800    287.61236    -591.4875     149307.6   -47512.787    3949.6632   -51462.451   0.15442392 
   97000    297.13511   -600.12614    149408.13   -47495.308    4080.4351   -51575.743   0.14567913 
   97200    295.82504   -422.34437    149148.23   -47482.602    4062.4446   -51545.047   0.14574538 
   97400    297.56767   -383.38363     149066.2   -47437.104    4086.3754    -51523.48   0.15484286 
   97600    296.37982   -596.83951    149396.67   -47407.458    4070.0631   -51477.521   0.16168008 
   97800    294.40977   -665.74233    149497.73   -47400.489    4043.0092   -51443.499   0.15623909 
   98000    295.55091   -394.79908    149111.47   -47373.414    4058.6801   -51432.094   0.15626789 
   98200    292.72863   -301.37397    149016.24   -47385.114    4019.9228   -51405.036    0.1600942 
   98400    296.22017   -656.92965    149457.27   -47311.539    4067.8707    -51379.41   0.16323175 
   98600    297.98476   -692.94923    149557.21   -47358.262    4092.1031   -51450.366   0.15330723 
   98800    295.75649   -338.75602    149048.53   -47323.592    4061.5032   -51385.095   0.15623544 
   99000    301.04682   -236.09524    149025.44   -47327.423    4134.1531   -51461.576   0.15268996 
   99200    297.45494   -757.73069    149613.38   -47388.564    4084.8274   -51473.391   0.15281415 
   99400    294.43963    -728.5891    149513.53   -47483.918    4043.4192   -51527.337   0.14841831 
   99600    289.90668   -173.55387    148800.75   -47512.048    3981.1702   -51493.218   0.15144468 
   99800    287.01384   -343.18364    149020.91   -47483.812     3941.444   -51425.256   0.16111575 
  100000    290.73488   -879.64055    149763.23   -47476.995    3992.5434   -51469.538   0.15995505 
  100200    291.71097   -600.90589    149403.54   -47436.614    4005.9477   -51442.562   0.15607355 
  100400    295.71354   -65.074698    148694.03   -47438.821    4060.9133   -51499.735   0.14900272 
  100600     292.4765   -401.79856    149192.96   -47385.529    4016.4604   -51401.989   0.15150734 
  100800    296.33516    -954.9431    149872.13   -47410.065    4069.4498   -51479.515   0.15639692 
  101000    296.28794   -455.76844    149264.74   -47396.956    4068.8014   -51465.757     0.150252 
  101200    291.70278   -58.136513    148760.61   -47377.228    4005.8352   -51383.063   0.14774564 
  101400    300.46334   -599.61661    149441.65   -47382.434    4126.1404   -51508.575   0.14707592 
  101600    300.35462   -824.34575    149786.39   -47394.523    4124.6474    -51519.17     0.146778 
  101800     291.9039   -358.34522    149106.32   -47365.375    4008.5971   -51373.972   0.15766256 
  102000    295.18203   -222.97809    148885.79   -47369.151    4053.6144   -51422.765   0.15809216 
  102200    296.09553   -661.01089    149480.37   -47357.734    4066.1591   -51423.893   0.16038008 
  102400    300.01461   -690.64567    149581.73   -47297.799    4119.9782   -51417.778   0.15705616 
  102600    298.09126   -329.83641    149104.23   -47313.335    4093.5656   -51406.901   0.15423087 
  102800    303.12259   -355.03767    149091.41   -47326.224    4162.6589   -51488.883   0.15668145 
  103000    302.97247   -667.68787     149505.6   -47317.461    4160.5972   -51478.058   0.15328874 
  103200    295.77544   -598.42378       149425   -47295.955    4061.7634   -51357.718   0.15747932 
  103400    297.85005   -301.19718    149035.11   -47328.584    4090.2532   -51418.837   0.15268967 
  103600    297.61186   -453.99306    149194.61   -47331.681    4086.9823   -51418.664   0.15627064 
  103800    296.11653   -663.93526    149557.85    -47333.96    4066.4474   -51400.408     0.157164 
  104000    298.84856   -542.55908    149335.82   -47344.596    4103.9653   -51448.561   0.15544015 
  104200    301.25894   -266.79142    149031.98   -47361.074    4137.0661   -51498.141    0.1543991 
  104400    296.02489   -514.52205    149276.86   -47376.892    4065.1891   -51442.081   0.15527805 
  104600    300.54044   -692.36746    149499.88   -47369.885    4127.1992   -51497.085   0.15282604 
  104800     297.0851   -404.75583    149181.28    -47360.87    4079.7484   -51440.618   0.14902487 
  105000    294.57032   -321.80408     149017.6   -47392.233     4045.214   -51437.447   0.14949907 
  105200    292.01138   -626.68657     149359.7    -47391.39    4010.0731   -51401.463   0.15463806 
  105400    297.99902   -652.00727    149451.17   -47381.966    4092.2989   -51474.265   0.15031719 
  105600    302.99103    -346.4145    149108.61   -47382.491    4160.8521   -51543.343    0.1542673 
  105800    297.34794   -356.93025    149100.01   -47398.377    4083.3579   -51481.735   0.15558629 
  106000    293.43229   -622.96847    149431.66   -47374.983    4029.5859   -51404.569   0.15563688 
  106200    300.22192   -607.79175    149366.84    -47352.56    4122.8252   -51475.385   0.15740278 
  106400     295.1461   -317.60672    149028.53   -47366.196     4053.121   -51419.317   0.16183237 
  106600    292.86073   -431.26467    149165.17   -47367.772    4021.7368   -51389.509   0.15860295 
  106800    294.20781   -688.54879    149503.36   -47358.207    4040.2358   -51398.443    0.1574924 
  107000     299.1905   -512.58705    149329.49   -47315.844     4108.661   -51424.505   0.15313059 
  107200    302.80566   -291.94067    149048.21   -47306.467    4158.3065   -51464.774   0.15107566 
  107400    296.42133   -538.05107    149285.64   -47311.476    4070.6331   -51382.109   0.15464561 
  107600    297.28202    -687.6885    149524.09   -47286.011    4082.4527   -51368.464   0.16133467 
  107800    307.27527   -452.12269    149246.86   -47311.851    4219.6859   -51531.537   0.15893573 
  108000    298.31986   -313.91703    149023.84   -47287.348    4096.7049   -51384.053   0.15884309 
  108200    296.52302   -569.23029    149320.19   -47320.775    4072.0296   -51392.805   0.15703366 
  108400    292.14251   -693.68805    149532.31   -47314.884    4011.8739   -51326.758   0.16331867 
  108600    302.99831   -454.36062    149213.81    -47289.36    4160.9521   -51450.312    0.1615848 
  108800    293.61248   -347.46197    149025.74   -47313.072    4032.0604   -51345.132   0.15742484 
  109000    297.93182   -605.08443    149358.55   -47349.605    4091.3761   -51440.982   0.15513902 
  109200    297.47817   -661.18031    149463.53   -47349.791    4085.1463   -51434.938   0.15400289 
  109400    298.59867   -367.79949    149067.26    -47337.35    4100.5336   -51437.883   0.15065757 
  109600    296.25243   -304.82257    149009.54   -47297.168    4068.3137   -51365.482   0.15523753 
  109800    291.57074   -667.20867    149469.89   -47346.388     4004.022    -51350.41   0.16227685 
  110000    299.69047   -651.55073    149480.48   -47283.574    4115.5269   -51399.101   0.16219813 
  110200    302.27676   -291.48385    149012.99   -47274.719    4151.0434   -51425.763   0.15703081 
  110400    298.00538   -382.52853    149105.44   -47327.216    4092.3863   -51419.603   0.15841779 
  110600    299.56539   -799.18916    149617.98   -47397.497    4113.8092   -51511.307     0.160584 
  110800    296.78293    -571.2474    149391.77   -47395.001    4075.5989     -51470.6   0.14981406 
  111000    298.98672    -189.0751    148871.03   -47401.101    4105.8626   -51506.964   0.14554096 
  111200     300.1376   -443.66674    149249.35   -47387.519    4121.6672   -51509.186   0.14732747 
  111400    294.83359   -840.37454    149767.09    -47436.34    4048.8294    -51485.17   0.15284598 
  111600    298.53617   -454.51267     149213.1   -47496.267    4099.6754   -51595.943   0.14427506 
  111800    289.09346   -75.676176    148669.32   -47530.251    3970.0025   -51500.253   0.14988925 
  112000    290.59541   -588.18074    149331.59   -47519.548    3990.6281   -51510.176   0.15611082 
  112200    291.45256    -909.2586    149841.53   -47469.491    4002.3991    -51471.89   0.16043109 
  112400    291.46131   -399.45646    149081.69    -47443.29    4002.5193   -51445.809   0.15843163 
  112600    301.07605    -21.42934    148642.82   -47420.104    4134.5545   -51554.658   0.14798428 
  112800    297.32484    -685.6038    149521.26   -47432.484    4083.0407   -51515.525   0.15248328 
  113000    290.28568   -916.83996    149865.38   -47403.885    3986.3748   -51390.259   0.15675994 
  113200    294.62178   -244.47397    148950.05    -47448.66    4045.9207   -51494.581    0.1446049 
  113400    297.24687   -59.340208    148705.35   -47430.232      4081.97   -51512.202   0.14674243 
  113600    289.04641   -750.94077    149530.81   -47429.277    3969.3563   -51398.633   0.15828149 
  113800     295.6554   -823.18629    149641.89   -47410.437     4060.115   -51470.552   0.15645523 
  114000    293.68415   -272.02967    148971.51   -47400.106    4033.0446   -51433.151   0.15228374 
  114200    294.46756   -334.83832    148969.31   -47414.238    4043.8028    -51458.04   0.16314774 
  114400    292.95607   -649.98594    149469.09   -47350.112    4023.0462   -51373.158   0.16157059 
  114600    292.33436   -655.38889    149438.33   -47322.177    4014.5085   -51336.685   0.15653665 
  114800    297.22786   -370.48599    149071.97     -47311.5    4081.7089   -51393.209   0.15335397 
  115000    295.14914   -437.41455    149153.19   -47341.251    4053.1627   -51394.413   0.15753818 
  115200    303.57771   -598.26265    149424.96    -47355.05    4168.9087   -51523.959   0.14778491 
  115400    297.82887   -538.64976    149299.28   -47367.061    4089.9624   -51457.023   0.15075689 
  115600    299.68043    -357.7412    149068.18   -47351.463     4115.389   -51466.852   0.15703253 
  115800    297.82402   -513.09349    149230.13   -47367.871    4089.8957   -51457.767   0.15816356 
  116000    296.94707   -605.18927    149435.79   -47350.419    4077.8529   -51428.272   0.15535519 
  116200    294.72278   -534.02883    149265.33   -47370.223    4047.3077    -51417.53    0.1624643 
  116400    294.70336   -320.70522    149099.98   -47414.141    4047.0409   -51461.182   0.15674137 
  116600    295.40402   -530.33245    149314.01   -47426.885    4056.6628   -51483.548   0.14871675 
  116800    295.78583   -614.90723    149447.11   -47379.314     4061.906    -51441.22   0.14939059 
  117000    298.11857   -433.36169     149247.1   -47388.844    4093.9407   -51482.785   0.14947055 
  117200    296.18262   -402.75635    149140.93   -47379.943     4067.355   -51447.298   0.15466119 
  117400    294.01672   -550.10167    149322.01    -47405.55    4037.6116   -51443.162   0.14939333 
  117600    296.83545    -630.7156    149385.74   -47383.841      4076.32   -51460.161    0.1557847 
  117800    301.05713   -447.36025    149181.51   -47346.062    4134.2947   -51480.357   0.16055901 
  118000    296.26679   -424.89087    149169.07   -47337.381    4068.5109   -51405.892   0.15419842 
  118200    295.71649   -605.31267    149391.87   -47370.538    4060.9539   -51431.492   0.15462907 
  118400    292.38493   -569.87447    149354.59   -47421.499    4015.2029   -51436.702   0.15588738 
  118600    294.22054   -395.70746    149118.14   -47452.412    4040.4105   -51492.822   0.15274593 
  118800     289.6841   -477.25995    149196.45   -47502.605    3978.1135   -51480.719   0.15075456 
  119000    291.30342   -602.39165    149411.56   -47499.812     4000.351   -51500.163   0.14866862 
  119200    293.67191    -509.8556    149291.71   -47502.443    4032.8765    -51535.32   0.14778157 
  119400    292.96166   -327.68772    149082.02   -47530.131     4023.123   -51553.254   0.14293921 
  119600     289.8013   -505.04003    149229.51   -47467.413     3979.723   -51447.136   0.15108172 
  119800    292.70934   -615.70004    149442.09   -47462.057     4019.658   -51481.715    0.1547325 
  120000      293.234   -506.78205    149271.42   -47482.469    4026.8629   -51509.332   0.15092241 
  120200    296.47965   -361.40165    149074.38   -47457.837    4071.4341   -51529.271   0.14992376 
  120400     291.1005   -526.39547     149279.1    -47502.98    3997.5643   -51500.545    0.1504004 
  120600    290.71562   -652.82574    149450.93   -47494.463     3992.279   -51486.742   0.15179316 
  120800    295.90949   -429.52036    149190.93   -47487.973    4063.6043   -51551.577   0.15158609 
  121000    291.84636   -331.84535    149055.17   -47473.313     4007.807    -51481.12    0.1438378 
  121200    288.04265   -562.44348    149393.62    -47468.41    3955.5721   -51423.982   0.14465808 
  121400    291.44975   -661.88363    149500.28   -47465.653    4002.3605   -51468.014   0.14800246 
  121600    295.29784   -384.59134    149078.02   -47460.448    4055.2047   -51515.653   0.14994623 
  121800    290.30752   -332.58629    149030.28   -47458.311    3986.6746   -51444.986   0.14999212 
  122000    293.57773   -684.47652    149514.24    -47431.72    4031.5832   -51463.303   0.15163451 
  122200    298.66391   -651.06016    149477.35   -47399.196    4101.4296   -51500.625   0.15617652 
  122400    293.47045   -305.23235     149007.1   -47355.396    4030.1099   -51385.506   0.15371917 
  122600    301.60188   -389.59539    149159.53   -47275.159    4141.7756   -51416.935   0.15027836 
  122800    299.39693   -790.43519    149683.11   -47270.662    4111.4958   -51382.157   0.15941271 
  123000    298.65274    -609.9682    149465.05   -47320.459    4101.2762   -51421.736   0.15818435 
  123200    295.70675   -159.25567    148929.71   -47346.822    4060.8201   -51407.642   0.14347518 
  123400      298.425   -426.38655     149211.4    -47431.06    4098.1487   -51529.209    0.1433731 
  123600    296.90533   -774.11499    149659.49   -47373.542    4077.2797   -51450.822   0.16063222 
  123800     295.3754   -502.45569     149317.7   -47398.599    4056.2698   -51454.869   0.15049648 
  124000    299.93231   -221.02517     148955.6   -47383.737     4118.848   -51502.585   0.14619846 
  124200     295.6018   -548.11757    149324.07   -47365.559    4059.3789   -51424.938   0.15474885 
  124400    296.08288    -781.1207    149639.38   -47376.778    4065.9853   -51442.763   0.15906984 
  124600    295.76903   -471.56276    149190.44   -47397.724    4061.6754   -51459.399   0.15177991 
  124800     298.8987   -184.42256    148907.79   -47403.893    4104.6539   -51508.547   0.14461447 
  125000    297.17305   -608.86048    149410.62   -47411.305    4080.9562   -51492.261   0.15324289 
  125200    301.67197   -742.02498    149629.73   -47399.234    4142.7381   -51541.972   0.14847289 
  125400    295.51291   -366.55902    149092.29   -47472.061    4058.1582   -51530.219   0.14420479 
  125600    294.56166    -248.8303    148934.91   -47467.681     4045.095   -51512.776   0.14462462 
  125800    298.23566   -653.51285    149506.72    -47455.55    4095.5485   -51551.098   0.14960009 
  126000    294.92674   -712.55599    149605.62   -47419.923    4050.1086   -51470.032   0.14827757 
  126200     295.6811   -284.58806    149032.37   -47404.905    4060.4679   -51465.373   0.14838113 
  126400    288.18828   -340.90271    149023.95   -47434.732     3957.572   -51392.304   0.15626422 
  126600    292.38699    -740.9535    149571.83   -47456.992    4015.2313   -51472.223   0.15732155 
  126800    293.44655   -642.39956    149501.15   -47428.018    4029.7817     -51457.8   0.15125104 
  127000    294.74289   -278.34033    148989.53   -47449.136    4047.5838   -51496.719   0.13992286 
  127200    290.11629   -409.98147    149119.29     -47483.4    3984.0487   -51467.449   0.14802319 
  127400    296.80861   -704.30728    149549.54   -47479.305    4075.9515   -51555.256   0.14922909 
  127600    290.28912   -568.56933    149368.91   -47474.207     3986.422   -51460.629   0.14567079 
  127800    294.03665   -254.69765    149016.08   -47465.261    4037.8853   -51503.146   0.14318793 
  128000    298.82871   -458.94729     149269.9   -47463.067    4103.6927    -51566.76   0.14820049 
  128200    297.04307    -681.8775    149563.61   -47425.394    4079.1713   -51504.566   0.15229982 
  128400    295.69305   -495.77874    149298.38   -47454.184     4060.632   -51514.816   0.14698824 
  128600    291.41694   -340.16752    149061.59   -47488.386      4001.91   -51490.296   0.15007497 
  128800      289.862   -520.96834    149304.16   -47524.473    3980.5565    -51505.03   0.14862038 
  129000    293.43169   -632.44741    149424.61   -47557.592    4029.5776    -51587.17   0.14334109 
  129200    294.74588   -406.63874    149203.14   -47515.366    4047.6249   -51562.991   0.13548869 
  129400    294.74532   -406.26156    149172.33   -47516.146    4047.6171   -51563.763   0.14333338 
  129600    290.78153   -535.12125    149380.89   -47514.316    3993.1841     -51507.5     0.145995 
  129800    290.14987   -567.22985    149387.05   -47525.654    3984.5097   -51510.164   0.14312271 
  130000    291.41819   -463.85931    149216.95   -47537.218    4001.9271   -51539.146   0.14979335 
  130200    288.36615   -456.15211    149225.01   -47555.673    3960.0147   -51515.688    0.1520078 
  130400    287.50642   -561.94423    149356.86   -47537.924    3948.2083   -51486.133   0.15218378 
  130600    295.61645   -561.08015    149347.18   -47493.901      4059.58   -51553.481   0.14550487 
  130800    296.37905   -452.59937    149216.02   -47516.073    4070.0525   -51586.126   0.14623757 
  131000    292.29471    -462.1009    149220.62   -47535.918     4013.964   -51549.882     0.146976 
  131200    293.48058   -560.02261    149337.42   -47507.758     4030.249   -51538.007   0.14590195 
  131400    287.94398   -537.07704    149309.12   -47508.609    3954.2172   -51462.826   0.14497431 
  131600    291.35196   -457.20516    149182.93   -47502.957    4001.0176   -51503.974   0.14727569 
  131800    290.20965   -468.11374    149227.37   -47474.131    3985.3307   -51459.462   0.15178134 
  132000    296.13982   -520.31804    149335.55   -47416.533    4066.7673   -51483.301   0.14900107 
  132200    294.59396   -557.37473    149312.38   -47424.438    4045.5387   -51469.977   0.15647726 
  132400    296.83953   -457.76692    149233.73   -47427.785    4076.3761   -51504.162   0.14897901 
  132600    298.29977   -482.86735    149253.94   -47404.528    4096.4289   -51500.957   0.15247432 
  132800    297.66872   -539.66744     149335.6   -47372.754     4087.763   -51460.517   0.14815345 
  133000    295.62114   -533.37804    149310.11   -47366.251    4059.6445   -51425.896   0.15007311 
  133200    297.78612   -445.58306    149235.84   -47313.603    4089.3752   -51402.978   0.15388885 
  133400    302.59368   -496.74082    149299.73   -47300.245    4155.3955    -51455.64   0.14729519 
  133600    301.47863   -520.17384    149391.89     -47311.6     4140.083   -51451.683   0.14690051 
  133800    295.97003   -515.21726    149307.81   -47332.439    4064.4356   -51396.875   0.15197945 
  134000    296.43458   -406.18066    149215.14   -47282.309     4070.815   -51353.124   0.15982167 
  134200    301.06767   -508.13991    149340.69   -47296.387    4134.4394   -51430.826   0.15256837 
  134400     298.7373   -576.27425    149416.27   -47293.818    4102.4374   -51396.255   0.15051403 
  134600    299.56945   -475.55429    149288.49   -47311.488     4113.865   -51425.353   0.15360841 
  134800    296.69674    -442.6032    149236.82   -47356.059    4074.4152   -51430.474   0.14829131 
  135000    294.10482   -523.80604    149390.93   -47410.501    4038.8214   -51449.322   0.14269943 
  135200    297.48357   -556.17511    149400.06    -47421.52    4085.2204    -51506.74   0.14684649 
  135400    293.88065   -464.87004    149224.24   -47444.251     4035.743   -51479.994   0.15297297 
  135600    299.51921   -410.22944    149232.11    -47407.66    4113.1751   -51520.835   0.14258063 
  135800    296.81528   -591.97435    149470.43   -47479.561    4076.0431   -51555.604   0.14585159 
  136000    291.48606   -551.88243    149417.65   -47511.753    4002.8591   -51514.612   0.15104777 
  136200    290.53179   -321.89504    149095.06   -47526.019    3989.7545   -51515.773   0.14658632 
  136400    289.37835   -457.61253    149214.61   -47478.438    3973.9148   -51452.353   0.14194442 
  136600    296.17643    -668.0771    149572.47   -47417.508      4067.27   -51484.778   0.14509756 
  136800    293.63413   -553.34944    149349.48   -47429.475    4032.3577   -51461.833   0.15471495 
  137000    292.20742    -250.2022    148956.41   -47437.447    4012.7652   -51450.213   0.15042416 
  137200    291.20767   -486.77674    149263.58   -47468.845    3999.0361   -51467.881   0.14847185 
  137400    293.57134     -752.587    149640.48   -47420.416    4031.4954   -51451.912   0.15348761 
  137600    297.00035   -516.71801    149273.07   -47416.058    4078.5847   -51494.643   0.15625878 
  137800    295.92389   -255.10315    148943.73   -47391.078     4063.802    -51454.88   0.14908017 
  138000    290.85326   -529.11312    149363.11   -47385.474    3994.1691   -51379.643   0.14822164 
  138200    294.83637   -769.30432    149612.71   -47434.744    4048.8675   -51483.611   0.15282028 
  138400     289.5543   -369.06338    149098.03     -47422.4    3976.3311   -51398.731   0.15458148 
  138600    295.92267   -231.90869    148926.66   -47438.439    4063.7853   -51502.225   0.14832469 
  138800    299.82071   -644.55174    149486.41   -47384.288    4117.3155   -51501.603   0.15054779 
  139000    297.97861   -715.10596    149601.89   -47369.524    4092.0186   -51461.543   0.15774946 
  139200    298.34394   -312.62439    149037.41   -47374.286    4097.0355   -51471.321   0.15450797 
  139400    294.40607   -291.88175    149015.91   -47402.855    4042.9584   -51445.814    0.1541719 
  139600    292.63965   -700.71182    149555.49    -47379.83    4018.7009   -51398.531   0.15956738 
  139800    299.58578   -684.37269     149517.9   -47339.793    4114.0893   -51453.882   0.15919278 
  140000    303.82814   -277.99706    149005.34    -47308.97    4172.3479   -51481.318   0.14851261 
  140200    301.31663   -346.83907    149110.04   -47352.273    4137.8583   -51490.131   0.14405661 
  140400    297.07261   -758.91461    149610.82   -47373.435    4079.5769   -51453.012   0.15855736 
  140600    302.65918   -533.01088    149424.14   -47374.519     4156.295   -51530.814   0.15270413 
  140800    299.14341   -285.26068    148963.45   -47371.183    4108.0143   -51479.197   0.15080367 
  141000    295.75814   -439.10356     149208.1   -47408.248    4061.5258   -51469.774    0.1532547 
  141200    297.82954    -782.0016    149622.27    -47353.91    4089.9715   -51443.882   0.16109037 
  141400    299.27709   -544.21688    149321.35   -47361.616    4109.8502   -51471.466   0.15757752 
  141600    296.53226   -230.01809    148980.35   -47346.306    4072.1565   -51418.462   0.14847794 
  141800    297.79869   -550.87388    149335.15   -47400.266    4089.5479   -51489.814   0.15346699 
  142000    295.11601   -741.96139       149599   -47413.693    4052.7077   -51466.401   0.15211527 
  142200    293.29954   -474.63708    149203.92   -47413.154    4027.7629   -51440.917   0.15066283 
  142400     296.3028   -300.82463    148992.32   -47418.262    4069.0055   -51487.267   0.14841669 
  142600     295.9074   -568.64598    149374.17   -47406.193    4063.5755   -51469.769    0.1586113 
  142800    296.00551   -672.82713    149551.25   -47408.236    4064.9229   -51473.159    0.1572846 
  143000    295.57931   -415.07737       149155   -47475.089      4059.07   -51534.159    0.1475114 
  143200    294.03416   -305.26687    149001.99    -47443.72    4037.8511   -51481.571    0.1537272 
  143400    292.38224    -625.2247    149415.95   -47403.221    4015.1659   -51418.386   0.15888617 
  143600    296.97011   -661.94752    149506.79    -47391.74    4078.1693   -51469.909   0.15571256 
  143800    298.98387     -343.118    149100.43   -47406.975    4105.8235   -51512.798   0.14582045 
  144000    299.08786     -320.539    149092.59   -47395.721    4107.2515   -51502.972    0.1482939 
  144200    298.85865   -694.92881    149498.37   -47364.867    4104.1039   -51468.971   0.15936517 
  144400    299.23687    -648.3663    149471.53   -47367.882    4109.2978    -51477.18   0.15479635 
  144600    298.26254   -363.88729    149081.12   -47343.152    4095.9178    -51439.07    0.1555081 
  144800    300.27401    -332.4039    149183.11    -47313.02    4123.5404    -51436.56   0.15640812 
  145000    299.01443   -720.39602    149595.88   -47354.932    4106.2431   -51461.176    0.1586495 
  145200    287.81139   -580.23383    149397.85    -47385.65    3952.3963   -51338.047   0.15409991 
  145400    297.55157   -293.78682     149025.9   -47394.646    4086.1543     -51480.8   0.15057565 
  145600     289.4879   -496.83318    149247.37   -47411.685    3975.4193   -51387.104    0.1550727 
  145800    294.49714   -676.23195    149503.64   -47425.773     4044.209   -51469.982   0.15388935 
  146000     299.5993   -491.98279    149282.54   -47414.556    4114.2749   -51528.831   0.14710334 
  146200    296.54592   -340.64931    149068.85   -47447.713    4072.3441   -51520.057   0.15094464 
  146400    294.75306   -492.94829    149284.36   -47397.612    4047.7235   -51445.336   0.16132952 
  146600    295.81866   -663.57929    149474.01   -47358.938    4062.3569   -51421.295   0.15569822 
  146800    295.54506   -502.41075    149292.49   -47315.093    4058.5997   -51373.693    0.1588616 
  147000    296.15932   -400.60667    149183.77   -47330.454    4067.0351   -51397.489    0.1606786 
  147200    300.09598   -531.57965    149383.47   -47296.889    4121.0956   -51417.984   0.15893107 
  147400    298.86576   -615.82843    149451.17   -47362.924    4104.2016   -51467.126   0.15014149 
  147600    296.11963   -436.17912     149226.1   -47376.673      4066.49   -51443.163   0.14679284 
  147800    294.83594   -410.65369    149172.35   -47420.689    4048.8617   -51469.551   0.15445105 
  148000    293.85617   -504.16268    149365.67     -47383.8    4035.4069   -51419.207   0.15382284 
  148200    295.72611   -576.67886    149432.95   -47426.349     4061.086   -51487.435   0.15251823 
  148400    295.94036   -419.21714    149245.93   -47478.993    4064.0282   -51543.022   0.15809663 
  148600       295.92   -414.68276    149213.86   -47447.686    4063.7487   -51511.434   0.16034297 
  148800    292.13177   -566.18334    149391.03   -47449.999    4011.7264   -51461.726   0.14898663 
  149000    294.85502   -514.65225    149376.77   -47457.002    4049.1237   -51506.125    0.1496496 
  149200    292.25071    -401.1221    149218.99   -47464.058    4013.3597   -51477.417   0.15520254 
  149400     294.4967   -457.37914    149257.23   -47486.917     4044.203    -51531.12   0.14903659 
  149600    290.68107    -563.8127    149375.54   -47485.147    3991.8045   -51476.952   0.14581468 
  149800    292.21911   -497.60614    149326.67   -47471.314    4012.9258    -51484.24   0.14919079 
  150000    291.56066   -459.68209    149224.43   -47431.079    4003.8835   -51434.963   0.15902408 
  150200     302.3681   -474.43054    149292.18   -47375.161    4152.2977   -51527.459   0.15020294 
  150400    296.58272   -569.03756    149401.03   -47344.031    4072.8495   -51416.881   0.15981558 
  150600    295.88937   -467.36877    149291.25   -47397.173     4063.328   -51460.501   0.15608241 
  150800    295.53726   -442.95943    149187.62   -47360.153    4058.4926   -51418.646   0.15795059 
  151000    298.29217   -513.66915    149313.45   -47400.596    4096.3246   -51496.921    0.1513751 
  151200    291.57345   -552.61473    149387.25   -47385.419    4004.0592   -51389.478   0.15341808 
  151400    300.80042   -408.77656    149266.77   -47298.328    4130.7694   -51429.097   0.15279118 
  151600    297.29316   -460.48887    149277.13   -47284.571    4082.6056   -51367.177   0.15293133 
  151800    300.25108    -566.1256    149413.71   -47296.653    4123.2255   -51419.879    0.1558698 
  152000    296.52321   -568.51357    149380.52   -47297.667    4072.0322     -51369.7   0.15710644 
  152200     299.9776    -411.0024    149220.84   -47319.959      4119.47   -51439.429   0.15906709 
  152400    298.49112   -494.90843    149279.08   -47370.008    4099.0567   -51469.065   0.15651142 
  152600    300.10789   -606.54806    149409.89   -47337.031    4121.2592    -51458.29   0.15511325 
  152800     299.8283   -526.61267    149314.15   -47268.283    4117.4197   -51385.703   0.16189403 
  153000    298.31297   -424.16938    149203.58   -47339.501    4096.6102   -51436.111   0.15668341 
  153200    295.71085      -512.29    149326.35   -47278.206    4060.8765   -51339.082   0.15775473 
  153400     296.5308   -629.45117    149456.13   -47331.597    4072.1364   -51403.733   0.15346799 
  153600    296.16217   -492.18831    149254.22   -47361.324    4067.0742   -51428.399   0.16117796 
  153800    299.06104    -327.7133    149108.02   -47392.484    4106.8832   -51499.367   0.15221405 
  154000    296.46047   -562.54653    149389.76   -47405.139    4071.1707    -51476.31   0.14812465 
  154200    299.94165    -644.5967    149492.84   -47348.543    4118.9763   -51467.519   0.15493778 
  154400    302.95786   -372.55546    149169.15   -47345.327    4160.3966   -51505.724   0.15379313 
  154600    295.23618   -348.69242    149129.39   -47367.591     4054.358   -51421.949   0.15568329 
  154800     293.5054    -646.4305    149493.78   -47380.726    4030.5899   -51411.316   0.15189013 
  155000     298.9704   -611.11355    149455.78   -47368.934    4105.6385   -51474.573   0.16071898 
[...]
  163200    296.02713   -544.85345    149288.73   -47440.577    4065.2198   -51505.797   0.15931614 
  163400    292.43896   -522.86574    149301.85   -47474.363    4015.9449   -51490.308   0.15262681 
  163600    294.32796    -459.1926    149224.16   -47423.011    4041.8858   -51464.897   0.15368627 
  163800    291.25001    -570.9457    149256.99   -47484.832    3999.6175   -51484.449   0.15663667 
  164000    294.81283   -486.05111    149314.76    -47501.53    4048.5443   -51550.075   0.14871521 
  164200    292.17615   -511.00463    149262.71   -47498.075    4012.3358   -51510.411   0.14685528 
  164400    293.04026   -422.75519    149215.13   -47439.733    4024.2023   -51463.935   0.14929643 
  164600    296.05349   -525.56124    149314.81   -47418.366    4065.5818   -51483.947   0.15875038 
  164800    289.91681   -584.56314    149345.88   -47456.029    3981.3092   -51437.338   0.15423138 
  165000     293.6647     -469.298    149198.47   -47432.241    4032.7775   -51465.018   0.15136894 
  165200    293.01429   -466.73318    149210.59   -47427.899    4023.8457   -51451.745   0.15554796 
  165400    291.63758   -587.47218    149363.73   -47455.566    4004.9398   -51460.506   0.15906618 
  165600     291.9453   -541.41485    149269.34    -47393.98    4009.1657   -51403.146   0.16148643 
  165800    295.28089   -376.59428    149119.15   -47420.373    4054.9719   -51475.345   0.15256465 
  166000    295.93436   -552.79925    149266.33   -47378.161    4063.9458   -51442.106   0.15756778 
  166200    292.00704   -619.58563    149420.41   -47407.143    4010.0136   -51417.157   0.15245614 
  166400    297.66383   -461.75641    149255.84   -47404.263     4087.696   -51491.959    0.1496526 
  166600    292.79786   -416.33635    149145.03   -47400.376    4020.8736   -51421.249   0.15584817 
  166800    288.96134   -562.88022    149323.84   -47459.414    3968.1882   -51427.602   0.15800048 
  167000    291.49429   -564.64454     149360.7   -47460.089    4002.9721   -51463.061   0.15446899 
  167200    295.08137   -378.28643    149183.09   -47408.929     4052.232   -51461.161   0.15065327 
  167400    294.61852   -416.46206    149210.65   -47455.782    4045.8759   -51501.658    0.1553664 
  167600    295.03705   -595.19404    149418.88   -47436.377    4051.6234   -51488.001   0.15457875 
  167800    295.61841   -559.81998    149359.18   -47506.987    4059.6069   -51566.594   0.15126864 
  168000    293.12718   -379.71027    149104.68   -47497.489    4025.3959   -51522.885   0.15076866 
  168200     291.5415   -431.12953    149160.38   -47493.459    4003.6205   -51497.079   0.15284571 
  168400     294.2138    -611.4284    149424.48   -47446.759     4040.318   -51487.077   0.15715862 
  168600    292.43046    -547.5313    149345.61   -47459.246    4015.8281   -51475.075   0.15115387 
  168800    290.56163   -351.24769    149093.57   -47501.642    3990.1643   -51491.806   0.15135686 
  169000    287.99706   -485.25186    149221.31    -47486.42    3954.9461   -51441.366   0.15907454 
  169200    294.79188   -669.04196    149477.96   -47453.499    4048.2567   -51501.755   0.15663261 
  169400    297.33754   -510.16705    149303.86    -47482.11     4083.215   -51565.325   0.15035911 
  169600    295.70028   -383.67197    149037.99   -47493.651    4060.7313   -51554.382   0.15674358 
  169800    290.50475   -486.84553    149211.69   -47497.789    3989.3832   -51487.172   0.15908817 
  170000     293.7269   -668.26463    149439.18   -47536.039    4033.6316   -51569.671    0.1525835 
  170200    290.74254   -474.00053    149209.96   -47546.826    3992.6487   -51539.475   0.14853241 
  170400    290.84007   -345.05368    148997.02   -47517.745     3993.988   -51511.733   0.15403203 
  170600    292.32127   -490.30665    149269.88   -47497.924    4014.3287   -51512.252   0.15094242 
  170800    291.44008   -722.38451    149529.27   -47519.707    4002.2277   -51521.935   0.15056484 
  171000     289.3958   -467.36448    149201.19   -47520.744    3974.1544   -51494.899   0.15582952 
  171200    292.03486   -290.07547    148970.32   -47550.678    4010.3956   -51561.073   0.15450958 
  171400    290.45452   -583.52593    149386.32   -47543.785    3988.6934   -51532.478   0.15130275 
  171600    291.15703   -728.63111    149564.23   -47504.201    3998.3407   -51502.542   0.15340245 
  171800    297.60823   -393.89165    149084.45   -47485.996    4086.9324   -51572.928   0.15407887 
  172000    290.25185   -254.98945    148927.72   -47492.235    3985.9102   -51478.145   0.15516874 
  172200    291.43383    -626.0194    149433.16   -47495.876    4002.1418   -51498.018   0.15283886 
  172400    296.80344   -698.29307    149533.72   -47462.241    4075.8806   -51538.122   0.15286122 
  172600    295.86407   -340.17141    149013.76   -47450.014    4062.9805   -51512.995   0.15361746 
  172800    295.34579   -290.61532    149018.07   -47458.463    4055.8632   -51514.326    0.1481989 
  173000    296.25212   -709.04232    149568.05   -47473.272    4068.3094   -51541.581   0.15223703 
  173200    291.22629   -697.96287    149468.94   -47511.263    3999.2919   -51510.555   0.15737144 
  173400    293.75353   -233.37705    148881.34   -47500.714    4033.9973   -51534.711   0.15136844 
  173600    294.65073   -362.42368    149065.47   -47450.875    4046.3182   -51497.193   0.15119781 
  173800    296.10588   -846.22422    149669.52   -47446.123    4066.3013   -51512.425    0.1556055 
  174000    292.94858   -539.06757     149395.9   -47409.283    4022.9433   -51432.227   0.15745203 
  174200    298.82242   -212.45763    148854.66   -47407.564    4103.6063    -51511.17    0.1596107 
  174400    295.08358   -499.98538    149174.08   -47388.818    4052.2624    -51441.08   0.15776491 
  174600    290.24771   -835.19035    149625.52   -47395.743    3985.8533   -51381.596   0.15764298 
  174800     297.1874   -495.71964    149254.55    -47361.23    4081.1532   -51442.383   0.15298139 
  175000    298.03982   -218.56902    148872.84   -47412.602    4092.8592   -51505.461   0.15343851 
  175200    293.92818   -527.13149    149273.79   -47407.023    4036.3958   -51443.419   0.15513707 
  175400     292.6412    -771.0212    149587.44   -47413.309    4018.7222   -51432.031   0.16099193 
  175600    297.56838   -480.20271    149145.34   -47428.117    4086.3851   -51514.502   0.15743263 
  175800    294.71975   -249.27568    148872.56   -47413.582     4047.266   -51460.848   0.15333496 
  176000      297.798   -607.90951    149312.76   -47398.155    4089.5384   -51487.694   0.15647251 
  176200      298.038   -686.68143    149514.56   -47342.941    4092.8343   -51435.775    0.1619606 
  176400    296.24241   -396.56082    149108.72   -47385.151    4068.1761   -51453.327   0.15895875 
  176600    291.52017   -309.74202    149004.58   -47365.844    4003.3275   -51369.171   0.15687052 
  176800    292.85053   -639.40912    149440.97   -47370.899    4021.5968   -51392.496   0.15677816 
  177000    297.76126   -665.12931    149495.84   -47386.844    4089.0339   -51475.878   0.15786712 
  177200    299.43349   -320.40393    149106.91    -47403.36    4111.9979   -51515.358   0.15176933 
  177400    294.47329   -363.61071    149078.72   -47496.122    4043.8815   -51540.004   0.15148167 
  177600    292.64111   -579.21583    149379.93    -47458.28    4018.7209   -51477.001   0.15192323 
  177800    297.83499   -587.96839    149381.81   -47437.396    4090.0464   -51527.442   0.15455798 
  178000    295.32621   -441.16063    149174.94   -47396.014    4055.5943   -51451.608   0.15686996 
  178200     290.5555   -460.03458    149183.72     -47431.6    3990.0802   -51421.681   0.15442187 
  178400    291.67836   -570.61553    149299.45   -47405.998    4005.4999   -51411.498   0.15850151 
  178600    293.21992   -546.67405    149284.45   -47422.509    4026.6695   -51449.178   0.15746869 
  178800    294.80887   -474.06218    149204.17   -47392.395      4048.49   -51440.885   0.15457218 
  179000    294.90665   -461.27592    149249.66   -47365.424    4049.8327   -51415.257   0.15010921 
  179200     294.8379    -577.9868    149329.72    -47390.24    4048.8885   -51439.129   0.15940512 
  179400    301.30894   -444.05556    149281.85   -47363.671    4137.7527   -51501.424   0.15154593 
  179600    295.12574   -479.87333    149261.66   -47370.611    4052.8414   -51423.453   0.15362077 
  179800    299.10578   -547.89245    149362.46   -47399.763    4107.4976   -51507.261   0.15397511 
  180000    298.27662   -565.04684    149388.32    -47365.88    4096.1111   -51461.991   0.15503966 
  180200    295.14705    -495.8072    149278.87   -47326.888     4053.134   -51380.022   0.15283673 
  180400    300.51108   -420.48012    149252.34   -47282.864     4126.796    -51409.66   0.15130294 
  180600      293.842   -533.76861    149352.87   -47372.536    4035.2123   -51407.748   0.15831481 
  180800    301.64323   -554.14668       149356   -47336.819    4142.3434   -51479.162   0.15641017 
  181000    297.11943   -438.16245    149252.75   -47379.019    4080.2199   -51459.239   0.14947592 
  181200    299.24754    -446.5802    149275.24   -47361.228    4109.4444   -51470.673   0.15351534 
  181400     296.5061    -575.0983     149377.4   -47399.308    4071.7973   -51471.105   0.15796336 
  181600    300.27528   -508.86278    149297.39   -47420.815    4123.5579   -51544.373   0.15162234 
  181800    290.51888     -427.296    149196.45   -47391.667    3989.5772   -51381.245   0.15310973 
  182000    296.16495   -528.75495    149339.91   -47400.538    4067.1123    -51467.65    0.1560416 
  182200     296.9742   -614.01669    149460.13   -47416.089    4078.2255   -51494.315   0.15071468 
  182400    294.57083    -483.6524    149269.24   -47418.472     4045.221   -51463.693   0.14575697 
  182600    301.18838   -401.42468    149156.06   -47383.759    4136.0971   -51519.856   0.15016326 
  182800    295.60578   -561.65901    149384.49   -47345.413    4059.4335   -51404.846   0.15861007 
  183000    299.83175   -635.42277    149475.32   -47346.217    4117.4671   -51463.684   0.15409701 
  183200    295.03528   -444.65436    149190.31   -47328.704    4051.5991   -51380.303   0.15075163 
  183400    294.68855   -345.65953    149088.25   -47338.126    4046.8376   -51384.963   0.15104781 
  183600     299.5913   -594.53868    149424.48    -47366.45    4114.1651   -51480.615   0.15595548 
  183800    300.02909   -649.26614    149488.73   -47398.808     4120.177   -51518.985   0.15434802 
  184000     294.9268   -349.22209    149048.72    -47414.33    4050.1094   -51464.439   0.15040195 
  184200    294.94287   -307.95887    149012.22   -47457.586      4050.33   -51507.916   0.14822883 
  184400    295.65779   -706.48985    149528.54   -47464.228    4060.1478   -51524.376   0.15045748 
  184600    297.51382   -661.69388    149482.22   -47472.093    4085.6359   -51557.729   0.15068558 
  184800    287.25305   -267.67501    148903.95   -47462.289     3944.729   -51407.018   0.15067627 
  185000    295.22857   -299.47058    149024.92   -47454.222    4054.2535   -51508.475   0.14840844 
  185200    291.21542   -774.08648    149679.93   -47505.859    3999.1425   -51505.002    0.1538337 
  185400    290.84243   -656.28554    149468.94   -47485.882    3994.0204   -51479.902   0.15036602 
  185600    290.82708   -165.86498    148803.59   -47492.772    3993.8096   -51486.582   0.15037133 
  185800    292.16827    -438.9547     149138.8   -47437.545    4012.2276   -51449.773   0.15781145 
  186000    296.64216   -872.53392    149763.69   -47417.787    4073.6657   -51491.452   0.15617616 
  186200    293.19561   -574.09817     149336.8   -47412.269    4026.3357   -51438.605   0.15482689 
  186400    305.17589   -76.411466    148806.64   -47365.332    4190.8559   -51556.188   0.14771476 
  186600    296.11273   -582.50943    149357.01   -47397.723    4066.3953   -51464.119   0.15587921 
  186800    295.00719   -862.75849    149785.08   -47418.564    4051.2134   -51469.777   0.15457173 
  187000    295.05392   -392.09098     149184.5   -47393.873     4051.855   -51445.728   0.14908719 
  187200    291.29137   -216.83566    148857.11   -47415.186    4000.1855   -51415.371   0.15759722 
  187400    290.99855   -610.37838    149460.57   -47398.218    3996.1644   -51394.383   0.16028827 
  187600    296.23666   -807.73135    149689.08   -47436.593    4068.0971   -51504.691   0.15367824 
  187800    294.94767   -339.82759    149080.43   -47429.255    4050.3959   -51479.651    0.1482258 
  188000    293.97931   -213.18593    148920.53   -47404.263    4037.0979   -51441.361   0.15299622 
  188200    293.05512   -707.01238    149564.34   -47391.212    4024.4064   -51415.618   0.16015223 
  188400    289.57144   -745.99669    149638.06   -47376.297    3976.5665   -51352.863   0.15781341 
  188600    296.14281   -312.48652    149034.23   -47388.003    4066.8084   -51454.811   0.15530164 
  188800    289.82751    -316.0057    149053.54   -47401.151    3980.0829   -51381.234   0.15432188 
  189000    291.62667   -724.68221    149586.87    -47389.52    4004.7901    -51394.31   0.15343571 
  189200    299.20351   -649.17939    149462.85   -47394.622    4108.8398   -51503.461   0.15193386 
  189400    294.66592   -258.95158    148966.44   -47358.514    4046.5268   -51405.041   0.15810437 
  189600    294.44961   -399.26404    149151.86   -47373.087    4043.5564   -51416.644   0.15622608 
  189800    291.77142   -759.50711    149589.19   -47408.623    4006.7778   -51415.401    0.1557513 
  190000    294.83334   -512.83892    149301.75    -47442.03     4048.826   -51490.856   0.15112274 
  190200    293.69513   -272.83159    148929.79   -47417.825    4033.1954    -51451.02   0.15410979 
  190400    297.08105   -508.38296    149274.05   -47414.044    4079.6928   -51493.736   0.15314853 
  190600    293.98179   -759.23733    149612.63   -47352.398     4037.132    -51389.53   0.15527732 
  190800    294.89719   -495.75335    149239.75   -47388.115    4049.7027   -51437.817   0.15696405 
  191000    294.56815   -253.18643    148946.02   -47403.126    4045.1843   -51448.311   0.15181606 
  191200    298.62097   -531.81609    149360.04   -47394.312    4100.8398   -51495.152   0.14729775 
  191400    289.55982    -778.2558    149607.41   -47414.504    3976.4068   -51390.911   0.15912442 
  191600    296.57084   -431.71687    149145.59   -47374.026    4072.6864   -51446.713   0.15728558 
  191800    295.58377   -279.37063    148943.03   -47410.848    4059.1313   -51469.979   0.15527784 
  192000     298.1525   -648.46611    149385.01   -47408.652    4094.4066   -51503.059   0.15683247 
  192200    290.85886    -685.8401    149499.67   -47374.783     3994.246   -51369.029   0.16018587 
  192400    296.20393   -346.00632    149084.55   -47385.685    4067.6476   -51453.333   0.15351058 
  192600    295.23188   -329.34748    149040.51   -47417.737     4054.299   -51472.036   0.15038225 
  192800    297.90653   -614.53616    149435.67   -47390.661    4091.0288    -51481.69   0.15693379 
  193000    300.52569   -618.01875       149418   -47380.554    4126.9967    -51507.55   0.15539403 
  193200    299.65117   -284.68937    149037.97   -47335.716    4114.9872   -51450.704    0.1519111 
  193400    302.67751   -395.12558    149128.73   -47338.648    4156.5467   -51495.195   0.14967069 
  193600    295.89885   -677.13472    149478.09   -47347.616    4063.4581   -51411.074   0.15678372 
  193800    298.13875   -550.06829    149310.25   -47399.349    4094.2177   -51493.567   0.15717227 
  194000    289.89709   -304.12105    148991.69   -47427.964    3981.0384   -51409.002   0.15548922 
  194200    296.11737    -478.9664    149227.04   -47412.077    4066.4591   -51478.536   0.15251025 
  194400    297.87658   -672.62464    149506.89   -47391.123    4090.6175   -51481.741   0.15030283 
  194600     290.1176    -501.7513    149262.06   -47416.553    3984.0667    -51400.62   0.15262388 
  194800    298.99263   -335.18467     149031.4   -47405.649    4105.9437   -51511.593   0.15055426 
  195000    295.66835   -582.50406    149324.93   -47386.134    4060.2929   -51446.427   0.15389764 
  195200    296.01751   -699.87838    149530.34   -47367.886    4065.0877   -51432.973   0.15543646 
  195400     296.2469   -464.55811    149218.05   -47372.789    4068.2378   -51441.027   0.14932175 
  195600    298.43459   -336.48298    149085.81   -47379.614    4098.2804   -51477.894   0.14736604 
  195800    294.88838   -626.62122    149455.92   -47423.658    4049.5818    -51473.24   0.14975288 
  196000    292.75602   -660.21592    149523.53    -47392.28    4020.2989   -51412.579   0.15522376 
  196200    293.16453   -364.48605    149126.81   -47382.725    4025.9088   -51408.634   0.15604623 
  196400    298.01267    -310.7911    149131.95   -47384.212    4092.4864   -51476.698   0.14388335 
  196600    294.54788   -691.17317    149596.74   -47447.822    4044.9058   -51492.728   0.14735231 
  196800     293.9348    -646.1459     149523.7    -47439.64    4036.4866   -51476.126   0.15194624 
  197000    292.09276    -266.4678    148982.85   -47453.969    4011.1907    -51465.16   0.14514389 
  197200    291.75746    -387.3396    149148.14    -47511.81    4006.5861   -51518.396    0.1429551 
  197400    290.69555   -840.04923    149737.65   -47463.614    3992.0033   -51455.617    0.1579881 
  197600    298.50832   -603.87041     149449.4   -47378.359     4099.293   -51477.652   0.14926912 
  197800    297.41086   -90.860486    148839.94   -47368.564     4084.222   -51452.786   0.14359628 
  198000    300.00211   -490.57577    149339.36   -47398.763    4119.8066   -51518.569   0.15062466 
  198200     293.8521   -985.39242    149960.98   -47417.745     4035.351   -51453.096   0.16198656 
  198400    301.34893   -387.65007    149280.24   -47350.096    4138.3018   -51488.398   0.14964814 
  198600    302.05102    14.894073    148694.23   -47342.779    4147.9434   -51490.722   0.14354068 
  198800    301.19217   -646.49345    149512.25    -47373.92    4136.1492   -51510.069   0.15362706 
  199000    295.74745   -998.33182    149974.35   -47372.637     4061.379   -51434.016   0.15698878 
  199200    302.73427   -233.06753     149014.5   -47374.764    4157.3262    -51532.09   0.13547143 
  199400    295.73465   -62.156356    148702.93   -47388.847    4061.2033   -51450.051   0.14888485 
  199600    294.65895    -758.9796    149670.03   -47405.519    4046.4311    -51451.95   0.15631617 
  199800    296.42703   -856.12087     149807.5   -47381.702    4070.7115   -51452.413   0.15609231 
  200000    293.97599   -184.68807    148914.34   -47407.858    4037.0523    -51444.91    0.1452774 
Loop time of 108.555 on 6 procs for 200000 steps with 4608 atoms

Performance: 795.908 ns/day, 0.030 hours/ns, 1842.379 timesteps/s
97.9% CPU use with 6 MPI tasks x no OpenMP threads

MPI task timing breakdown:
Section |  min time  |  avg time  |  max time  |%varavg| %total
---------------------------------------------------------------
Pair    | 76.48      | 77.081     | 77.526     |   4.3 | 71.01
Neigh   | 12.358     | 12.53      | 12.838     |   6.1 | 11.54
Comm    | 8.4096     | 8.9937     | 9.8182     |  14.8 |  8.28
Output  | 3.0161     | 3.0172     | 3.0208     |   0.1 |  2.78
Modify  | 5.6384     | 5.7088     | 5.7856     |   2.3 |  5.26
Other   |            | 1.224      |            |       |  1.13

Nlocal:        768.000 ave         787 max         755 min
Histogram: 1 1 1 1 0 0 0 1 0 1
Nghost:        1398.17 ave        1415 max        1378 min
Histogram: 1 0 0 1 0 2 0 1 0 1
Neighs:        0.00000 ave           0 max           0 min
Histogram: 6 0 0 0 0 0 0 0 0 0
FullNghs:      21871.0 ave       22459 max       21489 min
Histogram: 1 1 1 1 0 0 1 0 0 1

Total # of neighbors = 131226
Ave neighs/atom = 28.477865
Neighbor list builds = 12789
Dangerous builds = 0
write_data		data.${NAME}
write_data		data.ice_296K_-500atm_ML
System init for write_data ...
Total wall time: 0:02:41
