
# Import phase coexistance setup
#
read_data           data.coexist_${TEMP}K_${PRES}atm_ML
read_data           data.coexist_296K_${PRES}atm_ML
read_data           data.coexist_296K_-500atm_ML
Reading data file ...
  orthogonal box = (-0.27542154 -0.21452448 -0.21452448) to (104.82296 51.178269 51.178269)
  3 by 1 by 2 MPI processor grid
  reading atoms ...
  8511 atoms
  reading velocities ...
  8511 velocities
  read_data CPU = 0.058 seconds

# Define potential
#
pair_style 	    sw
pair_coeff	    * * /data/emrosky-sim/Freezing_Simulations/Melting/MLmW_fancy/ML_mW.sw mW
Reading sw potential file /data/emrosky-sim/Freezing_Simulations/Melting/MLmW_fancy/ML_mW.sw with DATE: 2019-02-27

# Reset velocity/set timestep
#
velocity	    all create ${TEMP} 120598 rot yes dist gaussian
velocity	    all create 296 120598 rot yes dist gaussian
timestep	    10.0

# Define output
#
compute	            1 all msd
compute             2 all orientorder/atom nnn NULL degrees 2 4 12
thermo              1000
thermo_style        custom step temp press vol etotal ke pe c_1[4]

# Neighbor lists
#
neigh_modify        delay 0 every 1 check yes

# Set fixes
#
fix                 1 all momentum 10 linear 1 1 1 rescale
fix                 2 all nph iso ${PRES} ${PRES} ${PCOUPL}
fix                 2 all nph iso -500 ${PRES} ${PCOUPL}
fix                 2 all nph iso -500 -500 ${PCOUPL}
fix                 2 all nph iso -500 -500 10000.0
fix                 3 all temp/csvr ${TEMP} ${TEMP} ${TCOUPL} 837492
fix                 3 all temp/csvr 296 ${TEMP} ${TCOUPL} 837492
fix                 3 all temp/csvr 296 296 ${TCOUPL} 837492
fix                 3 all temp/csvr 296 296 5000.0 837492

# Run very short equilibration
#
dump		    1 all atom 50 eq.${NAME}.dump
dump		    1 all atom 50 eq.melt_296K_-500atm_ML.dump
run	            500
Neighbor list info ...
  update every 1 steps, delay 0 steps, check yes
  max neighbors/atom: 2000, page size: 100000
  master list distance cutoff = 6.0032907
  ghost atom cutoff = 6.0032907
  binsize = 3.0016454, bins = 36 18 18
  2 neighbor lists, perpetual/occasional/extra = 1 1 0
  (1) pair sw, perpetual
      attributes: full, newton on
      pair build: full/bin/atomonly
      stencil: full/bin/3d
      bin: standard
  (2) compute orientorder/atom, occasional, copy from (1)
      attributes: full, newton on
      pair build: copy
      stencil: none
      bin: none
Per MPI rank memory allocation (min/avg/max) = 4.598 | 4.600 | 4.601 Mbytes
Step Temp Press Volume TotEng KinEng PotEng c_1[4] 
       0          296   -526.97552    277587.87   -75971.273    7508.5413   -83479.814            0 
     500    340.40127   -417.85656    271109.57   -77672.064    8634.8547   -86306.919    16.043162 
Loop time of 1.15094 on 6 procs for 500 steps with 8511 atoms

Performance: 375.347 ns/day, 0.064 hours/ns, 434.429 timesteps/s
99.3% CPU use with 6 MPI tasks x no OpenMP threads

MPI task timing breakdown:
Section |  min time  |  avg time  |  max time  |%varavg| %total
---------------------------------------------------------------
Pair    | 0.39788    | 0.64409    | 0.92421    |  26.6 | 55.96
Neigh   | 0.12885    | 0.14715    | 0.16096    |   3.4 | 12.79
Comm    | 0.029236   | 0.32316    | 0.58628    |  39.7 | 28.08
Output  | 0.0077079  | 0.0082413  | 0.0087557  |   0.4 |  0.72
Modify  | 0.023184   | 0.023632   | 0.024295   |   0.3 |  2.05
Other   |            | 0.004658   |            |       |  0.40

Nlocal:        1418.50 ave        1432 max        1395 min
Histogram: 1 0 1 0 0 0 0 1 1 2
Nghost:        2039.33 ave        2050 max        2024 min
Histogram: 1 1 0 0 0 0 1 1 0 2
Neighs:        0.00000 ave           0 max           0 min
Histogram: 6 0 0 0 0 0 0 0 0 0
FullNghs:      39883.0 ave       40466 max       39304 min
Histogram: 1 0 1 1 0 0 1 1 0 1

Total # of neighbors = 239298
Ave neighs/atom = 28.116320
Neighbor list builds = 85
Dangerous builds = 0

reset_timestep      0
undump              1
unfix               2
unfix               3


################################################
#######         Run Simulation         #########
################################################

log                 log.run_${NAME}
log                 log.run_melt_296K_-500atm_ML
