
# Define the lattice
#
variable	    lattice_constant equal 6.36339
lattice		    diamond ${lattice_constant}
lattice		    diamond 6.36339
Lattice spacing in x,y,z = 6.3633900 6.3633900 6.3633900

# Define region
# multiples of lattice spacing
#
region 		    simbox block 0 9 0 8 0 8

# Create Atoms
#
create_box          1 simbox
Created orthogonal box = (0.0000000 0.0000000 0.0000000) to (57.270510 50.907120 50.907120)
  3 by 1 by 2 MPI processor grid
create_atoms        1 box
Created 4608 atoms
  create_atoms CPU = 0.001 seconds
mass                1 18.015

# Define potential
#
pair_style          sw
pair_coeff          * * /data/emrosky-sim/Freezing_Simulations/Melting/MLmW_fancy/ML_mW.sw mW
Reading sw potential file /data/emrosky-sim/Freezing_Simulations/Melting/MLmW_fancy/ML_mW.sw with DATE: 2019-02-27

# Add velocity/set timestep
#
velocity            all create ${TEMP} 120598 rot yes dist gaussian
velocity            all create 296 120598 rot yes dist gaussian
timestep            5.0

# Define output
#
compute	            1 all msd
thermo              100
thermo_style        custom step temp press vol etotal ke pe c_1[4]

# Neighbor lists
#
neigh_modify        delay 0 every 1 check yes

# Set fixes
#
fix                 1 all momentum 10 linear 1 1 1 rescale
fix                 2 all nve
fix                 3 all temp/csvr ${TEMP} ${TEMP} 500.0 928347
fix                 3 all temp/csvr 296 ${TEMP} 500.0 928347
fix                 3 all temp/csvr 296 296 500.0 928347
fix                 4 all press/berendsen iso ${PRES} ${PRES} 1000.0 modulus 20000
fix                 4 all press/berendsen iso -500 ${PRES} 1000.0 modulus 20000
fix                 4 all press/berendsen iso -500 -500 1000.0 modulus 20000

# Run 0.5 ns equilibration
#
dump		    1 all custom 1000 eq.${NAME}.dump id type x y z vx vy vz
dump		    1 all custom 1000 eq.ice_296K_-500atm_ML.dump id type x y z vx vy vz
run                 100000
Neighbor list info ...
  update every 1 steps, delay 0 steps, check yes
  max neighbors/atom: 2000, page size: 100000
  master list distance cutoff = 6.0032907
  ghost atom cutoff = 6.0032907
  binsize = 3.0016454, bins = 20 17 17
  1 neighbor lists, perpetual/occasional/extra = 1 0 0
  (1) pair sw, perpetual
      attributes: full, newton on
      pair build: full/bin/atomonly
      stencil: full/bin/3d
      bin: standard
Per MPI rank memory allocation (min/avg/max) = 4.779 | 4.779 | 4.779 Mbytes
Step Temp Press Volume TotEng KinEng PotEng c_1[4] 
       0          296    -610.3366    148418.52   -51832.337    4064.8472   -55897.184            0 
     100    196.36697   -358.56174    148376.92     -50175.6    2696.6275   -52872.228  0.097233334 
     200    226.98126   -400.80623    148704.28   -49191.442     3117.041   -52308.483   0.10906158 
     300    250.10652   -452.47691    148913.71       -48567    3434.6108   -52001.611   0.13304568 
     400    265.53951   -472.88004    149056.01    -48152.81    3646.5457   -51799.355   0.13710131 
     500     281.1871   -449.21084    149158.01   -47861.899    3861.4277   -51723.326   0.13505659 
     600    289.51607   -450.06885    149240.17   -47582.454     3975.806    -51558.26   0.14987188 
     700    293.38882   -503.13195    149301.23   -47534.817    4028.9889   -51563.806   0.13729946 
     800    292.56128   -521.12936    149322.23   -47438.163    4017.6247   -51455.788    0.1525272 
     900    298.62694   -525.23167     149322.8   -47416.083    4100.9219   -51517.004    0.1523997 
    1000    294.08204   -516.77553    149298.66   -47464.489    4038.5086   -51502.998   0.14574121 
    1100    295.90617   -521.45552    149330.09   -47405.694    4063.5586   -51469.253    0.1424339 
    1200    291.53952    -487.9471    149331.56   -47395.259    4003.5933   -51398.852   0.15160382 
    1300    295.05817   -545.54422    149331.41    -47318.69    4051.9134   -51370.604   0.15186037 
    1400     294.8627     -504.649    149350.35   -47419.999    4049.2291   -51469.228   0.14823014 
    1500    293.22817   -532.48851    149295.89   -47446.942    4026.7828   -51473.725   0.14441453 
    1600     297.2827   -469.44347    149294.37   -47379.728    4082.4621    -51462.19   0.15097452 
    1700    296.40622    -468.4262    149291.91   -47403.842    4070.4256   -51474.267   0.14526323 
    1800    296.61915   -512.83266     149266.2   -47398.442    4073.3498   -51471.792   0.15241262 
    1900    295.20262    -514.9402    149332.55   -47304.068    4053.8971   -51357.965   0.15395922 
    2000    299.25092   -518.33367    149368.28   -47247.386    4109.4907   -51356.877   0.14305985 
    2100    297.07357   -522.01769    149339.18   -47419.199    4079.5902   -51498.789   0.15077573 
    2200     295.8774   -505.59471    149311.92   -47343.996    4063.1636    -51407.16   0.13900339 
    2300    295.88677   -529.68869     149328.4   -47282.539    4063.2922   -51345.831   0.16014309 
    2400    297.83521   -485.45932     149309.4   -47306.196    4090.0494   -51396.245   0.15055175 
    2500    299.47978   -489.69373     149327.2   -47362.073    4112.6336   -51474.706   0.13851442 
    2600     294.8392   -505.22314    149330.65   -47395.749    4048.9064   -51444.656   0.15514392 
    2700    299.19254   -442.07666    149314.17   -47363.476    4108.6891   -51472.165   0.13685592 
    2800    298.91629   -471.32737    149318.59   -47261.391    4104.8954   -51366.287   0.15762523 
    2900    302.53696   -470.70985    149349.37   -47281.596    4154.6166   -51436.213   0.15045993 
    3000    295.19077   -506.25996    149291.31   -47341.316    4053.7344   -51395.051   0.15456298 
    3100    294.01785   -516.88863    149310.81    -47319.98    4037.6271   -51357.607   0.15259241 
    3200    299.12146   -464.19117    149286.75   -47430.499    4107.7129   -51538.212   0.14349129 
    3300    297.42443   -489.63163    149258.25   -47495.867    4084.4083   -51580.275   0.13786298 
    3400    292.18946   -512.08583    149267.93   -47428.505    4012.5186   -51441.024   0.15226794 
    3500    299.62986    -509.6434    149268.06   -47393.711    4114.6946   -51508.406   0.14929422 
    3600    295.35202   -509.23719    149244.26   -47396.629    4055.9488   -51452.577   0.15443042 
    3700    300.03265   -485.48478    149256.34   -47354.715    4120.2259    -51474.94   0.15164998 
    3800    295.78868   -525.06504    149270.53   -47346.773    4061.9453   -51408.718   0.15672384 
    3900    297.61059   -486.25895    149278.98   -47351.974    4086.9647   -51438.939   0.15244717 
    4000    297.12768   -501.52173    149269.49   -47403.299    4080.3332   -51483.632   0.14476147 
    4100    289.39628   -520.26029    149254.01   -47416.472     3974.161   -51390.633   0.16101935 
    4200    297.26501   -484.50782    149273.45    -47368.92     4082.219   -51451.139   0.14133673 
    4300    284.55002   -569.00512    149240.69   -47504.028    3907.6093   -51411.637   0.16118791 
    4400    298.90845   -518.48384    149272.53   -47394.599    4104.7878   -51499.387   0.14341438 
    4500    293.35795   -540.97556     149276.5   -47454.507     4028.565   -51483.072   0.15434355 
    4600    292.90212   -496.05701     149235.1   -47482.468    4022.3053   -51504.774   0.14700395 
    4700     298.4221   -478.79872     149247.3    -47383.27    4098.1089   -51481.379   0.14006322 
    4800    298.10794   -479.49063    149261.21   -47278.611    4093.7947   -51372.406   0.15384838 
    4900    302.69833   -534.01655    149292.89    -47248.64    4156.8327   -51405.473   0.15363956 
    5000    295.30383   -487.50923    149290.64    -47382.61     4055.287   -51437.897   0.15467768 
    5100    296.45876   -502.63812    149288.03   -47312.378    4071.1471   -51383.526   0.15127824 
    5200    295.03405   -516.93081    149259.71   -47378.377    4051.5822   -51429.959   0.15530334 
    5300    294.25854   -514.67569     149207.6   -47483.964    4040.9325   -51524.896    0.1442205 
    5400    291.45016   -505.90015    149208.28   -47447.854    4002.3662    -51450.22   0.15134667 
    5500    297.37671   -448.38863    149213.57   -47412.961     4083.753   -51496.714   0.14833949 
    5600    290.04134   -490.03861    149216.42   -47456.822    3983.0193   -51439.841   0.14967242 
    5700    293.03224   -507.99794    149247.03   -47447.882    4024.0922   -51471.974   0.14529442 
    5800    297.22485    -496.7654    149267.55   -47384.963    4081.6676    -51466.63   0.14607862 
    5900    295.62209   -469.91416    149257.18   -47463.562    4059.6575   -51523.219   0.14595949 
    6000    295.19992   -425.00387    149245.07   -47440.047      4053.86   -51493.907   0.14631783 
    6100    292.01599   -501.18403    149231.54    -47519.32    4010.1364   -51529.456   0.14902593 
    6200    290.89471   -479.66996    149234.83   -47490.952    3994.7384    -51485.69   0.14888015 
    6300    296.59235   -511.15267    149276.93   -47376.353    4072.9817   -51449.335    0.1532332 
    6400    295.38645   -458.47496    149267.45   -47430.534    4056.4215   -51486.956   0.14486577 
    6500    293.92963   -525.87803    149253.93   -47449.394    4036.4157    -51485.81   0.15116602 
    6600    290.68997   -474.13464    149246.62   -47447.036    3991.9267   -51438.963   0.14439201 
    6700    292.32576   -530.19105    149231.79   -47506.286    4014.3904   -51520.677   0.15037362 
    6800    300.57658   -497.90621    149234.94    -47456.34    4127.6956   -51584.035    0.1449812 
    6900    297.43911   -494.06963    149281.26   -47372.843    4084.6099   -51457.453   0.15040682 
    7000    299.53607   -521.72937    149265.75   -47376.129    4113.4066   -51489.536   0.16061264 
    7100    298.03238   -495.77153    149267.37   -47381.785    4092.7571   -51474.542   0.14310022 
    7200    289.28441   -515.84676     149235.1   -47493.559    3972.6248   -51466.184   0.15499701 
    7300    292.62002   -492.19363    149227.87   -47546.473    4018.4313   -51564.904   0.14244436 
    7400    290.65763   -500.80273    149254.13   -47435.123    3991.4826   -51426.605   0.15149011 
    7500    297.33193   -526.06653    149267.41    -47360.48    4083.1381   -51443.618   0.15405715 
    7600    299.53468   -508.71288    149265.51   -47337.366    4113.3875   -51450.753   0.15162635 
    7700    296.80056   -490.31451    149247.07    -47433.72    4075.8409   -51509.561   0.15635036 
    7800    292.87601   -504.42978    149242.14   -47494.748    4021.9468   -51516.695   0.14430331 
    7900     295.4919   -493.71524    149219.48   -47428.975    4057.8696   -51486.844   0.14929481 
    8000    300.24635   -501.65367    149261.86   -47333.606    4123.1606   -51456.767   0.14914096 
    8100    297.69594   -507.95754    149267.19   -47298.346    4088.1369   -51386.483   0.15375887 
    8200    299.04551   -517.66726    149252.07     -47323.4      4106.67    -51430.07    0.1519744 
    8300    297.50884   -515.48208    149299.47   -47292.443    4085.5675   -51378.011   0.15634087 
    8400    301.85008   -508.97942     149287.8   -47264.525    4145.1839   -51409.709   0.15224566 
    8500    298.10898   -518.90362    149283.81    -47356.94    4093.8089   -51450.749   0.15420363 
    8600    295.94256   -502.86757    149277.63    -47366.86    4064.0583   -51430.918   0.14700298 
    8700     294.9122    -510.5294    149260.36   -47337.492    4049.9089   -51387.401   0.16368718 
    8800    302.51338   -466.02806    149285.79   -47379.894    4154.2927   -51534.186   0.14276719 
    8900    294.87323   -499.16272    149285.86   -47447.573    4049.3738   -51496.946   0.14908692 
    9000    295.28156    -503.1582    149273.57   -47371.202    4054.9812   -51426.183   0.15062092 
    9100    302.32192   -449.67344    149283.17   -47428.514    4151.6635   -51580.178   0.13522538 
    9200    296.50164   -485.49257    149287.23   -47319.404     4071.736    -51391.14    0.1612396 
    9300    295.35968   -493.30274    149277.46   -47475.049     4056.054   -51531.103   0.13773455 
    9400    295.43612   -514.08698    149257.17   -47430.945    4057.1037   -51488.049   0.15546612 
    9500     296.2783   -495.32399    149253.61   -47477.165    4068.6689   -51545.834   0.14686369 
    9600    292.59926   -518.84955     149264.4   -47468.636    4018.1463   -51486.782   0.14572466 
    9700    299.08062    -505.8044     149275.2   -47343.838    4107.1521    -51450.99   0.15628491 
    9800     302.4198   -493.33512    149329.39   -47298.222    4153.0077    -51451.23   0.14802985 
    9900    298.88819   -496.35525    149317.48   -47326.504    4104.5096   -51431.014   0.15025839 
   10000    297.31676   -493.14457    149289.75   -47380.306    4082.9297   -51463.236   0.14814507 
   10100    301.54418   -491.28418    149294.36   -47325.898    4140.9831   -51466.881   0.15035115 
   10200    295.14425   -523.54681    149304.95    -47300.14    4053.0956   -51353.235   0.15518283 
   10300    296.14378   -490.86229    149329.58   -47304.095    4066.8217   -51370.917   0.15054894 
   10400    294.86438   -522.62085    149314.74   -47307.775    4049.2522   -51357.027   0.15210463 
   10500    295.06882   -500.35229    149305.93   -47357.905    4052.0596   -51409.964   0.14992887 
   10600    297.26503   -490.08986    149300.87   -47376.549    4082.2193   -51458.769   0.14933469 
   10700    292.04858    -525.0819    149286.89   -47402.077    4010.5839   -51412.661   0.15431863 
   10800     294.8487   -534.40951    149249.06   -47539.574    4049.0369   -51588.611    0.1466273 
   10900    291.61615   -500.22509    149234.61   -47523.717    4004.6456   -51528.362   0.15477653 
   11000    291.49162   -503.54994    149247.15   -47538.142    4002.9354   -51541.077   0.14587018 
   11100    294.88542    -524.2663    149294.51   -47447.949    4049.5411    -51497.49   0.14497955 
   11200    289.80682    -489.9537    149264.17       -47555    3979.7988   -51534.799   0.15081445 
   11300    295.33753   -458.57538    149276.76    -47467.66    4055.7497   -51523.409   0.13831206 
   11400    295.10524   -488.43081     149284.5   -47443.927    4052.5598   -51496.486   0.15321606 
   11500     298.3405   -485.97009    149303.75   -47337.766    4096.9883   -51434.754   0.14975445 
   11600    296.96882   -505.71931    149316.34   -47343.806    4078.1516   -51421.958   0.15040819 
   11700    299.04851   -461.53901    149348.04    -47206.41    4106.7111   -51313.121   0.15462581 
   11800    300.43595   -486.91473     149344.4   -47285.043    4125.7644   -51410.808   0.14621019 
   11900    292.64156   -520.64962    149319.05   -47333.984    4018.7271   -51352.711   0.15993984 
   12000    298.15912     -502.949    149328.82   -47295.171    4094.4976   -51389.668   0.15276624 
   12100    299.25083   -516.94643    149308.47   -47351.878    4109.4895   -51461.368   0.15335327 
   12200    298.29155   -501.92931    149296.01   -47351.711    4096.3161   -51448.028   0.14819049 
   12300     294.0347    -505.6208    149285.26   -47410.746    4037.8586   -51448.605   0.15433855 
   12400    298.06162   -476.44907    149283.32   -47399.535    4093.1586   -51492.694     0.144542 
   12500    302.63793   -467.73827    149308.27   -47327.661    4156.0032   -51483.665   0.14702625 
   12600    299.93422   -474.89433    149277.98   -47283.669    4118.8743   -51402.543   0.15567526 
   12700     300.1773   -495.64557    149283.49   -47373.806    4122.2123   -51496.018   0.15039095 
   12800    293.26191   -536.55437    149265.27   -47351.464    4027.2461    -51378.71   0.15864397 
   12900    293.34953   -503.61039    149267.29   -47418.252    4028.4493   -51446.701   0.15452022 
   13000    294.42825   -474.43832     149276.9   -47385.177     4043.263    -51428.44   0.15007533 
   13100    293.72107   -519.41139     149279.7    -47469.47    4033.5515   -51503.022   0.14607652 
   13200    297.19683   -503.51625    149244.93   -47498.791    4081.2828   -51580.074   0.14794795 
   13300    289.24159   -520.43788    149228.73   -47574.128    3972.0367   -51546.164   0.14639303 
   13400    287.93941    -509.6263    149209.47   -47559.485    3954.1544   -51513.639   0.15411059 
   13500     297.8401   -490.65037    149250.57   -47467.229    4090.1166   -51557.346   0.14347861 
   13600    297.68363   -516.52518    149279.87   -47420.246    4087.9678   -51508.214   0.15221082 
   13700    301.25011   -454.37262     149278.8   -47451.203    4136.9448   -51588.148   0.13973936 
   13800    296.68968    -508.2328     149277.9   -47402.434    4074.3183   -51476.753    0.1499951 
   13900    291.53468   -507.64947    149262.63   -47391.248    4003.5268   -51394.775   0.14964285 
   14000    299.23242   -466.42372    149279.82   -47275.046    4109.2367   -51384.282   0.15420932 
   14100    301.74019   -530.93925    149269.69   -47367.757    4143.6749   -51511.432   0.15880263 
   14200    297.27196   -541.49133    149295.31    -47376.34    4082.3145   -51458.655   0.14439424 
   14300    297.51882   -526.50319    149259.36   -47411.094    4085.7045   -51496.799   0.15801614 
   14400    293.01044   -518.01648    149256.25   -47463.444    4023.7927   -51487.237   0.14115735 
   14500    294.24965   -508.67739    149252.91   -47486.313    4040.8104   -51527.123   0.14919941 
   14600    298.51081   -463.65644     149242.7   -47431.017    4099.3271   -51530.344   0.15053774 
   14700    294.51359   -473.29008    149274.45   -47378.696     4044.435   -51423.131   0.14865175 
   14800    294.15355   -516.67851    149301.03   -47363.461    4039.4907   -51402.951   0.15652511 
   14900    293.92219   -518.26172    149264.05   -47371.339    4036.3135   -51407.652   0.15090768 
   15000    293.75011   -517.19308    149252.72   -47438.907    4033.9504   -51472.857   0.15095949 
   15100    295.34581   -478.93508    149259.03   -47450.353    4055.8635   -51506.216   0.14682759 
   15200    293.79462   -478.58712    149271.93   -47379.006    4034.5616   -51413.568   0.15280417 
   15300    293.17159   -490.04724    149267.88   -47468.607    4026.0059   -51494.613   0.15038975 
   15400    291.10176   -479.21752    149263.89   -47461.225    3997.5817   -51458.807   0.15025467 
   15500    300.07062   -474.76449    149260.62   -47393.322    4120.7474   -51514.069   0.14903614 
   15600    297.17244   -510.43707    149312.38   -47271.903    4080.9478   -51352.851   0.15602595 
   15700     298.0336   -533.07268    149323.98   -47282.709    4092.7738   -51375.483   0.14768618 
   15800     301.2842    -498.6082    149309.81   -47288.707    4137.4129    -51426.12   0.15379429 
   15900    301.57899   -509.34228    149316.83   -47306.396    4141.4612   -51447.858   0.14543829 
   16000    291.05207   -528.00501    149319.11   -47354.132    3996.8992   -51351.031   0.15624498 
   16100    298.87956   -460.10264    149290.95   -47388.453     4104.391   -51492.844   0.15296373 
   16200    295.82571   -498.07696    149310.84    -47401.57    4062.4538   -51464.024   0.14048558 
   16300    289.60176    -544.2579    149287.25   -47420.937    3976.9828    -51397.92   0.16205606 
   16400    294.35716   -481.30824    149314.14    -47431.58    4042.2867   -51473.867    0.1355988 
   16500    298.36468   -501.22001    149310.04   -47347.884    4097.3203   -51445.204    0.1537649 
   16600    296.08463   -501.42599    149360.01   -47269.306    4066.0094   -51335.316   0.15642674 
   16700    299.01872   -468.05498    149336.81   -47312.745    4106.3021   -51419.047   0.14603359 
   16800    294.74663   -480.15369    149320.37   -47371.591    4047.6351   -51419.226   0.15007456 
   16900    292.71437   -537.76835    149309.06     -47399.6    4019.7269   -51419.327   0.14500032 
   17000    295.70394   -507.13567    149263.17    -47443.93    4060.7815   -51504.711   0.15135751 
   17100    299.57163   -475.06942    149291.23   -47394.002    4113.8949   -51507.897   0.14207702 
   17200    294.19883   -490.27283    149303.21   -47460.397    4040.1124    -51500.51    0.1505158 
   17300     291.7915   -520.62852    149278.23    -47557.34    4007.0535   -51564.393   0.14390302 
   17400    291.08693   -501.25239     149269.7   -47547.565     3997.378   -51544.943   0.14716618 
   17500    292.35231   -487.73735    149288.03   -47439.921     4014.755   -51454.676   0.14524543 
   17600    295.12983   -479.03549    149285.58   -47449.487    4052.8975   -51502.385   0.14768033 
   17700    289.72895    -506.9128    149275.53    -47507.65    3978.7295   -51486.379   0.14857143 
   17800    295.65285   -481.13979    149268.75   -47458.574    4060.0799   -51518.654   0.14821069 
   17900    294.89531   -504.70711    149297.35    -47399.72     4049.677   -51449.397   0.14573333 
   18000    297.74087   -475.99854    149291.19   -47304.574    4088.7539   -51393.328   0.15719354 
   18100      297.271   -505.92879    149303.22     -47319.5    4082.3014   -51401.802   0.15376878 
   18200     298.6967   -493.39517    149287.86   -47364.826    4101.8799   -51466.706   0.14541568 
   18300    300.22189   -494.70917    149284.75    -47369.16    4122.8247   -51491.985   0.15906283 
   18400    292.48347   -520.00847    149261.61   -47468.335    4016.5561   -51484.891   0.14199393 
   18500    296.05742   -517.52902    149247.57   -47404.205    4065.6358   -51469.841   0.15880382 
   18600    296.95139   -518.14747     149288.1   -47353.448    4077.9123    -51431.36   0.15274179 
   18700    291.85945   -477.70309    149283.36   -47372.333    4007.9867    -51380.32   0.15410224 
   18800    295.00216    -521.0414    149266.86   -47394.518    4051.1443   -51445.662   0.15510351 
   18900    294.33053   -498.23403    149277.02   -47350.503    4041.9211   -51392.424    0.1488243 
   19000    290.82153   -517.85682    149278.23   -47374.616    3993.7334    -51368.35       0.1598 
   19100    295.88325   -507.12532       149270   -47281.613    4063.2439   -51344.856   0.15237613 
   19200    297.91918     -471.908    149224.72   -47310.279    4091.2025   -51401.481   0.15915491 
   19300    306.81593   -439.68381    149277.55   -47199.271     4213.378   -51412.649   0.15043055 
   19400    300.59172   -465.32915    149260.79   -47269.613    4127.9034   -51397.517   0.15855949 
   19500    302.59302   -499.93483    149289.77   -47269.994    4155.3864    -51425.38   0.15301072 
   19600    302.70161   -481.78864    149284.93   -47260.758    4156.8777   -51417.635   0.15373574 
   19700    298.37838    -512.9132    149275.08   -47314.258    4097.5085   -51411.767   0.15889485 
   19800    301.50133   -504.48844    149283.54   -47267.786    4140.3948   -51408.181   0.15481106 
   19900    296.63391    -534.6944    149282.76   -47351.811    4073.5524   -51425.364   0.15657008 
   20000     297.5992   -476.99951    149280.61   -47381.197    4086.8084   -51468.006   0.14764513 
   20100     296.2075   -485.32718    149256.16   -47424.889    4067.6968   -51492.585   0.15090639 
   20200    295.84969   -489.83737    149264.25   -47402.396     4062.783   -51465.179   0.14702532 
   20300    301.53122   -487.33969    149277.95   -47364.425    4140.8051    -51505.23   0.15438066 
   20400    295.10788   -503.11507    149245.55   -47421.755     4052.596   -51474.352   0.15157622 
   20500    295.32379   -511.48099    149228.17   -47463.479    4055.5611    -51519.04    0.1560725 
   20600    293.02102   -510.98918    149224.86     -47483.7     4023.938   -51507.638   0.15034231 
   20700    293.23345   -497.90424    149240.44   -47427.957    4026.8553   -51454.812   0.15734258 
   20800    299.67326   -473.78768    149258.39   -47279.645    4115.2906   -51394.935   0.15498936 
   20900     294.2491   -495.42751    149245.39   -47394.937    4040.8028    -51435.74   0.15412391 
   21000    294.77108   -470.91889    149246.57   -47408.893    4047.9709   -51456.864   0.15107946 
   21100    302.21157   -472.52934    149260.76   -47288.636    4150.1481   -51438.784   0.15231366 
   21200    293.14557   -514.53499    149270.84   -47302.591    4025.6484   -51328.239   0.16359199 
   21300    300.28963    -512.0828    149299.28   -47297.688    4123.7549   -51421.443   0.14610068 
   21400    296.04302    -498.5807    149273.99   -47341.394     4065.438   -51406.832   0.16119632 
   21500    299.18277   -475.74623     149284.8   -47238.802    4108.5549   -51347.357   0.14906387 
   21600    300.58031   -505.79296    149296.35   -47245.841    4127.7467   -51373.587    0.1593247 
   21700    297.39615   -564.61767    149283.38   -47384.972      4084.02   -51468.992   0.15662929 
   21800     293.6916    -542.9732    149256.64   -47412.416    4033.1469   -51445.563   0.15200959 
   21900    291.67206   -540.41576    149242.19   -47386.205    4005.4134   -51391.618   0.16142525 
   22000     293.4662   -538.41557    149270.62    -47428.11    4030.0516   -51458.162   0.15019717 
   22100    293.70181   -494.25135    149254.36   -47468.367    4033.2871   -51501.654   0.15333997 
   22200    290.71894   -517.25557     149241.6   -47558.753    3992.3246   -51551.077    0.1444486 
   22300    293.55317   -473.27538    149256.43    -47438.86    4031.2459   -51470.106   0.15206558 
   22400    298.48465    -494.1348    149266.84   -47384.227    4098.9678   -51483.195   0.15229062 
   22500     295.4141   -523.53767    149275.03   -47333.717    4056.8013   -51390.519   0.15264543 
   22600    298.41762   -493.95999    149260.23   -47376.281    4098.0473   -51474.328   0.15213082 
   22700    295.51158   -507.35622    149260.25   -47440.487    4058.1399   -51498.627    0.1491431 
   22800    298.62928   -483.03357    149293.63   -47358.921     4100.954   -51459.875   0.14594993 
   22900    293.97871   -515.25477    149260.78   -47396.323    4037.0897   -51433.413   0.15611748 
   23000     290.3575   -516.95547    149252.71   -47468.727     3987.361   -51456.088    0.1525487 
   23100    291.68673   -474.88619    149267.53   -47407.758    4005.6148   -51413.372   0.15506329 
   23200    293.75327   -519.38915    149270.34   -47351.475    4033.9938   -51385.469   0.15810111 
   23300    299.25372    -528.0113    149267.29   -47350.971    4109.5292     -51460.5   0.14405531 
   23400    297.23464   -499.22418     149248.1   -47404.777     4081.802   -51486.579   0.15925034 
   23500    299.07731   -436.36744    149270.05   -47283.692    4107.1066   -51390.798    0.1448383 
   23600    300.99774   -496.07696    149256.03   -47299.384    4133.4791   -51432.863   0.15880506 
   23700    298.74946   -457.68222    149267.51   -47289.115    4102.6044    -51391.72   0.15274013 
   23800    300.42379   -490.30407    149270.95    -47297.44    4125.5973   -51423.037   0.15162415 
   23900    296.17246   -510.61982    149242.73   -47393.067    4067.2155   -51460.283   0.15737828 
   24000    297.04916   -484.48441    149261.59   -47340.907    4079.2549   -51420.162    0.1504516 
   24100    299.75879   -516.08362    149273.29   -47269.812    4116.4651   -51386.277   0.15990251 
   24200     295.8495   -528.54907    149251.29   -47404.272    4062.7804   -51467.052   0.14603249 
   24300    291.96226   -513.50495    149225.08    -47438.72    4009.3986   -51448.118   0.15552409 
   24400    297.26438   -480.89631    149222.81    -47463.03    4082.2104    -51545.24   0.14735555 
   24500    296.00253   -468.68477    149241.74   -47419.839     4064.882   -51484.721   0.14860536 
   24600    291.91135   -479.51907    149237.77   -47468.793    4008.6995   -51477.493   0.15233004 
   24700    296.26157   -490.67549    149235.57    -47471.54    4068.4393    -51539.98    0.1452253 
   24800    291.62586   -509.68657    149252.49    -47407.91     4004.779   -51412.689   0.14940925 
   24900     291.6287    -480.1093    149228.72    -47465.47    4004.8179   -51470.288   0.15227048 
   25000    293.00172   -490.40955    149256.34   -47453.292     4023.673   -51476.965   0.14937673 
   25100    297.22925    -533.7738    149244.18   -47512.521     4081.728   -51594.249   0.15088076 
   25200    290.88245   -519.49263    149229.02   -47649.785      3994.57   -51644.355    0.1417439 
   25300    295.93704   -505.29249    149236.98    -47478.05    4063.9826   -51542.033   0.14280706 
   25400    290.52776   -507.51084    149239.01   -47517.435    3989.6992   -51507.135   0.15706734 
   25500    294.88496   -497.73044    149279.42   -47400.621    4049.5349   -51450.156   0.14325484 
   25600    295.76183   -531.77277    149294.57   -47324.469    4061.5765   -51386.045   0.15848268 
   25700    294.44643   -550.89843    149281.27   -47419.601    4043.5126   -51463.114   0.15085027 
   25800    303.22669   -489.04334    149291.74   -47272.131    4164.0884   -51436.219   0.15023938 
   25900    303.78902   -515.67747    149288.44   -47296.332    4171.8107   -51468.142    0.1561194 
   26000    300.25028    -524.7814     149274.5   -47345.803    4123.2146   -51469.018    0.1486832 
   26100    301.13245   -517.12283    149256.63   -47328.164    4135.3291   -51463.493   0.15771745 
   26200     296.5096   -536.44683    149256.78   -47441.835    4071.8453    -51513.68   0.14562678 
   26300    292.31194   -498.60464    149244.92   -47391.388    4014.2006   -51405.589   0.15543792 
   26400    293.26872    -467.6817    149226.35   -47454.222    4027.3397   -51481.562   0.14541474 
   26500    302.17561   -512.20648    149241.51   -47363.915    4149.6543   -51513.569   0.15589748 
   26600    294.08886   -478.39906    149254.54   -47304.494    4038.6023   -51343.096   0.15549528 
   26700     304.6074   -516.67857    149282.41   -47310.953    4183.0491   -51494.002   0.15062382 
   26800    292.28308   -531.65966    149258.94   -47360.873    4013.8043   -51374.678   0.15964189 
   26900    300.01079   -497.13782    149264.08   -47296.934    4119.9258    -51416.86   0.15318344 
   27000    297.18823   -535.32756    149265.44   -47331.901    4081.1647   -51413.066   0.15804284 
   27100    296.72915     -495.664    149282.88   -47282.695    4074.8603   -51357.555     0.158379 
   27200    296.78526   -513.21407    149245.89    -47347.09    4075.6309   -51422.721   0.15462704 
   27300    300.20443   -468.23306    149257.33   -47173.851    4122.5849   -51296.436   0.15871268 
   27400    298.92722   -468.69384    149251.72   -47298.585    4105.0456    -51403.63   0.15665524 
   27500    290.09746   -537.88481    149221.57   -47412.286      3983.79   -51396.076   0.15586179 
   27600    291.71583   -524.61235    149196.67   -47461.828    4006.0145   -51467.843   0.15607904 
   27700    299.08487   -484.43449    149230.12   -47353.878    4107.2104   -51461.088   0.15400339 
   27800    298.65867   -503.56054    149248.41    -47334.28    4101.3576   -51435.638   0.15729532 
   27900    298.91701    -492.6613    149216.16   -47387.462    4104.9052   -51492.367    0.1501499 
   28000    294.28706   -517.40754    149213.29   -47465.365    4041.3242   -51506.689   0.15425541 
   28100    294.29342   -494.62797     149203.4   -47435.375    4041.4115   -51476.786   0.15510251 
   28200    297.95246   -508.76669    149211.67   -47404.884    4091.6595   -51496.543   0.15274123 
   28300    298.69142    -484.5762    149214.83   -47433.062    4101.8074    -51534.87   0.16128058 
   28400    295.81881   -489.53565    149233.44    -47364.51    4062.3589   -51426.869   0.14871705 
   28500    296.50943   -470.05549    149243.59   -47401.081     4071.843   -51472.924   0.16024657 
   28600    292.87709     -513.746    149239.51   -47400.014    4021.9615   -51421.975   0.15676916 
   28700    292.59299   -481.87758    149246.21   -47403.184    4018.0602   -51421.245    0.1536981 
   28800    292.44146   -502.35771     149237.9    -47443.56    4015.9792   -51459.539   0.15809106 
   28900    298.00406   -490.84985    149268.97   -47415.927    4092.3681   -51508.296   0.14433676 
   29000    297.81648   -496.32937    149267.34   -47357.025    4089.7922   -51446.817   0.16152089 
   29100    298.62133    -506.8494    149301.02   -47354.699    4100.8448   -51455.544   0.15387945 
   29200    299.49559   -504.57893    149295.18   -47286.413    4112.8507   -51399.264   0.16330329 
   29300    300.52715   -524.62543    149315.85   -47292.958    4127.0167   -51419.975   0.16126133 
   29400    299.82905   -507.12184    149292.86   -47304.216      4117.43   -51421.646   0.15731796 
   29500    298.01762   -496.09882    149287.49   -47346.785    4092.5544   -51439.339   0.15814745 
   29600    299.94456   -510.98538    149301.84   -47326.517    4119.0162   -51445.533   0.15301712 
   29700    299.88769   -488.69535    149292.21   -47403.194    4118.2352   -51521.429    0.1508544 
   29800    295.46246   -489.48302    149264.42   -47497.843    4057.4654   -51555.309   0.15068992 
   29900    297.20217   -495.54503    149267.57   -47471.992    4081.3562   -51553.348   0.14664369 
   30000    293.53076   -523.64299    149259.22    -47439.65    4030.9381   -51470.588    0.1636645 
   30100    294.69207   -555.12587    149294.65    -47408.08    4046.8859   -51454.966    0.1553711 
   30200     298.8005   -501.59806     149305.9   -47423.388    4103.3053   -51526.693   0.14782168 
   30300    295.27379   -487.38498    149305.67   -47405.768    4054.8744   -51460.642   0.15558112 
   30400    295.25756   -509.98086    149284.01   -47446.103    4054.6516   -51500.755   0.14405888 
   30500    294.25934   -508.62953    149245.45   -47549.524    4040.9434   -51590.468   0.15353055 
   30600    297.97356    -463.8911     149248.1   -47414.197    4091.9493   -51506.146   0.14714705 
   30700    297.11504   -492.72332    149243.81   -47446.821    4080.1596    -51526.98   0.15668992 
   30800    292.78011   -497.95451    149238.45   -47373.179    4020.6297   -51393.809   0.15900229 
   30900    294.59436   -511.80151    149278.47   -47352.877    4045.5441   -51398.421   0.15473807 
   31000    295.06833   -511.77471    149269.74   -47388.212     4052.053   -51440.265   0.15739834 
   31100    296.68196   -511.33849    149277.47   -47402.971    4074.2123   -51477.184   0.14895492 
   31200    295.66866    -501.5631    149273.59   -47345.634    4060.2971   -51405.931   0.15772011 
   31300    296.87466    -497.6784    149289.47    -47274.69    4076.8585   -51351.549   0.15413309 
   31400    297.84091   -479.49376    149275.37   -47400.217    4090.1277   -51490.344   0.15733631 
   31500    298.61655   -504.85656    149270.56   -47344.071    4100.7792   -51444.851   0.16145917 
   31600    301.76783   -504.78219    149263.01   -47371.469    4144.0545   -51515.524   0.15083244 
   31700    296.04808   -479.12805    149278.99   -47337.961    4065.5075   -51403.468   0.16182569 
   31800    299.41622   -480.84222    149286.06   -47403.344    4111.7607   -51515.105   0.14889894 
   31900    298.74517   -488.16933    149286.36    -47399.12    4102.5455   -51501.666   0.14806923 
   32000    295.10933   -459.33757    149309.57   -47348.213     4052.616   -51400.829    0.1575381 
   32100    296.46006   -490.45931    149311.11   -47388.587     4071.165   -51459.752   0.14564757 
   32200    294.47192   -511.57953    149301.71   -47512.885    4043.8627   -51556.748   0.15201232 
   32300    291.39199   -510.68135    149266.88   -47448.055    4001.5673   -51449.623   0.15389044 
   32400    286.89433   -511.23624    149274.23   -47545.975    3939.8028   -51485.778   0.14622877 
   32500    297.64507   -486.76167    149280.46   -47403.304    4087.4382   -51490.742   0.15809139 
   32600    298.46422   -526.77686    149292.48   -47358.441    4098.6873   -51457.129   0.15084812 
   32700    291.89022   -513.93054    149282.27   -47454.755    4008.4092   -51463.164   0.15721937 
   32800    301.96959   -520.93456    149294.72   -47320.538    4146.8251   -51467.363   0.15460071 
   32900    297.77112   -538.11154    149292.03   -47393.142    4089.1692   -51482.311   0.15593071 
   33000    293.85206   -499.23254    149270.14   -47373.475    4035.3505   -51408.826   0.15399096 
   33100    293.48204   -475.31972    149265.11   -47404.369    4030.2691   -51434.638   0.15112198 
   33200    295.94743   -512.39286    149236.93   -47383.736    4064.1253   -51447.861   0.16067118 
   33300    301.02728   -484.88145    149257.05   -47388.153    4133.8848   -51522.038   0.14788441 
   33400    298.91804   -543.96763    149227.49   -47408.326    4104.9194   -51513.245   0.16515673 
   33500    297.81793   -496.12988    149229.75   -47433.149    4089.8121   -51522.961    0.1486745 
   33600    290.36589   -511.35442    149203.33    -47443.35    3987.4763   -51430.826   0.16016717 
   33700    295.74087   -485.57789    149233.32   -47335.795    4061.2887   -51397.083   0.16089814 
   33800    303.20449   -468.45357    149264.24   -47226.039    4163.7835   -51389.822   0.15716804 
   33900    295.57047   -533.40085    149260.74   -47255.052    4058.9486       -51314   0.16621513 
   34000    298.30804   -515.33824    149231.07   -47407.013    4096.5426   -51503.555   0.15714514 
   34100    290.12964   -510.50817    149220.31   -47422.266     3984.232   -51406.498   0.15814126 
   34200    294.99618   -522.28117    149243.88   -47425.483    4051.0621   -51476.545    0.1572258 
   34300    291.74399   -520.07554    149230.75    -47456.23    4006.4011   -51462.631   0.15386919 
   34400    304.22869   -444.59215    149258.95   -47379.411    4177.8485   -51557.259    0.1462383 
   34500    304.30299   -463.82234    149295.53   -47305.277    4178.8688   -51484.146   0.15368319 
   34600    299.09555   -549.95372    149305.91   -47306.205    4107.3571   -51413.562   0.15737077 
   34700    297.86751   -523.79023    149274.35   -47421.334    4090.4929   -51511.827   0.15683266 
   34800    291.06126   -505.48104    149251.82   -47409.653    3997.0255   -51406.678   0.15477879 
   34900    297.72915   -548.48402    149272.48   -47395.697    4088.5928    -51484.29    0.1612005 
   35000    299.49725   -462.74268    149291.84   -47369.946    4112.8736    -51482.82   0.15116959 
   35100    290.93002   -473.86282    149275.96   -47386.476    3995.2232   -51381.699    0.1605998 
   35200    304.06188   -488.83437    149295.47   -47322.843    4175.5577     -51498.4   0.15269373 
   35300    293.59008   -520.18606     149297.8   -47410.899    4031.7528   -51442.652   0.15310415 
   35400    294.91964   -503.41239    149273.57   -47411.499    4050.0111    -51461.51   0.16275752 
   35500    295.13344   -499.92735    149287.14   -47398.286    4052.9471   -51451.234   0.14674876 
   35600    301.45919   -474.29207     149288.4   -47371.128     4139.816   -51510.944   0.15768758 
   35700    293.56625    -514.5514    149284.62   -47385.176    4031.4255   -51416.602   0.15649701 
   35800    302.29975   -484.44314       149335   -47217.647    4151.3591   -51369.006   0.15721318 
   35900    292.92363   -518.74332    149291.42   -47333.838    4022.6007   -51356.439   0.16103603 
   36000    291.34835   -514.64368    149285.71   -47390.007    4000.9679   -51390.975   0.15454904 
   36100    292.14224   -500.91616    149262.67   -47430.973    4011.8702   -51442.843   0.15913962 
   36200    291.60124   -534.50178    149256.68   -47463.416    4004.4409   -51467.857   0.15008126 
   36300    299.16902   -455.38311    149251.45   -47397.352     4108.366   -51505.718   0.15525697 
   36400    295.38223   -489.87834    149235.88   -47453.293    4056.3636   -51509.656   0.15530715 
   36500    292.53712   -505.89515    149253.92   -47427.619    4017.2929   -51444.912   0.15536785 
   36600    292.99141   -543.30376    149236.04   -47427.303    4023.5315   -51450.835   0.16110303 
   36700    291.74788   -485.77387    149234.38   -47466.509    4006.4546   -51472.964   0.15202547 
   36800    290.81402   -532.27252    149231.59   -47542.897    3993.6302   -51536.527   0.15065458 
   36900    297.86769    -492.2851    149234.25     -47460.7    4090.4954   -51551.195   0.15373284 
   37000    292.82258    -482.0396    149208.93   -47438.282     4021.213   -51459.495   0.14786146 
   37100    291.00514   -521.41336    149202.72   -47489.407    3996.2548   -51485.662   0.15887002 
   37200    295.88034   -485.49143    149217.03   -47489.335    4063.2039   -51552.539   0.14958481 
   37300    294.88504   -513.90224    149239.47   -47490.913    4049.5359   -51540.449   0.15170667 
   37400    289.67818   -491.05723    149222.11   -47498.135    3978.0322   -51476.167   0.15950976 
   37500    296.18593   -473.52042    149222.07   -47471.688    4067.4005   -51539.088   0.14499208 
   37600    291.32009   -527.24363    149226.49   -47519.935    4000.5799   -51520.514   0.15307159 
   37700    286.78736   -470.76276    149190.23    -47596.22    3938.3337   -51534.553   0.14379569 
   37800    287.25977   -499.16907    149189.11   -47617.868    3944.8211   -51562.689   0.15120761 
   37900     294.2915   -456.19201    149220.84   -47520.861    4041.3851   -51562.246   0.14682708 
   38000    289.31095   -506.60484    149243.81   -47457.717    3972.9891   -51430.706    0.1553191 
   38100    291.41749   -528.57867     149247.5   -47393.958    4001.9175   -51395.875   0.16272803 
   38200    299.17662   -523.92014    149272.84   -47357.299    4108.4704    -51465.77   0.15153115 
   38300    297.15359   -513.87125    149269.41   -47412.708    4080.6889   -51493.397    0.1596804 
   38400    298.13495   -493.60236    149295.91   -47347.403    4094.1656   -51441.569   0.14780329 
   38500    293.41865    -480.3399    149258.99   -47404.234    4029.3985   -51433.632   0.15512039 
   38600    295.49349   -465.02487    149276.73   -47364.535    4057.8915   -51422.426    0.1549545 
   38700    297.75329   -464.31585    149263.19   -47325.494    4088.9244   -51414.419   0.14945311 
   38800    299.89398   -461.31026    149253.66   -47365.283    4118.3217   -51483.605   0.15463711 
   38900    298.87636    -524.3233    149299.85   -47307.147     4104.347   -51411.494   0.15579115 
   39000    295.77084   -524.65038    149266.09    -47365.38    4061.7002    -51427.08    0.1513399 
   39100    299.22058   -480.90865    149278.57   -47387.225    4109.0741   -51496.299   0.15521438 
   39200    290.05476   -530.44426    149248.33   -47515.925    3983.2036   -51499.129   0.14686417 
   39300    293.31803   -473.27386    149217.27   -47525.436    4028.0168   -51553.453   0.14813747 
   39400    295.41053   -546.03852    149255.36   -47400.931    4056.7523   -51457.684   0.15876443 
   39500     292.7858   -497.34113    149261.04   -47385.159    4020.7079   -51405.867   0.14966219 
   39600    297.41822   -503.32112    149249.15   -47378.885     4084.323   -51463.208   0.15719427 
   39700    297.61439   -471.28642    149247.53   -47360.351     4087.017   -51447.368    0.1502345 
   39800    293.45122   -475.18535    149235.44   -47381.285    4029.8458   -51411.131   0.15951912 
   39900    296.95297   -496.60259    149269.39   -47344.028    4077.9339   -51421.962   0.15238392 
   40000    290.75911   -546.44845    149283.33   -47426.646    3992.8762   -51419.522   0.15909807 
   40100     290.3584   -527.09289     149242.1   -47429.105    3987.3735   -51416.479   0.15499453 
   40200    296.02783   -492.71781    149259.48   -47406.344    4065.2294   -51471.574   0.14890762 
   40300    297.85534   -490.33883     149215.3   -47409.186    4090.3258   -51499.512   0.16119439 
   40400     291.1515    -514.3098    149225.03   -47501.702    3998.2647   -51499.967   0.14710698 
   40500    299.25385   -513.47336    149244.58   -47364.764     4109.531   -51474.295   0.16242519 
   40600    294.50055   -501.52588    149256.51   -47437.097    4044.2559   -51481.353   0.15276186 
   40700    294.47083   -497.99737     149232.7   -47443.445    4043.8477   -51487.292   0.15364609 
   40800    295.09155    -505.3032    149216.73   -47415.356    4052.3719   -51467.728   0.15751284 
   40900    294.16379   -505.17248    149219.38   -47400.022    4039.6312   -51439.653   0.15171533 
   41000    294.29769   -502.59848    149217.98   -47466.868    4041.4701   -51508.338   0.15190022 
   41100     293.2041   -531.32676     149237.2   -47439.621    4026.4522   -51466.073   0.15877891 
   41200    297.61989   -481.51703    149260.94   -47324.613    4087.0925   -51411.705    0.1557881 
   41300    296.11521   -484.51842    149239.59   -47405.165    4066.4294   -51471.594   0.15145532 
   41400    300.62947   -480.87318    149264.97   -47355.188    4128.4218    -51483.61   0.15483797 
   41500    292.71793   -538.38411    149264.38   -47370.177    4019.7759   -51389.953   0.15449318 
   41600    296.43764   -516.49416    149266.51   -47375.261    4070.8572   -51446.118   0.15553523 
   41700     292.9625   -520.27947    149242.25     -47487.4    4023.1344   -51510.534   0.15234349 
   41800    296.15287   -535.48027    149267.94   -47401.759    4066.9465   -51468.705   0.15740625 
   41900    293.60767   -506.55789    149250.72   -47477.331    4031.9943   -51509.326   0.14565539 
   42000      296.503    -464.9911    149243.56   -47452.634    4071.7547   -51524.388   0.14944153 
   42100    294.32023   -461.93914    149214.19   -47519.515    4041.7795   -51561.295   0.14471826 
   42200    292.70941    -475.6212     149244.5   -47486.151    4019.6588   -51505.809   0.14986997 
   42300    293.17328   -477.41744    149245.32   -47443.364     4026.029   -51469.393   0.15344011 
   42400    295.75069   -515.73546    149266.52    -47470.74    4061.4236   -51532.164   0.14556746 
   42500    293.21872   -525.64225    149248.28   -47433.724     4026.653   -51460.377   0.16456334 
   42600    291.54476   -550.10123    149255.84   -47476.748    4003.6653   -51480.413   0.15002815 
   42700    291.39293   -499.09965    149237.33   -47540.949    4001.5802   -51542.529   0.15538922 
   42800    294.08706   -504.38032    149246.54   -47454.345    4038.5776   -51492.922   0.15043045 
   42900    292.79595   -503.83165    149229.38   -47469.176    4020.8472   -51490.024   0.14975648 
   43000    291.81797   -477.39587    149257.09   -47488.145    4007.4171   -51495.562   0.15144026 
   43100    296.38181   -509.16724    149278.58    -47410.99    4070.0905   -51481.081   0.15218751 
   43200    296.09305   -548.04481    149262.78   -47427.835     4066.125    -51493.96    0.1608729 
   43300     297.4936   -458.04973    149249.08   -47414.734    4085.3582   -51500.092   0.14669403 
   43400    297.24355   -469.92043    149276.27   -47345.774    4081.9244   -51427.699   0.15858727 
   43500     295.7451   -505.27642    149288.57   -47404.473    4061.3468    -51465.82   0.14901907 
   43600    297.24121   -524.31028    149275.16   -47448.233    4081.8923   -51530.125   0.15274355 
   43700    292.13915    -497.2948    149235.06   -47490.848    4011.8277   -51502.676   0.15591778 
   43800    288.57295   -539.63529     149239.1   -47527.452    3962.8546   -51490.306   0.15382988 
   43900    295.14573   -510.39155     149256.9   -47439.008    4053.1158   -51492.123    0.1516194 
   44000    291.68777   -507.21549    149222.88   -47526.584    4005.6291   -51532.213   0.15511532 
   44100     298.0562   -478.97528       149235   -47482.929    4093.0841   -51576.013   0.15058643 
   44200    292.79909    -512.2749    149247.32   -47445.336    4020.8904   -51466.226   0.15478098 
   44300    291.54893   -537.11296    149229.57   -47444.883    4003.7225   -51448.605   0.15504205 
   44400    296.15945   -483.33388     149228.6   -47461.028    4067.0369   -51528.065   0.14942076 
   44500    293.14003   -501.10535    149230.66   -47456.953    4025.5724   -51482.526   0.15876222 
   44600     296.4534   -512.86256    149234.31    -47465.89    4071.0736   -51536.964   0.14831565 
   44700    295.33879   -497.59786    149218.69   -47450.711    4055.7671   -51506.478   0.16021695 
   44800    296.50057   -511.25589    149241.58   -47411.838    4071.7213   -51483.559   0.14842576 
   44900    291.77277   -513.86583    149242.09   -47396.244    4006.7964   -51403.041   0.15944354 
   45000    292.62159   -469.06425    149235.24    -47441.08    4018.4529   -51459.533   0.15260028 
   45100    297.38307   -535.17856    149258.79   -47325.793    4083.8403   -51409.633   0.16274767 
   45200    297.17817   -515.96912    149245.52   -47360.617    4081.0266   -51441.644   0.16181064 
   45300    298.58145   -508.02757    149238.74    -47384.81    4100.2972   -51485.107   0.14672022 
   45400     296.5418   -504.50232    149233.65   -47450.736    4072.2876   -51523.024   0.16010294 
   45500    294.69511   -525.39674    149219.12   -47382.355    4046.9277   -51429.283   0.15018541 
   45600    296.08215   -513.04177    149219.27   -47373.857    4065.9753   -51439.833   0.15968135 
   45700    302.48301    -509.4877    149240.73   -47330.043    4153.8757   -51483.918   0.15991667 
   45800    295.76925   -496.22152    149234.52   -47403.692    4061.6784    -51465.37   0.15395713 
   45900    298.88778   -475.31135    149254.62   -47269.153    4104.5039   -51373.657   0.16033165 
   46000    302.40571   -478.37787    149271.22   -47334.363    4152.8142   -51487.177   0.15446004 
   46100    303.17081   -489.75062    149289.32   -47240.718    4163.3211   -51404.039   0.15745329 
   46200    301.79701   -493.63714    149287.95    -47298.65    4144.4552   -51443.106   0.15744058 
   46300    299.00622   -480.94437     149302.2   -47287.828    4106.1303   -51393.958   0.15812395 
   46400    298.82817   -490.61765    149242.72   -47330.538    4103.6853   -51434.223   0.15616298 
   46500    295.98517   -509.94439     149265.3   -47301.565    4064.6436   -51366.209   0.15949693 
   46600    299.74454   -496.31112     149255.2   -47362.565    4116.2694   -51478.834   0.14960667 
   46700    299.55383   -497.02989     149265.6   -47293.844    4113.6506   -51407.495   0.15963013 
   46800    301.02907   -537.96686    149272.58   -47302.379    4133.9094   -51436.289   0.15846458 
   46900    291.88197   -484.22524    149276.83   -47363.913     4008.296   -51372.209   0.16017204 
   47000    297.66554   -493.90669    149282.96   -47398.603    4087.7194   -51486.323   0.15107959 
   47100    296.98274    -491.5924    149254.55   -47409.494    4078.3427   -51487.837    0.1565899 
   47200    290.04261   -474.46698    149241.51   -47370.241    3983.0368   -51353.278   0.15633049 
   47300    292.33992    -505.0192    149262.67   -47500.557    4014.5849   -51515.142   0.14601314 
   47400     289.5212   -492.36194    149263.37   -47433.414    3975.8765    -51409.29   0.16230784 
   47500    290.75851   -490.85682     149256.6   -47439.088    3992.8679   -51431.956   0.14609102 
   47600    293.97118   -504.82816    149256.58    -47434.59    4036.9862   -51471.576   0.16071387 
   47700    296.64477   -455.22443    149281.59   -47357.513    4073.7016   -51431.215   0.15495999 
   47800    292.41866   -505.52173    149290.63   -47417.424    4015.6661    -51433.09   0.15551412 
   47900    295.52465   -483.58884    149269.87   -47471.868    4058.3194   -51530.187   0.15372237 
   48000     297.4296   -504.51214    149275.68   -47427.724    4084.4793   -51512.204   0.14731522 
   48100    295.44666   -489.53598    149266.39   -47469.691    4057.2483   -51526.939   0.15276875 
   48200    296.74146   -495.73532    149299.78   -47463.539    4075.0294   -51538.568   0.14958032 
   48300    293.42021   -477.32207    149272.89   -47409.202      4029.42   -51438.622   0.15636555 
   48400    294.18665   -482.07892    149280.49   -47456.641    4039.9453   -51496.586   0.15206098 
   48500    285.56931   -573.69023    149233.77   -47540.009    3921.6067   -51461.615   0.16177096 
   48600    292.57418    -506.5876    149234.16   -47529.783    4017.8019   -51547.585   0.14841212 
   48700    296.45421   -471.91272    149248.55   -47413.376    4071.0847   -51484.461    0.1558503 
   48800    297.09395   -492.10819    149276.89    -47406.89    4079.8699    -51486.76   0.15409624 
   48900    296.78893    -498.8727    149271.87   -47434.075    4075.6812   -51509.756   0.15190933 
   49000    294.29768   -531.36392    149249.17   -47472.593    4041.4699   -51514.062   0.15175626 
   49100     296.5632   -491.62407     149257.5   -47380.417    4072.5814   -51452.999   0.15749442 
   49200    295.82195   -511.51485    149277.48    -47419.75    4062.4021   -51482.152   0.15163426 
   49300    292.91344   -524.30591     149272.1   -47486.532    4022.4607   -51508.992   0.15259262 
   49400    289.37918   -487.52878    149226.73   -47499.031    3973.9262   -51472.957   0.15617524 
   49500    293.59063   -488.13232    149255.98   -47441.641    4031.7603   -51473.401   0.15123374 
   49600    293.34818   -496.65776    149265.56   -47436.593    4028.4308   -51465.024   0.15716742 
   49700    294.38462   -507.37176    149262.21   -47438.963    4042.6638   -51481.626   0.15148522 
   49800    293.64955    -500.3105     149252.7   -47450.328    4032.5695   -51482.897   0.15595495 
   49900    294.79421   -512.40571    149248.17   -47429.249    4048.2885   -51477.537   0.15298814 
   50000    289.44922   -518.28452    149242.04   -47437.826     3974.888   -51412.714   0.15561067 
   50100    297.73099    -503.1911    149256.91   -47291.154    4088.6182   -51379.772   0.16107876 
   50200    300.79351   -526.78234    149254.49   -47368.483    4130.6746   -51499.158   0.15459049 
   50300    297.95644   -449.54924    149224.64   -47376.701    4091.7141   -51468.415   0.15403242 
   50400    296.66056   -489.92851    149230.87   -47400.887    4073.9185   -51474.805   0.15351623 
   50500    296.56828   -491.89896    149239.44   -47305.049    4072.6511     -51377.7   0.15820783 
   50600    299.73867   -489.49801    149324.54   -47242.061    4116.1889    -51358.25   0.15904405 
   50700    289.79308   -517.50115    149277.38   -47484.993    3979.6102   -51464.603   0.15202859 
   50800    294.14923   -555.00648    149243.32   -47466.595    4039.4314   -51506.026   0.15657766 
   50900    296.90679   -489.77066    149248.75   -47489.493    4077.2998   -51566.793   0.15078501 
   51000    296.87272   -493.89125    149258.96   -47448.854     4076.832   -51525.686   0.15260061 
   51100    297.45836   -509.71524    149274.25   -47461.079    4084.8742   -51545.953    0.1557992 
   51200     291.9146   -495.07616    149265.26   -47518.431    4008.7441   -51527.175   0.14897625 
   51300    296.87979   -504.07445    149256.63   -47532.639    4076.9289   -51609.568   0.14569935 
   51400    293.20901   -483.91468    149242.18   -47461.115    4026.5197   -51487.634   0.15341742 
   51500     292.3639   -490.63743    149235.43   -47524.414    4014.9142   -51539.328   0.14830886 
   51600    292.43885   -522.96801    149216.68   -47433.548    4015.9433   -51449.491   0.16093693 
   51700    300.99024   -474.76268    149255.66   -47330.982    4133.3761   -51464.358   0.15362785 
   51800     297.2217    -481.2209    149255.47   -47385.382    4081.6244   -51467.006   0.15295595 
   51900    294.03332    -510.4869    149253.14   -47445.736    4037.8396   -51483.575   0.15075337 
   52000    293.84988    -496.4341    149260.03   -47426.467    4035.3205   -51461.788   0.15506171 
   52100    291.58978   -483.67201    149251.13   -47509.336    4004.2834   -51513.619   0.15198847 
   52200    293.89834   -467.81039    149245.47   -47564.216    4035.9859   -51600.201    0.1445218 
   52300    290.80071   -506.92583    149221.48   -47537.947    3993.4475   -51531.394   0.15121495 
   52400     289.4271   -516.65444    149205.02   -47625.714    3974.5842   -51600.298   0.14429953 
   52500    295.27461   -499.68224    149234.24   -47468.985    4054.8857   -51523.871   0.15803452 
   52600    294.29605    -508.2702    149276.43   -47441.328    4041.4475   -51482.775   0.15461307 
   52700    297.39903   -476.60391    149247.11   -47373.971    4084.0596   -51458.031    0.1545633 
   52800    296.99651   -484.06749    149283.36   -47346.433    4078.5319   -51424.965   0.15404775 
   52900    300.59485   -505.36427    149283.56   -47371.298    4127.9464   -51499.244   0.15219804 
   53000    303.96662   -488.64569    149290.37   -47318.558    4174.2495   -51492.808   0.15379153 
   53100    298.71011   -517.21292    149233.27   -47458.955    4102.0641   -51561.019   0.15846111 
   53200    294.56456    -466.9565    149206.04   -47503.044    4045.1348   -51548.178    0.1462041 
   53300    295.83424   -445.65999    149228.82   -47466.399    4062.5709    -51528.97   0.14717399 
   53400    300.79977   -492.14202    149256.94    -47400.19    4130.7604    -51530.95   0.15118664 
   53500    295.59626   -482.52281    149261.47   -47386.612    4059.3028   -51445.915   0.15318835 
   53600    290.50458   -488.68692    149250.79   -47454.193    3989.3809   -51443.574   0.15388307 
   53700    295.35704   -528.08808    149252.22   -47437.505    4056.0177   -51493.523   0.15503574 
   53800    294.46285   -530.48441    149226.63   -47464.518    4043.7382   -51508.256   0.15580533 
   53900    289.71531   -505.52133    149219.32   -47467.009    3978.5422   -51445.551   0.15549261 
   54000     289.8712   -485.75998    149222.77   -47478.352    3980.6829   -51459.035   0.15579348 
   54100    293.15135   -505.81723    149235.58   -47450.116    4025.7279   -51475.844   0.15171972 
   54200    295.26514   -519.44129    149249.74   -47398.689    4054.7556   -51453.444   0.16309467 
   54300    305.57063   -506.22566    149279.23   -47323.756    4196.2768   -51520.033   0.15067178 
   54400    297.85794   -482.13788    149279.68   -47239.006    4090.3615   -51329.368   0.16088066 
   54500    300.48205   -501.76933    149269.64   -47316.428    4126.3974   -51442.826    0.1576093 
   54600     301.3319   -491.13134     149263.6   -47330.133    4138.0681   -51468.201   0.15293417 
   54700     293.7054   -511.98543    149272.29   -47393.042    4033.3364   -51426.379   0.15496647 
   54800     296.0302   -501.30277    149309.74    -47319.86    4065.2619   -51385.122   0.15773449 
   54900    297.91052   -495.37039    149273.73   -47338.306    4091.0835   -51429.389   0.15769498 
   55000    296.37332    -519.5809    149268.17   -47369.193    4069.9738   -51439.167   0.15657888 
   55100    299.57916   -501.87811    149266.46    -47389.62    4113.9983   -51503.618   0.15790299 
   55200    291.83045   -490.10366    149233.23   -47502.312    4007.5885   -51509.901   0.14972342 
   55300    295.69195     -496.497    149233.34    -47544.25    4060.6169   -51604.867   0.15026788 
   55400    292.06021   -501.44433    149233.93    -47510.59    4010.7437   -51521.334   0.15456032 
   55500    293.05968   -484.47591    149235.04   -47466.119    4024.4689   -51490.588   0.15426308 
   55600     294.1679   -486.37614    149274.43    -47364.68    4039.6878   -51404.368   0.15620818 
   55700    299.10004   -482.97639    149303.07    -47324.55    4107.4188   -51431.969   0.15402825 
   55800     295.6149   -477.61814    149337.46       -47312    4059.5587   -51371.558   0.15445243 
   55900    291.73696    -472.6018    149326.88   -47323.369    4006.3046   -51329.674   0.15752024 
   56000    299.53052   -510.26377    149315.08   -47345.176    4113.3303   -51458.506   0.15095593 
   56100    293.70002   -506.58821    149299.62   -47324.327    4033.2626    -51357.59   0.15629523 
   56200    305.13756    -452.5151    149314.94   -47365.006    4190.3296   -51555.336   0.15020277 
   56300     292.1051   -493.97097    149289.37   -47435.575    4011.3602   -51446.935   0.14950655 
   56400    293.15315   -541.85717    149281.95   -47489.022    4025.7525   -51514.774   0.15552212 
   56500    292.65614   -488.13059    149238.42   -47534.599    4018.9273   -51553.526    0.1483704 
   56600    292.26469   -485.75352    149239.18   -47590.515    4013.5517   -51604.066   0.14414196 
   56700    293.02197   -511.85263    149245.54   -47570.122    4023.9512   -51594.074   0.15160708 
   56800    290.34127   -510.63981    149258.53   -47450.708    3987.1382   -51437.846   0.15648878 
   56900    286.61703    -521.4149    149249.24   -47550.373    3935.9948   -51486.368   0.15701835 
   57000    290.58518   -474.43969     149244.7   -47532.529    3990.4876   -51523.017   0.14827559 
   57100    291.91838   -489.46747    149254.62   -47451.921    4008.7959   -51460.717   0.15512055 
   57200     293.7307    -546.4421    149265.17   -47406.548    4033.6839   -51440.232    0.1540295 
   57300    292.22328   -489.11475    149212.56   -47537.909     4012.983   -51550.892    0.1510909 
   57400    294.46811   -486.01203     149232.1   -47418.832    4043.8103   -51462.642   0.15380269 
   57500    294.90623   -498.71951    149250.41   -47385.185    4049.8269   -51435.011   0.15814345 
   57600    293.58269   -479.83687     149223.5   -47496.865    4031.6513   -51528.516   0.14953977 
   57700    294.48936   -491.07101     149251.4   -47405.266    4044.1022   -51449.369   0.15294465 
   57800    292.65995   -497.47023    149254.12   -47351.243    4018.9796   -51370.223   0.15766638 
   57900    298.97965   -520.61295    149250.65   -47394.317    4105.7656   -51500.082   0.15246436 
   58000    295.13583   -485.19543    149246.59   -47347.591    4052.9799   -51400.571   0.15745752 
   58100    296.77875   -500.71257    149255.14   -47402.009    4075.5415   -51477.551    0.1486431 
   58200      295.195   -529.66999    149287.04   -47297.128    4053.7925   -51350.921   0.16237532 
   58300    296.09391   -503.70119    149257.48   -47365.876    4066.1369   -51432.013   0.15305233 
   58400    296.73534   -489.29654    149254.93   -47406.137    4074.9454   -51481.083   0.15643832 
   58500    296.40742   -526.40256    149248.85   -47410.023    4070.4422   -51480.465   0.15238901 
   58600    297.52818   -482.98947    149247.42   -47450.143    4085.8331   -51535.977   0.14995444 
   58700    293.74367   -487.02917    149252.64   -47399.863     4033.862   -51433.725   0.15097695 
   58800    294.32918   -508.40475    149254.34   -47445.315    4041.9024   -51487.218   0.15563541 
   58900    294.98009   -534.09513    149256.36   -47364.008    4050.8412    -51414.85   0.15888998 
   59000    301.83228   -484.74656    149272.04   -47324.743    4144.9396   -51469.683   0.15331249 
   59100    297.18942   -499.78253    149290.45   -47289.538     4081.181   -51370.719   0.15920711 
   59200    293.39795    -488.6992    149270.46   -47414.111    4029.1143   -51443.226   0.15558846 
   59300    297.67888   -504.15262    149266.35   -47392.921    4087.9025   -51480.824   0.15409169 
   59400    294.87542   -508.35438    149273.44   -47376.761    4049.4038   -51426.164   0.16365886 
   59500    289.68489   -532.65041    149274.53   -47489.682    3978.1244   -51467.807   0.15598485 
   59600    297.55196   -528.74693    149260.35   -47463.168    4086.1596   -51549.327   0.15214338 
   59700    297.67129   -503.01703    149273.48   -47389.326    4087.7983   -51477.124   0.15826146 
   59800    293.77906   -472.33221    149245.21   -47505.517    4034.3479   -51539.865   0.14778186 
   59900    293.44789   -490.41266    149264.19   -47502.118    4029.8001   -51531.918    0.1537762 
   60000    299.24004   -514.19338    149287.07   -47467.982    4109.3413   -51577.323   0.15258463 
   60100    292.32746   -493.69889    149284.86   -47425.747    4014.4137   -51440.161   0.15406092 
   60200     295.9258   -507.48986    149266.38    -47393.86    4063.8283   -51457.688   0.15902735 
   60300    294.90182   -503.53209    149258.67   -47351.606    4049.7664   -51401.373   0.15399398 
   60400    298.93719    -465.2913    149276.13   -47300.068    4105.1824    -51405.25   0.15759018 
   60500    298.25356   -502.32355    149281.65   -47327.109    4095.7944   -51422.903   0.16066028 
   60600    296.05467   -463.19853    149291.87   -47395.646     4065.598   -51461.244   0.15148677 
   60700    304.82713   -504.32729    149311.11   -47215.783    4186.0666    -51401.85   0.15975203 
   60800     300.7007   -520.82473    149319.09   -47239.554    4129.3999   -51368.954   0.15965625 
   60900    298.45357   -488.81978    149329.36   -47335.147    4098.5411   -51433.688   0.15677855 
   61000    297.89904   -513.96627    149308.89   -47381.666    4090.9259   -51472.592   0.14992473 
   61100    294.61499   -513.75902    149280.97   -47360.065    4045.8274   -51405.893   0.16283076 
   61200    304.11841   -463.25957    149283.52   -47299.144     4176.334   -51475.478   0.14865361 
   61300    291.33277   -483.61433    149288.78   -47398.543    4000.7541   -51399.297   0.15732049 
   61400    293.69414   -520.69005     149261.8   -47450.921    4033.1818   -51484.103   0.15942024 
   61500    299.11906   -499.59729    149297.69   -47391.335      4107.68   -51499.015   0.15400833 
   61600    296.39243   -483.23799    149276.44    -47432.21    4070.2362   -51502.446   0.15407264 
   61700     289.0392   -553.19059    149300.77   -47505.703    3969.2574    -51474.96   0.15637598 
   61800    292.26496   -504.59914     149289.9   -47490.061    4013.5554   -51503.616    0.1498033 
   61900    291.15225   -520.92436     149302.1   -47382.297     3998.275   -51380.572   0.15794915 
   62000    296.79983   -504.82802    149303.18   -47391.181    4075.8309   -51467.012    0.1564928 
   62100    293.49048    -476.3435    149292.69   -47466.324     4030.385   -51496.709   0.14727738 
   62200    300.93047    -460.7272     149301.9   -47351.767    4132.5554   -51484.322   0.16019048 
   62300    295.93722   -469.80061    149280.81   -47401.418     4063.985   -51465.403   0.14705516 
   62400    297.49563   -491.51169    149271.24   -47450.394    4085.3861    -51535.78   0.15775875 
   62500    295.47777    -495.2149       149276   -47436.046    4057.6756   -51493.722   0.15723179 
   62600    297.20404   -501.62546     149268.1   -47470.408    4081.3817   -51551.789    0.1533688 
   62700    294.42409   -532.33529    149226.89   -47503.357    4043.2059   -51546.563   0.15549069 
   62800    289.26358   -535.20281     149196.2   -47470.156    3972.3386   -51442.495   0.15729219 
   62900    297.99174   -462.40164    149262.95   -47380.465     4092.199   -51472.664    0.1540957 
   63000    296.14478   -513.32639    149258.86   -47411.444    4066.8354   -51478.279    0.1539386 
   63100    291.26024   -441.13203    149224.49   -47481.465     3999.758   -51481.223   0.15302351 
   63200    294.14681    -529.4779    149259.91   -47358.417    4039.3981   -51397.815   0.15600538 
   63300    292.79094   -501.01886    149220.77    -47457.24    4020.7785   -51478.019    0.1574175 
   63400    287.93117   -528.70866    149191.24   -47547.297    3954.0412   -51501.339   0.15807326 
   63500    289.76977   -508.14025    149209.05    -47521.31      3979.29     -51500.6   0.15261807 
   63600    291.59572   -507.93908    149191.51   -47573.501     4004.365   -51577.866   0.15857528 
   63700    289.37902   -510.60648    149190.54   -47539.231     3973.924   -51513.155   0.15031465 
   63800    285.33748   -508.96487    149182.17   -47613.526    3918.4232   -51531.949   0.14974861 
   63900    289.03948   -493.17717    149195.56    -47499.73    3969.2612   -51468.991   0.15954892 
   64000    294.28168   -514.58524    149223.44   -47409.791    4041.2503   -51451.041   0.15470754 
   64100    295.97948   -507.22607    149246.74    -47361.25    4064.5655   -51425.816   0.15921772 
   64200    295.86173   -530.81932    149263.34   -47356.234    4062.9484   -51419.182   0.15898789 
   64300    294.86599   -476.56041    149299.12   -47397.091    4049.2742   -51446.365   0.14809323 
   64400    297.28254   -490.91097    149267.35   -47452.479    4082.4597   -51534.939   0.15283964 
   64500    298.18064   -483.14287     149252.6   -47440.069     4094.793   -51534.862   0.15271166 
   64600    299.47849   -480.56478    149252.09   -47475.022    4112.6159   -51587.638   0.14690992 
   64700    292.34919   -511.51047     149246.6   -47481.765    4014.7121   -51496.477   0.15660427 
   64800    290.45083   -525.12279    149254.64    -47430.14    3988.6428   -51418.783   0.15486387 
   64900    299.90736   -482.39627     149273.8   -47344.141    4118.5054   -51462.646   0.15705763 
   65000    298.35317   -501.80693    149325.87   -47337.296    4097.1624   -51434.459   0.14928776 
   65100     297.4831   -514.19311    149324.68   -47402.973     4085.214   -51488.187   0.15269892 
   65200     296.2654   -487.11584    149316.31   -47422.762    4068.4919   -51491.254   0.14929633 
   65300    294.69278   -484.92606    149344.46    -47352.44    4046.8957   -51399.336   0.15459621 
   65400    291.89208    -504.2547    149296.49   -47396.454    4008.4348   -51404.889   0.15524596 
   65500    298.11082   -509.85015    149312.21   -47331.792    4093.8343   -51425.626    0.1530884 
   65600    295.61488   -491.81469    149317.78   -47347.392    4059.5585    -51406.95   0.15673236 
   65700    299.53958   -480.31181    149330.76   -47308.715    4113.4548    -51422.17   0.15261908 
   65800    295.52774   -520.15164    149307.69   -47377.813    4058.3619   -51436.175   0.16085279 
   65900    297.36136   -503.79663    149311.73   -47391.621    4083.5423   -51475.164   0.15013549 
   66000    295.42224   -500.90582    149313.39   -47393.748     4056.913   -51450.661   0.15481571 
   66100    294.96144    -549.7983    149276.09   -47363.778    4050.5851   -51414.363   0.15827533 
   66200     294.1158   -533.43784    149263.81   -47501.857    4038.9722   -51540.829    0.1522284 
   66300    295.02273   -495.14366    149267.69   -47432.653    4051.4267    -51484.08    0.1513817 
   66400    296.41744   -485.00949    149278.57   -47433.785    4070.5797   -51504.365   0.15182073 
   66500    293.59556   -535.70849    149259.14   -47466.931     4031.828   -51498.759   0.15513703 
   66600    289.59766   -544.69723    149249.51   -47469.443    3976.9265   -51446.369   0.15796626 
   66700     291.1843   -490.20389    149232.09   -47448.515    3998.7151   -51447.231    0.1542536 
   66800    291.45067   -504.91926    149238.36   -47478.903     4002.373   -51481.276   0.15688307 
   66900    292.86923   -497.01184     149243.7   -47486.397    4021.8536    -51508.25   0.15386152 
   67000    288.06951   -501.64777     149223.2   -47596.876    3955.9411   -51552.817   0.14533849 
   67100       290.67    -493.4464    149253.86   -47425.218    3991.6525    -51416.87   0.15972617 
   67200    290.28295   -482.55852    149238.84   -47535.828    3986.3373   -51522.165   0.15174197 
   67300    293.09677   -492.77661    149248.41   -47452.603    4024.9783   -51477.581   0.15347252 
   67400    297.43831   -487.97269    149240.56   -47429.575    4084.5989   -51514.173   0.15504262 
   67500    295.56183   -474.61546    149262.41   -47415.349      4058.83   -51474.179   0.15206323 
   67600    294.84537   -464.75092    149293.94   -47268.701    4048.9911   -51317.692   0.15683877 
   67700    293.37525   -520.97118    149284.07    -47349.88    4028.8025   -51378.683   0.15899514 
   67800    298.13077   -498.22635    149258.43   -47391.043    4094.1082   -51485.151   0.15463976 
   67900    295.26996   -538.15619    149234.34   -47419.322    4054.8219   -51474.143   0.16011202 
   68000    291.60871   -521.87624    149219.66   -47449.168    4004.5434   -51453.712   0.15926182 
   68100    295.88742   -493.68265    149235.69   -47452.665    4063.3012   -51515.966   0.14990289 
   68200    301.58981    -451.7049    149250.85   -47426.642    4141.6098   -51568.252   0.14931923 
   68300    296.49679   -459.30682    149261.51   -47369.144    4071.6694   -51440.814   0.15583468 
   68400    297.32435   -519.35792    149281.39   -47341.295    4083.0339   -51424.329   0.15354252 
   68500    298.64477   -504.73083    149277.45   -47335.846    4101.1667   -51437.013   0.16347743 
   68600    292.55048   -532.92246    149257.03    -47431.09    4017.4764   -51448.566   0.15722721 
   68700    296.52755   -527.05832    149253.24   -47406.608    4072.0918   -51478.699   0.15609486 
   68800    297.70393   -507.91278     149266.1   -47400.707    4088.2466   -51488.953   0.15922188 
   68900    295.89332   -485.68649     149228.8   -47402.782    4063.3822   -51466.164   0.15425191 
   69000    292.60105   -468.95755    149258.49   -47399.215    4018.1708   -51417.386   0.15581379 
   69100    293.04687   -479.39429    149226.45   -47456.716    4024.2931    -51481.01   0.15715545 
   69200    294.15226   -463.69016    149224.71   -47468.761    4039.4729   -51508.234   0.15110577 
   69300    288.82783   -507.20193    149195.67   -47504.446    3966.3547   -51470.801    0.1585039 
   69400    289.88434   -500.13586     149189.9   -47557.714    3980.8634   -51538.577   0.15596307 
   69500    292.56214   -480.47422    149198.06   -47418.296    4017.6365   -51435.933   0.15654968 
   69600    295.38992   -511.15648    149235.27   -47310.707    4056.4692   -51367.176   0.16441923 
   69700    294.95757   -478.52608    149257.15   -47408.629    4050.5319   -51459.161   0.15793744 
   69800    296.58583    -500.5532    149222.93   -47403.574    4072.8921   -51476.466   0.15570289 
   69900    293.65521   -499.77838    149198.04   -47501.114    4032.6471   -51533.762    0.1585942 
   70000    289.11502   -517.19208    149250.16   -47431.904    3970.2986   -51402.202   0.16291982 
   70100    289.18026   -508.34152    149245.62   -47558.375    3971.1946   -51529.569   0.14959964 
   70200    292.35297   -479.73086    149261.34   -47388.438    4014.7641   -51403.202   0.15914052 
   70300    296.21165   -503.01994    149256.67   -47400.774    4067.7537   -51468.528   0.15235871 
   70400    300.39968   -503.21601    149273.14   -47286.327    4125.2662   -51411.593   0.15659749 
   70500     299.3207   -489.03885    149293.63   -47366.521     4110.449   -51476.969   0.15690982 
   70600    299.38672   -535.17871     149280.2   -47426.579    4111.3557   -51537.934   0.15132113 
   70700    295.51037   -498.85744    149267.94   -47391.148    4058.1234   -51449.271   0.15661463 
   70800    291.37727   -506.76864    149284.15   -47433.805    4001.3652   -51435.171    0.1581023 
   70900    295.14363   -529.09965    149244.65   -47420.309     4053.087   -51473.396    0.1490968 
   71000    293.14661   -477.32206    149266.61   -47444.282    4025.6628   -51469.945   0.15618833 
   71100    294.53045   -491.08217    149267.25   -47432.223    4044.6665   -51476.889   0.15002466 
   71200    295.66157   -500.74926    149273.77    -47477.32    4060.1997    -51537.52   0.14818147 
   71300    290.10738   -472.42327    149225.87   -47522.738    3983.9262   -51506.665    0.1537411 
   71400     295.1499   -494.15335    149245.93   -47460.163    4053.1731   -51513.336   0.14811932 
   71500    296.11153   -492.57665    149245.72   -47412.342    4066.3788   -51478.721   0.15846199 
   71600     298.5449   -477.72298     149253.4   -47432.458    4099.7952   -51532.253    0.1492772 
   71700    295.16427   -487.05691    149248.82   -47418.802    4053.3704   -51472.172   0.15523559 
   71800    287.11861   -522.89144    149223.57   -47590.484    3942.8827   -51533.366   0.15364619 
   71900    289.58685   -484.61058    149213.52   -47531.526    3976.7781   -51508.304    0.1550557 
   72000    295.74025   -484.21365    149224.49   -47499.602    4061.2802   -51560.882   0.15070756 
   72100    295.35694   -502.83584    149255.45   -47362.278    4056.0163   -51418.295   0.15609788 
   72200     299.7996   -493.38173    149317.27   -47255.377    4117.0255   -51372.402   0.15802711 
   72300    304.28406    -460.4105    149327.51   -47228.721    4178.6088   -51407.329   0.15004349 
   72400    299.28254   -505.47677     149314.9   -47349.371    4109.9249   -51459.296   0.15227883 
   72500    296.28425   -498.56822    149307.74   -47342.935    4068.7508   -51411.686   0.15468086 
   72600    295.63022   -504.84221    149326.99   -47288.089    4059.7691   -51347.858   0.15555845 
   72700     293.0172   -479.73505     149294.4   -47451.955    4023.8857    -51475.84   0.14977778 
   72800    293.53702   -488.94838    149314.77   -47378.223    4031.0241   -51409.247   0.15130283 
   72900    297.64535   -509.28382    149291.99   -47387.853    4087.4421   -51475.295   0.15526885 
   73000    294.53289   -491.77389    149282.99   -47397.421       4044.7   -51442.121   0.15427327 
   73100    299.74306   -470.71039    149296.74   -47353.923    4116.2491   -51470.172   0.14947512 
   73200    293.86238   -522.62219    149299.11   -47341.717    4035.4921   -51377.209   0.15722738 
   73300    294.20853    -495.3624     149306.8   -47318.929    4040.2456   -51359.175   0.15352389 
   73400    301.13347   -489.21704    149336.34   -47301.311    4135.3431   -51436.654   0.14983076 
   73500    297.83291   -498.09227    149317.71   -47302.221    4090.0178   -51392.238   0.15684318 
   73600    293.36928   -491.46831    149286.67   -47342.875    4028.7206   -51371.596   0.15264796 
   73700    297.59086   -483.27415    149295.92   -47404.402    4086.6939   -51491.096    0.1552496 
   73800    293.40081   -459.94707     149283.1   -47492.092    4029.1536   -51521.245   0.14708977 
   73900    293.11255   -497.62142    149288.29   -47478.476    4025.1951   -51503.671   0.15039781 
   74000    296.27871   -538.05837     149287.4   -47402.152    4068.6746   -51470.826   0.16297441 
   74100    298.82847   -475.80951    149330.58   -47233.883    4103.6894   -51337.572   0.15604028 
   74200    297.16069   -536.24879     149317.2   -47406.314    4080.7865     -51487.1    0.1540787 
   74300    294.27843    -473.5726    149304.75   -47409.409    4041.2056   -51450.615   0.14893105 
   74400    296.47259   -474.11228    149281.56   -47438.852     4071.337   -51510.189   0.14954191 
   74500    289.76393   -513.10729    149264.63   -47455.009    3979.2097   -51434.219   0.15344099 
   74600    290.97916    -520.0198    149272.25   -47457.859    3995.8981   -51453.757   0.15798041 
   74700    297.22136   -473.86746    149292.71   -47368.036    4081.6197   -51449.656   0.14986398 
   74800    290.12906    -483.2749     149283.9   -47417.707     3984.224   -51401.931   0.15572219 
   74900    297.19537   -486.05374    149300.83   -47417.261    4081.2627   -51498.524   0.15020203 
   75000    292.80745    -492.2935    149280.18   -47400.611    4021.0052   -51421.617   0.15313246 
   75100    295.96577   -553.88119    149326.57   -47328.222    4064.3772   -51392.599   0.16195976 
   75200    296.33846   -516.05359    149322.32   -47377.672    4069.4951   -51447.167   0.15087894 
   75300    294.95767   -479.58496    149301.92   -47428.742    4050.5333   -51479.276   0.15097239 
   75400    296.88479   -483.68318    149280.44   -47439.853    4076.9977    -51516.85   0.15214154 
   75500    294.09088   -518.66044    149278.67   -47440.694    4038.6301   -51479.324   0.15308556 
   75600    297.17218    -495.9521    149324.33   -47372.462    4080.9442   -51453.407    0.1476872 
   75700     301.4655   -515.56125    149323.75   -47331.147    4139.9026    -51471.05    0.1554922 
   75800    298.36604   -508.97149     149342.9   -47358.706    4097.3391   -51456.045   0.14727118 
   75900     300.5535   -502.31493    149313.26   -47373.564    4127.3786   -51500.942   0.15105432 
   76000    301.16418   -472.59768    149319.59   -47379.236    4135.7648   -51515.001     0.151575 
   76100    295.91136   -511.99855    149291.96   -47470.811      4063.63   -51534.441   0.14685157 
   76200    290.41842   -533.47907    149272.77   -47516.893    3988.1976    -51505.09    0.1524555 
   76300    294.31825   -520.04214    149294.59   -47458.609    4041.7524   -51500.362   0.14872909 
   76400    295.60294   -446.24447     149282.1   -47448.276    4059.3946   -51507.671   0.14648931 
   76500    293.70958   -480.73175    149292.96   -47435.775    4033.3938   -51469.169   0.15212583 
   76600    295.22808    -534.4178    149279.93   -47475.223    4054.2468    -51529.47   0.15152137 
[...]
   81900    290.61161   -547.91489    149222.11   -47472.175    3990.8506   -51463.026   0.15938656 
   82000    291.87474   -478.10765    149235.71   -47382.573    4008.1968    -51390.77   0.15501008 
   82100    298.41267   -511.47709    149231.97   -47331.154    4097.9795   -51429.133   0.15563864 
   82200    295.18009   -461.17022    149265.46   -47340.043    4053.5878   -51393.631    0.1532985 
   82300    294.79874   -484.49115    149241.49   -47415.454    4048.3508   -51463.804    0.1537663 
   82400     295.6261   -494.96244    149282.28   -47288.178    4059.7126   -51347.891   0.15778704 
   82500    303.11822   -501.43106    149301.04   -47196.396    4162.5989   -51358.995   0.16035382 
   82600    297.30915    -477.0618    149287.75   -47291.087    4082.8252   -51373.912   0.15729485 
   82700    293.04577   -478.05514    149244.74   -47370.982     4024.278    -51395.26   0.15180983 
   82800    295.38772   -522.26436     149230.7   -47382.879     4056.439   -51439.317     0.155992 
   82900     298.5831   -521.45991    149250.78   -47337.708    4100.3198   -51438.028   0.15725671 
   83000    300.86002   -531.60749    149288.16   -47274.536    4131.5879   -51406.124   0.15657125 
   83100    297.44052   -497.95127    149257.98    -47312.26    4084.6293   -51396.889   0.15867185 
   83200    296.22371   -510.90793    149282.75   -47345.873    4067.9193   -51413.792   0.15429611 
   83300    300.43501   -456.48174    149266.66   -47330.946    4125.7514   -51456.697   0.15526746 
   83400    297.94872   -503.16069    149259.09   -47415.593    4091.6082   -51507.201   0.15965592 
   83500    293.55429    -478.3138    149253.54   -47520.516    4031.2613   -51551.777      0.14955 
   83600    290.77722   -493.70478    149257.01   -47467.623    3993.1249   -51460.748   0.15247168 
   83700    293.40723   -528.61389    149261.98   -47503.866    4029.2417   -51533.108   0.14811558 
   83800    293.79303       -484.8    149258.11   -47467.213    4034.5398   -51501.752     0.145541 
   83900    293.64382   -483.02025    149246.33   -47469.238    4032.4907   -51501.728   0.15424599 
   84000    290.93044   -540.24236    149220.19   -47485.266     3995.229   -51480.495   0.15258783 
   84100    292.28037   -495.36235    149265.66   -47415.472    4013.7671   -51429.239   0.15299009 
   84200    296.47509   -453.56556    149272.03   -47368.484    4071.3714   -51439.856   0.15242429 
   84300    292.76453   -506.16652    149283.27   -47421.032    4020.4158   -51441.447   0.15326188 
   84400    293.37709   -507.03469    149260.86   -47415.474    4028.8278   -51444.302   0.15341723 
   84500    293.10858   -520.36236    149254.75   -47470.424    4025.1405   -51495.564   0.15949611 
   84600    297.51501   -518.11515    149271.86   -47387.026    4085.6522   -51472.678   0.15528522 
   84700    295.83041   -535.85555    149280.36   -47395.335    4062.5182   -51457.853   0.15226045 
   84800    298.36543   -490.76026    149269.17   -47391.409    4097.3307    -51488.74   0.15543795 
   84900    295.47774   -494.34171    149281.44   -47305.468    4057.6753   -51363.143   0.15360591 
   85000    295.31118   -487.07081    149261.66    -47381.13     4055.388   -51436.518   0.15405642 
   85100    294.33709   -471.26934    149261.18   -47405.398    4042.0112   -51447.409   0.15316121 
   85200    294.22604   -464.43502     149252.6   -47443.922    4040.4862   -51484.408   0.14953316 
   85300    295.72212    -478.5033    149297.85   -47457.063    4061.0312   -51518.094   0.14873787 
   85400    290.91397   -493.22716    149267.84   -47488.338    3995.0029   -51483.341    0.1508856 
   85500    293.95822   -543.15595    149279.85   -47427.975    4036.8083   -51464.783   0.15403204 
   85600    293.92721   -528.59935    149268.05   -47462.873    4036.3824   -51499.255   0.16015982 
   85700    298.14339    -485.0651    149271.21   -47403.496    4094.2815   -51497.777   0.14901457 
   85800    299.35128     -493.662    149274.13   -47395.223     4110.869   -51506.092   0.14972514 
   85900    298.62113   -511.39863    149295.16   -47364.107    4100.8422    -51464.95   0.15749818 
   86000    294.13296   -506.10499    149281.56    -47416.03    4039.2079   -51455.237   0.15123709 
   86100     300.7384   -487.74672    149280.53   -47388.467    4129.9177   -51518.385   0.15447627 
   86200    293.22338   -534.86602    149285.72   -47350.929     4026.717   -51377.646   0.15813019 
   86300    297.51824    -484.7627     149282.9   -47402.057    4085.6966   -51487.753   0.14841884 
   86400    292.40234   -499.95203    149261.38   -47461.323    4015.4421   -51476.765   0.15112959 
   86500    289.76562   -514.33318     149255.9   -47491.415     3979.233   -51470.648   0.15495577 
   86600    303.43649   -492.04586    149288.05   -47331.816    4166.9695   -51498.785   0.15271899 
   86700    294.99678   -524.32608    149285.66   -47328.286    4051.0703   -51379.357   0.16088825 
   86800    295.57825   -513.19008       149272   -47454.555    4059.0555   -51513.611   0.15087488 
   86900      296.812   -508.29473    149272.58   -47439.878     4075.998   -51515.877   0.14944803 
   87000    297.19234   -516.85064    149282.23   -47413.703    4081.2212   -51494.924   0.15781064 
   87100     297.1495    -486.9253    149285.99   -47384.175    4080.6328   -51464.808   0.14992849 
   87200    301.39416   -504.28084    149309.09   -47322.499     4138.923   -51461.422    0.1558848 
   87300    307.41925   -489.14392    149299.88   -47332.174    4221.6632   -51553.837   0.15147902 
   87400    300.00071   -501.47425    149288.64   -47385.817    4119.7873   -51505.604   0.14758538 
   87500    297.19024    -552.6496    149259.51   -47360.315    4081.1923   -51441.508   0.15940671 
   87600    298.85978   -481.34032    149273.81   -47383.273    4104.1195   -51487.393    0.1553208 
   87700    298.47379   -489.67217    149289.69   -47356.283    4098.8188   -51455.102   0.15512539 
   87800    292.37772   -510.49205    149261.73   -47443.678    4015.1039   -51458.782   0.15391103 
   87900    294.92263    -505.9435    149263.42     -47467.8    4050.0521   -51517.852   0.15559528 
   88000    297.25157   -500.38258    149274.98   -47433.067    4082.0345   -51515.101   0.14697046 
   88100    295.50722   -513.17746    149297.54   -47405.657      4058.08   -51463.737   0.15961854 
   88200      291.205     -512.777    149271.94   -47506.416    3998.9994   -51505.416   0.14855063 
   88300    295.54928   -509.39222    149258.23   -47443.321    4058.6576   -51501.979   0.15177744 
   88400    296.75996   -507.27957    149281.45   -47373.979    4075.2834   -51449.263   0.15470803 
   88500    293.42354    -502.7555    149293.81   -47452.113    4029.4657   -51481.579   0.14737604 
   88600    292.90686   -480.47772    149292.04   -47435.543    4022.3704   -51457.913   0.15405985 
   88700    293.85901   -516.29827     149291.3   -47409.731    4035.4459   -51445.177   0.15127865 
   88800    293.59626   -513.94023    149310.59   -47477.161    4031.8376   -51508.999   0.15416516 
   88900    298.09481   -500.85096    149353.62   -47415.146    4093.6144   -51508.761   0.14648293 
   89000    297.34619   -494.74763    149358.04   -47373.903    4083.3339   -51457.237    0.1516465 
   89100    294.37867   -503.99974    149343.77   -47431.352    4042.5821   -51473.935   0.14551102 
   89200    296.42243    -494.7658    149333.82   -47384.318    4070.6483   -51454.966   0.15278603 
   89300    289.69963   -512.75839    149303.16   -47506.831    3978.3268   -51485.158   0.14936497 
   89400    296.61925   -490.32345     149323.1   -47405.881    4073.3512   -51479.232   0.14743986 
   89500    290.58132   -485.53491    149316.99   -47509.618    3990.4347   -51500.053   0.14543764 
   89600    291.48651   -482.36495    149305.04   -47527.185    4002.8653    -51530.05   0.14123878 
   89700    292.80862    -465.8252    149314.39   -47442.868    4021.0212   -51463.889   0.14569823 
   89800    298.34549   -506.87044    149333.52   -47379.444    4097.0569   -51476.501   0.14800408 
   89900      293.353   -491.79471    149327.76   -47360.947     4028.497   -51389.444   0.15470208 
   90000    292.95318   -536.13993       149311   -47386.347    4023.0065   -51409.354   0.14798568 
   90100    294.61958   -492.15386     149326.5   -47368.202    4045.8905   -51414.093   0.15079329 
   90200    287.30397   -531.84832    149318.41   -47444.976    3945.4282   -51390.405   0.15249569 
   90300    297.08824     -488.005    149295.27   -47414.523    4079.7915   -51494.315   0.14934298 
   90400    296.30707   -521.31769    149300.75   -47397.534    4069.0641   -51466.598    0.1547579 
   90500    296.80488   -503.23559    149293.43   -47412.548    4075.9003   -51488.448   0.14941096 
   90600    293.58987   -478.71004    149267.45   -47433.497    4031.7498   -51465.247   0.14960008 
   90700     292.6812   -487.39961    149274.26   -47464.402    4019.2715   -51483.674   0.14574047 
   90800    293.24116   -494.27897    149270.91   -47482.961    4026.9612   -51509.922   0.14934568 
   90900    290.22225   -492.75232    149264.74   -47459.774    3985.5037   -51445.278   0.15102266 
   91000    292.72182   -499.29886    149262.23   -47479.429    4019.8293   -51499.259   0.15021952 
   91100    292.58165   -474.96792    149244.61   -47582.854    4017.9044   -51600.758    0.1438006 
   91200    289.78212   -487.30124    149262.77   -47524.919    3979.4595   -51504.379   0.14801266 
   91300    297.46401   -483.85335    149264.03   -47458.592    4084.9518   -51543.544   0.14912213 
   91400    298.16461   -492.06435    149247.61   -47425.994    4094.5728   -51520.566   0.14979654 
   91500    297.39089   -530.64176    149289.98   -47262.645    4083.9477   -51346.592   0.15731232 
   91600    301.60628   -473.31707    149294.01   -47334.233     4141.836   -51476.069   0.14767674 
   91700    294.97147   -500.05642    149265.75   -47406.515    4050.7229   -51457.238   0.15225474 
   91800    296.66897   -513.93733    149272.14   -47378.757    4074.0339   -51452.791   0.14689316 
   91900    298.98459   -510.90575    149259.63   -47370.993    4105.8334   -51476.827   0.15586669 
   92000    293.48941   -531.19487    149244.34   -47412.853    4030.3703   -51443.224   0.15404109 
   92100    293.25645   -531.65148    149242.93   -47390.715    4027.1712   -51417.886   0.15457551 
   92200    296.44943    -455.4177    149243.22   -47418.986     4071.019   -51490.005   0.14847576 
   92300    299.13509   -499.66274    149280.05   -47290.246    4107.9001   -51398.146   0.15400885 
   92400    295.39069   -502.53132    149255.49   -47340.053    4056.4798   -51396.533   0.16021252 
   92500    300.17226   -526.26032    149261.08   -47333.947    4122.1432    -51456.09   0.15803454 
   92600    300.98472    -508.9225     149285.9   -47243.106    4133.3004   -51376.406   0.15976048 
   92700    296.64252   -501.74967    149300.25   -47372.959    4073.6707    -51446.63   0.15246636 
   92800    295.35623   -508.01319    149275.73   -47383.992    4056.0066   -51439.998   0.15587893 
   92900    292.18695   -507.70089    149242.54   -47422.292    4012.4841   -51434.776   0.14958273 
   93000    296.18087   -533.08876    149220.77    -47434.27    4067.3311   -51501.601    0.1597557 
   93100    297.51884   -485.58343     149254.7   -47354.646    4085.7048   -51440.351   0.15294477 
   93200    294.88505   -545.36649    149250.68    -47415.96    4049.5361   -51465.496   0.15225998 
   93300    295.27907   -532.43866    149225.01   -47466.304     4054.947   -51521.251   0.15378037 
   93400    288.05012   -498.15378     149204.3   -47521.538    3955.6747   -51477.213   0.14977383 
   93500    286.02079   -550.05021     149211.7   -47523.393    3927.8068     -51451.2   0.15345535 
   93600    297.66162   -487.50267    149237.74   -47473.392    4087.6655   -51561.058   0.14850081 
   93700    291.43474   -492.33979    149258.11   -47453.125    4002.1544    -51455.28   0.14950137 
   93800    294.65636   -489.63961    149271.78   -47452.686    4046.3955   -51499.082   0.14510367 
   93900    294.04211   -460.80614    149245.49   -47523.869    4037.9602    -51561.83    0.1515384 
   94000    291.93478   -474.67776    149240.66   -47492.025    4009.0212   -51501.047   0.14424925 
   94100    297.87413   -473.29861    149277.75   -47369.365    4090.5839   -51459.949   0.15331677 
   94200    295.88298   -529.41611    149272.77   -47355.356    4063.2402   -51418.596   0.15801107 
   94300     298.3458   -488.60247    149270.04   -47374.268    4097.0611   -51471.329   0.14618761 
   94400    298.98718   -504.42964    149266.76   -47360.748     4105.869   -51466.617   0.15570749 
   94500    300.78592   -510.78669    149272.02   -47364.894    4130.5703   -51495.464    0.1455076 
   94600    294.46592   -519.46935    149277.98   -47375.663    4043.7804   -51419.444   0.15355685 
   94700    295.34005   -487.69221    149280.71   -47419.478    4055.7843   -51475.262   0.15005636 
   94800    290.60458   -504.75343    149246.02   -47464.849    3990.7541   -51455.603   0.15069541 
   94900    294.98495   -535.31667    149223.85   -47487.993    4050.9079   -51538.901   0.15348936 
   95000    297.03533   -513.00222    149209.81   -47449.452    4079.0649   -51528.517   0.15311273 
   95100    297.60891   -499.24227    149203.35   -47407.971    4086.9417   -51494.912   0.15829474 
   95200    293.85595   -485.58109    149225.85   -47439.864    4035.4039   -51475.268   0.15352534 
   95300    296.24762   -490.56354    149229.21   -47388.241    4068.2476   -51456.489   0.15755986 
   95400    297.61273   -503.78182    149258.73   -47357.694    4086.9942   -51444.688   0.14978743 
   95500    298.38828   -513.28796    149248.31   -47373.193    4097.6444   -51470.837   0.15597441 
   95600    302.62363   -505.99967    149277.31   -47364.522    4155.8068   -51520.328   0.15518127 
   95700    296.56466   -499.65872    149277.85    -47406.14    4072.6015   -51478.741   0.15075056 
   95800     296.7084   -468.17106    149303.27   -47350.803    4074.5754   -51425.378   0.15158219 
   95900    299.38951   -456.32363    149293.68   -47368.875    4111.3939   -51480.269   0.15174027 
   96000    294.15312   -501.63255    149294.23   -47334.527    4039.4847   -51374.011    0.1506061 
   96100    300.08949   -490.99273    149316.74   -47289.264    4121.0065   -51410.271   0.15866591 
   96200    304.33307     -525.418    149327.63   -47312.228    4179.2818   -51491.509   0.14985811 
   96300    300.54803    -492.5454    149317.23    -47329.27    4127.3034   -51456.573   0.15020972 
   96400     299.3313   -502.61341    149312.34   -47379.577    4110.5945   -51490.171   0.15197512 
   96500    299.64847   -516.21617    149310.07   -47376.215    4114.9502   -51491.165   0.14627572 
   96600    294.72744   -497.02611    149281.05   -47426.214    4047.3717   -51473.586   0.15604191 
   96700    296.87966   -483.47803    149315.78    -47399.59    4076.9272   -51476.517   0.14676824 
   96800    298.16421   -498.72891    149303.28   -47416.663    4094.5674    -51511.23    0.1473763 
   96900    292.07551    -508.8646    149281.92   -47424.533    4010.9538   -51435.487   0.15158385 
   97000    293.23786   -491.69056    149280.04   -47499.436    4026.9158   -51526.352   0.14629663 
   97100    294.23905   -519.75417    149272.35   -47469.625    4040.6648    -51510.29   0.15182044 
   97200    292.70067   -502.08209    149268.64   -47406.705    4019.5388   -51426.244   0.15262133 
   97300    298.60204    -483.9026    149304.02   -47298.231    4100.5799   -51398.811   0.15499682 
   97400     290.0569   -543.11407    149304.87   -47394.814     3983.233   -51378.047    0.1560733 
   97500    300.34234   -471.61584    149288.06   -47360.521    4124.4788       -51485   0.14976747 
   97600    299.25649   -469.86078    149296.32    -47300.87    4109.5672   -51410.437   0.15384967 
   97700    305.26688   -468.10945    149318.93   -47260.332    4192.1055   -51452.438   0.15151623 
   97800    294.19697   -489.01425    149310.39   -47370.202     4040.087   -51410.289   0.15217431 
   97900    296.36323   -517.63633    149283.18   -47323.602    4069.8353   -51393.437   0.15372872 
   98000    291.58305    -486.9199    149259.38   -47411.368     4004.191   -51415.559   0.15471328 
   98100    294.16337   -521.89101    149289.24   -47392.623    4039.6255   -51432.248   0.15147588 
   98200    292.78877   -506.59031    149281.46   -47385.745    4020.7487   -51406.494    0.1533417 
   98300    300.32775   -494.33112    149289.96   -47327.815    4124.2784   -51452.093   0.15069572 
   98400    294.60115   -549.61906    149276.07   -47375.468    4045.6373   -51421.105   0.15684088 
   98500    297.63019   -483.21385    149260.65   -47346.322     4087.234   -51433.556   0.15148621 
   98600    295.45353    -475.5283    149264.31   -47352.935    4057.3428   -51410.278   0.15260249 
   98700    294.25555   -479.54447    149288.15   -47327.734    4040.8913   -51368.625   0.15415668 
   98800    299.12221   -487.59389    149275.35   -47336.061    4107.7232   -51443.784   0.15156767 
   98900    296.56339    -505.0353    149261.85   -47400.865     4072.584   -51473.449   0.14723483 
   99000     297.2324   -486.70535    149257.85   -47394.939    4081.7713    -51476.71   0.15042241 
   99100    295.67174     -483.952    149249.99   -47459.073    4060.3393   -51519.413   0.14845968 
   99200    292.33423   -489.97004    149253.67   -47465.154    4014.5067   -51479.661   0.15033398 
   99300     294.8058   -533.96501    149267.34   -47387.745    4048.4478   -51436.193   0.15426709 
   99400    295.73029   -530.40878    149271.35   -47429.485    4061.1434   -51490.628   0.15088911 
   99500    296.86019   -507.64478     149261.2   -47384.512    4076.6598   -51461.172   0.15501924 
   99600     297.7392   -499.56313    149279.45    -47378.08    4088.7309    -51466.81   0.14902328 
   99700    291.48749   -505.63507    149275.08   -47422.732    4002.8787   -51425.611   0.15348309 
   99800    298.39585   -458.58038    149282.81    -47441.58    4097.7485   -51539.328   0.14246238 
   99900     290.9278   -514.36912       149264   -47493.755    3995.1927   -51488.948   0.14911833 
  100000     295.0636   -516.37021    149271.64   -47406.826     4051.988   -51458.814   0.14986018 
Loop time of 52.4624 on 6 procs for 100000 steps with 4608 atoms

Performance: 823.446 ns/day, 0.029 hours/ns, 1906.126 timesteps/s
98.0% CPU use with 6 MPI tasks x no OpenMP threads

MPI task timing breakdown:
Section |  min time  |  avg time  |  max time  |%varavg| %total
---------------------------------------------------------------
Pair    | 38.56      | 38.79      | 39.09      |   3.1 | 73.94
Neigh   | 6.3452     | 6.4195     | 6.5643     |   3.9 | 12.24
Comm    | 4.3607     | 4.6028     | 4.9412     |   9.0 |  8.77
Output  | 0.16713    | 0.16791    | 0.17093    |   0.3 |  0.32
Modify  | 1.8301     | 1.8694     | 1.8976     |   1.9 |  3.56
Other   |            | 0.6125     |            |       |  1.17

Nlocal:        768.000 ave         782 max         758 min
Histogram: 1 1 1 0 0 2 0 0 0 1
Nghost:        1392.33 ave        1412 max        1375 min
Histogram: 1 0 1 1 0 1 1 0 0 1
Neighs:        0.00000 ave           0 max           0 min
Histogram: 6 0 0 0 0 0 0 0 0 0
FullNghs:      21875.3 ave       22264 max       21612 min
Histogram: 2 0 1 0 0 2 0 0 0 1

Total # of neighbors = 131252
Ave neighs/atom = 28.483507
Neighbor list builds = 6370
Dangerous builds = 0

undump              1
unfix               2
unfix               3
unfix               4




################################################
#######         Run Simulation         #########
################################################

reset_timestep      0
log                 log.run_${NAME}
log                 log.run_ice_296K_-500atm_ML
