

read_data data.ice_${TEMP}K_${PRES}atm_ML group ice
read_data data.ice_296K_${PRES}atm_ML group ice
read_data data.ice_296K_-500atm_ML group ice
Reading data file ...
  orthogonal box = (-0.031851539 -0.028312479 -0.028312479) to (57.302362 50.935432 50.935432)
  3 by 1 by 2 MPI processor grid
  reading atoms ...
  4608 atoms
  reading velocities ...
  4608 velocities
  read_data CPU = 0.029 seconds
read_data data.liq_${TEMP}K_${PRES}atm_ML add append shift ${X_HI} ${YZ_LO} ${YZ_LO} group water
read_data data.liq_296K_${PRES}atm_ML add append shift ${X_HI} ${YZ_LO} ${YZ_LO} group water
read_data data.liq_296K_-500atm_ML add append shift ${X_HI} ${YZ_LO} ${YZ_LO} group water
read_data data.liq_296K_-500atm_ML add append shift 50.9354324790365 ${YZ_LO} ${YZ_LO} group water
read_data data.liq_296K_-500atm_ML add append shift 50.9354324790365 0.0283124790384299 ${YZ_LO} group water
read_data data.liq_296K_-500atm_ML add append shift 50.9354324790365 0.0283124790384299 0.0283124790384299 group water
Reading data file ...
  orthogonal box = (-0.031851539 -0.095419479 -0.095419479) to (104.57939 51.059164 51.059164)
  3 by 1 by 2 MPI processor grid
  reading atoms ...
  4608 atoms
  reading velocities ...
  4608 velocities
  read_data CPU = 0.015 seconds

write_data data.icewater_test
System init for write_data ...
WARNING: Communication cutoff is 0.0. No ghost atoms will be generated. Atoms may get lost. (../comm_brick.cpp:167)

# Define potential
#
pair_style sw
pair_coeff * * /data/emrosky-sim/Freezing_Simulations/Melting/MLmW_fancy/ML_mW.sw mW
Reading sw potential file /data/emrosky-sim/Freezing_Simulations/Melting/MLmW_fancy/ML_mW.sw with DATE: 2019-02-27

# Delete water and ice atoms that are overlapping
#
delete_atoms overlap 2.5 water ice
System init for delete_atoms ...
Neighbor list info ...
  update every 1 steps, delay 10 steps, check yes
  max neighbors/atom: 2000, page size: 100000
  master list distance cutoff = 6.0032907
  ghost atom cutoff = 6.0032907
  binsize = 3.0016454, bins = 35 18 18
  2 neighbor lists, perpetual/occasional/extra = 1 1 0
  (1) command delete_atoms, occasional, copy from (2)
      attributes: full, newton on
      pair build: copy
      stencil: none
      bin: none
  (2) pair sw, perpetual
      attributes: full, newton on
      pair build: full/bin/atomonly
      stencil: full/bin/3d
      bin: standard
Deleted 705 atoms, new total = 8511

# set timestep
#
timestep 10.0

# Define output
#
compute 1 all msd
thermo 50
thermo_style custom step temp press vol etotal ke pe c_1[4]

# Neighbor lists
#
neigh_modify delay 0 every 1 check yes

# Set fixes
#
fix 1 all momentum 10 linear 1 1 1 rescale
fix 2 all nph iso ${PRES} ${PRES} ${PCOUPL}
fix 2 all nph iso -500 ${PRES} ${PCOUPL}
fix 2 all nph iso -500 -500 ${PCOUPL}
fix 2 all nph iso -500 -500 10000.0
fix 3 all temp/csvr ${TEMP} ${TEMP} ${TCOUPL} 837492
fix 3 all temp/csvr 296 ${TEMP} ${TCOUPL} 837492
fix 3 all temp/csvr 296 296 ${TCOUPL} 837492
fix 3 all temp/csvr 296 296 5000.0 837492


# Fix ice atoms in place
#
velocity ice set 0.0 0.0 0.0
fix 4 ice setforce 0.0 0.0 0.0

# Run 1.0 ns equilibration of water
#
dump 1 all atom 1000 eq.all.${NAME}.dump
dump 1 all atom 1000 eq.all.coexist_296K_-500atm_ML.dump
run 100000
Neighbor list info ...
  update every 1 steps, delay 0 steps, check yes
  max neighbors/atom: 2000, page size: 100000
  master list distance cutoff = 6.0032907
  ghost atom cutoff = 6.0032907
  binsize = 3.0016454, bins = 35 18 18
  1 neighbor lists, perpetual/occasional/extra = 1 0 0
  (1) pair sw, perpetual
      attributes: full, newton on
      pair build: full/bin/atomonly
      stencil: full/bin/3d
      bin: standard
Per MPI rank memory allocation (min/avg/max) = 4.591 | 4.598 | 4.605 Mbytes
Step Temp Press Volume TotEng KinEng PotEng c_1[4] 
       0    136.58122   -813.17493    273745.81   -83729.124     3464.614   -87193.738            0 
      50    160.75833   -819.43479    272914.02   -83396.843    4077.9074    -87474.75   0.85191664 
     100    168.14123   -501.20569    271175.69   -83045.679     4265.187   -87310.866    1.7169314 
     150    174.74422    191.83174    269795.79   -82695.193     4432.683   -87127.876    2.7037615 
     200    179.67251   -435.08336    270097.41    -82456.28    4557.6975   -87013.978    3.7495947 
     250    183.71833   -340.10804    270890.89   -82149.625    4660.3266   -86809.952    4.8987504 
     300     189.9079   -792.93963    271829.96   -81806.097    4817.3354   -86623.433    6.1034543 
     350        194.5   -723.65875    272262.91   -81578.896     4933.822   -86512.718    7.3327634 
     400    195.71802   -785.48229    272306.76   -81345.407    4964.7191   -86310.126    8.7366222 
     450    203.48606   -242.08119    271819.37   -81080.836    5161.7685   -86242.604    10.201815 
     500    205.37963   -115.49329    271699.45   -80879.258    5209.8022    -86089.06     11.66088 
     550    210.45602   -429.11094    271999.79   -80676.817    5338.5734    -86015.39    13.236864 
     600    212.96303   -461.11845    272325.36   -80478.952     5402.168    -85881.12    14.902503 
     650    217.39617    -512.3779    272666.18   -80268.787    5514.6221    -85783.41    16.675852 
     700    219.42393   -444.52756    272833.13   -80070.582    5566.0595   -85636.642    18.555953 
     750    220.65643   -531.79841    272995.08   -79901.071    5597.3241   -85498.395    20.464478 
     800    225.78582   -469.93362    273252.46   -79712.563    5727.4396   -85440.002    22.339394 
     850    229.03947   -584.56966    273533.29   -79511.953     5809.974   -85321.927    24.346549 
     900    239.34978   -486.97812    273418.46   -79342.356    6071.5125   -85413.868    26.300846 
     950    235.12393   -351.37418     273237.2   -79177.034    5964.3167    -85141.35    28.467397 
    1000    241.54539   -591.50255    273636.44   -79032.118    6127.2078   -85159.326    30.661952 
    1050    241.68437   -701.33472    274145.07   -78905.021    6130.7333   -85035.754    32.777848 
    1100    240.96814   -509.66867    274393.53    -78788.42     6112.565   -84900.985    35.166753 
    1150    243.90819    -338.9872    274318.55   -78660.224    6187.1443   -84847.368    37.642595 
    1200    247.95689   -444.36953     274085.7   -78563.123    6289.8465   -84852.969     40.28864 
    1250    249.42847   -296.99118       274109   -78460.363    6327.1755   -84787.538      43.0337 
    1300    248.97979   -467.50428    274566.55   -78366.129     6315.794   -84681.923    45.965269 
    1350    254.18724   -542.70818    275007.91   -78279.919    6447.8897   -84727.809    48.586431 
    1400    256.03689   -705.90709    275162.28   -78149.457    6494.8093   -84644.266    51.160484 
    1450    254.06183   -545.45066    275041.33   -78035.175    6444.7086   -84479.883    54.189132 
    1500    255.58485   -420.96126    274886.27   -77962.613    6483.3427   -84445.956    56.910414 
    1550    261.64794   -114.64458    274751.92   -77883.861    6637.1432   -84521.004    59.716363 
    1600    260.40646   -467.69458    275288.91   -77789.774    6605.6508   -84395.424    62.853505 
    1650    267.31624   -770.34748    275961.55   -77722.573    6780.9293   -84503.502    66.138036 
    1700    263.33317   -504.45545    276152.29   -77610.326    6679.8918   -84290.218    69.087844 
    1750    267.04309   -708.14557    275714.53   -77559.738    6774.0002   -84333.739    71.952429 
    1800    267.62827   -330.76773    275057.52    -77454.96    6788.8444   -84243.805    74.839092 
    1850    270.24104   -390.67604    275038.44   -77364.473    6855.1215   -84219.595    78.244585 
    1900    271.74043   -366.54003    275594.32   -77272.014    6893.1563   -84165.171    81.596036 
    1950    273.21827   -514.58744    276015.63   -77189.616    6930.6442    -84120.26    84.359679 
    2000    276.48091   -351.85259     276239.8   -77093.111    7013.4066   -84106.517    87.513167 
    2050    273.76602   -619.20902    276389.78   -77072.473    6944.5387   -84017.012    90.758583 
    2100    278.98998   -453.28972     276273.7   -77049.731    7077.0534   -84126.784     93.61418 
    2150    276.97505   -438.82534    276079.83   -76983.104    7025.9412   -84009.045    96.483947 
    2200    281.11238   -274.24161    275660.31   -76924.269    7130.8917   -84055.161    100.05104 
    2250    280.10402   -318.91543    275681.08   -76894.062    7105.3128   -83999.375    103.02672 
    2300    282.96337   -600.35901    276316.15   -76792.963     7177.845   -83970.809    106.16319 
    2350    287.15306   -581.42613     276793.8   -76704.569    7284.1236   -83988.693    109.72617 
    2400    278.57935   -297.93415    276725.24   -76672.332    7066.6369   -83738.969    113.42988 
    2450    285.61554   -478.38711    276470.76   -76628.454    7245.1219   -83873.576    116.88048 
    2500    282.70875   -475.27138    276520.77   -76556.424    7171.3862    -83727.81     119.7889 
    2550    283.42818   -641.48365    276717.04   -76517.957    7189.6357   -83707.593    123.14622 
    2600    286.04518   -631.86985    276790.45   -76491.425    7256.0204   -83747.445    126.78111 
    2650    288.41794   -577.45608    276864.26   -76416.864    7316.2096   -83733.074    130.47759 
    2700    287.31231   -449.77785    276959.58   -76383.516    7288.1633   -83671.679      133.627 
    2750    288.82446    -334.4556    277025.78    -76401.28    7326.5215   -83727.802     136.8705 
    2800    290.54268   -652.25811    277376.56   -76372.946    7370.1072   -83743.053    140.35931 
    2850    287.62862   -690.41831    277460.11   -76383.392     7296.187   -83679.579    143.66857 
    2900    288.08617   -410.65489    276955.63   -76402.449    7307.7937   -83710.243    147.31324 
    2950    287.24257    -108.8408    276323.66   -76400.562    7286.3943   -83686.956    150.86157 
    3000    287.44359   -353.86514    276492.74   -76344.448    7291.4935   -83635.942    153.94485 
    3050    289.72869   -738.71968    277051.76   -76344.045    7349.4588   -83693.504    157.42955 
    3100    285.06876   -509.90005    277395.68    -76327.86    7231.2518   -83559.111    160.47903 
    3150     294.5402   -673.51202    277136.39   -76341.407    7471.5111   -83812.918    163.35875 
    3200    289.95052   -154.00282    276520.11   -76302.242     7355.086   -83657.328    166.52811 
    3250    293.12179   -527.12778    276325.49   -76275.265    7435.5307   -83710.796    169.47876 
    3300    287.08812   -403.26976    276762.55   -76218.973    7282.4764   -83501.449    173.09632 
    3350    294.76188   -526.05959    277344.15   -76115.133    7477.1344   -83592.268     177.0619 
    3400    296.35225   -798.16902    277584.46   -76157.841    7517.4767   -83675.318    180.60687 
    3450    295.58994   -553.96659    277353.17   -76179.266    7498.1393   -83677.406    183.76195 
    3500    289.79693   -301.70427    276765.69   -76159.417    7351.1899   -83510.607    187.38246 
    3550    294.45178   -336.74627    276525.32   -76116.439     7469.268   -83585.707    191.24288 
    3600    293.41163   -552.83293    276940.13   -76129.358    7442.8829   -83572.241    195.61408 
    3650    293.24203   -549.90842    277326.43   -76138.288    7438.5806   -83576.869    199.27884 
    3700    290.07117   -543.81295       277625   -76132.229    7358.1465   -83490.376    202.41404 
    3750    294.40458   -761.99269    277624.97   -76155.794    7468.0707   -83623.865    206.18767 
    3800    292.06189   -436.46399    277302.89   -76158.968    7408.6444   -83567.612    208.45016 
    3850    293.50884   -424.86655    276941.83   -76140.336    7445.3489   -83585.685    211.93237 
    3900    290.40065   -330.37999    276506.12   -76148.883    7366.5044   -83515.388    214.36937 
    3950    292.58122   -312.04968    276456.14   -76104.918    7421.8182   -83526.736    217.46685 
    4000    299.05821   -454.01508    277049.53   -76114.406    7586.1179   -83700.524    221.06746 
    4050    296.56548    -745.2435    277396.29   -76094.167    7522.8856   -83617.053    224.71586 
    4100    292.39519   -288.56938    277027.55   -76090.762    7417.0991   -83507.861    227.06619 
    4150    291.82434   -566.46471    277048.35   -76048.808    7402.6185   -83451.427    230.93525 
    4200    296.84151   -692.38116    277209.94   -76042.355    7529.8876   -83572.242    233.90257 
    4250    300.39515    -647.2464    277210.29   -76021.922    7620.0317   -83641.953    237.63169 
    4300     295.2941   -424.74223    277147.32   -76033.076     7490.635   -83523.711    241.06946 
    4350    290.86852   -404.52519    277049.02   -76044.392    7378.3726   -83422.765    244.48284 
    4400     294.6214   -523.50503    277018.12    -76042.09    7473.5709   -83515.661     247.4831 
    4450    293.10986   -716.15009    277172.33   -75970.189    7435.2279   -83405.416    250.72185 
    4500    297.47036   -438.84813    277018.28   -75930.097    7545.8395   -83475.937    254.33789 
    4550    298.90666   -121.48962    277007.27   -75883.014    7582.2737   -83465.287     257.6703 
    4600    294.49783   -733.73021    277405.38   -75872.582    7470.4361   -83343.018    260.58503 
    4650    299.90117   -533.81594     277731.5    -75813.52    7607.5011   -83421.021    264.62531 
    4700    301.68859   -540.03247     277856.7   -75786.915    7652.8421   -83439.757    267.13464 
    4750    296.25531   -518.42657    277893.08   -75803.187    7515.0176   -83318.204    270.41719 
    4800    299.04627   -388.93011     277618.8   -75807.347     7585.815   -83393.162    273.92516 
    4850    300.33714   -535.51479    277142.14   -75815.044    7618.5603   -83433.604    276.72566 
    4900    301.68951   -450.74284    276883.28   -75820.688    7652.8652   -83473.553    280.12248 
    4950    297.52585   -101.27866    276668.49   -75836.397     7547.247   -83383.644    283.18293 
    5000     296.7906   -301.31474    276987.09   -75848.189    7528.5963   -83376.785    286.27283 
    5050    299.70838   -680.86412    277669.61   -75866.455    7602.6107   -83469.066    290.62853 
    5100    292.87621   -515.37928     277990.8    -75870.89    7429.3011   -83300.191     294.0977 
    5150    297.38487    -886.3223    277837.55    -75901.72    7543.6709   -83445.391    297.60223 
    5200    295.05992   -473.71288    277307.77   -75908.804    7484.6947   -83393.499    300.32728 
    5250    300.10605   -341.35491    276945.39   -75900.105    7612.6981   -83512.803    302.64758 
    5300    294.54091   -561.13277    276975.28   -75879.174    7471.5289   -83350.703    305.41972 
    5350    298.65148   -375.58838    277154.97   -75845.203    7575.8006   -83421.004    308.85292 
    5400    295.44209   -575.88392    277555.03   -75895.906     7494.389   -83390.295    311.86848 
    5450    300.16054   -658.21447    277828.47   -75873.652    7614.0804   -83487.732    315.01351 
    5500    294.65318   -148.19154    277588.97   -75874.766     7474.377   -83349.143    317.03664 
    5550    293.77278   -295.71885    277575.81   -75927.215     7452.044   -83379.259    319.52081 
    5600    293.42061   -568.49801    277372.14   -75986.489    7443.1108     -83429.6    322.01509 
    5650    299.14306   -373.39193    276979.33   -76079.568    7588.2704   -83667.838    324.66921 
    5700      292.685   -294.85139    276849.63   -76047.551    7424.4507   -83472.002    327.59063 
    5750    292.09343   -265.28067     276980.5   -76030.286    7409.4445   -83439.731    330.70281 
    5800    296.72934   -577.01086    277401.97   -76024.651    7527.0421   -83551.693    333.42907 
    5850    294.22519   -785.64835    277530.47     -75952.7    7463.5202    -83416.22     337.8014 
    5900    298.56802   -606.48284    277234.16   -75992.345    7573.6834   -83566.028    340.76299 
    5950     295.6924   -487.45759    276789.19   -76000.566    7500.7385   -83501.305    343.34285 
    6000    289.68915   -306.97343    276491.04   -76000.101    7348.4558   -83348.556    345.51821 
    6050    295.10893   -515.85311    276684.58   -75948.909    7485.9377   -83434.846    348.16128 
    6100    290.02737   -649.67885    277184.52   -75946.942    7357.0355   -83303.978    351.72683 
    6150    295.45571   -564.97105    277423.98   -75937.361    7494.7344   -83432.095    354.52134 
    6200    294.36302   -605.92902    277537.19   -75954.246    7467.0166   -83421.262     357.3164 
    6250    297.78005   -305.15684    277567.71   -75932.041    7553.6954   -83485.736    360.38618 
    6300    295.23258   -657.90111    277666.65   -75901.703    7489.0744   -83390.777     363.4095 
    6350    295.96445   -564.29659    277744.62   -75871.119    7507.6395   -83378.758    365.91629 
    6400    293.73481   -885.74625    277991.12   -75929.638     7451.081   -83380.719    369.56542 
    6450    296.29987   -640.51971    277655.49   -75938.462     7516.148    -83454.61    372.50199 
    6500     298.2923   -476.30292    277113.24   -75884.499    7566.6893   -83451.188    374.36686 
    6550    300.25488   -334.84564    276829.62   -75874.048    7616.4736   -83490.521    376.43384 
    6600    298.60439    -195.5195    277033.98   -75893.566     7574.606   -83468.172    379.35036 
    6650     300.7741   -811.46813    277432.22   -75934.039    7629.6445   -83563.684    382.20566 
    6700    294.20442   -682.73288    277555.44   -75941.002    7462.9934   -83403.995    384.37659 
    6750    297.17625   -587.33308    277492.68   -75966.597    7538.3788   -83504.976    386.86005 
    6800     298.9136   -685.49426    277151.86   -75939.032    7582.4496   -83521.482    388.49828 
    6850    296.53349   -492.74566    276973.66   -75940.157    7522.0742   -83462.232    391.94743 
    6900    294.26953   -821.33236    277337.73   -75905.049    7464.6451   -83369.694    394.86716 
    6950    297.43562   -661.47062    277552.54   -75897.683    7544.9582   -83442.641    397.63326 
    7000    292.19499   -675.34052    277493.73   -75876.354    7412.0207   -83288.375    398.96575 
    7050    298.22759  -0.27720283    277241.96   -75860.286     7565.048   -83425.334    401.31814 
    7100    296.55418   -547.31961    277270.79   -75862.141    7522.5991    -83384.74    403.25254 
    7150    297.45912   -520.61555    277583.85   -75922.351    7545.5544   -83467.905    406.57344 
    7200    299.43432   -801.26967    277966.74   -75960.899    7595.6586   -83556.557     410.0357 
    7250    295.61891   -517.49859    277597.82   -75912.781    7498.8744   -83411.655    412.53799 
    7300    297.43273   -276.92249     276716.7   -75894.856    7544.8848    -83439.74     414.4507 
    7350     301.5638   -220.97112    276391.71    -75895.68    7649.6764   -83545.357    415.85023 
    7400     296.5199   -450.04101    277015.03   -75844.843    7521.7294   -83366.572    418.25263 
    7450    297.71007   -705.18435       277723   -75810.094      7551.92   -83362.014    422.35386 
    7500    295.54595   -952.01324    277986.38   -75879.968    7497.0235   -83376.991    425.20107 
    7550    298.90215   -651.79583    277478.91   -75914.327    7582.1591   -83496.486    427.94182 
    7600    298.73621   -449.79871    276923.42   -75858.279    7577.9499   -83436.229    429.82039 
    7650    295.24839     -487.252    276840.58   -75878.653    7489.4753   -83368.128    432.57426 
    7700    298.27817   -360.60353    277162.64   -75871.822    7566.3309   -83438.153    435.71751 
    7750    301.38753    -702.9893       277584   -75830.934    7645.2051   -83476.139    438.44691 
    7800    301.06908   -816.47861    277599.95   -75873.349    7637.1271   -83510.476    441.65296 
    7850     302.1064   -455.99958     277507.9   -75849.001    7663.4404   -83512.441    444.58812 
    7900    299.91308   -561.54631    277474.13   -75886.995    7607.8033   -83494.798     447.6153 
    7950    300.96432   -289.99393    277445.02   -75935.438    7634.4697   -83569.908     450.5522 
    8000    294.04122   -559.03401    277451.42    -75910.33    7458.8536   -83369.183    454.28445 
    8050    297.66903   -439.90597    277342.42   -75897.981    7550.8791    -83448.86    456.72121 
    8100    294.09336   -636.62443    277505.35   -75934.319    7460.1762   -83394.495     458.5776 
    8150    300.60493   -693.12959     277395.2   -75887.895    7625.3531   -83513.248    460.63913 
    8200    296.53343   -298.18724    276990.26   -75916.664    7522.0726   -83438.737    463.15364 
    8250    298.41709   -502.78583    276977.34   -75916.724    7569.8548   -83486.579     465.8809 
    8300    294.67317   -441.35302     277235.5   -75891.759     7474.884   -83366.643    467.63874 
    8350    297.53649    -678.3494    277671.14    -75948.56    7547.5169   -83496.076     470.5142 
    8400    296.29624   -641.10955    277583.32   -75942.543    7516.0559   -83458.599    473.18291 
    8450    298.08923   -208.88221    277351.45   -75948.628    7561.5382   -83510.166    475.94684 
    8500    296.14345   -584.30717    277340.79    -75935.46    7512.1801    -83447.64     478.8186 
    8550    299.89427   -411.48031    277239.64   -75966.899    7607.3261   -83574.225    481.86785 
    8600    295.46038    -349.8239    277176.73   -75966.828    7494.8528   -83461.681    483.44869 
    8650     299.3884    -459.7011    277219.67   -75966.501    7594.4938   -83560.994    487.56022 
    8700    295.31992   -465.69886    277299.27   -75960.296    7491.2899   -83451.586    489.88276 
    8750    296.80418   -382.13479    277194.72   -75930.106    7528.9406   -83459.046    493.55137 
    8800    298.10691   -385.88696    277087.29   -75956.836    7561.9866   -83518.822    496.27612 
    8850    296.67614   -224.64814    277025.66   -75998.733    7525.6928   -83524.426    499.14701 
    8900    297.77877   -486.26502    277162.67    -76016.88    7553.6627   -83570.542    503.48649 
    8950    292.25062   -499.87673    277625.45   -75989.713    7413.4319   -83403.145    506.34691 
    9000    298.02597   -564.89062    277597.44   -75981.108    7559.9335   -83541.042    508.59735 
    9050    298.43463   -536.70923    277241.47   -75982.356    7570.2999   -83552.656    510.02757 
    9100    297.00237   -438.57074    277090.33   -76046.784    7533.9682   -83580.752    512.97929 
    9150    299.18526   -580.43147    277145.11   -76004.511    7589.3409   -83593.852    515.21671 
    9200    297.46892   -445.28425    277092.28   -76014.084     7545.803   -83559.887    517.20299 
    9250    290.89982   -515.41423    277334.74   -76038.074    7379.1666   -83417.241    520.49789 
    9300    292.69683   -680.16602    277637.39   -76084.399    7424.7508    -83509.15    522.65224 
    9350    294.50357   -627.59752    277534.76    -76064.57    7470.5817   -83535.152    525.49138 
    9400    289.47505   -339.05452    277078.48   -76051.966    7343.0248   -83394.991    527.76122 
    9450    295.75732   -619.30656    276855.48   -76002.951    7502.3852   -83505.336    530.37959 
    9500    295.34414   -315.62105     276964.5   -76019.393    7491.9043   -83511.297    531.97341 
    9550    297.55791   -605.90646    277402.98   -76004.485    7548.0602   -83552.545    534.61091 
    9600    295.23023   -358.56694    277570.22   -75983.414    7489.0147   -83472.429    536.83189 
    9650    289.72523      -503.14    277770.95   -76010.019    7349.3712    -83359.39    539.52976 
    9700    295.52692   -720.25073    277513.49   -76016.342    7496.5408   -83512.883    541.85257 
    9750    295.61811   -583.30563    276994.38   -76022.263     7498.854   -83521.117     543.5198 
    9800    297.96935   -380.07727    276797.89   -76029.265    7558.4972   -83587.762    546.05956 
    9850    291.65799   -224.93156    276846.41   -76022.417    7398.3988   -83420.815    549.59549 
    9900    291.68072   -502.24712    277210.66   -76021.685    7398.9754   -83420.661    552.44849 
    9950    296.53023   -580.13749    277439.76   -75997.157    7521.9916   -83519.149    556.15973 
   10000    296.06862   -457.95883     277427.9   -75992.714     7510.282   -83502.996    557.73933 
   10050    292.02405   -187.22515    277109.04   -75993.259    7407.6845   -83400.943    558.42655 
   10100    295.36465    -632.5382    277284.34   -75963.534    7492.4245   -83455.958    561.31492 
   10150    295.01037   -528.95889    277252.61   -75945.712    7483.4377    -83429.15    562.95777 
   10200    296.28982     -433.103    277176.48   -75938.616    7515.8931    -83454.51    564.70901 
   10250    294.14221    -556.2094    277192.63   -75941.984    7461.4153   -83403.399    567.65573 
   10300    299.66945   -369.45772    277257.83   -75923.114    7601.6232   -83524.737     571.4489 
   10350    295.34747   -815.35136    277486.36    -75920.96    7491.9887   -83412.948    573.48981 
   10400    297.98267   -597.77172    277474.39    -75989.26     7558.835   -83548.095     575.2575 
   10450    296.31255   -439.05209    277103.13   -75962.936    7516.4696   -83479.405     577.4593 
   10500    298.93892   -330.63659     277024.2    -75967.36    7583.0919   -83550.452    580.57224 
   10550     296.0724   -365.37515     277267.8   -75942.482    7510.3779    -83452.86    583.71978 
   10600     291.3156   -606.68679    277502.52   -75941.146    7389.7134   -83330.859    586.42599 
   10650    298.48148   -424.34346    277366.82   -75927.147    7571.4881   -83498.635    589.02243 
   10700    295.10503   -346.37382    277377.19   -75955.111    7485.8388    -83440.95    593.22997 
   10750    294.17293   -311.29783    277320.85   -75922.482    7462.1946   -83384.677     595.9439 
   10800    295.31682   -373.65141    277024.23   -75951.515    7491.2113   -83442.726    597.89829 
   10850     301.7791   -312.45675    276979.61   -75904.746     7655.138   -83559.884    600.23897 
   10900    297.31046   -460.23765    277245.05    -75906.73    7541.7834   -83448.513    603.28094 
   10950    299.29646   -790.34792    277573.96   -75907.119    7592.1617   -83499.281    606.80135 
   11000    293.89894   -563.24514    277719.55   -75939.821    7455.2443   -83395.066    611.21585 
   11050    295.12403    -582.7795    277702.89   -75971.843    7486.3207   -83458.164    613.13776 
   11100    298.03602   -522.78013    277456.96   -75951.297    7560.1883   -83511.486    613.67896 
   11150     293.2692   -154.45178    277076.54   -75963.712    7439.2699   -83402.982    615.84667 
   11200    295.98117   -382.47487    276995.92   -75956.569    7508.0636   -83464.632    618.72739 
   11250    294.31374    -477.3716    277185.53   -75987.003    7465.7663   -83452.769    621.22946 
   11300    296.32113   -434.99278    277357.86   -75974.725    7516.6873   -83491.413     623.8453 
   11350    292.02676   -406.64625    277669.77   -75996.802    7407.7533   -83404.555    626.75152 
   11400    292.21897   -631.60394    277821.11   -75997.738    7412.6291   -83410.367    628.23584 
   11450    295.57735    -458.6035    277559.41   -76047.518    7497.8202   -83545.338    629.34642 
   11500    299.05272   -521.01186    277093.09    -76048.45    7585.9788   -83634.428    631.87499 
   11550    292.61592    -638.7405    276876.63   -76074.777    7422.6983   -83497.475    635.27819 
   11600    295.55093   -129.01864    276978.19   -76052.619    7497.1497   -83549.769    639.15819 
   11650    293.97891   -773.92208    277376.54   -76035.376    7457.2728   -83492.649    643.28493 
   11700    296.04541   -632.25439    277240.47   -75999.781    7509.6931   -83509.474    644.38998 
   11750     294.1139   -211.96939     277098.8    -76017.28    7460.6971   -83477.977    648.09796 
   11800    297.76435    -471.7988    277251.55   -76039.413     7553.297    -83592.71    651.99074 
   11850    293.25226   -533.93934    277643.21   -75961.281    7438.8403   -83400.121    653.45057 
   11900    289.98884   -543.63865    277755.38   -76042.217    7356.0579   -83398.275    656.11411 
   11950    293.77751   -489.41669    277372.03   -76042.224    7452.1641   -83494.388    657.70796 
   12000    297.87408   -632.76871    276789.41   -76048.828    7556.0806   -83604.908    659.67549 
   12050    298.52246   -567.15326    276527.16   -76043.207    7572.5278   -83615.735    662.27858 
   12100    295.55475    -346.3786    276907.99   -76011.756    7497.2467   -83509.002    666.57409 
   12150    296.92855   -611.66795    277625.57   -76000.583    7532.0956   -83532.679    670.60273 
   12200    290.62812   -606.34954    277981.79   -75978.218    7372.2744   -83350.492    672.73602 
   12250    297.68725   -706.58132    277830.57   -75946.522    7551.3411   -83497.863    674.02141 
   12300    295.83278   -569.52177    277101.08    -75964.77    7504.2995   -83469.069    675.66143 
   12350    294.10991   -98.275267    276575.45   -75996.768     7460.596   -83457.364    677.27609 
   12400    297.15097   -146.46002    276781.79   -76041.696    7537.7376   -83579.434    681.12426 
   12450    293.85832    -280.6554    277405.35   -76011.775    7454.2139   -83465.989    684.25442 
   12500    293.20393   -674.47786    277921.89   -75973.242    7437.6142   -83410.856    688.18187 
   12550    296.55831   -517.53821    277958.25    -76023.11    7522.7037   -83545.814    691.75746 
   12600    290.57708    -556.5882    277368.92   -75963.963    7370.9798   -83334.943     694.1484 
   12650    300.16702   -399.96268    276743.31   -75987.904    7614.2447   -83602.148    696.55718 
   12700    298.84655   -489.29894    276792.85   -75970.026    7580.7489   -83550.775    699.81669 
   12750    296.09288   -466.85184    277066.67   -76018.088    7510.8975   -83528.985    704.71196 
   12800    291.07855   -493.76691    277433.38    -76028.86    7383.7005    -83412.56    708.23205 
   12850     293.2858   -684.88152    277426.02   -76013.618     7439.691   -83453.309    711.16757 
   12900    299.39146   -588.07865    277179.43   -76005.168    7594.5714   -83599.739     715.3436 
   12950    297.06841   -569.77826    277011.35   -76014.061    7535.6434   -83549.704     718.2395 
   13000    291.93319   -416.01683    276981.12   -75986.998    7405.3797   -83392.377    721.33973 
   13050    296.18351   -430.67522     277143.4   -75972.912    7513.1963   -83486.108     725.5077 
   13100    300.14403    -700.5391    277410.09   -75951.163    7613.6616   -83564.824    729.88915 
   13150    294.53291   -305.38241    277456.57    -75965.76    7471.3261   -83437.086    732.99099 
   13200    293.82514   -757.72159    277454.65   -75981.376    7453.3722   -83434.749    734.27822 
   13250    294.49891   -394.54761     277064.4   -76041.105    7470.4635   -83511.569    736.66809 
   13300    296.11884   -317.84429    276757.86   -76044.594    7511.5559    -83556.15     737.5128 
   13350    292.29431   -432.32357    277058.45   -76011.635    7414.5402   -83426.175      739.999 
   13400    291.63374   -723.20488     277885.3   -76036.005    7397.7837   -83433.789    744.13653 
   13450     292.9796   -639.48293       278110   -76063.983    7431.9238   -83495.906     746.5963 
   13500    295.04281    -775.0417    277569.45   -76027.887    7484.2606   -83512.148    748.25869 
   13550    292.02547   -387.22764    276802.66    -76119.84    7407.7206   -83527.561    750.13783 
   13600    296.12694   -174.14587    276533.99   -76124.658    7511.7613    -83636.42    752.30021 
   13650    291.00114    -247.9097    276896.32   -76132.332    7381.7366   -83514.068    755.90708 
   13700    295.92696   -399.55718     277432.3     -76117.3    7506.6885   -83623.988    760.83899 
   13750    293.28297   -768.04883    277813.45   -76090.127    7439.6192   -83529.746     764.6747 
   13800    288.73331   -274.03782    277670.53   -76129.031    7324.2094    -83453.24    766.47241 
   13850    290.23102   -463.81948    277466.93    -76118.33    7362.2014   -83480.531    767.57074 
   13900    290.46005   -395.73062    276986.05   -76091.576     7368.011   -83459.587    768.80639 
   13950    293.72771   -251.88898    276681.23   -76114.394    7450.9007   -83565.295    771.48479 
   14000    295.02005   -217.24486    276964.45   -76062.268    7483.6831   -83545.951    774.18786 
   14050    296.41725    -657.0202    277378.32   -76043.117    7519.1255   -83562.242    776.29954 
   14100    298.37437   -688.44447    277484.52   -76039.428    7568.7712   -83608.199    778.46256 
   14150    294.40236   -469.82391    277257.02   -76043.949    7468.0145   -83511.963    780.46099 
   14200    296.44886   -301.66793    276981.99   -76038.202    7519.9274   -83558.129    782.67854 
   14250     295.0978   -253.64708    277070.32   -75956.832    7485.6556   -83442.488    785.46756 
   14300     297.7996    -576.2322    277416.39   -75989.381    7554.1912   -83543.572    789.55797 
   14350    290.74078   -601.25705    277682.33   -75985.177    7375.1324    -83360.31    793.48327 
   14400    297.77011   -700.95899    277428.58   -75965.702    7553.4432   -83519.145    795.85476 
   14450    292.19097   -391.64347    277002.39   -76016.064    7411.9187   -83427.983    797.70509 
   14500    291.67408   -408.07659    276843.45   -76021.643    7398.8069    -83420.45    800.24517 
   14550    291.42232   -488.99144    277061.02   -76067.723    7392.4207   -83460.144    803.35935 
   14600    292.90213   -498.08949    277140.78   -76065.807    7429.9585   -83495.765    804.82067 
   14650    290.88105   -525.14629    277236.49   -76075.175    7378.6903   -83453.865    807.94072 
   14700     292.8575   -345.98938    277365.92   -76039.345    7428.8264   -83468.172    812.59177 
   14750    297.45889   -579.15678    277534.53   -76046.626    7545.5484   -83592.175     815.4656 
   14800    298.59775   -705.56887    277384.62   -76097.968    7574.4376   -83672.406    817.66612 
   14850    292.26832   -426.52786    276772.17    -76111.38    7413.8808   -83525.261    818.23515 
   14900    293.99942   -536.39892     276357.2     -76122.5    7457.7932   -83580.293    820.39623 
   14950    297.24503   -368.49737    276382.66   -76205.038    7540.1235   -83745.161    823.17506 
   15000    288.49811   -270.83933    276879.86   -76191.921    7318.2433   -83510.164    826.24662 
   15050    295.24649   -777.99427    277235.32   -76188.138    7489.4271   -83677.565     828.6878 
   15100    296.66388   -557.78173    277080.38   -76163.558    7525.3818   -83688.939    830.89823 
   15150    289.91994    -427.7976    276726.97   -76173.659    7354.3101   -83527.969    833.08177 
   15200    290.39323   -496.84584    276547.76   -76161.733    7366.3161   -83528.049    834.99255 
   15250    290.04532   -808.94958    276951.51   -76162.176    7357.4906   -83519.666     836.9503 
   15300    288.75537   -457.74346    277201.76   -76117.123     7324.769   -83441.892    840.96381 
   15350    294.37911    -634.5721     277119.9   -76119.863    7467.4247   -83587.288    844.01055 
   15400    291.00589   -349.23217    276962.14   -76080.784    7381.8572   -83462.642    847.62132 
   15450    291.52232   -593.10753    276989.07   -76085.225    7394.9573   -83480.183    849.42182 
   15500    290.83633   -415.06938    276936.11   -76067.917     7377.556   -83445.473    851.72732 
   15550    293.70523   -297.64571    276994.77   -76068.762    7450.3305   -83519.092    853.47996 
   15600    300.12154   -793.93318    277313.29   -76071.682    7613.0911   -83684.773    855.81968 
   15650    292.81538   -380.00407    277264.19   -76073.124     7427.758   -83500.882    858.34747 
   15700    294.51178   -311.01915    277256.27   -76047.641    7470.7901   -83518.431    860.83303 
   15750    296.40037   -351.08453    277021.41   -76049.786    7518.6972   -83568.483    862.25256 
   15800     295.5278   -427.23687    276990.85   -76049.278    7496.5631   -83545.841    865.81048 
   15850    293.33111    -758.0943    277283.25   -76026.679    7440.8403    -83467.52    869.26604 
   15900    295.22533   -522.62158     277637.4   -76027.845    7488.8905   -83516.735    872.69997 
   15950    295.67518   -669.33231    277587.86   -75988.844    7500.3017   -83489.145     876.1853 
   16000    298.35319   -385.48878    277073.88   -75964.723     7568.234   -83532.957    877.75162 
   16050    292.81437   -408.39808    277068.75   -75923.749    7427.7324   -83351.482    879.23868 
   16100    298.81283   -351.11413    277444.32   -75919.889    7579.8936   -83499.783    881.82475 
   16150    298.25648   -814.66663    278011.56    -75918.72    7565.7806   -83484.501    885.63499 
   16200    298.88608   -523.37759     277905.9   -75865.191    7581.7515   -83446.943    887.68606 
   16250    297.30742   -362.66508    277293.01   -75855.616    7541.7061   -83397.323    888.33209 
   16300    299.74023   -222.00064    276799.33   -75884.474    7603.4187   -83487.892     887.9453 
   16350    301.40175   -390.06018    276867.41   -75913.828    7645.5659   -83559.394    888.94457 
   16400    298.05989   -338.41711    277587.11   -75889.884    7560.7938   -83450.678    892.36083 
   16450    296.09064   -866.98241    278355.53    -75922.24    7510.8405   -83433.081    896.91264 
   16500    297.11397   -782.64646     278307.1   -75889.854    7536.7991   -83426.653    899.10398 
   16550    296.32888   -593.05937    277350.82   -75859.821    7516.8839   -83376.705    897.41257 
   16600    296.40611   -79.945381    276369.18   -75847.407    7518.8429    -83366.25    897.07002 
   16650     303.4734   -569.05933    276465.31   -75807.244    7698.1167   -83505.361    900.04788 
   16700    296.86997   -616.47493    277254.75   -75884.973    7530.6095   -83415.582    905.68557 
   16750    293.68008   -369.46778    277997.21   -75900.907    7449.6927   -83350.599    912.01971 
   16800     293.4969   -503.13696    278254.28   -75912.751    7445.0458   -83357.797    915.50598 
   16850    294.69668    -662.2504    277810.65   -75951.483    7475.4804   -83426.964    917.80675 
   16900    295.26947   -440.13865    276881.87    -75952.11    7490.0102    -83442.12    918.52383 
   16950    299.29442   -237.16739    276491.13   -75920.931    7592.1098   -83513.041    920.45015 
   17000    299.37843    -216.3098     276796.2   -75961.764    7594.2409   -83556.005    924.34225 
   17050    290.52254   -508.07918    277712.61   -75918.875    7369.5963   -83288.471    928.18532 
   17100    295.68206   -1144.2803    278316.73   -75914.797    7500.4762   -83415.273    932.39708 
   17150    298.43559   -717.43809    278113.52   -75850.044    7570.3241   -83420.369    932.80095 
   17200    297.48468   -181.46411    277521.97   -75810.948    7546.2027   -83357.151     932.6509 
   17250    299.73567    -225.7757    277105.85   -75808.954    7603.3029   -83412.257    933.74596 
   17300    304.05642   -429.91676    277049.51   -75768.975     7712.906   -83481.881    937.07372 
   17350    298.98296   -554.60008    277396.92   -75811.983     7584.209   -83396.192    940.77031 
   17400    296.63088   -775.41368    277770.72   -75837.912    7524.5447   -83362.457    944.29361 
   17450    302.00904   -521.29423    277660.03    -75799.39    7660.9706    -83460.36    947.20446 
   17500    298.95138   -846.54212    277570.73   -75848.683     7583.408   -83432.091    950.38833 
   17550    300.43425   -658.75281    277313.99   -75898.788    7621.0235   -83519.811    952.05078 
   17600    298.14477   -493.40312    277207.22   -75875.777    7562.9469   -83438.724    953.98649 
   17650    298.64784   -488.31755    277195.31   -75831.042    7575.7082   -83406.751    955.75679 
   17700    296.04301   -165.87965    277149.08   -75801.616    7509.6324   -83311.248    958.86566 
   17750    299.89271   -653.76603    277290.02   -75794.925    7607.2864   -83402.211    960.77277 
   17800    303.20526   -585.23351    277730.73   -75797.968     7691.315   -83489.283    966.53571 
   17850    296.35015   -663.77863    278000.61   -75824.207    7517.4235   -83341.631    970.39064 
   17900    293.94916   -519.31703    277735.61   -75850.382    7456.5182   -83306.901    972.25641 
   17950    296.67078   -500.34491     277388.3   -75872.986    7525.5568   -83398.543    973.43052 
   18000    299.62551   -535.51667    277239.71   -75938.459    7600.5085   -83538.967    977.69935 
   18050    291.26873   -267.62048    277206.97    -75968.87    7388.5245   -83357.395    981.09332 
   18100    294.23719   -429.49109    277366.53    -76004.27    7463.8247   -83468.095    982.91943 
   18150     293.2249   -623.79694     277153.5    -76035.08    7438.1461   -83473.227    984.34194 
   18200    293.56453   -269.07804    276778.14   -75982.256    7446.7615   -83429.017    986.55144 
   18250    297.30649   -427.22636    276943.65   -75929.072    7541.6825   -83470.754    990.36597 
   18300    300.84128   -591.27523    277356.21   -75915.793    7631.3486   -83547.142    995.20635 
   18350    296.81932   -366.67804    277494.25   -75905.657    7529.3247   -83434.981    999.20357 
   18400    297.34515   -550.90713    277582.82   -75907.843    7542.6632   -83450.507    1003.9704 
   18450    296.55794   -595.41314    277558.57   -75933.432    7522.6943   -83456.126    1006.8318 
   18500     299.2362   -260.96926    277329.78   -75897.981    7590.6329   -83488.614    1009.7557 
   18550    296.76725   -618.07805    277224.56   -75867.754    7528.0039   -83395.758    1012.8936 
   18600    295.76195   -360.17161    277292.71    -75834.65    7502.5028   -83337.153    1015.8961 
   18650    299.98114   -675.41944    277564.23   -75851.162    7609.5296   -83460.691    1019.4229 
   18700    299.31364   -801.82919    277757.04   -75874.389    7592.5974   -83466.987    1021.2246 
   18750    298.92802   -562.34236    277588.18   -75793.741    7582.8156   -83376.557    1023.2537 
   18800    299.83893   -364.87592    277343.99   -75812.698    7605.9222    -83418.62    1023.6266 
   18850    300.75228   -463.39707    277157.97   -75848.381    7629.0909   -83477.472    1024.3224 
   18900    302.85012   -529.32471    277127.89   -75862.752    7682.3063   -83545.058    1028.2733 
   18950    297.69303   -386.95944    276980.59   -75902.407    7551.4878   -83453.895    1031.8826 
   19000    297.50065   -421.82256    277121.59   -75873.038    7546.6079   -83419.646    1035.7384 
   19050    303.55057   -388.95481    277498.36   -75853.326    7700.0743     -83553.4    1039.4754 
   19100    298.33962   -738.84312    277661.54   -75892.594    7567.8896   -83460.484    1040.3876 
   19150    296.57399   -434.38526    277604.64   -75857.174    7523.1015   -83380.276    1042.3762 
   19200    293.94026   -555.65483    277451.92   -75870.488    7456.2926    -83326.78    1045.5913 
   19250    296.56819   -586.00514    277171.96   -75860.346    7522.9544   -83383.301    1048.6997 
   19300    300.30598   -432.48731    276985.87   -75887.545    7617.7698   -83505.315    1051.4571 
   19350    294.19074    -619.0304    277253.03   -75914.067    7462.6462   -83376.713    1056.0054 
   19400    293.98537    -590.4962    277359.25   -75917.189    7457.4368   -83374.626    1060.0754 
   19450    295.51664   -266.12449    277399.37   -75945.064      7496.28   -83441.344    1062.8521 
   19500    290.59125   -735.11837    277352.56   -76003.386    7371.3393   -83374.725    1065.8274 
   19550     302.1214   -554.02701    277207.04   -75942.061    7663.8209   -83605.882    1068.8257 
   19600    295.56298   -430.41858    277277.73    -75926.54    7497.4556   -83423.996     1071.317 
   19650     298.1373   -400.94335    277381.59    -75883.94    7562.7574   -83446.698    1073.7525 
   19700    301.00138   -483.37321    277431.47   -75830.368    7635.4097   -83465.777    1076.3361 
   19750    300.07071   -416.70913     277383.7   -75859.037    7611.8018   -83470.839    1080.0763 
   19800    297.83894   -411.16599    277380.76   -75885.412    7555.1892   -83440.601    1081.7418 
   19850    295.59979   -755.57195    277767.33   -75852.799    7498.3892   -83351.188    1086.2649 
   19900     302.8946   -650.52566    277737.04   -75800.083    7683.4345   -83483.518    1089.0832 
   19950    295.56527   -549.82938    277416.67   -75801.395    7497.5135   -83298.909    1090.7136 
   20000    304.56881   -312.37536    276941.08   -75783.233    7725.9036   -83509.137    1091.6657 
   20050    297.78981   -541.96862    276785.25   -75824.702    7553.9429   -83378.645    1092.0945 
   20100    299.53953    -342.3822    277099.25   -75859.388    7598.3274   -83457.715    1095.9904 
   20150    297.18763   -354.08905     277692.5   -75884.723    7538.6675    -83423.39    1099.8757 
   20200    296.84443   -347.61181     278113.6    -75872.49    7529.9616   -83402.452    1102.1554 
   20250    300.31539   -657.78441    278036.39   -75900.134    7618.0084   -83518.143    1104.1064 
   20300    297.60464   -525.05636    277660.67   -75878.617    7549.2456   -83427.863    1106.0979 
   20350    297.76372   -332.37977    277072.34   -75880.304    7553.2811   -83433.585     1107.382 
   20400    298.71975   -475.01392    277020.03   -75854.052    7577.5323   -83431.585    1110.3463 
   20450    295.72618   -516.33286     277622.6   -75802.061    7501.5954   -83303.657    1113.9801 
   20500    295.21632      -833.18    278174.48   -75791.434    7488.6619   -83280.096    1118.1728 
   20550    301.91375    -597.7341    278092.31   -75780.651    7658.5535   -83439.205    1121.5187 
   20600    299.64762   -829.56864    277555.31   -75779.225    7601.0693   -83380.294    1123.0385 
   20650     305.0273    8.6104291    276731.01   -75745.154     7737.534   -83482.688     1122.273 
   20700    298.02298    -328.9928    276973.07   -75825.331    7559.8576   -83385.189    1122.7799 
   20750     301.7566   -464.00979    277523.57   -75821.395    7654.5672   -83475.962    1126.3275 
   20800    302.69913   -702.15961    277965.23   -75802.599     7678.476   -83481.074    1130.3858 
   20850    299.45676   -697.50109    277972.67   -75802.855    7596.2278   -83399.083    1132.1901 
   20900    300.19585   -649.47292     277529.7   -75730.939    7614.9761   -83345.915     1132.495 
   20950     295.6783    51.523605    277006.84   -75786.853    7500.3807   -83287.234    1133.9814 
   21000     298.7009   -540.63778     277423.8    -75818.47    7577.0542   -83395.524    1137.3069 
   21050    300.86574   -677.04402    277863.47   -75769.794    7631.9691   -83401.763    1141.0712 
   21100    299.63697   -547.10227    277953.64   -75755.491    7600.7991    -83356.29    1144.4232 
   21150     298.3882   -513.17068    277818.43   -75785.732    7569.1221   -83354.855    1147.5621 
   21200    303.53588   -615.83767    277245.39   -75809.219    7699.7017   -83508.921    1148.5005 
   21250     300.0686   -361.90703    276867.11   -75855.877    7611.7483   -83467.625    1150.8585 
   21300    297.53229   -491.73803    277228.15   -75848.997    7547.4103   -83396.408    1154.7152 
   21350    294.11776   -396.92513    277831.26   -75915.521    7460.7951   -83376.316    1157.1111 
   21400    298.16912   -798.82022    278050.81   -75910.309    7563.5647   -83473.874    1159.0606 
   21450    296.80199   -419.23239     277865.3   -75899.582    7528.8852   -83428.467    1163.3139 
   21500    297.81995   -501.21955    277326.52   -75875.527    7554.7074   -83430.235    1163.2248 
   21550    304.66249   -552.14575    276588.41   -75891.511    7728.2801   -83619.791    1164.1387 
   21600    298.95999   -226.55909    276185.51   -75939.229    7583.6264   -83522.856    1165.6469 
   21650    298.62732   -470.02018    276808.33    -75955.21    7575.1878   -83530.397    1170.0035 
   21700    294.96371    -695.9331    277675.37   -75923.805     7482.254   -83406.059    1176.6021 
   21750    299.87078   -557.70319     278002.4   -75926.846    7606.7301   -83533.576    1181.0948 
   21800    299.33832    -1060.671    278084.46   -75936.298    7593.2234   -83529.521    1184.0733 
   21850     294.6096   -530.16381       277497   -75941.566    7473.2714   -83414.838    1183.1429 
   21900    297.66476   -373.11337    276965.44   -75926.161    7550.7707   -83476.932     1183.632 
   21950    293.59133   -186.64678    276898.49   -75931.511    7447.4412   -83378.952    1185.8398 
   22000    296.64202   -505.76051    277275.41   -75885.138    7524.8271   -83409.965    1189.5891 
   22050    297.02687   -651.85216     277498.6   -75869.563    7534.5895   -83404.152    1191.3603 
   22100    295.55648   -590.77004    277469.49   -75853.122    7497.2905   -83350.412    1193.2419 
   22150    298.13264   -207.49394    277309.72   -75849.836    7562.6392   -83412.475     1195.909 
   22200    299.65776   -465.49248    277383.57   -75835.705    7601.3265   -83437.032    1198.3769 
   22250    301.00636   -331.58072     277514.9   -75859.375    7635.5361   -83494.911    1202.0067 
   22300    295.80037   -323.51572    277519.33   -75888.335    7503.4773   -83391.812    1205.7154 
   22350    298.86586    -767.4516    277489.54   -75898.906    7581.2387   -83480.145    1208.8911 
   22400    294.05498   -344.04876    277384.04   -75910.408    7459.2026    -83369.61    1210.6137 
   22450    296.94891   -244.66674    277302.68   -75883.789     7532.612   -83416.401    1212.0902 
   22500    300.30491    -293.2273    277398.47   -75808.931    7617.7426   -83426.673    1212.5937 
   22550    299.14663   -524.62454    277469.84   -75836.922    7588.3609   -83425.283    1214.9132 
   22600    300.87085   -549.05877    277331.51   -75872.524    7632.0985   -83504.622    1218.3801 
   22650    295.13133   -310.32027    277239.41   -75855.396     7486.506   -83341.902    1219.9867 
   22700    301.68019   -738.87945    277593.57    -75874.66    7652.6288   -83527.289    1221.0301 
   22750    301.00777   -618.21506    277730.04   -75847.801    7635.5718   -83483.373    1224.7222 
   22800    295.84089   -698.58284     277730.8   -75861.869    7504.5051   -83366.374    1228.7418 
   22850    294.92447   -538.86443    277594.61   -75845.135    7481.2587   -83326.393    1229.9141 
   22900    301.62989   -211.85159    277295.34   -75802.393     7651.353   -83453.746    1231.1128 
   22950    303.08042   -473.14412    277254.69   -75812.917    7688.1482   -83501.065    1233.5212 
   23000    295.33999   -497.66347    277439.01   -75870.879    7491.7991   -83362.678     1236.885 
   23050    297.34997   -637.76413    277748.45   -75856.522    7542.7856   -83399.308    1239.2729 
   23100    297.38875   -709.92191    277900.06    -75905.55    7543.7693   -83449.319    1242.5336 
   23150    296.06288   -560.06788     277448.6   -75904.637    7510.1364   -83414.773    1242.1233 
   23200    299.90416   -474.31734    276804.63   -75869.563    7607.5769    -83477.14    1241.2008 
   23250    300.20889   -9.7411589    276485.74   -75859.766     7615.307   -83475.073    1243.3006 
   23300    296.54893   -219.93167    277081.38    -75875.14    7522.4657   -83397.606     1247.513 
   23350    298.08194   -731.50705    277932.01   -75883.091    7561.3532   -83444.444    1252.2247 
   23400    303.19549   -615.36675    278295.71   -75861.239    7691.0671   -83552.306    1256.5344 
   23450    292.90025   -619.81969    277797.92   -75881.938    7429.9109   -83311.849    1257.2483 
   23500    301.41368   -604.12259    277105.41   -75915.198    7645.8686   -83561.066    1257.7902 
   23550    299.58694   -456.90952    276844.29   -75918.202      7599.53   -83517.732    1258.9816 
   23600    298.76452   -314.69221    277074.33   -75934.117     7578.668   -83512.785    1260.2076 
   23650    297.33412   -592.95149    277736.86   -75964.206    7542.3835    -83506.59    1262.6088 
   23700    295.89153   -452.70722    278076.37    -75972.57    7505.7898   -83478.359    1268.9285 
   23750    294.61801   -694.52478    277864.67   -75963.259    7473.4847   -83436.744    1271.4199 
   23800    298.46577   -521.68199    277236.57   -75949.927    7571.0897   -83521.017    1271.2094 
   23850    301.37026   -21.711507    276771.59    -75916.51    7644.7671   -83561.277    1272.8976 
   23900    296.82798   -582.26246    277029.79   -75927.144    7529.5444   -83456.689    1275.6622 
   23950     296.7085   -710.88513    277328.47   -75971.201    7526.5137   -83497.715      1278.64 
   24000    295.36645   -737.23805    277333.36   -75949.009    7492.4701   -83441.479    1281.6163 
   24050    294.10202   -177.33086    277041.68   -75939.767    7460.3958   -83400.163    1282.7229 
   24100    294.96524   -456.41603    277391.86   -75937.966    7482.2928   -83420.259    1286.0202 
   24150    298.86067   -618.06857    277852.47   -75909.313    7581.1071    -83490.42    1288.6883 
   24200    293.90809   -464.09679    277762.95   -75921.838    7455.4764   -83377.314    1292.7247 
   24250    293.52567   -624.24495    277359.74   -75846.218    7445.7757   -83291.994    1293.4602 
   24300    295.79751   -500.49548    277064.36   -75881.695    7503.4047   -83385.099    1296.5772 
   24350    295.10433   -377.65947    277302.36   -75905.415    7485.8212   -83391.236    1299.0666 
   24400    296.46597   -353.75139    277533.49   -75922.962    7520.3615   -83443.324     1301.637 
   24450    295.47835   -478.70194    277829.71   -75921.397    7495.3087   -83416.706    1304.3857 
   24500    297.62649   -588.86644    277878.65   -75923.333       7549.8   -83473.133    1307.7537 
   24550    295.56792   -560.86158    277625.87    -75955.57    7497.5808   -83453.151    1310.1318 
   24600    299.43851   -711.72917    277123.19   -75979.961    7595.7649   -83575.726    1310.2517 
   24650    297.66694   -81.449602    276636.24   -75974.891     7550.826   -83525.717    1309.1209 
   24700    301.09424   -258.80302    276854.88   -75980.325    7637.7652    -83618.09    1313.0972 
   24750    294.88685   -460.60408    277391.88   -75964.445    7480.3044    -83444.75    1316.6648 
   24800     297.8323   -756.98544    277629.57   -75991.365    7555.0206   -83546.385    1320.8694 
   24850     294.4946   -580.77119    277476.76   -75987.585    7470.3543   -83457.939    1323.1507 
   24900    295.24356   -310.64861    277047.44   -76026.352    7489.3528   -83515.705    1323.7896 
   24950    293.72523   -147.69428    276966.29   -76026.619    7450.8379   -83477.457    1325.8845 
   25000    295.54894   -463.77458    277160.23   -75990.337    7497.0994   -83487.436    1329.0326 
   25050       298.03    -706.1004    277279.43   -75970.365    7560.0356   -83530.401    1332.3958 
   25100    295.60528   -632.00936    277409.45   -75991.857    7498.5286   -83490.385    1334.7019 
   25150    299.81318   -537.82164    277253.18   -75979.251    7605.2692    -83584.52    1336.5244 
   25200    298.73733   -553.70938    277207.71   -75941.091    7577.9784    -83519.07    1338.8492 
   25250    300.98429   -520.41881    277235.02   -75930.135    7634.9762   -83565.111    1341.1279 
   25300    296.92461   -424.04412     277303.5   -75894.621    7531.9955   -83426.617     1344.908 
   25350    296.31069   -342.94938    277272.14   -75902.652    7516.4224   -83419.075    1344.7075 
   25400    298.00699   -516.67502    277324.97   -75918.632    7559.4519   -83478.084    1347.0639 
   25450    295.06462   -492.55944    277401.72   -75936.574    7484.8137   -83421.388    1350.2836 
   25500    297.49134      -618.45    277591.82   -75953.323    7546.3716   -83499.695    1353.9592 
   25550    298.05839   -656.45895     277518.1   -75953.397     7560.756   -83514.153    1356.7686 
   25600    302.81183   -614.04951    277146.18   -75979.658     7681.335   -83660.993    1358.6648 
   25650    296.92424    -690.1339    277155.56   -75956.823    7531.9863   -83488.809    1359.7662 
   25700    294.54086   -321.05171    277129.99   -75927.483    7471.5276    -83399.01    1363.7312 
   25750    299.16406   -602.91157     277074.9   -75947.124    7588.8029   -83535.927    1364.9605 
   25800    297.87697   -421.26149    277140.05   -75923.159    7556.1538   -83479.313    1368.0184 
   25850    297.76055   -679.85235    277570.84   -75921.061    7553.2006   -83474.261    1372.0803 
   25900    296.67111   -797.25906     277840.4   -75948.708     7525.565   -83474.273    1375.5133 
   25950    301.51117   -763.52319    277438.07   -75977.171    7648.3414   -83625.512    1376.4376 
   26000    295.92095   -199.10146    276872.95   -76008.523    7506.5361   -83515.059    1376.2943 
   26050    292.36836   -400.05775    277095.66   -76008.957    7416.4185   -83425.375    1378.7043 
   26100    296.63281   -594.57778    277380.06   -76032.776    7524.5936   -83557.369    1381.7484 
   26150    291.03614   -475.49432    277381.25   -75965.829    7382.6246   -83348.454     1383.403 
   26200    302.43669    -363.0372    277332.25    -75964.76    7671.8188   -83636.579    1385.8297 
   26250    298.50056    -676.6613    277267.74   -75930.544    7571.9722   -83502.516    1388.6952 
   26300    295.48799   -624.17344    277279.19   -75933.584    7495.5533   -83429.137    1390.1613 
   26350    298.12901   -563.95537       277564   -75880.546    7562.5471   -83443.093    1392.1319 
   26400    296.92997   -656.99956    277996.49   -75875.851    7532.1315   -83407.983    1396.6054 
   26450    301.09771   -756.47417    277940.58   -75917.365    7637.8534   -83555.218    1400.0398 
   26500    298.69959   -360.83845    277331.19   -75896.774    7577.0209   -83473.795    1401.3274 
   26550    298.12097   -221.83752    276749.65   -75945.456    7562.3433   -83507.799    1402.6349 
   26600    294.95446      -351.47    276877.75   -75927.122    7482.0195   -83409.142    1405.3003 
   26650     296.5932   -494.47543    277468.52    -75957.74    7523.5887   -83481.329    1408.9299 
   26700    292.09172   -486.38468    277793.61    -76007.62    7409.4012   -83417.021    1412.9985 
   26750     294.0458   -527.93376    277304.04   -76051.753    7458.9696   -83510.723    1412.5835 
   26800    297.35996   -416.57615    276777.23   -76057.266     7543.039   -83600.305    1413.9783 
   26850    293.58017   -224.98826    276922.03    -76098.46    7447.1581   -83545.618    1415.7965 
   26900    292.87687    -517.1932    277324.18    -76120.72    7429.3178   -83550.038    1417.5914 
   26950    291.93099   -179.59916       277497   -76110.292    7405.3239   -83515.616    1420.8904 
   27000    293.93632   -435.30335    277262.67   -76123.226    7456.1924   -83579.419    1421.9735 
   27050    295.22344   -137.17787    276774.83   -76123.729    7488.8426   -83612.571    1422.5155 
   27100    295.52539   -540.89476    276837.65   -76162.219     7496.502   -83658.721    1424.9771 
   27150    295.20243   -286.52146    276928.37   -76065.159    7488.3097   -83553.469    1429.4962 
   27200    293.27434   -625.63899    277202.63   -76060.302    7439.4002   -83499.702    1432.4812 
   27250    296.49338   -427.38522     277219.1   -76059.904    7521.0566    -83580.96    1435.0073 
   27300    293.37407   -606.58505    277344.74   -76037.192    7441.9302   -83479.122    1437.9281 
   27350    296.02426   -643.01371    277321.62   -76043.667    7509.1567   -83552.824    1438.7063 
   27400    295.79292   -262.25354    277190.02   -76010.529    7503.2882   -83513.817    1441.2433 
   27450    299.28512   -475.07141    277058.55   -75973.546    7591.8738   -83565.419    1443.0146 
   27500     294.1206   -252.57203    277080.53   -75928.909    7460.8671   -83389.776    1447.8299 
   27550    296.17694   -559.46804    277430.26   -75909.257    7513.0297   -83422.287    1452.2531 
   27600    298.80159   -594.23274     277634.7   -75889.109    7579.6085   -83468.717    1455.1316 
   27650     298.0635   -639.29042    277429.07   -75920.227    7560.8855   -83481.112     1456.957 
   27700    297.94798   -497.39966    277129.01   -75929.536    7557.9551   -83487.491    1458.0569 
   27750    300.30849   -598.67892    277088.87   -75893.706    7617.8334   -83511.539    1461.9467 
   27800    295.53239   -393.16616    277195.26   -75948.316    7496.6795   -83444.996    1463.5745 
   27850    294.19179   -849.44253    277519.14   -75916.471    7462.6729   -83379.144    1467.0215 
   27900    297.17984   -588.98919     277685.5   -75837.937      7538.47   -83376.407    1470.7379 
   27950    300.25868   -261.88043    277598.44   -75849.418      7616.57   -83465.988    1472.1919 
   28000    297.08187   -733.78973    277599.54   -75857.732    7535.9848   -83393.717    1474.0731 
   28050    301.45797   -224.94284    277277.91   -75837.991    7646.9919   -83484.983    1474.0427 
   28100    296.82841   -378.07615    277428.03   -75831.492    7529.5552   -83361.047    1478.6347 
   28150    295.55956   -521.15305     277714.5   -75860.353    7497.3688   -83357.721    1481.1842 
   28200     300.3197   -685.47514    277925.42   -75886.517    7618.1178   -83504.634    1484.9106 
   28250    300.57704   -738.88962    277705.14   -75839.634    7624.6456    -83464.28    1487.2834 
   28300    300.90182   -286.27579    277066.33   -75853.237    7632.8843   -83486.122    1488.0957 
   28350    299.00628   -323.69383    276629.46   -75891.951    7584.8007   -83476.752    1488.4483 
   28400    298.29157   -658.70652    276836.28   -75884.779    7566.6709   -83451.449    1491.0314 
   28450    294.33345   -636.06075    277186.96   -75877.709    7466.2665   -83343.975    1495.6213 
   28500    298.77424   -461.54063    277412.84   -75830.619    7578.9145   -83409.534     1498.554 
   28550    305.31893   -874.98452     277713.7   -75789.846    7744.9317   -83534.778    1501.4917 
   28600    301.00655   -339.00671    277643.15    -75747.07    7635.5409   -83382.611     1501.954 
   28650    296.26458   -618.24355    277513.77    -75759.56    7515.2528   -83274.812    1503.6686 
   28700    303.03292   -455.56833    277404.15   -75722.801    7686.9431   -83409.744    1505.5706 
   28750    302.40966   -442.73145    277501.73   -75755.367    7671.1331     -83426.5    1509.1289 
   28800    298.82742   -620.80632    277772.06   -75827.118    7580.2636   -83407.381    1511.4012 
   28850    295.09093   -646.14144    277819.15   -75827.959    7485.4811   -83313.441    1513.0321 
   28900    298.46939   -499.96514    277370.03   -75838.562    7571.1815   -83409.743    1513.6838 
   28950    302.00638   -353.07906     276815.4   -75856.762    7660.9034   -83517.665    1512.4137 
   29000    298.27679   -556.12901    276826.76   -75901.974    7566.2959    -83468.27    1514.0096 
   29050    296.33679   -577.10572    277146.95   -75903.424    7517.0845   -83420.508    1517.2777 
   29100    297.23367   -440.31088    277507.08    -75879.33    7539.8354   -83419.165    1521.9083 
   29150      297.081   -656.41043    277651.06   -75897.653    7535.9627   -83433.616    1525.2123 
   29200    295.40938   -542.02108    277543.53   -75886.615    7493.5592   -83380.174    1526.0881 
   29250    295.77874   -694.31298     277487.2   -75838.156    7502.9287   -83341.084    1528.5645 
   29300    304.85757   -692.06935    277378.83   -75890.292    7733.2285   -83623.521    1529.8677 
   29350    296.80787   -740.49516     277330.1   -75921.419    7529.0344   -83450.453    1532.1964 
   29400    292.23994   -626.67588     277258.9   -75939.916     7413.161   -83353.077    1535.5202 
   29450    297.20163   -736.36577    277190.63   -75944.225    7539.0227   -83483.248    1538.8945 
   29500    295.10364   -240.73837    277135.09    -75962.53    7485.8035   -83448.333    1541.8396 
   29550    296.67165   -164.85761    277303.51   -75923.455    7525.5789   -83449.033    1544.2267 
   29600    292.81767   -685.56212    277731.02   -75884.365     7427.816   -83312.181    1546.6311 
   29650     295.6392   -688.34822    277902.26   -75860.643    7499.3891   -83360.033    1549.9731 
   29700    301.09413   -726.80514    277826.87   -75900.799    7637.7625   -83538.561    1550.5715 
   29750     296.5165   -316.52734    277355.31   -75882.666    7521.6431   -83404.309    1551.0848 
   29800    297.49823   -255.27727    276806.43   -75861.531    7546.5465   -83408.078    1551.1254 
   29850    302.25309   -605.47458    276942.54    -75857.76    7667.1615   -83524.922      1555.84 
   29900    297.74716   -567.18359    277432.73   -75812.427     7552.861   -83365.288    1562.2965 
   29950    293.47716   -377.06297    277906.55   -75797.192    7444.5453   -83241.737    1565.8503 
   30000    299.47862   -727.87755    278089.67   -75835.674    7596.7823   -83432.456    1567.8692 
   30050    296.92997   -518.54307    277850.62   -75864.841    7532.1314   -83396.972     1570.279 
   30100    300.65371   -431.46365    277179.63   -75834.899    7626.5904   -83461.489    1572.6722 
   30150    298.25521   -382.69424    277027.46    -75837.37    7565.7486   -83403.119    1574.1324 
   30200    301.36873   -781.18632    277321.15    -75840.14    7644.7282   -83484.868    1578.0299 
   30250    308.19984    -615.5653     277403.4   -75853.212     7818.011   -83671.223    1584.0985 
   30300    297.16743   -565.75904    277548.42   -75832.236    7538.1551   -83370.391    1588.1146 
   30350    298.25726   -972.90878    277724.39   -75844.006    7565.8005   -83409.806    1590.0209 
   30400    297.83007   -679.09372     277558.4   -75912.228    7554.9642   -83467.192     1589.869 
   30450    295.46734   -651.82349    277320.97   -75938.646    7495.0296   -83433.675    1590.5013 
   30500    294.33608   -701.61195     277355.5   -75884.445     7466.333   -83350.778    1593.3592 
   30550    296.64975    -432.0861    277472.09   -75886.234    7525.0234   -83411.257    1596.9175 
   30600    294.81413    -614.9837    277579.79   -75911.659    7478.4597   -83390.118    1597.9886 
   30650    301.99143    -510.0299    277302.55   -75945.817    7660.5239   -83606.341    1602.1663 
   30700     299.4389   -268.42053    277140.52   -75944.318    7595.7749   -83540.093    1603.2845 
   30750    295.96105   -659.19612    277141.88   -75975.859    7507.5532   -83483.412    1605.9206 
   30800    297.67449   -531.74302    277216.45   -76021.571    7551.0176   -83572.589    1608.4021 
   30850    294.62906   -566.68068    277437.93   -76036.362    7473.7652   -83510.128    1612.1088 
   30900    294.84569   -632.53785    277319.22   -76016.238    7479.2601   -83495.498    1612.9252 
   30950    297.90313   -504.63883    276735.42   -76034.509    7556.8173   -83591.326    1610.8339 
   31000    292.63787    16.576436    276386.63   -76042.524    7423.2551   -83465.779    1611.5697 
   31050    287.13507   -274.49541    276871.47   -76023.734    7283.6674   -83307.402    1616.9642 
   31100    296.23818   -629.77027     277499.2   -75994.094    7514.5831   -83508.677    1622.4411 
   31150     297.1428   -549.39255     277647.7   -75957.492    7537.5302   -83495.022    1624.1643 
   31200    295.53105   -413.04269    277264.96     -75940.6    7496.6455   -83437.246    1625.1861 
   31250     296.2106   -581.50426    276965.18   -75937.096    7513.8836   -83450.979    1624.2908 
   31300    300.58347   -234.76864    277014.13   -75934.342    7624.8088   -83559.151    1627.3544 
   31350    296.93566   -597.51262    277425.67   -75952.838     7532.276   -83485.114    1632.8702 
   31400     293.7336    -656.6137    277634.59   -75977.005    7451.0502   -83428.055    1635.4631 
   31450    293.11327   -429.00833    277442.45   -75962.303    7435.3144   -83397.617    1634.7476 
   31500    297.67494   -574.40753    276980.18   -75970.442     7551.029   -83521.471    1634.5366 
   31550    298.20501   -429.28472    276677.51    -75987.21    7564.4751   -83551.685    1634.0756 
   31600    298.15381   -199.52802    276696.35   -76005.876    7563.1764   -83569.052    1634.5891 
   31650    295.82568   -347.31676    276815.61   -75946.776    7504.1193   -83450.896     1635.789 
   31700    295.78493   -402.16121    276988.91   -75962.979    7503.0858   -83466.064    1637.9775 
   31750    294.62806   -302.23699    277157.45   -75954.364    7473.7398   -83428.104     1640.421 
   31800    299.84764    -614.5421    277423.88   -75957.107    7606.1433    -83563.25     1641.846 
   31850    294.74172   -709.99057    277550.79   -75995.013    7476.6229   -83471.636    1644.5375 
   31900    298.73984   -749.40706    277165.38   -76029.728    7578.0419    -83607.77    1644.5845 
   31950    295.20503   -365.35729    276639.32   -75993.794    7488.3756   -83482.169    1644.5765 
   32000    296.56405   -104.13001    276697.02   -76026.028    7522.8493   -83548.878    1647.9739 
   32050    297.53176   -473.77772    277164.75   -76036.654     7547.397   -83584.051    1653.3957 
   32100    292.58834   -549.85536    277561.41   -76002.064    7421.9988   -83424.063     1659.325 
   32150    293.44371   -825.91987    277508.77   -76041.197    7443.6965   -83484.893    1662.5224 
   32200    294.61358   -556.21763    277125.52   -76014.125    7473.3723   -83487.497    1663.1028 
   32250    297.43072   -339.30031    276985.69   -75998.387    7544.8339   -83543.221    1665.5654 
   32300    293.69226   -533.67548    277059.73    -76027.87    7450.0015   -83477.872    1669.8833 
   32350    296.74721   -547.74908    277065.71    -76017.59    7527.4956   -83545.086    1671.7822 
   32400    294.32022   -274.17585    277112.78   -76019.564    7465.9308   -83485.495    1674.1116 
   32450    294.42893   -657.28362    277233.57    -76054.66    7468.6883   -83523.348    1676.4531 
   32500    291.46392   -453.30882     277060.8   -76027.665    7393.4759   -83421.141    1678.6406 
   32550    300.74747   -563.69156     277018.9   -76048.224     7628.969   -83677.193    1682.1752 
   32600    302.67917   -542.86928    277189.48   -75994.771    7677.9696   -83672.741     1686.981 
   32650    298.11466   -489.10206    277240.32   -75993.978    7562.1833   -83556.162    1688.6325 
   32700    294.61415   -361.23023    277202.78   -75997.553    7473.3867    -83470.94     1690.772 
   32750    293.08998   -586.61836    277131.61   -75975.436    7434.7236    -83410.16    1694.1897 
   32800    292.22706   -283.79078    276800.47   -76003.942    7412.8342   -83416.776    1697.0591 
   32850    296.57188   -441.35839    276678.79   -75992.645    7523.0481   -83515.693    1699.5727 
   32900    292.33984   -390.11736    276960.68   -76012.843    7415.6951   -83428.538    1701.9108 
   32950    293.25341   -643.27292    277432.29   -76041.129    7438.8694   -83479.999    1706.2797 
   33000    294.55829   -395.76007    277585.86   -75982.177    7471.9698   -83454.147    1707.9856 
   33050    295.23622    -356.1843    277535.11   -75975.101    7489.1668   -83464.267    1710.8122 
   33100     297.1086   -815.37144    277447.92    -75995.94    7536.6629   -83532.603    1713.3716 
   33150    299.45547   -687.21267    277082.85   -76013.623    7596.1952   -83609.818    1713.7988 
   33200     295.3353   -496.25121    276983.65   -76036.385      7491.68   -83528.065    1715.3213 
   33250    298.78408   -762.34019    277152.05   -76049.965    7579.1642   -83629.129    1717.1701 
   33300    295.06752   -518.22499    277265.84   -76037.243    7484.8873   -83522.131     1720.007 
   33350    290.84003   -230.78233     277263.2   -76072.166      7377.65   -83449.816    1725.0283 
   33400    294.80489   -373.53103    277078.92    -76040.34    7478.2253   -83518.566    1726.3547 
   33450    297.88456    -650.9348     276890.4   -76014.541    7556.3463   -83570.887    1725.6052 
   33500    292.09388   -174.54869    276764.26   -76040.681     7409.456   -83450.137    1725.9208 
   33550     294.7798   -532.77899    277153.31   -76018.283    7477.5888   -83495.871    1726.9154 
   33600    294.38776   -689.59914    277561.15   -76032.251     7467.644   -83499.895    1731.4653 
   33650    295.18198   -706.49059    277611.22   -76042.091    7487.7908   -83529.882    1735.3144 
   33700    291.72587    -453.0232    277186.49   -76001.077    7400.1207   -83401.198    1735.8827 
   33750    297.62931   -389.18826    276908.64    -75987.04    7549.8716   -83536.911    1736.8236 
   33800    291.94731   -315.25849    276752.81    -75996.72    7405.7379   -83402.458    1739.0998 
   33850    296.30468   -508.91646     276808.1   -76011.673    7516.2699   -83527.942     1741.237 
   33900    295.60032   -471.57732    277100.11   -76027.228    7498.4027   -83525.631    1745.9506 
   33950     292.6588   -509.06724    277525.75     -76031.6     7423.786   -83455.386    1752.1248 
   34000    293.48488   -755.86139    277610.36   -75996.168    7444.7411   -83440.909    1754.8728 
   34050    293.12853   -687.86805    277315.37   -76013.368    7435.7015   -83449.069    1755.3056 
   34100    290.85384   -373.88502    276947.41   -76033.784    7378.0002   -83411.784    1755.8854 
   34150    294.49384   -336.62237    276876.71   -76036.983     7470.335   -83507.318    1757.3555 
   34200    291.98691   -892.21263    277205.04   -76042.248    7406.7424    -83448.99    1763.2174 
   34250    294.71954   -540.64584    277366.84   -76028.331    7476.0603   -83504.391    1767.7543 
   34300    294.68114   -556.86483     277629.8   -75974.612    7475.0863   -83449.699    1772.6301 
   34350     294.2046   -341.76596    277420.02   -75991.974    7462.9978   -83454.972    1775.7792 
   34400    295.50185   -652.35857    277174.94   -76035.342    7495.9048   -83531.247    1777.2181 
   34450    296.48942   -491.21599     277086.3   -75996.015    7520.9563   -83516.972    1780.0763 
   34500    297.10848   -605.17156     277156.3   -76037.485    7536.6598   -83574.145    1782.9709 
   34550    291.66826   -880.51224    277195.99   -76082.707    7398.6595   -83481.366    1785.7573 
   34600    291.10094   -265.29115    276990.85   -76107.203    7384.2682   -83491.471    1787.2464 
   34650    294.39285   -608.92844    277191.62   -76077.502    7467.7733   -83545.275    1792.8077 
   34700    293.72623   -783.47154    277356.47   -76043.332    7450.8633   -83494.195    1796.1062 
   34750    293.62688   -356.35893    277195.65   -76069.832     7448.343   -83518.175    1796.6416 
   34800    296.00202   -265.73009    277062.89   -76034.881    7508.5924   -83543.473     1797.934 
   34850    292.22872   -747.61229    277283.81   -76061.225    7412.8763   -83474.101    1800.1612 
   34900    297.93194    -584.9899    277401.26   -76068.294    7557.5483   -83625.842    1802.3557 
   34950    295.21151   -460.25512    277261.52   -76020.622    7488.5398   -83509.162    1802.9295 
   35000    294.23994   -235.78921     276927.6   -76019.709    7463.8944   -83483.604    1805.0463 
   35050    294.62207   -382.10595    276791.89   -76011.005    7473.5878   -83484.593    1807.0245 
   35100     293.1766   -485.01155    276923.95   -76042.198    7436.9209   -83479.119    1813.4238 
   35150    295.62292   -624.84589    277034.26   -76056.751    7498.9761   -83555.727     1820.381 
   35200    292.90168    -585.6826    277180.17   -76047.884    7429.9473   -83477.831    1820.8896 
   35250    293.58729   -957.88367    277436.19   -76002.293    7447.3387   -83449.632    1822.2275 
   35300    294.02958   -462.02794    277423.61   -75966.111    7458.5582    -83424.67    1823.6318 
   35350    298.70618   -310.97555    277493.95   -75949.396    7577.1882   -83526.584     1826.649 
   35400    294.35987   -711.63077    277688.94   -75987.932    7466.9366   -83454.868    1827.6722 
   35450    296.33287   -767.83001    277471.89   -75967.311    7516.9851   -83484.296    1828.8007 
   35500    295.20079   -246.38725    276993.25    -75938.93    7488.2678   -83427.198    1829.3297 
   35550    299.34304   -320.39164    277097.41   -75983.038    7593.3431   -83576.382    1832.0336 
   35600    295.93589   -608.24826    277746.25   -75891.553     7506.915   -83398.468    1839.3799 
   35650    293.68349   -689.07662    278137.94   -75877.644    7449.7792   -83327.423    1844.7341 
   35700    297.90209   -495.86487     277491.5   -75935.378     7556.791   -83492.169     1846.799 
   35750    298.93272   -287.48551    276831.85   -75944.224    7582.9347   -83527.159    1847.2625 
   35800    300.00999   -537.08957    276666.99   -75967.214    7610.2615   -83577.476    1848.0728 
   35850    298.84457   -742.43108    277027.08   -75937.304    7580.6986   -83518.003    1851.2815 
   35900     297.9553   -961.25857    277767.22   -75934.568    7558.1407   -83492.709    1856.1313 
   35950    297.86119   -618.87048    277864.91   -75951.582    7555.7536   -83507.336    1859.6155 
   36000    296.56266   -686.64355       277361   -75981.874    7522.8142   -83504.688    1860.5442 
   36050    291.09074   -331.47909    276703.68    -76026.81    7384.0095   -83410.819    1862.5487 
   36100    297.38283   -260.70032    276513.47   -75993.265    7543.6191   -83536.884    1865.4259 
   36150    294.88939   -309.59341    277185.61   -75992.664    7480.3688   -83473.033    1870.7843 
   36200    296.48967   -706.44492    277865.52   -75990.677    7520.9625    -83511.64    1876.9141 
   36250    295.20967   -538.09845    277866.74   -75974.034    7488.4932   -83462.527    1879.8096 
   36300    297.18538   -701.71732    277358.77   -76024.957    7538.6104   -83563.567    1879.7863 
   36350    296.55653   -234.78277    276663.69    -75958.21    7522.6586   -83480.868    1882.9397 
   36400    299.71773   -288.37679    276492.79   -76020.801    7602.8477   -83623.649    1885.3923 
   36450    297.66018   -288.34039    276747.37   -75989.489    7550.6545   -83540.144    1891.1046 
   36500    292.11499   -608.80122    277489.28   -75984.598    7409.9915   -83394.589    1896.6197 
   36550    297.92866   -725.79095    277763.09   -75953.086    7557.4649   -83510.551     1902.161 
   36600    300.79863   -529.30367    277557.72    -75935.45    7630.2667   -83565.717    1903.9334 
   36650    295.41428   -541.13253    277277.73   -75958.061    7493.6835   -83451.745    1907.3346 
   36700    297.36575   -262.82585    277048.51   -75950.872    7543.1858   -83494.058     1909.907 
   36750    297.44773   -447.93733     277054.5   -75985.135    7545.2655   -83530.401    1909.0631 
   36800    295.14274   -536.65878    277184.37   -75943.039    7486.7955   -83429.835    1912.4895 
   36850    300.44834   -430.24632    277283.99   -75953.974    7621.3809   -83575.354    1916.1243 
   36900     296.3368    -500.4406    277428.07   -75969.292    7517.0848   -83486.377    1919.1165 
   36950    292.94528   -491.59585    277220.16   -76003.995    7431.0532   -83435.048    1918.6579 
   37000    299.40841   -555.95083    276968.72   -76032.349    7595.0014    -83627.35    1919.4923 
   37050    296.54661   -380.11661    276851.24   -76047.369    7522.4069   -83569.776    1921.0994 
   37100     298.1775   -550.54565    277218.23   -75995.425    7563.7774   -83559.202    1925.3102 
   37150    295.04928    -576.3141    277345.01   -76001.962    7484.4246   -83486.387    1928.5982 
   37200    295.05524   -374.08564    277010.31   -76019.859    7484.5759   -83504.435    1930.6792 
   37250    297.16494   -270.89723    276510.58   -76028.964     7538.092   -83567.056    1929.7284 
   37300    295.34681   -140.24955    276592.61   -76036.035    7491.9721   -83528.007    1934.2083 
   37350    300.58721   -441.63692    277048.86   -76031.363    7624.9038   -83656.267    1937.3147 
   37400    295.48095   -1004.1105    277690.76   -76005.783    7495.3746   -83501.158     1942.282 
   37450    297.34069   -855.06674    277834.58   -75999.318    7542.5502   -83541.868    1947.4966 
   37500    298.01546   -558.68338    277353.16    -76004.43    7559.6668   -83564.097    1948.1539 
   37550    298.18939   -709.98629    276822.58   -75994.664    7564.0787   -83558.743     1947.743 
   37600    291.46712   -395.97269    276659.05   -76013.407     7393.557   -83406.964    1947.5752 
   37650    291.63693   -361.86039    276893.09    -75998.47    7397.8646   -83396.335     1951.714 
[...]
   90850    299.16813   -594.41114    277824.45   -75790.308    7588.9063   -83379.214    4617.8494 
   90900    306.13256   -523.29903    277546.87    -75804.43    7765.5709   -83570.001    4619.6431 
   90950     297.6174   -456.47678    277124.52   -75833.631    7549.5694     -83383.2    4616.5191 
   91000    298.52783   -258.25571    276931.34   -75818.316     7572.664    -83390.98    4614.6877 
   91050    298.85843   -414.18362    277283.68   -75838.559    7581.0503   -83419.609    4621.7711 
   91100     301.4609   -709.01463    277778.77   -75789.809    7647.0662   -83436.875    4630.2992 
   91150     299.2441   -524.00239    278037.66    -75799.39    7590.8333   -83390.223    4636.2964 
   91200    296.13967   -619.97306    277892.82   -75830.438    7512.0841   -83342.523    4637.9638 
   91250    298.41162   -384.76674    277316.34   -75849.582     7569.716   -83419.298     4633.026 
   91300    295.13101   -378.24732    276724.09   -75851.013    7486.4978   -83337.511    4631.0481 
   91350    296.60917   -253.33414    276663.26    -75863.58    7523.9938   -83387.574    4636.0147 
   91400    297.99703   -562.82103    277413.84   -75898.054    7559.1993   -83457.253    4644.6022 
   91450    292.00193   -487.45812    277951.92   -75915.644    7407.1234   -83322.768    4652.1816 
   91500    292.72191   -720.25465    278183.02   -75913.679    7425.3871   -83339.066    4660.2094 
   91550    292.92867   -531.07598    277530.61   -75906.439    7430.6318    -83337.07    4657.4987 
   91600    299.48142   -295.65563    276557.23   -75945.916    7596.8534   -83542.769    4651.7207 
   91650    295.00619    -20.50782    276386.78   -76015.327    7483.3317   -83498.659     4655.801 
   91700    299.59535   -845.78825    277213.57   -76030.361    7599.7433   -83630.105     4666.687 
   91750    292.21885   -669.09943    277806.85   -75969.614    7412.6261    -83382.24    4675.1565 
   91800    288.96858   -855.11894     277685.6   -75967.479    7330.1774   -83297.656    4673.9791 
   91850    295.84576   -421.23732    276775.12   -76001.111    7504.6287    -83505.74    4667.8917 
   91900    298.13096   -50.753932    276247.17   -75989.008    7562.5967   -83551.605    4667.9644 
   91950    296.15544    -93.57426    276731.03   -76051.003    7512.4843   -83563.488    4675.5529 
   92000    299.25518   -581.68921    277583.62   -76008.611    7591.1145   -83599.725    4687.9114 
   92050    296.75253   -829.27695    277904.46   -76057.622    7527.6306   -83585.252    4694.9907 
   92100    293.74664   -715.86897     277462.5   -75980.247    7451.3811   -83431.628    4691.3546 
   92150     295.6825   -656.07946    276824.67   -75978.583    7500.4875    -83479.07    4686.3448 
   92200    296.05118   -313.66306     276516.6   -75972.179    7509.8396   -83482.019     4684.658 
   92250    298.93808   -368.21598    276922.67   -75952.153    7583.0706   -83535.223    4690.7502 
   92300    293.81287   -567.83533    277682.46   -75952.816    7453.0611   -83405.877    4700.3944 
   92350    298.80682   -880.31096    278171.82   -75964.457     7579.741   -83544.198    4705.0678 
   92400    291.85036   -838.33749    277886.64   -75958.515    7403.2786   -83361.793    4700.1303 
   92450    297.80674   -383.81274    276985.43   -75960.763    7554.3723   -83515.136    4692.9847 
   92500    297.50487   -203.33696    276400.32   -75982.499    7546.7148   -83529.214    4692.3726 
   92550    294.65028   -421.05784    276704.94   -75989.739    7474.3034   -83464.042    4697.8283 
   92600    299.11824   -899.66707    277656.91   -76023.616    7587.6406   -83611.256    4709.6436 
   92650    294.36316   -894.24698    278021.01   -76001.303    7467.0201   -83468.323    4715.0968 
   92700    296.00685    -869.5639    277613.14   -75995.787    7508.7151   -83504.502     4710.914 
   92750    296.29133    -763.7328    277174.87   -76060.312    7515.9315   -83576.243    4707.3882 
   92800    292.50667   -144.04001    276752.13   -76054.179    7419.9271   -83474.106     4706.561 
   92850     295.1516   -282.74404    276797.19    -76032.23    7487.0203    -83519.25    4711.0216 
   92900    293.65883   -316.67502    277302.78   -76039.901    7449.1537   -83489.055    4719.9555 
   92950    294.29876   -895.75872    277866.14   -76023.127    7465.3864   -83488.513    4724.0231 
   93000    297.42334   -456.69289    277729.75   -75988.709    7544.6468   -83533.356    4727.0817 
   93050    298.09928   -570.05583    277281.16   -75965.389    7561.7932   -83527.183    4727.8248 
   93100    296.68944   -376.95103    276667.25   -75933.735    7526.0301   -83459.765     4722.506 
   93150    302.05469   -216.05677    276461.51   -75962.579    7662.1288   -83624.708    4723.8906 
   93200    297.32268   -440.07747    276890.36   -75925.315    7542.0934   -83467.408    4733.4557 
   93250    293.87932   -515.14367    277641.25   -75893.167    7454.7465   -83347.914    4743.2117 
   93300    293.37298   -841.47473    278360.45   -75910.986    7441.9025   -83352.888     4754.948 
   93350    297.79113   -727.12477    278093.31   -75948.386    7553.9764   -83502.362    4757.0381 
   93400    294.07917   -397.33727    277193.57   -75966.183    7459.8161   -83425.999    4747.2026 
   93450    298.42045   -427.95672    276273.39    -75968.91    7569.9402    -83538.85    4740.2364 
   93500    294.65226    51.337748    276320.48   -75954.527    7474.3535    -83428.88    4742.7972 
   93550    298.70182   -680.76607    277350.89   -75940.582    7577.0775   -83517.659    4760.4571 
   93600    293.28202   -1073.7842    278135.06   -75895.972    7439.5951   -83335.567    4767.3878 
   93650    293.03415   -626.47044    277740.75   -75907.406    7433.3076   -83340.714    4765.3155 
   93700     299.5583   -252.42442    276746.99   -75909.222    7598.8035   -83508.026    4756.4398 
   93750    292.39665   -144.02136    276533.51   -75900.577    7417.1362   -83317.714     4761.033 
   93800    300.69576   -379.21005    277278.11   -75893.921    7627.6571   -83521.578    4773.4323 
   93850    299.57146   -619.55049    278127.86   -75897.432    7599.1373   -83496.569    4785.6059 
   93900    297.79732   -833.23064    278213.51   -75887.209    7554.1333   -83441.342    4788.2134 
   93950    296.20074    -743.9917    277602.55    -75881.84    7513.6334   -83395.473    4784.6276 
   94000    295.78529   -252.70621    276683.98   -75876.979    7503.0947   -83380.074    4778.9431 
   94050    299.30952   -332.86654    276573.82   -75843.611    7592.4928   -83436.104    4784.9747 
   94100    297.41375   -751.06584    277123.98    -75862.43    7544.4036   -83406.834    4793.8396 
   94150    296.75319   -509.77476    277593.05    -75844.89    7527.6472   -83372.537    4805.5073 
   94200    301.80585   -729.74675     277722.9   -75842.909    7655.8164   -83498.726    4809.7905 
   94250    296.52808   -759.92128    277499.28   -75815.491    7521.9368   -83337.428    4812.8101 
   94300    301.35998   -319.56383    277011.11   -75798.299    7644.5062   -83442.805    4811.3316 
   94350    298.62372   -331.88174    277021.46   -75810.863    7575.0965    -83385.96    4813.3009 
   94400    297.25764   -390.91433    277677.51   -75833.275    7540.4434   -83373.718    4821.0187 
   94450    294.68985   -808.05793    278304.34   -75826.368     7475.307   -83301.675    4832.7409 
   94500    296.78568   -610.86787    278194.65   -75804.105    7528.4713   -83332.577    4832.8722 
   94550    297.75996   -574.94376    277390.95   -75848.969    7553.1856   -83402.155    4827.0662 
   94600    299.44299   -302.90247    276873.28   -75837.145    7595.8787   -83433.023    4825.8591 
   94650    304.24823   -331.38327    277065.15   -75814.722    7717.7716   -83532.494    4830.5056 
   94700    300.76736   -299.21023    277856.42   -75769.891    7629.4734   -83399.365    4844.2534 
   94750    298.68833   -814.82659    278566.23   -75818.932    7576.7353   -83395.668     4853.174 
   94800    296.33335    -1008.188    278331.41   -75827.876    7516.9972   -83344.873    4849.4592 
   94850    295.75683   -500.72462    277290.37   -75853.218    7502.3728   -83355.591     4840.651 
   94900    300.17176   -401.38239    276572.66   -75861.629    7614.3652   -83475.995    4835.0293 
   94950    302.02523   -373.84886    276652.64     -75905.2    7661.3813   -83566.581    4838.3849 
   95000    301.70446   -429.69909    277337.35   -75916.194    7653.2447   -83569.439    4850.1319 
   95050    300.89679   -762.51397    277891.05   -75874.482    7632.7565   -83507.239    4857.1002 
   95100    296.43807   -788.48833    277971.79   -75888.838    7519.6537   -83408.492     4861.998 
   95150    297.03697   -531.83171    277336.86   -75905.987    7534.8457   -83440.832    4856.5372 
   95200    304.77503   -592.55116    276703.92   -75915.526    7731.1349   -83646.661    4850.6054 
   95250    299.51307   -461.17611    276682.42   -75902.432    7597.6563   -83500.088    4853.8173 
   95300     296.7843   -442.07585    276983.92   -75942.651    7528.4364   -83471.088     4861.666 
   95350    299.51237   -668.53748    277580.82     -75961.7    7597.6386   -83559.338     4874.432 
   95400    294.79524   -630.27295    278142.07   -75903.422    7477.9806   -83381.402    4883.8016 
   95450    295.40989   -781.41223    278012.11   -75919.493    7493.5721   -83413.065    4884.0585 
   95500    297.85947   -476.77434    277025.73   -75927.355    7555.7098   -83483.065     4879.355 
   95550     297.3376   -262.51492    276101.87   -75942.291    7542.4717   -83484.763    4871.3548 
   95600    298.62529   -246.65536    276132.56   -75947.414    7575.1363   -83522.551    4871.0531 
   95650    297.95608   -422.08414    277007.74   -75983.883    7558.1605   -83542.043    4882.3402 
   95700    302.27869   -629.49283    277966.66   -75960.302     7667.811   -83628.113    4895.2758 
   95750     297.4385   -961.74885    278302.52   -75950.105    7545.0314   -83495.136    4900.2847 
   95800    296.27109   -797.57702    277812.18   -75981.577    7515.4178   -83496.995    4898.2854 
   95850    295.41309   -301.84744    276985.84   -75959.004    7493.6533   -83452.657     4889.848 
   95900    299.83393   -401.40498    276792.52   -75961.498    7605.7955   -83567.293    4891.3693 
   95950    294.40225   -514.63005     276873.3   -75954.296    7468.0116   -83422.308    4894.8454 
   96000    301.61819   -709.39153    277263.57   -75959.821    7651.0561   -83610.877    4902.7852 
   96050    298.97322   -442.40378    277724.89    -75934.54     7583.962   -83518.502    4912.2817 
   96100    294.02614   -533.96532    277949.11   -75853.461     7458.471   -83311.932    4913.7984 
   96150    304.46153   -450.13918    277617.55   -75892.074    7723.1824   -83615.256    4914.4272 
   96200    297.80147   -470.47402     277349.9   -75838.862    7554.2386   -83393.101    4915.4193 
   96250      299.369   -648.60662    277170.64   -75837.514    7594.0017   -83431.516     4915.871 
   96300    301.31404   -645.04171    277169.12   -75840.346     7643.341   -83483.687    4919.4851 
   96350    299.50418    -592.0507    277368.81   -75842.925    7597.4306   -83440.355    4925.0775 
   96400     297.3361   -877.56069    277535.93    -75878.78    7542.4336   -83421.214    4927.1522 
   96450    301.04272   -652.11096    277430.88   -75845.996    7636.4584   -83482.454    4924.2243 
   96500    301.80037   -336.46353     276978.7   -75854.155    7655.6775   -83509.832    4918.5208 
   96550    303.99809   -201.92778    276760.33   -75842.746    7711.4263   -83554.172    4918.1666 
   96600    298.58194   -633.28121    277187.64   -75839.289    7574.0365   -83413.326    4923.8855 
   96650    298.84185   -500.81171     277662.5   -75884.567    7580.6297   -83465.196    4931.9459 
   96700    295.78507    -823.4807     277783.4   -75885.824    7503.0892   -83388.913    4934.3454 
   96750     296.4585   -380.76953    277263.42   -75870.031    7520.1719   -83390.203    4930.0575 
   96800    298.05398    -609.9866    276843.03    -75873.91     7560.644   -83434.554    4926.8721 
   96850    295.26654   -372.89328    276481.41   -75915.437    7489.9359   -83405.373    4927.5147 
   96900    305.79433   -534.83958    276737.77   -75871.423     7756.991   -83628.414    4934.2453 
   96950    293.86655   -282.55058    277427.69   -75877.368    7454.4227   -83331.791    4946.7709 
   97000    303.50812   -767.16134    278193.27   -75882.343    7698.9974   -83581.341    4958.6822 
   97050    298.22908   -846.58157    277977.12   -75863.804    7565.0856    -83428.89    4959.1083 
   97100    298.35181   -412.33906    277364.19   -75902.019     7568.199   -83470.218    4951.1258 
   97150    301.12845   -344.96951    277133.81    -75907.34     7638.633   -83545.973    4949.4772 
   97200    298.12898   -422.22834    277108.06   -75902.936    7562.5464   -83465.483    4954.1809 
   97250    296.11558   -525.99967    277154.76   -75904.418    7511.4731   -83415.891    4960.0477 
   97300    295.16535   -451.66403    277247.99   -75929.692    7487.3689   -83417.061    4963.0246 
   97350    295.38503   -753.09898    277544.18   -75946.674    7492.9414   -83439.616    4968.4838 
   97400    297.03521   -549.82195    277410.47   -75970.725    7534.8011   -83505.526     4967.447 
   97450    296.69197    -419.3488     277045.5   -75987.613    7526.0943   -83513.707    4966.3468 
   97500    297.09825   -226.47611    276897.87   -75999.554    7536.4002   -83535.955    4967.1453 
   97550    291.90041   -317.35304    277135.93   -75955.695    7404.5483   -83360.243    4973.8201 
   97600    293.64706   -433.05332    277588.26   -75928.081    7448.8549   -83376.936    4982.9894 
   97650    298.40022   -590.79021    277660.46   -75909.348     7569.427   -83478.775    4987.3075 
   97700    295.48961   -301.88041    277220.62   -75917.301    7495.5944   -83412.895    4985.2743 
   97750     302.3553   -551.27022    276958.51   -75921.931    7669.7543   -83591.685     4984.662 
   97800    294.56926   -630.44332    277308.92   -75952.749    7472.2482   -83424.998    4996.8229 
   97850    293.23929   -594.75703     277700.2   -75975.186    7438.5111   -83413.697    5006.4737 
   97900    294.13852   -660.97153    277764.23   -76022.069    7461.3218    -83483.39    5008.5945 
   97950    292.14249   -482.99146    277353.93   -75977.964     7410.689   -83388.653    5010.7098 
   98000    296.90101   -107.46652     276776.1   -76004.395    7531.3969   -83535.792    5004.8601 
   98050    297.70993   -468.84574    276903.13   -75991.658    7551.9166   -83543.574    5007.2958 
   98100    295.17388   -407.37935    277088.59   -76013.564    7487.5852   -83501.149    5016.9312 
   98150     296.6658   -722.30952    277297.18   -76022.638    7525.4305   -83548.069    5026.7805 
   98200    293.17758   -555.81084     277399.9   -76035.522    7436.9457   -83472.468    5028.1486 
   98250     296.1242   -480.58338    277458.64   -76018.402    7511.6919   -83530.094     5028.401 
   98300    290.03951   -380.57729     277231.2   -76053.215    7357.3434   -83410.559    5028.9924 
   98350    292.62262   -550.52756    277318.77   -76062.948    7422.8683   -83485.816    5032.7196 
   98400    291.99805   -757.66062    276983.86   -76025.218     7407.025   -83432.243    5029.0932 
   98450    293.58044   -621.06335    276453.36   -75998.677    7447.1649   -83445.842    5021.4941 
   98500    296.02923    -358.0242     276432.5   -76023.355    7509.2826   -83532.637    5021.7576 
   98550    298.15128   -608.49785    276861.29   -76053.334    7563.1122   -83616.446    5030.4398 
   98600    294.68177    -537.5302    277472.42   -76060.298    7475.1022     -83535.4    5041.3285 
   98650    296.13982   -743.35112    277917.93   -76053.589     7512.088   -83565.677    5051.9051 
   98700    293.21769   -502.20082    277653.12   -76036.659    7437.9633   -83474.623     5054.419 
   98750    295.50934   -277.88075    277032.76   -76024.365    7496.0947    -83520.46    5051.1034 
   98800    301.35828   -516.55993    276693.54    -76032.12    7644.4631   -83676.583    5049.8934 
   98850    295.73182   -484.31443    276713.58   -76019.751    7501.7384    -83521.49    5051.9496 
   98900    295.53722   -360.55888    276911.53    -76025.36     7496.802   -83522.162     5059.007 
   98950    297.45599   -355.90177    277160.34    -76012.93     7545.475   -83558.405    5067.6991 
   99000    291.19149   -467.30683    277507.91   -75982.871    7386.5653   -83369.436    5076.0292 
   99050    296.04122   -523.42331    277686.85   -75989.124     7509.587   -83498.711    5081.3476 
   99100    289.64054   -317.07163    277494.91   -75992.138    7347.2229   -83339.361    5081.3518 
   99150    298.94728   -703.64516    277026.57   -76001.785     7583.304   -83585.089    5075.1272 
   99200    294.63141    -192.2138    276576.59   -76022.385    7473.8248    -83496.21    5069.8981 
   99250    293.85806   -476.29549    276718.18   -76049.774    7454.2072   -83503.981    5074.0464 
   99300    291.87659   -500.63683    277038.43   -76084.917    7403.9441   -83488.861    5080.5841 
   99350    292.31319   -661.46028    277434.75   -76105.723    7415.0192   -83520.743    5091.5773 
   99400    290.29091   -799.40548    277523.82    -76075.41    7363.7204   -83439.131    5093.2509 
   99450    293.25544   -196.34185    277132.88   -76073.518    7438.9209   -83512.438    5089.4105 
   99500    291.48092   -450.80331    276835.65   -76098.885    7393.9071   -83492.792    5086.9004 
   99550    289.66736   -114.52203    276660.68   -76050.966    7347.9032   -83398.869    5088.3667 
   99600    293.53106   -429.46609    277034.91   -76060.174    7445.9125   -83506.086    5095.2348 
   99650    291.89668   -433.72839     277570.5   -76051.173    7404.4537   -83455.627    5102.6029 
   99700    291.00939   -842.15701    277920.99   -76037.198    7381.9461   -83419.144    5109.7315 
   99750    296.28959   -635.92913    277789.14   -76041.461    7515.8873   -83557.349     5109.804 
   99800    288.88149   -458.44639    277170.35   -76039.597    7327.9682   -83367.565    5104.6268 
   99850    294.20208   -357.25252    276735.66   -76036.318    7462.9339   -83499.252     5100.905 
   99900     293.9192   -328.00332     276957.8   -76053.272    7455.7582    -83509.03    5104.0132 
   99950     291.4095   -304.24891    277190.91   -76037.359    7392.0954   -83429.454    5112.9661 
  100000    294.88144    -531.6481    277587.87   -75999.647     7480.167   -83479.814    5122.0074 
Loop time of 245.262 on 6 procs for 100000 steps with 8511 atoms

Performance: 352.277 ns/day, 0.068 hours/ns, 407.728 timesteps/s
99.4% CPU use with 6 MPI tasks x no OpenMP threads

MPI task timing breakdown:
Section |  min time  |  avg time  |  max time  |%varavg| %total
---------------------------------------------------------------
Pair    | 71.79      | 126.76     | 191.32     | 435.1 | 51.68
Neigh   | 32.489     | 36.791     | 40.367     |  52.5 | 15.00
Comm    | 7.5245     | 75.522     | 134.8      | 598.9 | 30.79
Output  | 0.13104    | 0.13323    | 0.14176    |   1.1 |  0.05
Modify  | 5.0096     | 5.0364     | 5.0804     |   1.0 |  2.05
Other   |            | 1.023      |            |       |  0.42

Nlocal:        1418.50 ave        1454 max        1395 min
Histogram: 1 1 2 0 0 0 0 1 0 1
Nghost:        2013.50 ave        2025 max        1994 min
Histogram: 1 0 0 1 0 0 1 0 1 2
Neighs:        0.00000 ave           0 max           0 min
Histogram: 6 0 0 0 0 0 0 0 0 0
FullNghs:      39329.7 ave       39529 max       39157 min
Histogram: 1 1 0 1 1 0 0 0 1 1

Total # of neighbors = 235978
Ave neighs/atom = 27.726237
Neighbor list builds = 21096
Dangerous builds = 0

# Create data file for import to other simulations
#
write_data data.${NAME}
write_data data.coexist_296K_-500atm_ML
System init for write_data ...

Total wall time: 0:04:05
