
# Create simulation box of size 50 x 50 x 50 Angstrom
#
lattice	            sc 1
Lattice spacing in x,y,z = 1.0000000 1.0000000 1.0000000
region 	            all block 0 ${X} ${YZ_LO} ${YZ_HI} ${YZ_LO} ${YZ_HI} units box
region 	            all block 0 53.4 ${YZ_LO} ${YZ_HI} ${YZ_LO} ${YZ_HI} units box
region 	            all block 0 53.4 -0.028312479038429927.0 ${YZ_HI} ${YZ_LO} ${YZ_HI} units box
region 	            all block 0 53.4 -0.028312479038429927.0 50.93543247903648.0 ${YZ_LO} ${YZ_HI} units box
region 	            all block 0 53.4 -0.028312479038429927.0 50.93543247903648.0 -0.028312479038429927.0 ${YZ_HI} units box
region 	            all block 0 53.4 -0.028312479038429927.0 50.93543247903648.0 -0.028312479038429927.0 50.93543247903648.0 units box
create_box          1 all
Created orthogonal box = (0.0000000 -0.028312479 -0.028312479) to (53.400000 50.935432 50.935432)
  3 by 1 by 2 MPI processor grid

# fill box with 4175 randomly distributed atoms
#
create_atoms        1 random 4608 63782 all
Created 4608 atoms
  create_atoms CPU = 0.001 seconds
mass                1 18.015

# Define potential
#
pair_style          sw
pair_coeff          * * /data/emrosky-sim/Freezing_Simulations/Melting/MLmW_fancy/ML_mW.sw mW
Reading sw potential file /data/emrosky-sim/Freezing_Simulations/Melting/MLmW_fancy/ML_mW.sw with DATE: 2019-02-27

# Run minimization
#
minimize            1.0e-8 1.0e-8 10000 1000
WARNING: Using 'neigh_modify every 1 delay 0 check yes' setting during minimization (../min.cpp:187)
Neighbor list info ...
  update every 1 steps, delay 0 steps, check yes
  max neighbors/atom: 2000, page size: 100000
  master list distance cutoff = 6.0032907
  ghost atom cutoff = 6.0032907
  binsize = 3.0016454, bins = 18 17 17
  1 neighbor lists, perpetual/occasional/extra = 1 0 0
  (1) pair sw, perpetual
      attributes: full, newton on
      pair build: full/bin/atomonly
      stencil: full/bin/3d
      bin: standard
Per MPI rank memory allocation (min/avg/max) = 4.234 | 4.248 | 4.253 Mbytes
Step Temp E_pair E_mol TotEng Press 
       0            0    7242461.5            0    7242461.5    4963195.5 
     658            0   -49797.227            0   -49797.227   -225.57593 
Loop time of 1.29746 on 6 procs for 658 steps with 4608 atoms

99.6% CPU use with 6 MPI tasks x no OpenMP threads

Minimization stats:
  Stopping criterion = max force evaluations
  Energy initial, next-to-last, final = 
      7242461.49495678  -49796.8905666573  -49797.2268505171
  Force two-norm initial, final = 1.6645244e+08 4.8863041
  Force max component initial, final = 88528728.0 1.3105872
  Final line search alpha, max atom move = 0.055733875 0.073044103
  Iterations, force evaluations = 658 1001

MPI task timing breakdown:
Section |  min time  |  avg time  |  max time  |%varavg| %total
---------------------------------------------------------------
Pair    | 1.0519     | 1.1112     | 1.2088     |   4.9 | 85.65
Neigh   | 0.03011    | 0.030702   | 0.031425   |   0.2 |  2.37
Comm    | 0.03597    | 0.13408    | 0.19332    |  14.1 | 10.33
Output  | 0          | 0          | 0          |   0.0 |  0.00
Modify  | 0          | 0          | 0          |   0.0 |  0.00
Other   |            | 0.02145    |            |       |  1.65

Nlocal:        768.000 ave         781 max         757 min
Histogram: 1 0 1 1 0 1 1 0 0 1
Nghost:        1573.83 ave        1601 max        1549 min
Histogram: 1 0 1 0 0 3 0 0 0 1
Neighs:        0.00000 ave           0 max           0 min
Histogram: 6 0 0 0 0 0 0 0 0 0
FullNghs:      21948.7 ave       22834 max       21417 min
Histogram: 1 1 1 1 0 1 0 0 0 1

Total # of neighbors = 131692
Ave neighs/atom = 28.578993
Neighbor list builds = 29
Dangerous builds = 0

# Add velocity/set timestep
#
velocity            all create ${TEMP} 120598 rot yes dist gaussian
velocity            all create 296 120598 rot yes dist gaussian
timestep            5.0

# Define output
#
compute	            1 all msd
thermo	            100
thermo_style        custom step temp press vol etotal ke pe c_1[4] density

# Neighbor lists
#
neigh_modify        delay 0 every 1 check yes

# Set fixes
#
fix                 1 all momentum 10 linear 1 1 1 rescale
fix                 2 all nve
fix                 3 all temp/csvr ${TEMP} ${TEMP} 500.0 928347
fix                 3 all temp/csvr 296 ${TEMP} 500.0 928347
fix                 3 all temp/csvr 296 296 500.0 928347
fix                 4 all press/berendsen iso ${PRES} ${PRES} 1000.0 modulus 20000
fix                 4 all press/berendsen iso -500 ${PRES} 1000.0 modulus 20000
fix                 4 all press/berendsen iso -500 -500 1000.0 modulus 20000

# Run 0.5 ns equilibration
#
dump                1 all custom 1000 eq.${NAME}.dump id type x y z vx vy vz
dump                1 all custom 1000 eq.liq_296K_-500atm_ML.dump id type x y z vx vy vz
run                 100000
Per MPI rank memory allocation (min/avg/max) = 3.484 | 3.499 | 3.503 Mbytes
Step Temp Press Volume TotEng KinEng PotEng c_1[4] Density 
     658          296    1114.1413       138696    -45732.38    4064.8472   -49797.227 2.1726897e-33   0.99387524 
     700    167.35732   -558.36534    139742.82   -44911.836    2298.2497   -47210.086   0.25201199   0.98643007 
     800    217.21511   -594.74312    140023.18   -43611.179    2982.9265   -46594.105   0.84403493   0.98445498 
     900    241.86054    -456.7007    140430.12   -42806.287    3321.3721   -46127.659     1.483733   0.98160224 
    1000    262.28409   -478.94962    140416.96   -42251.246    3601.8404   -45853.086    2.1923768   0.98169424 
    1100    275.01935   -661.86523    140417.85   -41841.971    3776.7285     -45618.7    3.1185865     0.981688 
    1200     286.9768   -522.02306    140446.09    -41541.06    3940.9353   -45481.995    4.1233369   0.98149057 
    1300    289.94691   -673.49149    140251.76    -41318.04    3981.7226   -45299.763    5.0392496   0.98285052 
    1400     291.3937   -628.94555    139997.97   -41244.905    4001.5907   -45246.496    5.9499582   0.98463226 
    1500    288.99135   -531.98834    140164.99   -41114.252    3968.6003   -45082.852    7.0350319     0.983459 
    1600    290.39141   -567.98078    140160.11   -41031.145    3987.8267   -45018.972    8.0827786   0.98349319 
    1700    291.93534   -631.68907    139873.24   -41045.532    4009.0289   -45054.561    9.1398495   0.98551026 
    1800    288.16052   -272.77776     140177.6   -40951.211    3957.1908   -44908.402    10.195038    0.9833705 
    1900    292.82503   -641.85922    140365.37   -40885.297    4021.2466   -44906.544    11.373116   0.98205501 
    2000    290.41759   -428.37109    140172.11   -40856.676    3988.1862   -44844.862    12.747359   0.98340902 
    2100    294.17359   -311.16796    140448.14   -40963.284    4039.7658    -45003.05     14.06665   0.98147626 
    2200    299.51269   -565.32009    140501.37   -40916.533    4113.0855   -45029.619    15.363127   0.98110444 
    2300    302.64255   -304.23991    140694.57   -40892.905    4156.0666   -45048.972    16.547705   0.97975719 
    2400      294.358   -603.26162    140289.93   -40932.564    4042.2983   -44974.862    17.902689    0.9825831 
    2500    293.72487   -383.03944    140271.49   -40900.115    4033.6038   -44933.718    19.279006   0.98271232 
    2600    297.49395   -419.27552    140204.68   -40736.354    4085.3629   -44821.717    20.492058   0.98318053 
    2700    295.19349   -535.48582    140216.15   -40826.492    4053.7717   -44880.264    21.568161   0.98310011 
    2800    300.64374   -763.53958    140266.94   -40873.317    4128.6178   -45001.935    22.719197   0.98274419 
    2900    295.46946   -497.45386    140198.55   -40806.746    4057.5615   -44864.307    23.872089   0.98322358 
    3000    299.00351   -638.22168    140351.51   -40765.801    4106.0932   -44871.894    24.853608   0.98215201 
    3100    298.02012   -317.14836     140197.6   -40773.393    4092.5887   -44865.982    26.121994   0.98323019 
    3200    297.45783   -484.89822    140182.83   -40806.553     4084.867    -44891.42    27.389095   0.98333378 
    3300    301.06388   -477.62618    140692.35   -40806.866    4134.3874   -44941.253    28.756142   0.97977267 
    3400    295.71035   -665.03098    140688.14   -40797.649    4060.8695   -44858.518    30.120703   0.97980194 
    3500    301.14846   -522.52795    140893.26   -40675.015    4135.5489   -44810.563    31.668483   0.97837551 
    3600    297.39363   -846.08189    140611.83   -40763.382    4083.9853   -44847.368    33.212453   0.98033371 
    3700    301.66179   -387.86864    140413.62   -40781.681    4142.5983   -44924.279     34.71278   0.98171759 
    3800    296.91292   -311.65647    140901.16   -40770.825    4077.3839   -44848.208    36.353025   0.97832067 
    3900    295.26416   -406.05628    140836.88   -40963.977    4054.7422   -45018.719    37.367261   0.97876718 
    4000    291.75558   -399.83129    140711.97   -40972.488    4006.5603   -44979.048    38.751488   0.97963601 
    4100    292.20882   -564.70307    140810.91   -40881.351    4012.7844   -44894.135    40.051814   0.97894768 
    4200    299.95942   -677.71469    140222.72   -40896.591    4119.2203   -45015.811     41.52534   0.98305406 
    4300    291.73987    -646.8068    140547.06   -40870.668    4006.3446   -44877.013    42.840021    0.9807855 
    4400     299.2456   -328.45884    140553.63   -40801.022    4109.4178    -44910.44    44.437777   0.98073966 
    4500    296.41457   -739.28438    140654.47   -40820.187    4070.5403   -44890.727    45.583433   0.98003649 
    4600    302.54673   -453.39277    140625.79    -40818.93    4154.7508   -44973.681    46.695152   0.98023642 
    4700    295.36102    -485.4781    140199.61     -40894.6    4056.0724   -44950.673    48.157499   0.98321612 
    4800    293.60887   -435.33938    140375.83   -40846.495    4032.0108   -44878.506    49.027326   0.98198186 
    4900    291.48996    -562.8602    140008.82   -40871.482    4002.9126   -44874.394    50.006839   0.98455593 
    5000    296.94668    -614.7878    139946.49   -40819.336    4077.8475   -44897.183    51.033648   0.98499445 
    5100    294.99534   -560.19282    139730.03   -40869.825    4051.0506   -44920.876    52.099767   0.98652036 
    5200    293.51464   -662.03074    140005.08    -40906.75    4030.7168   -44937.466    53.614002   0.98458225 
    5300    295.31635   -618.56156    139866.88   -40887.964    4055.4589   -44943.423    54.922544   0.98555511 
    5400    300.70491   -476.70089    139914.32   -40808.886    4129.4578   -44938.344    56.304799   0.98522093 
    5500    298.79296   -616.02123    140079.75   -40779.087    4103.2017   -44882.288    57.530236   0.98405738 
    5600    302.69981   -822.26736    140203.68   -40713.634    4156.8529   -44870.486    58.721629   0.98318755 
    5700    295.76793   -475.97761    140114.66   -40764.545    4061.6603   -44826.205    60.446172   0.98381222 
    5800    302.03512   -366.23617    139939.22   -40704.043     4147.725   -44851.768    61.735261    0.9850456 
    5900    287.06085   -445.77312     139813.5   -40933.454    3942.0896   -44875.543    63.042175    0.9859314 
    6000    287.92539   -286.41303    139697.61   -40945.679    3953.9619    -44899.64    64.551791    0.9867493 
    6100    293.82055   -563.59003     139777.1   -40851.148    4034.9177   -44886.066     65.73601   0.98618816 
    6200    291.80428   -390.26569    139947.47    -40921.49    4007.2291   -44928.719    66.909517   0.98498753 
    6300    290.55191   -460.07236    140215.44   -40902.902    3990.0308   -44892.933    67.828689   0.98310512 
    6400    294.81142   -637.14315    140331.23   -40863.054     4048.525   -44911.579    68.929383   0.98229397 
    6500    296.62255   -338.69951    140358.46   -40889.143    4073.3965   -44962.539      70.5041   0.98210336 
    6600    292.27906   -301.02644    140428.45   -40924.681    4013.7491    -44938.43    71.836703   0.98161387 
    6700    289.50855   -452.74963    140574.36   -40938.401    3975.7028   -44914.104    73.218517   0.98059499 
    6800    290.82163   -578.11376     140683.6   -40994.437    3993.7348   -44988.171    74.126533   0.97983359 
    6900    301.90532   -538.29073    140353.25   -40918.343    4145.9426   -45064.286    75.658875   0.98213985 
    7000    291.71257    -646.8289    140323.92   -40862.001    4005.9697    -44867.97    76.847343   0.98234511 
    7100     293.3012   -472.94811    140174.22   -40951.818    4027.7857   -44979.604    77.913898   0.98339419 
    7200    292.69979   -643.39085    140054.49   -40941.312    4019.5268   -44960.838    79.134654    0.9842349 
    7300    287.51583   -405.58927    140098.33   -40924.819    3948.3375   -44873.156    80.626864   0.98392693 
    7400    292.43507   -293.98763    140197.18   -40971.569    4015.8915    -44987.46    81.661926   0.98323313 
    7500    299.48908   -648.63144    140300.63   -40827.325    4112.7614   -44940.086    82.630892    0.9825082 
    7600    292.73008   -257.56921    140093.38   -40876.617    4019.9427    -44896.56    84.020796   0.98396167 
    7700    296.10218   -435.72727    140087.85    -40890.62    4066.2504    -44956.87    85.140639   0.98400054 
    7800    295.50888   -454.63021    140006.26   -40906.733    4058.1029   -44964.836     86.52379   0.98457399 
    7900    292.37369    -711.4352    140040.03   -41033.575    4015.0486   -45048.624    87.504611   0.98433656 
    8000    294.40821   -412.16143    140278.09   -40980.427    4042.9878   -45023.415    88.742065   0.98266607 
    8100    290.75751   -351.57503    140409.37   -40897.634    3992.8542   -44890.489    89.841612   0.98174727 
    8200    294.90974   -437.14978     140747.1   -40932.715     4049.875    -44982.59    91.250029    0.9793915 
    8300     300.3182    -564.3716    140525.94   -40843.517    4124.1472   -44967.664    92.514635   0.98093288 
    8400    295.77379   -647.43441    140465.56   -40939.211    4061.7407   -45000.952    93.488328   0.98135455 
    8500    292.24716   -623.74181    140283.29    -40949.59     4013.311   -44962.901    94.402871    0.9826296 
    8600    296.65184   -426.61129    140063.35   -40913.878    4073.7987   -44987.677    95.228383   0.98417263 
    8700    298.08048   -520.08764    140144.17    -40879.18    4093.4176   -44972.598    96.006239   0.98360511 
    8800    297.97125   -735.16719    140174.26   -40839.365    4091.9176   -44931.283    97.641824   0.98339394 
    8900    291.28548   -410.57655    139945.93   -40856.314    4000.1046   -44856.419     98.97015   0.98499839 
    9000    299.51454   -344.46357    140240.64   -40751.708     4113.111   -44864.819     100.3871   0.98292845 
    9100    299.08557   -519.26697     140245.3   -40792.095    4107.2201   -44899.315    102.14478   0.98289581 
    9200     298.7905   -553.35201    140335.53    -40847.62    4103.1679   -44950.788    103.52842   0.98226385 
    9300    298.75769    -721.6826    140098.42   -40836.521    4102.7175   -44939.238    105.04742   0.98392625 
    9400    296.82877   -510.34555    139732.71   -40889.813    4076.2284   -44966.042    106.23023   0.98650143 
    9500    294.42382   -694.52139    139616.57    -40928.79    4043.2021   -44971.993     107.0091   0.98732204 
    9600    298.05491   -455.93607    139838.12   -40993.664    4093.0665    -45086.73    107.92675    0.9857578 
    9700    297.34784   -350.90545    139606.16   -40905.578    4083.3565   -44988.935    108.63777   0.98739569 
    9800    293.00037   -499.20527    139856.06    -40857.07    4023.6546   -44880.724    110.17458   0.98563136 
    9900     293.2403   -592.01828    140539.41   -40821.553    4026.9494   -44848.503    111.45901   0.98083885 
   10000    292.58408   -604.63363    140363.65   -40930.145    4017.9378   -44948.083     112.4664   0.98206703 
   10100    290.24101   -548.53393    140111.52   -40929.551    3985.7614   -44915.312     114.2507    0.9838343 
   10200    288.50337   -387.34836    140371.86   -40947.302     3961.899   -44909.201    116.05059    0.9820096 
   10300    297.17848   -340.76816    140176.88   -40823.276    4081.0308   -44904.307    117.76535   0.98337555 
   10400    298.42884   -483.89221    140200.56    -40759.36    4098.2015   -44857.561    119.34511   0.98320947 
   10500    299.47259   -625.89136    140341.87   -40768.916    4112.5348   -44881.451    120.84355   0.98221946 
   10600     294.6377   -716.56695    140386.68   -40746.652    4046.1393   -44792.791    121.99225   0.98190596 
   10700     302.7523    -206.8469    140299.37    -40788.73    4157.5737   -44946.303    123.22627   0.98251697 
   10800    299.04932   -598.90021    139865.49    -40774.88    4106.7223   -44881.602    124.29522   0.98556488 
   10900    295.85432   -603.20995    140150.69   -40729.465    4062.8466   -44792.311    125.57735   0.98355934 
   11000    297.50651   -411.36808    140198.04   -40717.072    4085.5355   -44802.608    127.20488    0.9832271 
   11100    296.04758    -351.0962    140219.21   -40737.831    4065.5006   -44803.331    128.35824   0.98307867 
   11200    295.03103   -424.12342    140024.63   -40785.313    4051.5408   -44836.853    129.66154    0.9844448 
   11300    295.64312    -511.7991    140059.46   -40837.747    4059.9463   -44897.693    131.30276   0.98419998 
   11400    296.35434   -536.25905    140126.92   -40845.658    4069.7132   -44915.371    132.42173   0.98372616 
   11500    296.79806   -504.61296     139980.2   -40926.896    4075.8066   -45002.703    134.16618   0.98475722 
   11600    288.11884   -611.69158    139606.07   -41024.925    3956.6185   -44981.544    135.47005   0.98739632 
   11700    296.46444   -220.64339    140069.63   -40906.355    4071.2251    -44977.58    137.63191   0.98412851 
   11800    295.70239   -526.79547    139938.74   -40926.598    4060.7603   -44987.358    138.94341   0.98504902 
   11900    292.87698     -420.492    140118.09   -40979.465      4021.96   -45001.425    140.67883   0.98378817 
   12000    293.71046   -664.22849    140302.95    -40991.94    4033.4059   -45025.346    142.61355   0.98249192 
   12100    295.60537   -491.16487     139959.8   -40952.614     4059.428   -45012.042    143.74098   0.98490077 
   12200    298.19812   -523.70473    140041.64   -40761.549    4095.0331   -44856.582    145.63522   0.98432524 
   12300    295.45375   -475.74382    139978.04   -40717.144    4057.3457    -44774.49    147.09197   0.98477247 
   12400    301.66171   -606.88251    139561.15   -40676.405    4142.5972   -44819.002    148.65693    0.9877141 
   12500    298.85219    -347.6392    139753.23   -40737.364    4104.0151   -44841.379    149.89441    0.9863566 
   12600    298.81977   -672.49848    139637.99   -40776.324    4103.5699   -44879.894    151.33884   0.98717061 
   12700     298.9253   -517.85056    140185.79   -40769.979    4105.0191   -44874.998    152.82475   0.98331302 
   12800    296.38777   -451.89974    140027.01   -40815.823    4070.1722   -44885.995    153.98413   0.98442803 
   12900    299.24315   -438.46672    140219.78   -40796.548     4109.384   -44905.932    155.92728    0.9830747 
   13000    297.82367   -386.33967    140391.12   -40866.534    4089.8909   -44956.425    157.37094   0.98187492 
   13100     297.9365   -319.58554    140527.36   -40818.263    4091.4404   -44909.704    158.35497   0.98092295 
   13200    299.59809   -233.31674    140597.26   -40726.245    4114.2583   -44840.503    159.16696   0.98043527 
   13300    300.99059   -352.24872    140528.68   -40723.387     4133.381   -44856.768     160.1696   0.98091375 
   13400    297.88894   -409.13154    140252.96   -40792.514    4090.7872   -44883.302    160.84002   0.98284212 
   13500    301.23544   -434.96206    140337.11   -40816.861    4136.7434   -44953.605    162.13674    0.9822528 
   13600    297.12364   -383.95575     140551.3   -40856.998    4080.2777   -44937.276    163.57604   0.98075592 
   13700    295.64373   -464.22855    140536.45   -40887.078    4059.9547   -44947.032     165.1532   0.98085956 
   13800    288.65897   -632.70374    140350.79   -40948.911    3964.0359   -44912.946    166.67857   0.98215701 
   13900    292.33994   -347.75111    140368.92   -40939.547    4014.5851   -44954.132    166.89953   0.98203017 
   14000    290.88719   -558.15206    140290.74    -41010.69    3994.6351   -45005.325    168.11888   0.98257741 
   14100    292.70707   -280.96459    140305.14   -40979.509    4019.6268   -44999.136    168.73424   0.98247661 
   14200    294.38527   -381.32229    140353.05   -40942.162    4042.6727   -44984.835    169.81348   0.98214124 
   14300    289.45089   -338.20703    140555.75   -40995.674     3974.911   -44970.585    170.28959   0.98072486 
   14400    300.72254   -550.91369    140540.73   -40915.066       4129.7   -45044.766    171.35869   0.98082965 
   14500    294.65681   -656.64451    140529.25   -40954.017    4046.4017   -45000.418    172.40908   0.98090978 
   14600    297.68783   -500.21409    140652.95   -40812.366    4088.0256   -44900.392    173.49414   0.98004713 
   14700    296.88523   -401.12905     141134.7   -40827.115    4077.0038   -44904.119    174.46174   0.97670182 
   14800    299.85351   -628.80778    140908.36   -40885.222    4117.7658   -45002.988    175.22068   0.97827064 
   14900    298.77756   -513.65062     141182.6   -40823.011    4102.9903   -44926.002    176.38579   0.97637045 
   15000    291.39447   -387.51639    141076.52     -40925.1    4001.6014   -44926.702    177.59933    0.9771046 
   15100    291.45928   -505.36588    140972.83   -40931.394    4002.4914   -44933.885    178.47055   0.97782329 
   15200     291.7831   -511.30999    140683.42   -40995.263    4006.9383   -45002.201     178.9915   0.97983482 
   15300    291.65772   -613.53525    140815.37   -40917.293    4005.2165    -44922.51    180.14823   0.97891669 
   15400       299.14   -470.10312    140919.37   -40758.345    4107.9675   -44866.312    181.06507   0.97819423 
   15500    300.11199   -409.87921    141195.28   -40825.711    4121.3155   -44947.027    182.55261   0.97628274 
   15600    294.26698   -438.33272    141016.68   -40902.824    4041.0483   -44943.873    184.31374   0.97751925 
   15700    296.58159   -561.46079    140784.43    -40890.24    4072.8339   -44963.073    185.58042    0.9791318 
   15800    295.61881   -380.57663    140956.19   -40903.623    4059.6125   -44963.235    186.95748   0.97793874 
   15900    298.64193   -682.92844    140666.88   -40917.919    4101.1277   -45019.047     187.9577   0.97995007 
   16000    291.99227   -706.99719    140434.14   -40966.971    4009.8106   -44976.781    189.13713   0.98157412 
   16100    295.66958   -577.38746    140480.17   -40964.534    4060.3097   -45024.843    190.12549   0.98125247 
   16200    299.39691   -495.56468    140528.27   -40785.278    4111.4956   -44896.774    191.46305   0.98091664 
   16300    304.10842   -439.17169    140411.68   -40762.989    4176.1969   -44939.186    192.41547   0.98173115 
   16400    300.58405   -356.16097    140266.35   -40718.396    4127.7981   -44846.194    193.00876    0.9827483 
   16500     300.9637   -581.13878    140370.46   -40767.324    4133.0117   -44900.336    194.39372   0.98201944 
   16600    295.66012   -565.00875    140475.99   -40757.158    4060.1797   -44817.338    195.25053   0.98128172 
   16700    295.86662   -562.00013    140226.97   -40860.418    4063.0156   -44923.434     196.7455    0.9830243 
   16800    290.62455   -558.40286    140109.43   -40832.776    3991.0284   -44823.805    198.18921   0.98384892 
   16900    294.08198   -629.57637    139852.69   -40836.083    4038.5078   -44874.591    199.19152   0.98565507 
   17000    296.00814   -593.86636    139896.05   -40810.138     4064.959   -44875.098    200.83544   0.98534962 
   17100    297.51983   -332.87662       140146   -40796.641    4085.7184   -44882.359    202.23256    0.9835922 
   17200    290.86326   -762.00216    140280.88    -40770.37    3994.3065   -44764.676    204.06987   0.98264647 
   17300    296.63859    -378.7323    140229.43   -40784.603    4073.6167   -44858.219    205.38488     0.983007 
   17400    299.59489   -671.75683    140415.89   -40783.629    4114.2143   -44897.844     206.8384   0.98170171 
   17500     297.0813   -388.25436    140474.22    -40812.58    4079.6962   -44892.276    208.33349   0.98129402 
   17600    294.98755   -524.82334     140403.5   -40860.784    4050.9437   -44911.728     209.0607   0.98178831 
   17700    296.30098   -392.46848    140625.32   -40804.306    4068.9805   -44873.287    210.26201   0.98023966 
   17800    290.81856   -303.02362    140789.95   -40880.736    3993.6926   -44874.429    211.36499   0.97909343 
   17900    296.37834   -428.22227     140648.4   -40947.979    4070.0428   -45018.022    211.92261   0.98007882 
   18000      293.237   -374.18411    140647.65   -40975.151     4026.904   -45002.055    212.59891   0.98008404 
   18100    290.50014   -757.38315    140876.48   -40954.059    3989.3198   -44943.379    213.82257   0.97849209 
   18200    298.04984   -531.81203    141089.25   -40891.408    4092.9969   -44984.405     215.0327   0.97701646 
   18300     291.9045   -776.15708    140459.67    -40929.46    4008.6054   -44938.066    216.08386   0.98139568 
   18400    294.97547   -382.10722    140249.67   -40980.001    4050.7777   -45030.779    216.89826   0.98286518 
   18500     296.9101   -409.75446    140359.88   -40882.498    4077.3452   -44959.843    218.48854   0.98209345 
   18600    297.77424   -477.40581     140507.7   -40890.981    4089.2121   -44980.193    219.75209   0.98106025 
   18700    299.67186   -564.71463    140655.93   -40789.897    4115.2713   -44905.168    220.90599   0.98002636 
   18800     291.4742   -452.25323     140524.3   -40890.352    4002.6963   -44893.048    221.72715   0.98094432 
   18900    293.98399   -586.49629    140659.48   -40837.184    4037.1622   -44874.346    223.13834   0.98000158 
   19000    299.09928   -394.19927    140805.14   -40881.682    4107.4083    -44989.09    224.34004   0.97898784 
   19100    289.02846   -652.11993     140729.3   -40933.679    3969.1099   -44902.788    224.45957   0.97951538 
   19200    294.83784   -517.28657    140673.18    -40866.79    4048.8877   -44915.678    225.27724   0.97990615 
   19300    298.15087   -543.58738    140710.73   -40833.874    4094.3843   -44928.258    226.37661   0.97964466 
   19400    296.75017   -798.97443    140683.46   -40864.411    4075.1489    -44939.56    227.58533   0.97983459 
   19500    295.44156   -852.48519    140177.06   -40848.485    4057.1784   -44905.663    228.40096   0.98337432 
   19600    296.37936   -352.44438     140152.5   -40816.784    4070.0568    -44886.84    229.52971   0.98354663 
   19700    298.95084   -843.26235    140719.45   -40811.001    4105.3699   -44916.371    231.07051   0.97958393 
   19800    297.79531   -515.16802    140523.29   -40830.116    4089.5014   -44919.617    231.69884   0.98095141 
   19900    297.84122   -596.46649    140609.38   -40757.658    4090.1319    -44847.79    233.37398   0.98035078 
   20000    297.10191   -740.74625    140349.79   -40703.729    4079.9793   -44783.709    234.39678   0.98216405 
   20100    303.12586    -638.0903    140125.85     -40721.3    4162.7038   -44884.004     235.2667   0.98373368 
   20200    303.02192     -438.255    140290.99    -40711.49    4161.2763   -44872.766    236.55054   0.98257572 
   20300    297.95624   -513.30799    140444.15   -40676.131    4091.7115   -44767.842    237.44348   0.98150416 
   20400    301.44719   -522.82365    140357.78   -40751.326    4139.6513   -44890.977    237.51357   0.98210812 
   20500    299.69537   -316.02028    140517.48   -40719.217    4115.5943   -44834.812    239.26261   0.98099192 
   20600    294.58655   -608.69266    140417.08   -40809.575    4045.4368   -44855.012    240.10929   0.98169339 
   20700    294.67074   -570.42877    140205.63   -40894.749     4046.593   -44941.342     241.2146   0.98317388 
   20800     297.2695   -552.52835    140221.46   -40914.064    4082.2807   -44996.345    242.45143   0.98306294 
   20900    299.58495   -616.74862    140181.47   -40923.674    4114.0778   -45037.752    243.14617   0.98334338 
   21000    297.69735   -581.93094    140195.03   -40828.805    4088.1562   -44916.961    243.65577   0.98324821 
   21100    295.66181    -512.7063    140137.58   -40902.879     4060.203   -44963.082    244.46829   0.98365136 
   21200    289.02398   -274.40722    140034.52   -40974.454    3969.0483   -44943.502    245.33431   0.98437526 
   21300    291.99144   -559.38635    140080.29   -40976.101    4009.7993     -44985.9    246.61388   0.98405363 
   21400    290.16917   -398.71532    140083.03   -40878.084    3984.7747   -44862.859    247.61247   0.98403437 
   21500    298.01093   -584.13709    139885.44   -40799.718    4092.4625    -44892.18    247.61005   0.98542435 
   21600    299.87227   -636.44957    140180.81   -40829.291    4118.0235   -44947.314    249.12899   0.98334797 
   21700    295.94732   -451.40397    140128.75   -40791.221    4064.1238   -44855.345    250.27003   0.98371334 
   21800    300.07856   -607.08282    139956.57   -40739.058    4120.8564   -44859.915    251.51039   0.98492353 
   21900    299.56805   -286.18671    140306.07    -40704.49    4113.8458   -44818.336    253.54959   0.98247007 
   22000    300.82687   -387.99058    140635.36   -40772.474    4131.1326   -44903.606    255.05185   0.98016967 
   22100    298.91829   -434.45119    140628.23   -40737.212    4104.9228   -44842.135    256.45436   0.98021935 
   22200    298.45571    -593.6023    140600.45   -40751.374    4098.5705   -44849.945    257.38923   0.98041303 
   22300    294.96743   -821.93146    140539.78   -40802.161    4050.6674   -44852.829    258.88919    0.9808363 
   22400    296.35121   -341.15006    140386.14   -40847.973    4069.6703   -44917.643    259.98612   0.98190975 
   22500    295.74655   -347.63515    140221.63   -40870.197    4061.3667   -44931.563     261.0754   0.98306175 
   22600    295.69579   -579.28402    140434.98   -40892.245    4060.6696   -44952.914    262.14993   0.98156828 
   22700    294.08731   -444.67036    139982.42     -40922.9     4038.581   -44961.481    262.80075    0.9847416 
   22800    290.39982    -536.7568    139939.65   -40996.526    3987.9423   -44984.468    263.68888   0.98504262 
   22900    292.09284   -436.12876    140027.79   -40980.712    4011.1918   -44991.904    264.90316   0.98442259 
   23000    295.21463   -616.45417    139885.48   -40840.687    4054.0621   -44894.749    266.13681   0.98542406 
   23100    295.23884   -345.32153    140085.46   -40846.619    4054.3945   -44901.014    267.75194   0.98401733 
   23200    297.54894   -493.29528    140169.58   -40838.142    4086.1182    -44924.26    269.54834   0.98342677 
   23300    294.04437   -395.44769    140134.54   -40954.375    4037.9913   -44992.366    270.68761   0.98367268 
   23400    302.00457   -591.93024     140171.7   -40880.502    4147.3055   -45027.808    272.06168    0.9834119 
   23500    295.01474   -446.74032     140304.1   -40888.638     4051.317   -44939.955    273.41659   0.98248385 
   23600    294.48141   -602.78149    140301.92   -40940.641     4043.993   -44984.634    273.89039   0.98249917 
   23700    293.57488   -453.82229    140325.91   -40987.906     4031.544    -45019.45     275.0845   0.98233115 
   23800    292.13389   -419.56897    140174.98   -40952.119    4011.7555   -44963.875    275.92049    0.9833889 
   23900    296.47989   -402.14783    140116.92    -40855.53    4071.4373   -44926.967    276.95089   0.98379634 
   24000    302.01244   -253.14306    140351.63   -40833.322    4147.4136   -44980.736    278.09322   0.98215119 
   24100     294.0528   -437.20608    140090.82   -40845.972    4038.1071   -44884.079    278.91353   0.98397964 
   24200    296.33436   -487.26358    140064.31     -40760.4    4069.4389   -44829.839     279.8953   0.98416591 
   24300    301.17755   -510.74058    139889.83   -40823.673    4135.9483   -44959.621    280.47379   0.98539343 
   24400    297.98948   -489.39804    139917.97   -40785.594    4092.1679   -44877.762    282.02698   0.98519525 
   24500    297.51104   -194.47278    139937.64   -40807.562    4085.5977    -44893.16    283.58686   0.98505674 
   24600    293.59553   -450.31711    140219.67   -40822.842    4031.8276   -44854.669    285.84332    0.9830755 
   24700     297.7582   -489.34886    140163.75   -40798.616    4088.9918   -44887.607    286.75415   0.98346765 
   24800    296.50409    -573.3115    139742.77   -40816.015    4071.7697   -44887.784    287.85596   0.98643039 
   24900    297.10931   -389.72973     139380.2   -40885.364    4080.0809   -44965.445     288.4618   0.98899643 
   25000    294.38793   -391.48822    139503.02   -40913.667    4042.7094   -44956.376    289.81767    0.9881257 
   25100    292.01521   -388.42964    139956.24   -40949.524    4010.1257   -44959.649    291.83563   0.98492584 
   25200    295.81254   -449.22044    140038.21   -40981.517    4062.2729    -45043.79    293.77543    0.9843493 
   25300    296.91833    -460.6578    140363.21   -41005.348    4077.4583   -45082.806    295.59324   0.98207014 
   25400    296.70892   -394.38409    140115.75   -40929.062    4074.5826   -45003.645    296.94266   0.98380456 
   25500    291.22563   -478.84663    140304.04   -40964.941    3999.2827   -44964.224    297.84289   0.98248433 
   25600    289.96201   -504.49839    140338.88   -41011.067      3981.93   -44992.997    299.81913   0.98224041 
   25700    295.96948   -697.06751    139982.51   -40996.748    4064.4281   -45061.176    300.76096   0.98474099 
   25800    289.91277    -468.6324    139700.55   -41094.193    3981.2538   -45075.447    301.67809    0.9867285 
   25900    292.66254   -436.19251    139820.73    -41155.67    4019.0152   -45174.685    302.16086   0.98588038 
   26000    294.53091   -423.78538    140030.89   -40975.272    4044.6727   -45019.945    303.54949   0.98440075 
   26100    293.80341   -727.58704     139960.8   -40983.549    4034.6823   -45018.231    304.91275   0.98489378 
   26200    302.47792   -342.81572    140159.37   -40855.369    4153.8058   -45009.175    306.10319    0.9834984 
   26300    298.59873    -596.4943    140378.56   -40887.965    4100.5345   -44988.499    307.87609   0.98196275 
   26400    295.47903   -519.14916    140216.88   -40906.884    4057.6929   -44964.577    308.61591   0.98309501 
   26500     299.4956   -422.33013    139847.78   -40761.163    4112.8509   -44874.014    309.48757   0.98568968 
   26600    296.83236   -654.56512    139908.07   -40846.613    4076.2776    -44922.89    310.67408   0.98526495 
   26700    296.79699   -409.43158    139873.45   -40768.821    4075.7919   -44844.613    311.06216   0.98550882 
   26800    297.59377   -386.67331    140140.07   -40809.117    4086.7338   -44895.851    313.57858   0.98363386 
   26900    292.13609   -954.96844    139869.17    -40925.12    4011.7857   -44936.906    313.92394   0.98553894 
   27000    292.38797   -483.32395    139735.26   -40925.393    4015.2447   -44940.637     314.8456   0.98648342 
   27100    292.50629   -142.06856    139805.57   -40825.733    4016.8695   -44842.603    316.93135   0.98598727 
   27200    301.25622   -580.50723    139700.08   -40750.359    4137.0287   -44887.387    318.48637   0.98673186 
   27300    302.79492   -812.72519    139651.37   -40734.174     4158.159   -44892.333      319.943   0.98707599 
   27400    301.80827     -428.836    139613.37   -40715.637    4144.6098   -44860.246    321.52375   0.98734468 
   27500    299.72913    -466.4954    139778.51   -40796.074    4116.0578   -44912.132    322.91278   0.98617821 
   27600    297.88894   -497.67857    140237.55   -40748.186    4090.7872   -44838.973    324.68334   0.98295011 
   27700    297.52643   -717.11358    140258.94   -40741.897     4085.809   -44827.706    326.23586   0.98280022 
   27800    297.52392     -567.345    140598.07   -40753.496    4085.7746   -44839.271    329.04418   0.98042963 
   27900    301.98401   -502.94313    140605.09   -40735.803    4147.0231   -44882.826    330.98259   0.98038071 
   28000    299.03704   -212.37605    140850.93    -40699.56    4106.5537   -44806.113    332.62037   0.97866956 
   28100     298.8138   -548.91187    140717.92   -40753.149    4103.4879   -44856.637    333.24353   0.97959465 
   28200    294.66231   -592.37431    140500.94   -40887.943    4046.4772    -44934.42    334.43049    0.9811074 
   28300    293.77295   -368.49037    140261.32   -40883.505     4034.264   -44917.769    335.32765   0.98278351 
   28400    298.65667   -312.66492     139949.1   -40804.657    4101.3302   -44905.987    336.50239   0.98497607 
   28500    290.67768   -674.32193    140079.43   -40863.757     3991.758   -44855.515     337.9584   0.98405967 
   28600    296.41147   -620.41843    139757.01   -40884.039    4070.4977   -44954.537    338.28253   0.98632991 
   28700    291.72211   -247.20885    139685.67   -40956.057    4006.1006   -44962.158    339.61058   0.98683363 
   28800    294.07797   -524.61325     139774.2   -40876.378    4038.4527    -44914.83    341.22929   0.98620856 
   28900    296.27535   -778.43036    139760.42   -40881.487    4068.6284   -44950.115    342.56955   0.98630584 
   29000    291.95978   -376.10241    139499.25   -40884.852    4009.3646   -44894.216    342.85541   0.98815238 
   29100    295.89016   -276.54552     139772.8    -40851.85    4063.3388   -44915.189    344.79036    0.9862185 
   29200    296.84995   -362.36403    139991.94    -40918.19    4076.5192    -44994.71    346.06623   0.98467468 
   29300    295.32242   -557.76562    140103.57   -40873.077    4055.5423   -44928.619    348.56717   0.98389013 
   29400    293.11866   -179.80012    140176.75   -40895.649     4025.279   -44920.928    350.26491   0.98337647 
   29500    294.07897   -621.11647    140575.79   -40833.849    4038.4665   -44872.316    352.59172   0.98058507 
   29600    297.79329   -551.87791    140459.93   -40814.999    4089.4737   -44904.472    353.51568   0.98139392 
   29700    298.04533   -196.70541     140503.9   -40796.712    4092.9348   -44889.647    355.72418   0.98108674 
   29800    305.48921   -441.04782    140217.46   -40748.682    4195.1587   -44943.841    356.01198   0.98309097 
   29900    295.51567   -557.47087    140046.43   -40795.016    4058.1961   -44853.212     357.0063   0.98429154 
   30000    302.23579   -426.44879    139979.13   -40775.611    4150.4808   -44926.092    357.99136   0.98476478 
   30100    294.53668   -521.42266    140444.39   -40757.267     4044.752   -44802.019    360.73994   0.98150244 
   30200    299.25223   -432.57507    140700.83   -40748.911    4109.5087    -44858.42    362.27257   0.97971358 
   30300    295.02389   -382.92737    140725.86   -40719.391    4051.4426   -44770.834    363.07884   0.97953932 
   30400    294.32391   -630.10167    140831.27   -40909.677    4041.8302   -44951.507    365.46504   0.97880616 
   30500    293.84763   -578.30446    140893.68   -40849.952    4035.2895   -44885.241    367.03524   0.97837261 
   30600     294.0813   -786.83346    140874.38    -40893.33    4038.4984   -44931.828     368.8714   0.97850667 
   30700    304.21177   -436.24496    140675.62   -40869.214    4177.6161    -45046.83     369.3462   0.97988919 
   30800    297.99391   -291.75706    141022.57   -40846.094    4092.2287   -44938.322    371.64916    0.9774784 
   30900    297.56159   -527.99191    140967.24   -40837.438    4086.2918    -44923.73     373.4617   0.97786205 
   31000    293.62205   -546.92832    140883.94   -40851.722    4032.1918   -44883.914    374.42289   0.97844024 
   31100    289.27507   -628.89228    140669.56   -41031.685    3972.4964   -45004.181    374.77506    0.9799314 
   31200    291.20249   -612.54225    140655.44   -40984.993     3998.965   -44983.958    375.85866   0.98002974 
   31300    290.93086   -583.43643     141013.2   -40932.707    3995.2348   -44927.941    377.93401   0.97754333 
   31400    291.40962   -664.09367    140439.32     -40940.6    4001.8094   -44942.409     377.8313   0.98153792 
   31500    292.73137   -635.14908    140643.46   -40820.329    4019.9605   -44840.289    379.66958    0.9801132 
   31600    292.47766   -318.21084    140521.64   -40826.595    4016.4764   -44843.072    380.35384   0.98096291 
   31700    292.84087   -599.81407       140791   -40880.551    4021.4642   -44902.015    382.49447   0.97908611 
   31800    294.04168   -639.28032     140454.8   -40895.265    4037.9544    -44933.22    383.79331    0.9814297 
   31900    302.07192   -535.26014    140421.41   -40882.397    4148.2305   -45030.628    384.62163   0.98166314 
   32000    298.42728    -694.6176     140291.4   -40871.433      4098.18   -44969.613    386.03467   0.98257284 
   32100     291.5022     -470.845    140156.81   -40904.024    4003.0808   -44907.105    387.41861   0.98351637 
   32200     296.7963   -589.61525    139890.99   -40911.221    4075.7825   -44987.003    388.35558   0.98538521 
   32300    296.15349   -443.30601    139928.66   -40863.713     4066.955   -44930.668    389.40647   0.98511995 
   32400    302.09635   -486.96183    139941.42   -40795.722    4148.5659   -44944.288    390.50583   0.98503017 
   32500    292.71897   -493.23187    140121.26   -40878.613    4019.7901   -44898.403     392.7702   0.98376592 
   32600    298.66285   -652.19467    140520.19   -40840.714     4101.415   -44942.129    393.83565   0.98097306 
   32700    297.08818   -789.25962    140177.26   -40845.906    4079.7907   -44925.697    394.25707   0.98337287 
   32800    293.14746      -485.95    140080.19   -40887.492    4025.6745   -44913.167    394.62407   0.98405435 
   32900    289.04304   -533.43243    140073.45   -40922.611    3969.3102   -44891.921    396.46332    0.9841017 
   33000    293.95459   -324.52006     140057.7   -40918.431    4036.7585    -44955.19    397.89795   0.98421232 
   33100    292.11216   -479.88253    140195.93   -40875.403     4011.457    -44886.86    400.25894   0.98324196 
   33200     299.0639   -760.31617    140311.67   -40861.984    4106.9225   -44968.907    401.45582   0.98243086 
   33300    298.88935   -358.98061     139970.2   -40811.931    4104.5254   -44916.456    402.00805   0.98482763 
   33400    291.27142   -566.98332    139780.82   -40884.226    3999.9116   -44884.138    402.92761   0.98616191 
   33500    298.40451   -384.56269    139846.42   -40797.948    4097.8674   -44895.816    404.51161   0.98569928 
   33600    299.21677   -448.97786    139635.79   -40856.061    4109.0218   -44965.082     406.3518   0.98718612 
   33700    300.41238   -441.00325    139896.22   -40851.541    4125.4406   -44976.981    408.57751    0.9853484 
   33800    299.89332   -372.45512    139803.48   -40850.797    4118.3126    -44969.11     409.6975   0.98600204 
   33900    296.86356   -325.19331    140291.29   -40862.131    4076.7061   -44938.837    411.84824   0.98257358 
   34000    292.41002   -710.78486    140004.64   -40916.295    4015.5475   -44931.842     412.2863   0.98458531 
   34100    297.64156   -482.85838    139851.14   -40986.857      4087.39   -45074.247      413.025   0.98566601 
   34200    291.70656   -764.01403    139970.57    -40951.84    4005.8872   -44957.727    414.98342   0.98482497 
   34300    299.42795   -289.37559    140451.07   -40893.963    4111.9218   -45005.884    417.12407   0.98145577 
   34400    300.63009   -626.04243    140609.47   -40774.775    4128.4304   -44903.205    418.45592   0.98035016 
   34500    304.75283   -268.74984    140207.18   -40734.774    4185.0462    -44919.82    418.24821   0.98316302 
   34600    294.86851    -602.0128    140646.12   -40817.229    4049.3089   -44866.538    420.97119   0.98009473 
   34700    300.29119   -667.51095    140264.31   -40847.731    4123.7764   -44971.507     421.4858   0.98276257 
   34800    290.97173   -700.22966    139651.94   -40910.878     3995.796   -44906.674    422.59527   0.98707194 
   34900    297.64725   -328.88084    139738.31    -40861.47    4087.4682   -44948.938    424.11588    0.9864619 
   35000    294.18608   -328.73812    139761.36   -40916.169    4039.9374   -44956.106    426.16471   0.98629917 
   35100    298.12876   -406.28899     139945.5   -40870.168    4094.0806   -44964.249    427.82312   0.98500145 
   35200    305.06167    -496.0597    140414.33    -40685.51    4189.2875   -44874.798     430.3036   0.98171259 
   35300    292.34423   -478.04828    140507.82    -40785.85    4014.6439   -44800.493    431.81286   0.98105939 
   35400    291.11293   -558.77641    140496.12   -40851.913    3997.7351   -44849.648    432.99664   0.98114108 
   35500    293.05638   -420.72733     140587.2   -40876.343    4024.4236   -44900.766    434.47772   0.98050546 
   35600    293.35122   -668.76847    140594.74   -40918.851    4028.4726   -44947.323    435.81004   0.98045287 
   35700    297.61588   -563.45287    140512.14   -40844.611    4087.0375   -44931.648    436.66399   0.98102921 
   35800    295.38739    -555.4053    140480.93   -40857.333    4056.4345   -44913.768    437.13484   0.98124716 
   35900    289.97529   -605.65127     140591.3   -40817.903    3982.1123   -44800.015    438.31567   0.98047689 
   36000     299.2934   -510.88588    140412.98   -40826.541    4110.0741   -44936.615    439.31434   0.98172204 
   36100    294.23063   -427.84206    140334.22   -40869.932    4040.5492   -44910.481     440.1578   0.98227303 
   36200    296.86635   -219.84467    140385.86   -40806.476    4076.7445    -44883.22    442.20157   0.98191166 
   36300    294.43902   -359.40762    140250.91   -40838.583    4043.4109   -44881.993    443.54722   0.98285652 
   36400    302.62196   -253.50645    140282.71   -40739.325    4155.7839   -44895.109    444.02936   0.98263369 
   36500    296.48958   -415.00826    140146.97   -40725.144    4071.5704   -44796.714    445.04212   0.98358543 
   36600    295.79726   -199.76344    140324.93   -40896.167    4062.0631    -44958.23    446.27324   0.98233802 
   36700     294.8925   -368.33925    140253.44   -40877.849    4049.6383   -44927.488    446.46114   0.98283873 
   36800      294.297   -496.13048    140449.85   -40907.372    4041.4606   -44948.832    447.52458    0.9814643 
   36900    294.26674    -431.1735    140444.39   -40998.722    4041.0451   -45039.767    449.50017   0.98150248 
   37000    294.50314   -556.33525    140553.63   -40916.896    4044.2915   -44961.187    451.50283   0.98073966 
   37100    297.33377   -308.52044    140896.58   -40947.593    4083.1633   -45030.756    453.27444   0.97835245 
   37200    292.24211   -667.23854    140728.01   -40912.305    4013.2417   -44925.547     453.4224   0.97952438 
   37300    296.23676   -729.03911    140482.16   -40908.478    4068.0986   -44976.576     453.7786   0.98123861 
   37400    289.09708   -625.83435    140028.11   -40954.666    3970.0522   -44924.718    453.60541   0.98442031 
   37500    296.35304   -547.49316    140001.87   -40975.572    4069.6953   -45045.267    453.36716   0.98460484 
   37600    295.11675   -294.26994    139987.46   -40965.511    4052.7179   -45018.229    453.99176   0.98470619 
   37700    295.14306   -500.50446    140321.12   -41008.293    4053.0792   -45061.372    455.00722   0.98236473 
   37800    293.47366   -266.62774    140352.35   -40990.863     4030.154   -45021.017    456.15273    0.9821461 
   37900    295.98548   -397.42217    140323.59   -41004.782    4064.6477    -45069.43    456.16761   0.98234744 
   38000    292.03878   -390.97326    140416.48   -40964.728    4010.4493   -44975.177    457.28721   0.98169757 
   38100    297.57566   -370.02578    140571.26   -40983.607     4086.485   -45070.092    458.31167   0.98061663 
   38200    290.68538   -471.06905    140612.75    -40970.48    3991.8636   -44962.343     459.0504   0.98032732 
   38300    287.75361    -458.0493    140651.21   -41043.542    3951.6028   -44995.145    459.59395   0.98005921 
   38400    289.79329   -553.07141     140540.1   -41122.925    3979.6129   -45102.538    459.86942   0.98083405 
   38500    287.42081   -175.97725     140859.3   -41088.879    3947.0327   -45035.912    461.04723   0.97861137 
   38600    297.70982   -379.35898    140928.99   -40947.137    4088.3275   -45035.465    462.58047    0.9781275 
   38700    293.84241   -346.44997    141044.83   -40961.802    4035.2179    -44997.02      464.431   0.97732417 
   38800    299.03179    -647.6589    141464.92   -40916.555    4106.4816   -45023.036    467.00988   0.97442188 
   38900    299.44683   -335.68168    141202.71    -40812.53    4112.1812   -44924.711    466.98659   0.97623139 
   39000    294.64328   -570.85888    141232.21   -40805.427     4046.216   -44851.643    467.13065   0.97602746 
   39100    290.95812   -724.33425    141041.56   -40907.794    3995.6091   -44903.403    467.91029   0.97734677 
   39200    295.27711   -325.42736    140864.31   -40853.395    4054.9201   -44908.315    469.02583    0.9785766 
   39300    298.35268    -506.1018     140942.3   -40808.626    4097.1556   -44905.782    470.15235   0.97803508 
   39400     296.0756    -349.3625    141026.22   -40838.545    4065.8854    -44904.43    470.36854   0.97745309 
   39500    301.93832   -482.49544    140962.88   -40750.694    4146.3957   -44897.089    471.03679    0.9778923 
   39600    294.49468   -416.42939    140815.02   -40763.881    4044.1752   -44808.056    472.29558   0.97891916 
   39700    292.91109   -606.51069    140430.21   -40857.865    4022.4285   -44880.293     471.9475   0.98160156 
   39800    296.79654   -346.30738    140601.73   -40829.147    4075.7857   -44904.932    473.16561    0.9804041 
   39900    297.61348   -648.39024    140235.06    -41029.16    4087.0044   -45116.164    473.59683   0.98296758 
   40000     294.9204   -444.00752    140225.04   -40895.856    4050.0215   -44945.878      474.719    0.9830378 
   40100    299.42414   -531.64708    140163.67   -40880.532    4111.8695   -44992.402    475.70277   0.98346821 
   40200    300.25179   -463.10697    140396.69   -40817.717    4123.2353   -44940.952    476.98238   0.98183594 
   40300    300.19841   -625.66736    140278.05   -40871.413    4122.5022   -44993.915    477.44497   0.98266631 
   40400    300.79793   -495.92089    140327.01   -40916.864    4130.7353     -45047.6    478.02469   0.98232351 
   40500     298.1512   -557.33261    140011.69   -40896.101    4094.3887    -44990.49    479.21312   0.98453577 
   40600     299.2969   -671.11103    140090.32   -40876.428    4110.1222   -44986.551    480.70991   0.98398317 
   40700    297.22482   -668.44957    140195.37   -40928.931    4081.6672   -45010.598    482.20399   0.98324583 
   40800    295.38172   -411.86992    140284.46   -40911.683    4056.3566   -44968.039     483.8805   0.98262146 
   40900    291.33701   -553.62165    140471.83   -40939.906    4000.8123   -44940.718    484.33649   0.98131076 
   41000    297.24459   -405.48867    140116.71   -40888.198    4081.9387   -44970.137    484.88717   0.98379782 
   41100    299.47023   -539.94482    140099.35   -40896.492    4112.5024   -45008.995    486.47166   0.98391975 
   41200    296.52163   -76.614993    140198.05   -40815.842    4072.0106   -44887.853    487.42448   0.98322705 
   41300    295.42453   -429.25193    140315.18   -40942.698    4056.9446   -44999.643    488.32235   0.98240629 
   41400    295.00803   -258.18992     140280.7   -40872.121    4051.2249   -44923.346    490.40248    0.9826478 
   41500    295.94338   -419.31644    140450.92   -40858.534    4064.0697   -44922.604    492.42692   0.98145686 
   41600    296.89941    -230.1263    140749.09   -40794.646    4077.1985   -44871.844      494.591   0.97937767 
   41700     293.0825   -645.54642    140579.22   -40928.797    4024.7824   -44953.579     496.6674   0.98056111 
   41800    296.66801   -338.11765    140623.06   -40798.627    4074.0207   -44872.647    498.14721   0.98025541 
   41900    293.29929   -563.26775    140348.39   -40822.103    4027.7595   -44849.863    499.09116   0.98217381 
   42000    292.95346   -619.17496    140000.31   -40874.263    4023.0103   -44897.273    501.16866   0.98461577 
   42100    290.58342   -356.66739    140468.33   -40867.731    3990.4635   -44858.194    503.36204   0.98133518 
   42200    295.06146   -520.36193    140359.57   -40818.957    4051.9586   -44870.915    504.44386   0.98209558 
   42300    293.36696   -579.30264    140177.13   -40931.149    4028.6887   -44959.838    504.86447   0.98337383 
   42400    300.49265   -454.07176    140343.37   -40870.881    4126.5429   -44997.424    505.84253   0.98220894 
   42500    292.02845   -737.25554    140286.53   -40941.167    4010.3076   -44951.475    506.32906    0.9826069 
   42600    293.22309    -491.2351    140066.47   -40975.888     4026.713   -45002.601    506.93659   0.98415071 
   42700    293.35026   -413.98765    140071.34   -41059.506    4028.4594   -45087.965    507.51994   0.98411651 
   42800    291.94343   -424.64992    140332.87   -41002.307      4009.14   -45011.447    509.25315   0.98228248 
   42900    294.52496   -609.44413     140546.5   -40940.155    4044.5911   -44984.746     510.5515   0.98078942 
   43000    299.22294   -658.91581    140240.21     -40905.9    4109.1065   -45015.006    511.42719   0.98293145 
   43100    297.72349   -243.36613    140322.86   -40935.075    4088.5152   -45023.591    513.00415   0.98235253 
   43200    289.95166   -615.73064     140339.9   -40953.311    3981.7878   -44935.099    514.35026   0.98223325 
   43300    290.61335   -300.80001    140415.74   -40953.084    3990.8745   -44943.958    516.83329   0.98170274 
   43400    295.81347   -709.08355    140402.85   -40973.037    4062.2857   -45035.323    518.20472   0.98179286 
   43500    292.61618   -340.38142    140383.24   -40927.701    4018.3786   -44946.079    519.80014   0.98193002 
   43600     294.5924   -419.97266    140518.37   -40959.169    4045.5173   -45004.686    521.54866   0.98098577 
   43700    294.70406   -427.93723    140186.97   -40938.245    4047.0506   -44985.296    522.67738   0.98330479 
   43800    294.21779   -490.73913    140170.87   -40841.274    4040.3729   -44881.647    524.03785   0.98341771 
   43900    295.03588   -456.68711       140322   -40942.096    4051.6073   -44993.703    526.21218   0.98235856 
   44000    296.33295    -588.2599    140351.09   -40908.585    4069.4194   -44978.004    527.16532   0.98215494 
   44100    297.31907   -581.35054    140583.83   -40788.508    4082.9615   -44871.469    529.59499   0.98052894 
   44200    295.56839   -377.78464    140694.89       -40844    4058.9201    -44902.92    531.20078   0.97975498 
   44300    291.99826   -498.85726    140480.14   -40952.411    4009.8929   -44962.304    532.37503   0.98125273 
   44400    289.48578   -696.37008    140142.93   -40954.301    3975.3901   -44929.691     531.7485   0.98361379 
   44500    294.81537    -458.8575    139933.08   -40943.274    4048.5792   -44991.853     532.1576   0.98508886 
   44600    295.56486   -429.27983    139680.86   -40954.805    4058.8716   -45013.677     533.0717   0.98686764 
   44700    290.30665   -296.32124    139737.33   -41001.213    3986.6628   -44987.876    534.65932    0.9864688 
   44800    294.43342   -398.03448    139832.04   -40921.405     4043.334   -44964.739    536.95786   0.98580068 
   44900    296.04457    -530.4336    140077.81   -40980.043    4065.4593   -45045.503    538.45173   0.98407105 
   45000    294.09164   -621.28798     140179.3   -40990.193    4038.6404   -45028.834    540.78287   0.98335856 
   45100    294.53333    -496.3512       140227   -40908.107     4044.706   -44952.813    542.17394    0.9830241 
   45200    297.39099   -289.67193    140456.55   -40906.963    4083.9491   -44990.912    543.90954   0.98141752 
   45300     290.7257   -510.23321    140454.67   -40943.614    3992.4174   -44936.031    545.40997   0.98143061 
   45400    293.82669   -563.04571    140411.27   -40960.685    4035.0021   -44995.687    547.03701   0.98173402 
   45500    299.49364   -776.83717    140248.33   -40870.545    4112.8239   -44983.369      547.381   0.98287459 
   45600    296.76597   -468.72236    140337.56   -40902.879     4075.366   -44978.245    549.71235    0.9822496 
   45700    295.81613    -209.3777    140432.49   -40847.062    4062.3223   -44909.384    550.83689   0.98158562 
   45800    295.88407   -421.38914    140541.58   -40836.909    4063.2552   -44900.164    553.13753   0.98082373 
   45900    298.53703   -695.01106    140430.18   -40846.754    4099.6872   -44946.441    553.74174   0.98160182 
   46000     290.1948   -648.76583    140483.57   -40928.686    3985.1268   -44913.812    556.52645   0.98122871 
   46100    297.59297   -396.96667    140774.21   -40844.748    4086.7228   -44931.471    559.13611    0.9792029 
   46200    295.35237   -581.59603     140505.3   -40868.917    4055.9535   -44924.871    559.82021   0.98107701 
   46300    295.13702   -257.78763    140466.94   -40866.586    4052.9963   -44919.582     560.6664   0.98134491 
   46400    292.51919   -403.88967    140637.38    -40861.46    4017.0467   -44878.507    562.08812   0.98015563 
   46500    297.47721   -381.61877    140681.45   -40805.437    4085.1331    -44890.57    564.35043    0.9798486 
   46600    292.90371    -394.3223    141007.39   -40729.106    4022.3271   -44751.434    567.03851   0.97758363 
   46700    295.64986   -580.53818    140849.73   -40719.812    4060.0389   -44779.851    567.83133   0.97867788 
   46800    299.46717   -197.17665    140695.95   -40696.699    4112.4605    -44809.16    569.39099   0.97974758 
   46900    300.37777    -691.1319    140852.64   -40675.072    4124.9654   -44800.038    570.81436   0.97865764 
   47000    301.24224   -495.80453    140389.51   -40768.094    4136.8367   -44904.931    570.48333   0.98188612 
   47100    297.86488   -341.80115    139951.06   -40773.782    4090.4568   -44864.239    570.49732   0.98496228 
   47200    300.74274   -736.30177    139845.95   -40825.256    4129.9773   -44955.233    571.43205   0.98570259 
   47300    293.98346   -565.25227    139511.64   -40812.085    4037.1549    -44849.24    571.76395   0.98806463 
   47400    296.83564   -608.00882    139646.27   -40784.858    4076.3228   -44861.181    574.21907   0.98711206 
   47500    297.76678   -648.98774    139432.17   -40843.553    4089.1097   -44932.662      575.193   0.98862781 
   47600    299.97588   -386.83718    139595.26   -40790.301    4119.4463   -44909.747    577.35101   0.98747279 
   47700    290.54924   -524.43061    139556.66   -40889.418    3989.9941   -44879.412    578.64875   0.98774586 
   47800    289.95405   -433.66046    139598.07   -40882.902    3981.8206   -44864.722    578.73567   0.98745291 
   47900    294.73597   -594.69892    139674.82   -40820.725    4047.4887   -44868.214    580.42084   0.98691029 
   48000    298.83155   -283.72418    140220.96   -40849.405    4103.7317   -44953.137    583.25281   0.98306642 
   48100    295.24089   -529.86077    140060.57   -40869.459    4054.4227   -44923.882    584.53163   0.98419214 
   48200    294.72329   -445.59452    140025.77   -40883.657    4047.3146   -44930.972    585.98804   0.98443679 
   48300    293.11434   -532.49374    139922.33   -40876.003    4025.2197   -44901.223    586.86617   0.98516452 
   48400    297.40338   -299.99723    140060.63   -40822.793    4084.1192   -44906.912    589.02647   0.98419176 
   48500    293.81511   -455.39203    140154.84   -40906.684     4034.843   -44941.527    589.95178   0.98353022 
   48600    293.33894   -407.90802    140167.97   -40916.123     4028.304   -44944.427     590.7703   0.98343804 
   48700    291.30028   -403.58061    140196.73   -40976.362    4000.3078   -44976.669    591.45701   0.98323633 
   48800    290.45921     -622.054    140098.57   -40905.969    3988.7578   -44894.727    592.56924   0.98392521 
   48900    296.69922   -382.35211    139885.35   -40858.211    4074.4492    -44932.66    593.58294   0.98542495 
   49000     296.4054   -713.64068    139831.72   -40837.616    4070.4144    -44908.03    594.70108   0.98580294 
   49100    300.90501   -622.16619    139685.18    -40925.74    4132.2057   -45057.946    595.15703   0.98683708 
   49200    290.26501   -670.21196    139621.77   -41007.655    3986.0909   -44993.746    596.31794   0.98728527 
   49300     296.7639   -245.94612    139883.36   -40949.061    4075.3376   -45024.398    599.75128   0.98543899 
   49400    289.71693   -606.77241    140180.89   -40961.727    3978.5643   -44940.292     602.4751    0.9833474 
   49500    297.56437   -158.90176    140199.01   -40929.448      4086.33   -45015.778    603.40499   0.98322034 
   49600    296.57546   -433.41793    140110.23   -40929.084    4072.7498   -45001.833      604.365   0.98384331 
   49700    298.60627   -577.90058     140412.8   -40876.992     4100.638    -44977.63    606.16392   0.98172331 
   49800    290.74101   -328.84774    140274.75   -40838.601    3992.6277   -44831.228    606.09413   0.98268948 
   49900    297.99295   -462.14483    140159.19   -40902.313    4092.2155   -44994.528     606.8704   0.98349963 
   50000    294.41153   -431.18863    139798.14   -40960.764    4043.0334   -45003.798    606.88545   0.98603973 
   50100    297.48992   -415.42933    140279.57   -40949.981    4085.3077   -45035.289    609.42234   0.98265572 
   50200     296.6242   -486.33443    140429.34   -40981.181    4073.4191     -45054.6    610.15372   0.98160764 
   50300    297.04057   -397.06964    140573.31   -40920.392    4079.1369   -44999.529    611.42258   0.98060237 
   50400    293.59522   -689.63261    140311.71   -40956.065    4031.8234   -44987.889    611.60406   0.98243062 
   50500    292.79502   -701.55492    140029.92   -40977.103    4020.8345   -44997.937    613.33823   0.98440759 
   50600    291.82851   -339.26213    140292.99   -40964.155    4007.5618   -44971.717    615.65907   0.98256167 
   50700    297.59299   -571.13526    140187.45   -40868.544    4086.7231   -44955.267      616.085   0.98330143 
   50800    293.32701   -589.19688    140146.03   -40833.444    4028.1401   -44861.584    617.26214   0.98359203 
   50900    295.79598   -546.06929    140060.42   -40846.552    4062.0455   -44908.598    618.50893   0.98419322 
   51000    296.23985   -359.41756    140166.03   -40888.218     4068.141   -44956.359    620.17068   0.98345167 
   51100    292.55814   -697.51954    139951.48   -40857.604    4017.5816   -44875.186    620.47887    0.9849593 
   51200     300.9507   -521.18136    139748.06   -40713.482    4132.8332   -44846.315    621.06944   0.98639309 
   51300    301.63184   -573.02911    139879.88   -40767.273     4142.187    -44909.46    623.53669   0.98546347 
   51400    293.73895   -386.17262    139585.11    -40966.09    4033.7972   -44999.887    623.49796   0.98754453 
   51500    294.31512   -544.12844    139766.84   -41009.859    4041.7094   -45051.568    624.77338   0.98626055 
   51600    294.72102    -681.1983    139795.68   -40941.645    4047.2835   -44988.928    626.03932   0.98605706 
   51700    291.00178   -521.98468    139931.34   -40946.519    3996.2087   -44942.728    627.26389   0.98510107 
   51800    292.75574   -320.84194    139812.78   -40999.012    4020.2952   -45019.308    626.81572   0.98593647 
   51900    291.75189   -440.71784    140137.21   -41046.873    4006.5097   -45053.383    629.13287   0.98365392 
   52000    293.82748   -360.23887    140215.01   -40974.527    4035.0128    -45009.54    630.45832   0.98310812 
   52100     301.0925   -261.42227    140172.15   -40990.284    4134.7805   -45125.065    630.94317   0.98340873 
   52200    289.70744   -445.41991    140387.79   -41016.185    3978.4341   -44994.619    632.10624   0.98189819 
   52300    289.50983   -610.27018    140424.74   -40947.334    3975.7204   -44923.054    632.74192   0.98163984 
   52400    295.62558   -555.87695    140101.57   -40859.021    4059.7055   -44918.726    634.03861   0.98390415 
   52500    296.62734    -542.4518    140001.58   -40842.673    4073.4622   -44916.135    634.49227   0.98460685 
   52600    291.86813    -301.0222    140034.32   -40931.071    4008.1059   -44939.177    635.15422   0.98437665 
   52700     289.5423   -532.91828    140112.34   -40937.595    3976.1662   -44913.761    637.39843    0.9838285 
   52800    288.36082    -550.2646    139963.86    -41010.39    3959.9414   -44970.331    638.01731   0.98487219 
   52900    287.16486   -460.71702    139952.76   -41064.827    3943.5179   -45008.344    638.66259   0.98495034 
   53000    289.33409   -773.45274    139279.71   -41100.439    3973.3069   -45073.746    636.88011   0.98970999 
   53100    287.95508   -317.09896    139631.32    -41117.76    3954.3696   -45072.129    639.13719   0.98721772 
   53200    288.89367   -690.69983    139913.35   -40921.446    3967.2589   -44888.705    640.89403   0.98522777 
   53300    296.04912   -655.17034    139921.15   -40915.745    4065.5218   -44981.267    641.04405   0.98517283 
   53400    301.23842   -626.05478    139814.86   -40803.786    4136.7843    -44940.57    641.43084   0.98592179 
   53500    298.74118   -242.35279    140213.68   -40826.479    4102.4907   -44928.969    642.99928   0.98311749 
   53600    295.47036    -451.2245    140255.59   -40833.679    4057.5739   -44891.253    644.15455   0.98282371 
   53700    293.67377   -529.70543    140591.23   -40903.266    4032.9021   -44936.168    646.22447   0.98047738 
   53800    288.20242   -413.35859    140605.31   -40967.467    3957.7662   -44925.233    648.04232   0.98037917 
   53900    294.10767   -351.22524    140322.98   -40932.354    4038.8606   -44971.215    648.91499    0.9823517 
   54000    294.25694   -426.96796    140237.53   -40964.004    4040.9104   -45004.915     650.1755   0.98295025 
   54100     293.0997   -684.07144    140502.25   -40907.812    4025.0185   -44932.831    651.14734   0.98109826 
   54200     291.0711   -534.28495    140325.27    -40925.91    3997.1607   -44923.071        651.3   0.98233565 
   54300    295.79343   -516.42587    140336.96   -40818.573    4062.0105   -44880.583    652.23135   0.98225386 
   54400    297.32393   -385.87145    140062.63    -40933.95    4083.0282   -45016.978    652.79421    0.9841777 
   54500    296.30268   -420.72206    139834.23   -40890.873    4069.0037   -44959.877    652.89978   0.98578519 
   54600     295.8355   -604.79015    140043.61   -40897.177    4062.5883   -44959.765    654.97163   0.98431138 
   54700    293.84563   -370.96392    139895.23    -40877.45    4035.2621   -44912.712     654.8649   0.98535535 
   54800    298.40591   -491.31025    139905.78   -40919.845    4097.8866   -45017.732    655.50172    0.9852811 
   54900    298.46865   -503.58905    140183.63   -40818.279    4098.7482   -44917.027    657.45594   0.98332818 
   55000     298.9644   -402.01586    140050.49   -40764.497    4105.5561   -44870.053    657.19181   0.98426301 
   55100    293.33587    -459.6846     140435.8   -40758.769    4028.2618   -44787.031    659.36419   0.98156251 
   55200    299.44278   -591.42378    140466.41    -40862.54    4112.1254   -44974.666    660.85893   0.98134858 
   55300    296.93035   -291.64296    140337.91   -40823.744    4077.6233   -44901.368     661.9314   0.98224715 
   55400    297.63492   -205.24907    140405.77   -40770.681    4087.2989    -44857.98    662.15112   0.98177247 
   55500    297.45894   -540.66226    140319.86   -40786.614    4084.8823   -44871.497    662.79305   0.98237354 
   55600    299.26736   -500.92716    140193.83   -40728.322    4109.7165   -44838.038    663.93252   0.98325669 
   55700    295.13867   -409.93357    140052.61   -40745.608    4053.0189   -44798.627    665.91631   0.98424809 
   55800    293.22496    -482.9214    140121.28   -40867.074    4026.7388   -44893.812    667.77334   0.98376577 
   55900     294.7667   -603.44397    140154.26   -40968.355    4047.9108   -45016.266    668.96061   0.98353429 
   56000     294.8597   -499.53638    140125.88   -40990.515    4049.1879   -45039.703    669.84089   0.98373344 
   56100    298.04642   -456.32555    140124.13   -40989.305    4092.9498   -45082.255    670.65004   0.98374574 
   56200    292.23927   -394.00661    139941.12   -40948.657    4013.2026   -44961.859    672.09236   0.98503225 
   56300    296.56754   -375.86386    140297.97    -40882.64     4072.641   -44955.281    674.22907   0.98252681 
   56400    304.13975   -378.57476    140554.13   -40769.431    4176.6271   -44946.058    675.63194   0.98073614 
   56500    296.04686    -478.3302     140333.2   -40824.501    4065.4907   -44889.991    676.26385   0.98228014 
   56600    292.42784   -509.92799    140268.39   -40761.648    4015.7921    -44777.44    677.33902   0.98273399 
   56700    297.57818    -227.1625    140401.42   -40795.167    4086.5198   -44881.687    679.90058   0.98180287 
   56800    293.76198   -310.67716    140328.41   -40743.343    4034.1134   -44777.456    681.75014   0.98231365 
   56900    294.97111   -282.28421    140025.16   -40780.964    4050.7179   -44831.682    681.80154   0.98444108 
   57000    289.32547    -877.7314     139754.7   -40874.017    3973.1887   -44847.205     682.0679   0.98634617 
   57100    291.29659   -412.87312    139764.69   -40988.644    4000.2572   -44988.901    683.74533   0.98627568 
   57200    287.59922   -416.68004    139648.42   -41047.899    3949.4827   -44997.381    683.95024   0.98709689 
   57300    293.84312   -347.38979    139947.16   -40999.591    4035.2277   -45034.819     686.2184   0.98498974 
   57400    291.73807   -403.03006    139861.41   -41018.072    4006.3199   -45024.392    687.22124   0.98559367 
   57500    295.68429   -147.27256    139777.45   -40914.963    4060.5116   -44975.475    688.41768   0.98618568 
   57600    288.48848   -655.43912    140248.32   -41012.141    3961.6946   -44973.836    691.90176   0.98287462 
   57700    296.27667   -652.74788    140541.92   -40946.518    4068.6467   -45015.165    693.74379   0.98082136 
   57800    295.19419   -424.01515    140493.45   -40920.562    4053.7813   -44974.343    695.97648   0.98115972 
   57900     289.4565    -358.9798    140686.53   -41003.121     3974.988   -44978.109    698.02882   0.97981316 
   58000    293.23843   -652.98273    140036.76   -40995.385    4026.9237   -45022.309    697.73128   0.98435953 
   58100    298.30071   -244.90798    140165.03   -40901.442    4096.4419   -44997.884    700.12045   0.98345872 
   58200    292.94974   -595.40602    140680.16   -40960.677    4022.9593   -44983.636    704.58571   0.97985753 
   58300     297.5542   -464.56555    140575.67   -40959.526    4086.1904   -45045.717    705.73263   0.98058589 
   58400    290.46599   -706.66144    140557.85   -40921.422    3988.8509   -44910.273    707.76155   0.98071021 
   58500    302.58384   -469.11941    140631.46   -40741.274    4155.2604   -44896.534    710.70125   0.98019684 
   58600    292.44935   -492.12627    140411.61   -40873.209    4016.0875   -44889.297    711.70228   0.98173159 
   58700    296.91247   -475.54022    140289.16   -40858.899    4077.3777   -44936.277     712.0682   0.98258852 
   58800    297.53852   -105.66406    140434.33   -40828.581    4085.9751   -44914.556    714.64892   0.98157279 
   58900    300.66331   -780.21578    140488.17   -40813.555    4128.8866   -44942.442    716.07894   0.98119663 
   59000     296.3556   -543.21799    140375.72   -40889.897    4069.7305   -44959.628    716.49548   0.98198263 
   59100    298.10329   -674.89279    139877.79   -40863.443    4093.7309   -44957.174    715.36121    0.9854782 
   59200    293.69462    -562.1847    139882.38   -40900.965    4033.1883   -44934.153    716.95429   0.98544587 
   59300     298.0465   -509.88633    139712.07   -40903.532    4092.9509   -44996.483    717.50796   0.98664719 
   59400    291.40909   -429.72163    139660.07   -40828.373    4001.8021   -44830.175    719.45234    0.9870145 
   59500    292.22493   -770.75062    139541.37   -40854.508    4013.0058   -44867.514    720.18401   0.98785408 
   59600    300.76128   -770.48542    139721.33   -40750.803    4130.2319   -44881.035    721.36613   0.98658175 
   59700    302.74416   -47.181321    140032.25    -40754.46     4157.462   -44911.922    723.79651   0.98439121 
   59800     292.7736   -494.58064    140152.76   -40838.398    4020.5404   -44858.939    726.35502    0.9835448 
   59900    289.77417   -512.34954    140038.18   -40827.742    3979.3504   -44807.093    726.39419   0.98434954 
   60000    298.68212   -536.38084    139993.68   -40846.401    4101.6796    -44948.08    727.61285    0.9846624 
   60100    290.55916   -313.52701    139922.77   -40855.572    3990.1304   -44845.702    728.84841   0.98516146 
   60200    293.17239   -584.46682    139931.76   -40926.669    4026.0167   -44952.686    730.90236   0.98509813 
   60300    298.97651   -537.89655    139947.63   -40896.037    4105.7224    -45001.76    731.62688   0.98498642 
   60400    292.78082   -523.43995    140404.94   -40924.016    4020.6395   -44944.656    733.95928   0.98177828 
   60500    293.20463   -432.37937    140467.02   -40995.204    4026.4595   -45021.664    736.10232   0.98134436 
   60600    295.02036   -598.44147    140317.66   -40946.436    4051.3942   -44997.831    736.36812   0.98238894 
   60700    297.49282   -468.13812    140182.65   -40994.974    4085.3475   -45080.321    737.29623   0.98333509 
   60800    294.06245   -410.59232    140329.24   -40962.744    4038.2396   -45000.984    739.66539   0.98230788 
   60900    295.16574   -617.94706    140255.45    -40875.84    4053.3907   -44929.231    740.74483   0.98282468 
   61000    295.86752   -556.84228    140299.15   -40811.147    4063.0279   -44874.175    741.97958   0.98251854 
   61100    295.96755   -679.59513    140669.67   -40754.491    4064.4016   -44818.893    744.45985   0.97993064 
   61200    299.36672   -517.00525    140656.91    -40809.98     4111.081   -44921.061    746.64139   0.98001948 
   61300      299.562   -525.28344    140832.79   -40750.843    4113.7627   -44864.606    748.60446   0.97879564 
   61400    300.84842   -712.41339    140522.05   -40714.358    4131.4286   -44845.786    748.88531   0.98096002 
   61500    303.13414     -435.157     140605.2   -40742.373    4162.8174   -44905.191    750.41423   0.98037994 
   61600    295.49413   -704.41012    140564.53   -40838.511    4057.9003   -44896.411    750.82135   0.98066361 
   61700    298.08308   -545.65792    140801.75   -40818.856    4093.4532    -44912.31    753.66077   0.97901137 
   61800    297.12194   -603.02375    140761.46   -40865.487    4080.2544   -44945.741    754.18689    0.9792916 
   61900    297.68623   -453.49461    140694.51   -40826.981    4088.0036   -44914.984     756.8762   0.97975758 
   62000    295.24114   -715.38669    140631.36   -40872.864    4054.4261    -44927.29    758.91731    0.9801976 
   62100    299.51216   -612.93691    140435.59   -40880.401    4113.0783   -44993.479    759.23474   0.98156401 
   62200    296.33531   -471.93959    140581.18   -40910.589    4069.4518   -44980.041     760.3613   0.98054741 
   62300    293.70822   -557.61027    140189.94   -40958.329    4033.3751   -44991.704    761.10222   0.98328394 
   62400     299.9723   -530.18792    140063.57   -41004.289    4119.3972   -45123.686    762.39373    0.9841711 
   62500    293.75886   -453.52231    140354.95   -40954.911    4034.0705   -44988.981    764.29093    0.9821279 
   62600    290.81615   -478.41444    140562.18   -40913.078    3993.6596   -44906.737    766.58599   0.98067995 
   62700    294.94798   -448.01065    140517.76   -40946.189    4050.4003    -44996.59    766.79912   0.98099003 
   62800    294.76477   -664.07259    140389.61    -40953.64    4047.8843   -45001.524    768.14958   0.98188543 
   62900    293.32005   -645.80356    140423.64    -40914.07    4028.0445   -44942.115    770.26753   0.98164753 
   63000    301.95011    -511.5521    140445.42   -40879.437    4146.5576   -45025.994    771.13539   0.98149527 
   63100    291.34081   -420.12283    140416.11   -40889.559    4000.8645   -44890.423    773.00917   0.98170014 
   63200    296.75747   -507.89693    140256.95   -40905.624    4075.2493   -44980.873     774.2273   0.98281415 
   63300    292.30016   -430.52711    140601.72   -40954.984    4014.0388   -44969.023    777.02056   0.98040417 
   63400     288.5671   -706.62863    140667.06   -41034.843    3962.7742   -44997.617    779.67288   0.97994878 
   63500    295.31496    -470.3326    140497.25   -40905.669    4055.4398   -44961.108    780.25522   0.98113321 
   63600    298.87009   -400.34614     140567.8    -40879.51     4104.261   -44983.771    781.64583   0.98064076 
   63700     290.1925   -256.90575    140642.93   -40948.531    3985.0952   -44933.626    784.28091   0.98011694 
   63800    293.31009   -526.25622    140848.88   -40930.666    4027.9077   -44958.574    786.30938   0.97868377 
   63900    295.27575   -425.70056    140740.49   -40893.769    4054.9014   -44948.671     787.7343   0.97943753 
   64000     290.9165   -326.96871    140711.82   -40964.827    3995.0376   -44959.864    788.83986   0.97963708 
   64100     294.1945   -283.63211    140705.35   -40934.641    4040.0531   -44974.694    790.17892   0.97968212 
   64200    293.65248   -467.94499    140716.14   -40945.477    4032.6096   -44978.086    791.73422   0.97960704 
   64300    286.95386   -613.96473    140699.88   -41009.944    3940.6203   -44950.564    793.16904   0.97972023 
   64400    291.66116   -551.03239    140681.46    -41025.19    4005.2637   -45030.453    795.47979   0.97984851 
   64500    288.25307   -314.34864    140552.72   -41088.732    3958.4617   -45047.194    797.29117   0.98074601 
   64600    294.74778   -464.67981    140617.04   -40987.598     4047.651   -45035.249    799.75945   0.98029742 
   64700    297.41276   -463.14207    140609.77   -40960.572     4084.248    -45044.82    800.63338   0.98034809 
   64800    297.64921   -582.85931    140521.09   -40848.488    4087.4951   -44935.983    801.73812   0.98096677 
   64900    298.38568   -639.43245    140702.62   -40849.711    4097.6087    -44947.32    804.10258   0.97970111 
   65000    297.78447   -337.91601    140491.77   -40920.184    4089.3526   -45009.536    804.86884    0.9811715 
   65100    291.73774   -408.19836    140651.71   -40989.281    4006.3153   -44995.596    806.94264   0.98005578 
   65200    299.03721   -551.07265    140733.33   -40934.664     4106.556    -45041.22    808.66557   0.97948735 
   65300    296.44897   -476.18044    140994.85   -40953.992    4071.0127   -45025.005    810.55076   0.97767056 
   65400      287.307   -370.59854    141074.14   -41043.759    3945.4698   -44989.229    814.33021   0.97712107 
   65500     293.5647   -614.30158    140955.31   -40945.442    4031.4042   -44976.846     815.6738   0.97794484 
   65600    293.28206   -330.84884    141149.15   -40789.959    4027.5229   -44817.482    817.96125    0.9766018 
   65700    297.11945   -620.28234    140869.16   -40808.948    4080.2201   -44889.168    818.28446   0.97854289 
   65800    299.28228   -598.11513    140909.23   -40890.913    4109.9214   -45000.834    819.94411   0.97826465 
   65900    296.32308   -410.21485    140981.27   -40905.877     4069.284   -44975.161    821.16564   0.97776477 
   66000    296.77401   -578.10573    140499.69   -40903.782    4075.4763   -44979.259    821.30248   0.98111614 
   66100    296.55695   -650.87457    140089.12   -40873.451    4072.4955   -44945.947    820.62043   0.98399162 
   66200    300.30696   -437.94981    139782.22   -40809.849    4123.9929   -44933.842    820.30704   0.98615199 
[...]
   84600    289.96487   -498.31665    140586.28   -41001.848    3981.9692   -44983.818    1053.3384   0.98051189 
   84700    291.00814   -617.11298    140375.32   -40997.132    3996.2961   -44993.428    1053.8757    0.9819854 
   84800     292.1001    -526.6701    140058.72   -40897.265    4011.2915   -44908.556     1053.776   0.98420515 
   84900    295.86849   -385.24451    140424.51   -40870.991    4063.0412   -44934.032    1056.2574   0.98164142 
   85000    292.55908   -560.68462    140237.09   -40878.772    4017.5944   -44896.367    1056.0466   0.98295334 
   85100    293.16943   -507.50539    140159.67    -40895.72    4025.9761   -44921.696    1058.2358   0.98349627 
   85200    293.50334   -713.30761    139922.58   -40852.493    4030.5616   -44883.054     1058.342   0.98516277 
   85300    298.22097   -328.36241    140042.98   -40863.008    4095.3468   -44958.355    1060.0162   0.98431578 
   85400    299.94301   -351.94628    139773.45   -40882.037     4118.995   -45001.032    1060.6908   0.98621386 
   85500    295.02819   -429.82662     140138.6   -40861.901    4051.5017   -44913.403    1063.7444   0.98364417 
   85600     294.2604   -419.14118    140142.32   -40891.094     4040.958   -44932.052    1066.1532   0.98361807 
   85700    292.94073   -551.84817    140157.35   -40891.802    4022.8356   -44914.638    1067.7388   0.98351259 
   85800    297.29159   -529.46062    140231.69   -40833.819    4082.5841   -44916.403    1070.1409   0.98299118 
   85900    302.55709   -667.55993    140091.07   -40887.516     4154.893   -45042.409    1071.2839   0.98397787 
   86000    297.48945   -303.70703    140049.05   -40978.054    4085.3011   -45063.356    1072.8281   0.98427316 
   86100    298.65635   -375.77455    140154.95   -40916.447    4101.3258   -45017.773    1074.8436   0.98352942 
   86200    293.88249   -304.48739    140648.26    -40928.49    4035.7683   -44964.258    1078.7216   0.98007978 
   86300    294.11565   -562.18258    140629.95   -40988.065    4038.9702   -45027.036    1079.8371   0.98020739 
   86400    291.83686   -596.95357     140439.4   -40995.572    4007.6765   -45003.249    1080.0161   0.98153736 
   86500    297.01877   -506.18166    140606.89    -40927.64    4078.8376   -45006.477    1081.8223   0.98036815 
   86600    294.86437   -585.12983    140429.09   -40943.573     4049.252   -44992.825    1082.2266   0.98160941 
   86700    294.17662   -619.62148    140167.73     -40963.9    4039.8074   -45003.708    1083.2628   0.98343978 
   86800    294.66078   -576.44618    139995.13   -40867.397    4046.4563   -44913.853    1084.1594   0.98465225 
   86900    298.53839   -722.61139    140010.25   -40881.505    4099.7059   -44981.211    1085.7727   0.98454592 
   87000    295.06973   -439.84336    140076.38   -40942.134    4052.0721   -44994.206    1086.9506   0.98408109 
   87100    290.40374   -575.54806    139889.56   -40930.407     3987.996   -44918.403    1086.6537   0.98539533 
   87200    297.56527   -475.67687    139819.57   -40861.304    4086.3424   -44947.646    1088.1333   0.98588856 
   87300     294.2278   -716.63824    139681.43   -40781.509    4040.5104   -44822.019    1088.4701   0.98686361 
   87400    297.93084   -371.87695    139709.58   -40871.738    4091.3627   -44963.101    1091.3502   0.98666473 
   87500    300.18784   -821.79254    140207.95   -40907.888    4122.3571   -45030.245    1096.0213   0.98315765 
   87600    295.40994   -408.35154    140079.99    -40900.09    4056.7442   -44956.834     1095.965    0.9840557 
   87700    297.95525   -663.95207    140310.52   -40900.426    4091.6979   -44992.124    1097.6814   0.98243895 
   87800    289.27597   -282.76193    140603.48   -40809.874    3972.5088   -44782.383    1100.9215    0.9803919 
   87900    297.09906   -513.53396    140491.53   -40798.664    4079.9402   -44878.605    1102.8904   0.98117317 
   88000    295.60184   -586.79836    140474.47   -40848.251    4059.3794    -44907.63    1104.0804   0.98129228 
   88100     302.8225   -623.53658    140063.82   -40857.495    4158.5379   -45016.033    1103.3828   0.98416937 
   88200    298.23132   -200.93895    140648.78   -40804.863     4095.489   -44900.352    1107.1238    0.9800762 
   88300    296.61209   -497.65063    140661.25   -40797.154    4073.2527   -44870.407    1107.2936    0.9799893 
   88400    298.13383   -572.17884    140394.48   -40882.124    4094.1502   -44976.274    1106.9609   0.98185143 
   88500    296.66388   -602.60658    140021.62   -40955.653    4073.9639   -45029.617    1105.9921   0.98446596 
   88600    301.48722   -422.31112    139939.25   -40920.683     4140.201   -45060.884    1107.5095    0.9850454 
   88700    293.02388   -406.69377       139710   -40911.488    4023.9773   -44935.466    1107.1657   0.98666178 
   88800     299.1333   -527.31815    139997.22   -40923.169    4107.8755   -45031.044    1109.1057   0.98463752 
   88900    291.11557   -236.87322    140185.43   -40972.829    3997.7714     -44970.6    1111.3678   0.98331561 
   89000    295.37557   -471.64172    140079.28   -40874.621    4056.2721   -44930.893    1112.4477   0.98406072 
   89100    298.51146   -187.82586    140487.63   -40822.736     4099.336   -44922.072    1116.5207   0.98120039 
   89200    294.35916   -635.15994    140443.72   -40978.376    4042.3143   -45020.691    1117.1277   0.98150715 
   89300    288.73648   -498.29182    140387.13   -40930.572    3965.1002   -44895.672    1118.8802   0.98190278 
   89400    301.04238   -450.75753    140542.99   -40915.648    4134.0921    -45049.74    1121.6231   0.98081392 
   89500    291.67278   -466.70428    140410.96   -40990.766    4005.4232   -44996.189    1121.7205   0.98173619 
   89600     296.7697   -561.52736    140492.75   -40900.142    4075.4171   -44975.559    1123.1054   0.98116466 
   89700    299.05379   -643.83619    140351.68   -40888.871    4106.7837   -44995.654    1124.3419   0.98215084 
   89800    290.02651   -501.62808    140147.38   -40894.961    3982.8157   -44877.776    1124.0299   0.98358252 
   89900    294.98554   -449.43357    139943.69   -40911.391     4050.916   -44962.307    1123.3626   0.98501414 
   90000    292.86084    -627.5897    139845.82   -40870.094    4021.7384   -44891.832    1124.8835   0.98570355 
   90100    296.18863   -596.28553    139709.57   -40833.745    4067.4376   -44901.183    1125.8904    0.9866648 
   90200    292.81656    -417.8037    139665.64   -40991.815    4021.1303   -45012.945    1126.4498   0.98697516 
   90300    297.98906    -612.2399    139799.39    -40975.94    4092.1622   -45068.102    1127.8416   0.98603085 
   90400    295.48239   -460.89926    139961.44   -40896.532     4057.739   -44954.271    1130.7892   0.98488925 
   90500    295.90464   -655.89065    139817.13   -40847.475    4063.5376   -44911.013    1130.9841   0.98590577 
   90600    301.46954     -660.086    139888.12   -40831.809    4139.9581   -44971.767    1132.2079   0.98540546 
   90700    296.91395   -437.86068    140133.57   -40848.018    4077.3981   -44925.416    1132.5512   0.98367946 
   90800    296.76322   -627.49454    140086.55   -40848.615    4075.3282   -44923.943    1133.9008   0.98400967 
   90900    295.50818   -555.99248    139991.86   -40964.809    4058.0932   -45022.903    1135.7768   0.98467526 
   91000    295.62372   -582.29177    140200.74   -40890.399    4059.6799   -44950.079    1136.9214   0.98320822 
   91100    295.96937   -562.81073    140753.04   -40845.698    4064.4266   -44910.125    1140.2349   0.97935017 
   91200    293.60192   -436.83072    140597.45   -40878.803    4031.9153   -44910.718    1140.7048   0.98043395 
   91300     293.2331   -464.31776    140735.36   -40918.759    4026.8505    -44945.61    1142.0046   0.97947322 
   91400    298.96353   -430.02983     140812.2   -40935.907    4105.5441   -45041.451    1142.6283   0.97893872 
   91500    293.11853   -718.10465    140548.58    -40954.55    4025.2772   -44979.827    1143.6204   0.98077491 
   91600    294.00941   -681.98323     140559.9   -40940.279    4037.5112    -44977.79    1144.2236   0.98069586 
   91700    290.98243   -712.99732    140460.23   -41062.179    3995.9429   -45058.122    1145.8281   0.98139181 
   91800    288.09905   -781.05442    140397.21   -41090.023    3956.3467    -45046.37    1147.0153   0.98183231 
   91900    290.25811   -476.88701    140155.37    -41058.95    3985.9962   -45044.946    1145.9483   0.98352647 
   92000    298.41349    -455.0206     140166.9     -40960.1    4097.9907    -45058.09    1147.7043   0.98344559 
   92100    294.72334    -202.6556    140094.91   -40903.796    4047.3153   -44951.111    1148.1058   0.98395096 
   92200    295.76914   -505.00384    140403.11   -40869.981    4061.6769   -44931.658    1151.2543   0.98179103 
   92300    294.55941   -482.02865    140246.32   -40928.121    4045.0641   -44973.185    1153.2707   0.98288864 
   92400    292.76749   -293.18084    140398.83   -40929.923    4020.4565    -44950.38     1155.704   0.98182101 
   92500    296.36272   -585.31291    140253.52   -40875.148    4069.8283   -44944.976    1156.9765    0.9828382 
   92600    296.22036   -646.10754    140590.09   -40866.409    4067.8733   -44934.282    1160.4067   0.98048534 
   92700    292.10122   -535.93978    140037.38   -40954.247    4011.3069   -44965.553    1158.1616   0.98435515 
   92800    296.97638   -574.95213    140282.16   -40980.547    4078.2555   -45058.803    1160.1126   0.98263753 
   92900     290.5097   -634.59117    139903.64   -40934.085    3989.4511   -44923.536      1157.97   0.98529617 
   93000    293.45863   -303.78718    139829.95    -40885.51    4029.9476   -44915.458    1158.6966    0.9858154 
   93100    295.38373   -517.96658    140434.37   -40903.087    4056.3843   -44959.471    1162.4091   0.98157254 
   93200    299.27055   -623.43006    140402.58     -40812.1    4109.7603    -44921.86    1164.5246   0.98179478 
   93300    293.71838   -402.81963    140506.59   -40772.466    4033.5146   -44805.981    1165.6171     0.981068 
   93400    289.32263   -398.86819    140152.12   -40884.107    3973.1496   -44857.257     1165.601   0.98354927 
   93500    297.83267   -259.58031    140410.35    -40841.79    4090.0145   -44931.805    1168.9708   0.98174046 
   93600    289.96927   -548.48338    140481.71   -40902.755    3982.0296   -44884.785    1171.4174   0.98124177 
   93700    297.21724   -506.35005    140758.67   -40900.633    4081.5631   -44982.196     1175.239     0.979311 
   93800    300.09192   -463.24094    140702.84   -40817.346    4121.0399   -44938.386    1176.6582   0.97969962 
   93900    293.28182   -746.12692    140484.79   -40903.296    4027.5196   -44930.815    1177.2724   0.98122023 
   94000    292.26647   -624.12157    140506.65   -40975.529    4013.5762   -44989.105    1177.5998   0.98106759 
   94100    292.84679   -332.49878    140306.51   -40978.643    4021.5455   -45000.189    1177.4577   0.98246702 
   94200    291.41038   -550.67766    140364.59    -41018.48    4001.8198   -45020.299    1179.0355   0.98206047 
   94300    292.67507   -557.25745    140102.39   -40961.081    4019.1874   -44980.268    1179.6931   0.98389837 
   94400    290.74804    -603.3315    140135.16   -40962.753    3992.7242   -44955.478    1181.9547   0.98366833 
   94500      287.744    -321.5122    140192.38   -40958.564     3951.471   -44910.035    1184.8393   0.98326682 
   94600    291.09858   -710.30123    140243.07    -41057.45    3997.5381   -45054.988     1186.962   0.98291146 
   94700    290.75258   -526.18167    140246.65   -40871.521    3992.7865   -44864.307    1187.7177   0.98288636 
   94800    294.57777   -650.90616    140044.63    -40874.27    4045.3163   -44919.587    1187.1723   0.98430418 
   94900    293.94582   -375.73584    140207.74   -40932.132     4036.638    -44968.77    1189.4262   0.98315911 
   95000    297.39044   -419.48587     140323.7   -40891.882    4083.9416   -44975.824    1191.2178   0.98234663 
   95100    294.54744   -462.36255    140325.12   -40796.839    4044.8998   -44841.738    1192.1908   0.98233672 
   95200    293.99732   -642.40513    140545.75   -40903.187    4037.3453   -44940.533    1193.4693   0.98079463 
   95300     296.5492    -596.2944    140187.21   -40873.935    4072.3892   -44946.324    1195.3322   0.98330307 
   95400    296.07902   -331.37162    140144.54   -40903.118    4065.9324    -44969.05     1196.483   0.98360246 
   95500    299.07427   -631.08508       140249   -40921.763    4107.0649   -45028.828    1198.4381   0.98286985 
   95600    294.07054    -635.0594    139910.69   -40998.374    4038.3508   -45036.725     1198.935   0.98524646 
   95700    291.96715   -388.00022     140127.6   -40876.416    4009.4657   -44885.881    1201.6794   0.98372135 
   95800    297.75298   -466.35535    140188.09   -40845.434    4088.9202   -44934.354    1204.4612   0.98329689 
   95900    297.20775    -210.9354     140381.2   -40837.147    4081.4328   -44918.579     1206.973   0.98194431 
   96000    293.64879   -484.16323    140463.28    -40821.29     4032.559   -44853.849    1209.5267   0.98137051 
   96100    291.42132   -417.66205    140381.31   -40794.001      4001.97   -44795.971    1211.9869   0.98194353 
   96200    296.89777   -666.02095    140280.19   -40795.008    4077.1759   -44872.184    1212.9574   0.98265135 
   96300    293.69444    -452.6749    140063.64    -40852.21     4033.186   -44885.396    1213.2626   0.98417058 
   96400    294.18119   -329.38759    140387.33   -40868.563    4039.8702   -44908.433    1216.0329   0.98190143 
   96500     299.4956   -488.01262    140297.66   -40846.566    4112.8508   -44959.417    1216.7864   0.98252895 
   96600    299.22758   -525.19676    140071.83   -40819.267    4109.1702   -44928.437    1217.5877   0.98411309 
   96700    296.42261   -381.31168    140043.12   -40765.805    4070.6507   -44836.456    1217.9773   0.98431477 
   96800    297.44986   -527.72628    140107.54   -40746.878    4084.7576   -44831.636    1218.9775    0.9838622 
   96900    295.54792   -281.50927    140143.05   -40820.332     4058.639   -44878.971    1220.6717   0.98361294 
   97000    296.85248   -384.29088    140375.46   -40796.994     4076.554   -44873.548    1223.2481   0.98198445 
   97100    296.16434   -717.85528    140683.46   -40854.172     4067.104   -44921.276    1227.0182   0.97983458 
   97200    296.32788   -509.35924    140108.55   -40850.852    4069.3499   -44920.202      1223.83   0.98385514 
   97300     293.8831   -330.15207    140389.01   -40877.669    4035.7767   -44913.445     1226.284   0.98188968 
   97400    295.08982   -583.85141    140258.24   -40864.639     4052.348   -44916.987    1226.2128    0.9828051 
   97500    295.79966   -897.96054    140414.64   -40877.714     4062.096    -44939.81    1227.8312   0.98171043 
   97600    299.98567   -460.72518    140243.64    -40946.54    4119.5808    -45066.12    1228.7759   0.98290745 
   97700    298.63787   -676.36071    140484.74   -40938.633     4101.072   -45039.705    1231.4677   0.98122058 
   97800    296.37924   -457.80167    140402.61   -40933.124    4070.0551    -45003.18    1232.4245   0.98179452 
   97900     302.3624   -480.35058    140724.98    -40856.14    4152.2195   -45008.359    1234.6832    0.9795455 
   98000    295.82082   -444.48412    140517.98   -40850.571    4062.3866   -44912.958    1234.3579   0.98098843 
   98100    298.29718   -784.47295     140400.7    -40864.24    4096.3934   -44960.633    1235.0732   0.98180792 
   98200    295.90557   -568.63556    140271.09   -40795.933    4063.5504   -44859.483    1236.6667   0.98271511 
   98300    299.13815   -345.09039    140243.59   -40742.376    4107.9422   -44850.318    1236.4253   0.98290777 
   98400    294.82991   -462.06356    140255.26   -40795.248    4048.7788   -44844.027    1237.9502   0.98282598 
   98500    298.67166   -427.10671    140182.96   -40774.954     4101.536    -44876.49    1238.7872   0.98333287 
   98600    297.09489    -353.7406    140323.93   -40854.412    4079.8829   -44934.295    1241.3461   0.98234504 
   98700    301.99774   -624.16654    140373.41   -40827.265    4147.2117   -44974.477    1244.1712   0.98199878 
   98800    297.04408   -545.25412    140349.69   -40896.029    4079.1851   -44975.214     1246.651   0.98216477 
   98900    294.16653   -372.86016    140602.49   -40863.466    4039.6689   -44903.135    1249.1462   0.98039882 
   99000    293.17663   -556.89656    140703.08   -40791.751     4026.075   -44817.826    1249.6968   0.97969792 
   99100    302.93188   -466.10276    140637.74   -40829.396    4160.0399   -44989.436    1251.6457   0.98015308 
   99200    297.51844   -463.60539    140765.98    -40894.78    4085.6993   -44980.479    1252.3398   0.97926016 
   99300    291.04533   -550.94168    140488.06   -40869.956    3996.8067   -44866.762    1251.8409   0.98119737 
   99400    296.67686    -574.5554    140655.27   -40821.361    4074.1423   -44895.503    1254.5435   0.98003092 
   99500    294.40637   -148.47717    141107.42   -40846.648    4042.9626    -44889.61    1258.0122   0.97689065 
   99600    294.76211   -576.93296    141102.56   -40947.292    4047.8477    -44995.14    1259.3196   0.97692431 
   99700    292.91445    -346.5628    141217.19   -40905.123    4022.4746   -44927.598    1260.9362   0.97613125 
   99800    292.68995   -583.26788    141073.29   -40873.863    4019.3916   -44893.255    1259.1077   0.97712694 
   99900     299.0642   -375.45798     140857.9   -40823.117    4106.9266   -44930.044    1258.0288   0.97862112 
  100000    298.93509   -490.83718    140621.31   -40850.471    4105.1536   -44955.625    1258.0004   0.98026764 
  100100     295.9587   -348.64428    140622.53   -40896.038    4064.2801   -44960.318    1259.1863   0.98025908 
  100200    294.99616   -629.64022    140636.53   -40834.051    4051.0619   -44885.113    1261.3268   0.98016156 
  100300    300.80886   -695.24117    140444.49   -40904.781    4130.8853   -45035.666    1261.2757   0.98150181 
  100400    291.95409   -478.58775    140649.07   -40917.646    4009.2863   -44926.932    1262.7098   0.98007417 
  100500    295.60428   -662.67317    140500.97   -40975.179     4059.413   -45034.592    1263.8651   0.98110724 
  100600    296.18683   -515.82411    140355.99   -40965.653    4067.4129   -45033.066    1265.3219   0.98212066 
  100658    295.20852    -733.0877    140259.92   -40923.964    4053.9782   -44977.942    1265.6736   0.98279334 
Loop time of 117.16 on 6 procs for 100000 steps with 4608 atoms

Performance: 368.726 ns/day, 0.065 hours/ns, 853.533 timesteps/s
99.0% CPU use with 6 MPI tasks x no OpenMP threads

MPI task timing breakdown:
Section |  min time  |  avg time  |  max time  |%varavg| %total
---------------------------------------------------------------
Pair    | 98.322     | 99.313     | 100.24     |   7.1 | 84.77
Neigh   | 7.0813     | 7.1919     | 7.2936     |   3.0 |  6.14
Comm    | 6.957      | 7.8737     | 8.8353     |  25.1 |  6.72
Output  | 0.17233    | 0.1731     | 0.1766     |   0.4 |  0.15
Modify  | 1.8461     | 1.9278     | 2.0143     |   3.6 |  1.65
Other   |            | 0.6802     |            |       |  0.58

Nlocal:        768.000 ave         776 max         763 min
Histogram: 2 1 0 0 0 1 1 0 0 1
Nghost:        1543.83 ave        1555 max        1528 min
Histogram: 1 0 1 0 1 0 0 0 1 2
Neighs:        0.00000 ave           0 max           0 min
Histogram: 6 0 0 0 0 0 0 0 0 0
FullNghs:      21916.0 ave       22349 max       21637 min
Histogram: 2 0 1 0 1 1 0 0 0 1

Total # of neighbors = 131496
Ave neighs/atom = 28.536458
Neighbor list builds = 7129
Dangerous builds = 0

undump              1
unfix               2
unfix               3
unfix               4


################################################
#######         Run Simulation         #########
################################################

reset_timestep      0
log                 log.run_${NAME}
log                 log.run_liq_296K_-500atm_ML
