LAMMPS data file via write_data, version 29 Oct 2020, timestep = 50000

1568 atoms
1 atom types

-0.026044457819921263 50.985066903569404 xlo xhi
-0.016322108242727396 31.952432510606997 ylo yhi
-0.016322108242727396 31.952432510606997 zlo zhi

Masses

1 18.015

Atoms # atomic

79 1 1.5678855726954541 1.8174063126524158 2.4479251380196416 0 0 0
387 1 6.66881385757231 0.119606632223143 1.193028483395829 0 0 0
81 1 8.085438060142296 1.853859127342102 2.9141416123390154 0 0 0
214 1 13.041985273751967 0.12520909828869295 1.059923627938622 0 0 0
82 1 14.905309822905842 1.5911077867071968 2.5087615558161116 0 0 0
193 1 19.029060048843384 0.1702630424238206 0.9910835213244562 0 0 0
83 1 20.86560361608715 1.5740701955313907 2.7898721525212222 0 0 0
78 1 3.148753157684277 3.8294422983193894 0.9736844653744252 0 0 0
86 1 4.863956395623201 5.192679014165897 2.723604351406382 0 0 0
50 1 9.70556555052221 3.3315011250182565 1.2770895627754204 0 0 0
88 1 11.570445976227441 4.825942648420246 2.879356158415505 0 0 0
89 1 16.119010013964775 3.414830320572397 1.2411543748157574 0 0 0
92 1 17.610013580557794 4.82851235362362 2.9229923382300007 0 0 0
47 1 22.264046165997886 3.4562365530327446 0.8660868412576527 0 0 0
93 1 23.935871902013165 5.082969446678668 2.419995489456858 0 0 0
101 1 0.3482596369262823 6.771186291949689 0.9119350311826336 0 0 0
94 1 1.9339083047006058 8.089991032132907 2.6701337127854083 0 0 0
95 1 6.641295199208914 6.547527972693415 0.7814903426494015 0 0 0
96 1 8.376833377666523 8.283531086417746 2.541685934748161 0 0 0
87 1 12.775555634620805 6.4761609282007955 0.6949886792647066 0 0 0
98 1 14.549987015442282 7.96225210541406 2.3286135703423896 0 0 0
61 1 19.239796461647973 6.450557433085416 1.230949132778714 0 0 0
100 1 20.68068492029744 8.085270211723453 2.7624773314326996 0 0 0
57 1 2.952014441416045 9.820262574404873 0.48836807996458886 0 0 0
102 1 5.068122135881231 11.125549106517475 1.9809329029713756 0 0 0
103 1 10.302747876706214 9.627155954139756 1.0228518080712206 0 0 0
104 1 11.516202441051712 11.722554857341079 2.4185574655671886 0 0 0
97 1 16.136586549608456 9.626198162470411 1.146078221445177 0 0 0
106 1 17.389507526229348 11.22702843751445 3.0342481757460367 0 0 0
67 1 19.130503805160167 12.517667692850251 1.3550852002198035 0 0 0
69 1 22.325119394993173 9.8472731370094 1.0508768693861907 0 0 0
1455 1 24.986717629267016 12.467329502425176 0.7018117361698508 0 -1 2
108 1 23.57659043512513 11.458813593076188 2.913804408986477 0 0 0
110 1 0.14278078043164188 12.962309486445402 1.2343883716209931 0 0 0
111 1 1.8032096573353196 14.679962309766736 2.319321608078768 0 0 0
72 1 6.623820438046598 12.898763615700608 0.5015455118265266 0 0 0
196 1 9.30193593959584 15.936993219464556 1.0905212799834019 0 0 0
112 1 7.48009732038771 14.47424770998483 2.4829420726744247 0 0 0
105 1 13.076039472564982 13.202417028703392 0.9682206960070328 0 0 0
115 1 14.387357178520348 14.682590447015404 3.134341767890676 0 0 0
42 1 16.381912674868353 15.595798817457888 1.6117241248753436 0 0 0
116 1 20.75161646203079 14.210460664537461 2.8248497851693193 0 0 0
280 1 3.472152875041867 16.356403208323556 0.6067598762537948 0 0 0
289 1 4.54270040102968 17.614735207322667 2.602037199968036 0 0 0
292 1 10.824099906694135 17.901396520399842 2.422791830447223 0 0 0
251 1 13.269092322522747 18.831079169821606 0.7704586082614356 0 0 0
294 1 17.887690296953128 17.455734625422345 3.1530911914274333 0 0 0
300 1 19.27688871350211 18.99613784597863 1.5106776545529612 0 0 0
74 1 22.417545775724914 16.090274645484307 1.210284822791266 0 0 0
295 1 24.294788926435746 17.917593189236456 2.525943950827242 0 0 0
247 1 0.3009103801967478 19.582302912563136 0.7649610369822013 0 0 0
297 1 1.7506882199745581 20.913201703313078 2.5815234757942442 0 0 0
288 1 6.274362321152854 19.563814979687052 1.1130131247647121 0 0 0
298 1 7.946758505828864 21.01533130300738 2.605917099904792 0 0 0
299 1 14.50097909100983 20.496986481097146 2.7840891557836698 0 0 0
308 1 15.964283044554174 22.328232860789008 1.1775044180893648 0 0 0
301 1 20.7190646705159 20.83593867056237 2.68882780366736 0 0 0
261 1 22.4594789519184 22.35617146799951 1.2378366450342515 0 0 0
263 1 3.132709626159574 22.792103578880486 1.033828328838775 0 0 0
303 1 4.801003661615089 24.189403635258756 2.7460418084775626 0 0 0
255 1 9.956071321894347 22.588006304691653 1.2894610442462218 0 0 0
306 1 11.42741113658325 24.335923331682224 2.685160169232091 0 0 0
310 1 17.698618929077067 24.075104561406363 2.5639522404631117 0 0 0
312 1 24.097044993617427 24.012718599260218 2.6272771643433614 0 0 0
269 1 0.07439051017724922 25.833974613994123 1.1801322105422984 0 0 0
313 1 1.800787705796063 27.226648869060007 2.846042843789629 0 0 0
272 1 6.476013064297225 25.63121990431422 1.2126297499937941 0 0 0
314 1 7.931953211812406 27.486980164397984 2.8355270115091735 0 0 0
275 1 13.242254800358927 25.893829191213882 1.286931901490669 0 0 0
315 1 14.741409496572562 27.619207055657043 2.934759228830177 0 0 0
311 1 19.257713181644625 25.58363902526188 0.8883468950457912 0 0 0
316 1 21.14246521063405 27.202150686623767 2.4230406156352373 0 0 0
951 1 0.4701140009371169 31.23463739557444 2.225179769048551 1 -1 1
271 1 3.7092729777928004 29.097246140414825 1.4480671620436547 0 0 0
318 1 4.978793350500835 30.81775300285375 2.890033031839536 0 0 0
319 1 9.971625823482908 28.91368762664785 1.1355023482268398 0 0 0
322 1 11.51813353344478 30.375584085470273 2.955148251578769 0 0 0
324 1 15.999756573781927 28.8637598634132 1.0734642924784372 0 0 0
325 1 17.583911847305874 30.25777527419484 2.6090859384890495 0 0 0
279 1 22.456577029865144 29.160706243432983 0.9178584022013287 0 0 0
328 1 23.882065638161414 30.58415375788737 2.384906185466622 0 0 0
16 1 3.120287955018323 0.35724267270260424 4.297330075292165 0 0 0
119 1 4.557342796056489 1.9039277839414805 5.858923402109691 0 0 0
220 1 9.998173406195214 0.142031226814918 4.267835053114714 0 0 0
121 1 11.827094292416625 1.8549135607924425 5.866327636441213 0 0 0
122 1 17.411786563517797 1.6016233579624921 5.807414863579689 0 0 0
91 1 19.154820846049223 3.166272774529657 4.446869681249358 0 0 0
123 1 24.197404582984177 1.5786657470816756 5.73637532920904 0 0 0
124 1 1.2968642358496363 4.7822612785521885 5.641740016699015 0 0 0
125 1 6.29894872299991 3.4762689267023066 4.43041891620417 0 0 0
126 1 8.057456073305582 4.936220843781722 5.974310064747584 0 0 0
90 1 13.230355628546636 3.275103662279584 3.9344202363119924 0 0 0
127 1 14.590421141258552 4.694235862153585 5.722910096570461 0 0 0
129 1 20.54493261608113 5.024464391210561 5.9923774446974045 0 0 0
80 1 25.34629135671805 3.308148254155898 3.8045381736777117 -1 0 0
85 1 3.2782793265521706 6.644854879816179 4.642949389367993 0 0 0
133 1 4.887266684739905 8.189622004550722 6.213450990300927 0 0 0
134 1 9.728687063746278 6.617902850858097 4.035265283685576 0 0 0
135 1 11.314403720357399 7.9958763788394105 5.749459465670271 0 0 0
136 1 15.994271673911648 6.556581217440227 4.061558998634566 0 0 0
137 1 18.719900808353287 9.231313107693346 4.459011122273869 0 0 0
138 1 17.265393629506452 7.899735654714777 6.046918047237885 0 0 0
985 1 25.119307516215073 9.150290729309788 3.911246172722074 -1 1 2
130 1 22.325621047747568 6.640230395938289 4.130429006210989 0 0 0
139 1 24.149195068603976 8.035397250708 5.7580775015891446 0 0 0
132 1 0.20837031059973998 9.671373674572711 3.923036025499937 0 0 0
140 1 1.4827395046292118 11.597976390126446 5.487297084004923 0 0 0
143 1 6.5106873524168645 9.646625180741312 3.999041246741432 0 0 0
144 1 8.161979264711961 11.226665103384951 5.377448512720216 0 0 0
99 1 12.796438748561323 9.717891817739995 3.8888472257588607 0 0 0
146 1 15.806802894500038 12.692545179598334 4.598862424071001 0 0 0
147 1 14.18438172503288 11.071840519938135 5.930658032481709 0 0 0
107 1 22.162507373569376 12.659168682792188 4.892702388463903 0 0 0
148 1 20.400065717223097 10.79451568231103 5.730507279518132 0 0 0
982 1 0.21188386789439972 14.252055777668515 6.273503974177948 1 -2 1
141 1 3.1998965283265326 12.904712436714693 3.7886742351308094 0 0 0
150 1 4.533986285537071 14.691122871919557 5.5289774396614435 0 0 0
142 1 9.50372717969322 13.030810943153298 3.995960331899573 0 0 0
151 1 10.844389818052 14.488680745347061 5.680204651838838 0 0 0
153 1 17.59394695467043 14.637191826044411 5.899346074821586 0 0 0
154 1 23.92950065275356 14.816579176044302 5.966313628274068 0 0 0
188 1 0.10943850867538427 16.100672133857934 4.255838516645238 0 0 0
329 1 1.3793252626106267 18.044674595531134 5.791280722022623 0 0 0
241 1 6.0843844193085586 16.2207310633486 4.422668896332929 0 0 0
332 1 7.8743992277161805 17.875821674678164 5.752889960030642 0 0 0
397 1 12.463973878401555 16.312680144737186 4.195807100521868 0 0 0
293 1 15.90740655334715 19.08418873689738 4.793303494581497 0 0 0
334 1 14.073445065551823 17.605562134522025 6.03281172856753 0 0 0
190 1 19.45994847623073 16.09634162870782 4.870123164121838 0 0 0
335 1 20.774099141890666 18.015661239625402 6.003606148505232 0 0 0
296 1 22.399127137734705 19.10645099784253 3.8982928150532876 0 0 0
290 1 3.2979836122035087 19.39831821690585 4.0715614347878 0 0 0
337 1 4.767970097035363 21.106372879507788 6.159700063615712 0 0 0
333 1 9.259126166753077 19.49371829402297 4.23530181343011 0 0 0
339 1 11.20583028469022 20.995402774181933 5.7865413672671 0 0 0
341 1 17.656964339181155 21.022555033006917 5.91712690964831 0 0 0
342 1 24.02083028431266 20.950431047555888 5.282572532416226 0 0 0
302 1 0.38489116748394303 22.559193488131733 4.075002782598037 0 0 0
343 1 1.9107740024913955 24.068741277523444 5.893060137476169 0 0 0
304 1 6.247410351352872 22.529743325474442 4.243143665454091 0 0 0
346 1 8.177764016754896 23.91866675398842 5.837755387971106 0 0 0
305 1 12.961782625043256 22.464661968225087 4.200155612815021 0 0 0
347 1 14.193671537809223 24.245012466813407 6.068467450371997 0 0 0
309 1 16.05769905862984 25.558137578034916 4.337677911688933 0 0 0
340 1 19.175208215148107 22.494580068041863 4.1404178995589795 0 0 0
349 1 22.251011850381726 25.54659504096452 4.542263040503588 0 0 0
348 1 20.77623845513875 23.832754606613044 5.768817389138965 0 0 0
344 1 3.233414235571224 25.634418975463177 4.487829730890585 0 0 0
351 1 5.117678856700727 27.325195802261355 5.634502775953398 0 0 0
307 1 9.695081778309337 25.768175273639898 4.5483847074614765 0 0 0
353 1 11.4093240889507 27.458347778353065 6.30238520498072 0 0 0
321 1 13.034919029324488 28.72301009875187 4.689043127445494 0 0 0
355 1 17.633755288619756 27.30368321382597 5.706689285582201 0 0 0
357 1 24.348258594734308 27.17860700899339 5.792255876364196 0 0 0
358 1 1.954103824674744 30.4379815044935 5.857958148164234 0 0 0
1562 1 0.07588408362185634 29.065246119691302 4.11176654404156 1 0 0
359 1 6.607499183568019 29.375427174667678 4.365719026402342 0 0 0
360 1 8.325128483879288 30.683785696470906 5.801513641895784 0 0 0
361 1 14.461722771156133 30.59652963462272 5.7491499845424645 0 0 0
210 1 16.189153219706863 31.796115907124182 4.0772431190598155 0 -1 0
326 1 19.474440266034684 28.916968080507054 4.367863053273065 0 0 0
363 1 20.8272773590419 30.44254709400004 5.980032486375205 0 0 0
399 1 22.380172039344902 31.897300691111376 4.295826752483638 0 -1 0
156 1 1.9774009212068626 1.7131002564473745 9.049869035237291 0 0 0
45 1 6.4243741739294284 0.2824094500426103 7.000189199839365 0 0 0
159 1 7.973255890287886 1.9126784222128643 8.9346323166718 0 0 0
186 1 13.307614906107482 0.2107965182168004 7.717159744546192 0 0 0
162 1 14.712476087416375 1.784347509771789 9.314882043043609 0 0 0
165 1 19.21789119760252 0.17763169483851335 7.378111950102531 0 0 0
164 1 20.755767764219055 1.7913762297107252 9.149331694724395 0 0 0
1138 1 24.769524683513325 2.451023380579804 9.557866988978962 -1 0 -3
157 1 3.106579080875839 3.4702907087592774 7.41523326109134 0 0 0
166 1 4.6980226609587055 5.237071108264329 9.390864344322047 0 0 0
168 1 9.956880367112163 3.2882892563679906 7.227832140132839 0 0 0
169 1 11.20674780871627 4.57127224735608 9.008232874556175 0 0 0
170 1 12.931583118038713 6.084373244792993 7.2579028498450775 0 0 0
128 1 16.126910222589967 3.513965665053107 7.588026986177968 0 0 0
171 1 17.590040207074875 4.861812674764811 9.245028337534357 0 0 0
131 1 22.468470546161196 3.4839792129187823 7.5372453340497705 0 0 0
182 1 25.335774930068805 6.304763846994122 7.363422824123838 -1 0 0
172 1 23.698764194289087 5.043460169740572 9.256483814376484 0 0 0
173 1 1.4240049960499255 8.189527425054639 8.649437206046635 0 0 0
174 1 6.484422722243422 6.515925522028978 7.575731929964923 0 0 0
176 1 8.1737629513421 8.034950422035077 9.044600714622321 0 0 0
145 1 9.55024507886198 9.569279842711785 7.118160081402545 0 0 0
178 1 15.871248395536883 9.522240125461748 7.514115398781131 0 0 0
179 1 14.113344597182348 8.209063380007422 9.009655746449148 0 0 0
180 1 19.127397368847042 6.5921345413511645 7.710769969638259 0 0 0
181 1 20.500283747794217 8.643680283242896 9.156195889707428 0 0 0
183 1 3.0251526836088485 9.921326358835753 7.2324416080464635 0 0 0
167 1 6.112934335974925 12.705807633274341 6.743587164102224 0 0 0
184 1 4.781964756947165 11.424630308026464 8.621796101610885 0 0 0
152 1 10.840699386867401 11.354091568178088 8.836462784058407 0 0 0
120 1 17.533995758528086 11.441962806771999 8.909797419914714 0 0 0
113 1 22.392895041675786 9.722268193180781 7.3641448243515955 0 0 0
158 1 23.930956602991852 11.461977024138509 9.024452742002604 0 0 0
155 1 1.9384868706866836 14.34232231165727 8.573243027556405 0 0 0
163 1 7.847507547804046 14.461989498507197 8.2568617326487 0 0 0
161 1 12.553957013158747 13.000402895341814 7.263838309786914 0 0 0
117 1 14.441227699413748 14.845818716006118 9.044654970945063 0 0 0
32 1 19.206643195090958 13.063914620233895 7.555082360166256 0 0 0
38 1 20.858916676432077 14.665077981544743 9.114294042987744 0 0 0
232 1 3.0248744281842246 16.302377784590817 7.179597969325105 0 0 0
364 1 4.522453235963264 17.798585357006004 9.008836159763396 0 0 0
390 1 9.657877615957327 16.37674407465557 7.03419615800465 0 0 0
366 1 10.986568798348086 17.910202580368342 8.866727217024982 0 0 0
391 1 16.080660727829645 16.255892287260394 7.576879219453187 0 0 0
368 1 17.89404885053301 17.87372442137407 9.056928285340048 0 0 0
323 1 22.331509735574247 16.194356500738678 7.574511076899657 0 0 0
371 1 24.061236156932313 17.772172090606823 9.250618921571364 0 0 0
372 1 1.3755987493839439 21.020417924555176 9.148291044106584 0 0 0
374 1 6.217671946742468 19.538999204344478 7.792388529847133 0 0 0
376 1 8.14109615447011 20.90791691439226 9.143169145344793 0 0 0
377 1 12.703519206352166 19.438490551385136 7.212397616849653 0 0 0
379 1 14.253365814807733 21.105749633530756 8.906423709002391 0 0 0
369 1 19.18010784689221 19.523276687013187 7.3767211374518675 0 0 0
381 1 20.99105495972687 20.991531888836143 8.756478810998908 0 0 0
330 1 25.197749440285307 19.51946970553538 7.674606463628162 -1 0 0
375 1 3.512078910682313 22.702232909591366 8.046820647917668 0 0 0
365 1 5.19528339679917 24.573515362405445 9.363895571660999 0 0 0
345 1 6.634564775270412 25.555376189996046 7.211841632465091 0 0 0
338 1 9.647005773035039 22.442211718152322 7.694986113740278 0 0 0
382 1 11.137460417718875 24.140319394452256 9.140232885171496 0 0 0
373 1 16.13120550465035 22.761099717309776 7.5153896967785405 0 0 0
378 1 17.61785418204439 24.068214035452442 9.123795427938134 0 0 0
383 1 22.575843038759842 22.496521628035758 7.154574598579456 0 0 0
385 1 24.273362673352857 24.115609751311673 8.837150811349684 0 0 0
384 1 0.4653088144599586 25.769867781664722 7.441378249166089 0 0 0
380 1 2.080073446352046 27.162998352038514 9.09177998972617 0 0 0
370 1 8.05737146917053 27.60450483879601 8.905491748371352 0 0 0
352 1 12.808350548649118 25.81069126984255 8.07844546172537 0 0 0
367 1 14.633409553659268 27.49097204976698 9.563611977431735 0 0 0
336 1 19.080184700704972 25.64997829519769 7.30711541173935 0 0 0
327 1 20.765248783929923 27.43057072865458 8.9722470646763 0 0 0
356 1 22.775080119223535 28.689115589584418 7.4509078732551846 0 0 0
393 1 0.23839814270154497 31.863786193215 7.259976610741566 0 -1 0
350 1 3.5742776280365254 28.98632712906872 7.307107700288189 0 0 0
320 1 4.901575118317492 30.962237584372843 9.069733870015032 0 0 0
354 1 9.857731981920871 29.25652438120629 7.440890905718232 0 0 0
291 1 11.5658968194377 30.80573930959531 9.248107093843386 0 0 0
362 1 16.099872943616486 29.119548790091187 7.511309321998373 0 0 0
244 1 17.726636364910487 30.373470044721074 8.905846124209631 0 0 0
236 1 24.218344709321894 30.117591705300278 9.13060600530895 0 0 0
487 1 3.301548341706208 0.25606842071967073 10.801644545389223 0 0 0
407 1 4.695281697059116 1.901582015726838 12.557769938637534 0 0 0
197 1 9.682687496509033 0.509320830650513 10.622803258672183 0 0 0
408 1 11.16713846682013 1.8187166481936166 12.363047368433271 0 0 0
523 1 16.145809113395224 0.19382315863061503 10.723100714094256 0 0 0
411 1 17.52655500557802 2.0989320422714726 12.029241579297837 0 0 0
400 1 22.53148753001424 0.05249116768113027 10.503562886815452 0 0 0
414 1 24.170446924749935 1.779433878444463 12.185608318061165 0 0 0
192 1 0.17871337802060497 3.3285799694142013 10.629332276753527 0 0 0
416 1 1.6412731033782195 4.8223843659371814 12.225333601471874 0 0 0
71 1 5.970756459815005 3.218509027921505 10.569042427445135 0 0 0
417 1 7.629937398141647 4.710957936282443 12.013311451772 0 0 0
109 1 12.87791525341409 3.3007785593914574 10.505015148499718 0 0 0
419 1 14.185746173302814 4.859689892066365 12.217786786504844 0 0 0
596 1 19.212750458545017 3.451511330037771 10.74838995851743 0 0 0
421 1 20.789394631117947 5.494263820541607 12.177964490900079 0 0 0
595 1 2.8654420823744666 6.771264717534927 10.7634421704204 0 0 0
422 1 4.911676085063172 7.92450723597665 12.077878021105596 0 0 0
199 1 9.428962808516864 6.45409599061775 10.582865996257203 0 0 0
195 1 6.454111344261495 9.447760221463522 10.345734029772759 0 0 0
424 1 10.883170225333206 8.079473151630468 12.395180688327702 0 0 0
198 1 15.859461849527458 6.509812977593121 10.581049197759393 0 0 0
426 1 17.28195327806824 8.375345355962681 12.09761803858758 0 0 0
21 1 22.067440105654637 6.952491300453523 10.469867779887078 0 0 0
430 1 23.916186293985156 7.926541128212986 12.046274261584193 0 0 0
431 1 1.7743798300834723 11.25399321053055 12.01082783441518 0 0 0
1061 1 0.08960372102112685 9.687563894451918 10.698556707560686 0 -1 -2
432 1 8.05846840273577 11.201443424754146 11.71202937001992 0 0 0
10 1 12.33415833678451 9.863725780286554 10.560503083424225 0 0 0
202 1 15.75868757878977 12.738011342287834 10.623478053532416 0 0 0
435 1 13.931632066722091 11.430577360160836 12.4108279988974 0 0 0
590 1 18.858789120808527 10.230400538357138 10.767447263981056 0 0 0
436 1 20.681520864899767 11.65368289835076 12.204340457289252 0 0 0
194 1 25.36980593011491 9.759994916037849 10.568361867767166 -1 0 0
118 1 3.2682564496817577 12.785412753943655 10.509492651214392 0 0 0
185 1 6.192431158392026 15.784228718479191 10.203728215258431 0 0 0
439 1 4.831868308271689 14.35952603939322 12.280464053718006 0 0 0
189 1 9.233097290839817 13.031527367064195 10.200144014525454 0 0 0
440 1 11.05467956748891 14.71914087169122 11.913366136453028 0 0 0
442 1 17.3698002679214 14.559653121912746 12.082554362328795 0 0 0
200 1 22.330952877063744 12.953229064061183 10.620823032238748 0 0 0
444 1 24.343186537472935 14.603135433842237 12.04541317150119 0 0 0
44 1 0.33808918242890323 16.102929993431765 10.361877688340646 0 0 0
598 1 1.5900455579568298 17.688530473549797 12.232572502544235 0 0 0
600 1 7.572640769328158 17.524052227820228 12.007176865514278 0 0 0
398 1 12.53959696632666 16.66110763107217 10.505388885411307 0 0 0
601 1 14.356826392415911 17.954393609483468 12.102573542736755 0 0 0
796 1 19.459984944027767 16.251431086365415 10.685696799609298 0 0 0
602 1 21.024572535982347 17.96365856201794 12.247983113912618 0 0 0
207 1 2.9085702826984754 19.386192367327332 10.549355725727173 0 0 0
604 1 4.705696016422484 21.05220815630556 11.992968906906444 0 0 0
787 1 9.518527805949962 19.471602761119932 10.71922094161979 0 0 0
605 1 11.108774271484858 20.74573075967026 12.249843616285625 0 0 0
405 1 16.020651749233288 19.363651558966033 10.488929593514426 0 0 0
607 1 17.411498180976693 21.15071343684138 12.086325059672617 0 0 0
795 1 22.580969733798963 19.47245128764991 10.80059246316276 0 0 0
609 1 24.180579729529345 20.9189231356398 12.324744945841399 0 0 0
1564 1 25.457597125691276 22.19144914795215 10.398535244236353 1 -1 1
784 1 0.282886617810769 22.764366835714455 10.887556467020545 0 0 0
610 1 1.8383102330020171 24.39548372663988 12.479622205759208 0 0 0
793 1 6.370705084284688 22.52322808745071 10.689162218303974 0 0 0
612 1 8.000439139034109 24.15762440738711 12.382320439807621 0 0 0
718 1 12.80803552375156 22.50339349976489 11.053832715123995 0 0 0
614 1 14.445944502994113 24.1082142061379 12.302315074332034 0 0 0
386 1 19.273772188892885 22.427739565292534 10.582313334776691 0 0 0
616 1 20.765711806333297 24.124766056562642 12.172030791798989 0 0 0
782 1 0.21542713532123658 28.60845324749132 10.652702900270414 0 0 0
672 1 3.4505173687492827 26.016767105640035 10.942332538800624 0 0 0
619 1 4.95948234669171 27.511266781379966 12.50727764289803 0 0 0
1 1 9.504000142718175 25.805668534785582 10.648934947113695 0 0 0
621 1 11.118868660128692 27.41464931521387 12.319547374105602 0 0 0
753 1 16.077951009610803 25.662722481025845 10.798586604259704 0 0 0
623 1 17.71450560445018 27.38642329996886 12.398759311749167 0 0 0
667 1 22.516916402207862 25.620108084928106 10.699639325375957 0 0 0
624 1 24.3193184365072 27.20728193515115 12.416589899352095 0 0 0
625 1 1.7597317854193464 30.463217152469454 12.311157087987741 0 0 0
396 1 6.5399637024170225 29.076403271491706 10.629412602228962 0 0 0
626 1 8.029816504604 30.596434696266655 12.344016459086808 0 0 0
792 1 12.837054676662783 29.057863221308793 10.780497941547246 0 0 0
628 1 14.555457591083554 30.669400774110578 12.287474852966108 0 0 0
629 1 21.067252034385252 30.333247862617462 12.275223806591939 0 0 0
786 1 19.29413437044576 28.882071315001042 10.745841601862498 0 0 0
446 1 1.4057656755573305 1.6586115400516444 15.645450552957271 0 0 0
448 1 7.921574655008359 1.8618482512024392 15.72653573493997 0 0 0
525 1 6.458566761846521 0.19520741190414498 14.056390214290673 0 0 0
449 1 14.520806893102465 1.68750438889711 15.557196739118663 0 0 0
593 1 12.938098583114018 0.17780641649387272 13.967868983503328 0 0 0
587 1 19.542220567467027 0.49102209756669146 13.379373481854312 0 0 0
450 1 21.066556049604678 1.935308303096354 15.250012181535723 0 0 0
406 1 2.9001031342927304 3.4201739351904967 14.2480756103696 0 0 0
454 1 4.773174516572009 5.060308037541678 15.586663888791547 0 0 0
455 1 9.375522103112578 3.268834070538571 13.856149011309704 0 0 0
418 1 6.444411045373706 6.308685591093771 13.834945245516069 0 0 0
456 1 11.146836317189365 4.751144668975678 15.59803170794773 0 0 0
410 1 15.87292904321959 3.371624074272865 13.913229972518586 0 0 0
457 1 12.7504597043637 6.369135124051318 13.7559436036427 0 0 0
458 1 17.375391407601565 5.049680159492171 15.43994561693505 0 0 0
452 1 22.274746572030008 3.590298492779152 13.653607863905073 0 0 0
461 1 23.831314921342152 4.793454657363174 15.254746307969823 0 0 0
453 1 25.34806179540343 6.182425765945938 13.592308359481553 -1 0 0
462 1 1.433622996659441 7.860618115472512 15.024454476913203 0 0 0
471 1 3.4329813762265244 9.446990475209976 13.421820213571136 0 0 0
464 1 8.389918321239906 7.903242531292803 15.585073344144059 0 0 0
466 1 14.256778552993811 7.873219713494861 15.488826233372414 0 0 0
460 1 18.921980801822684 6.762619814975825 13.734384210316307 0 0 0
469 1 20.839668718880322 8.530174467825708 15.272263121543572 0 0 0
473 1 4.939980568931774 10.833644488706614 15.154686415386742 0 0 0
423 1 9.298099866751341 9.867384829845967 13.650619337130275 0 0 0
482 1 6.470893391037257 12.496012491435728 13.400403483741858 0 0 0
475 1 11.223427650194635 11.52343276570767 15.270249963638515 0 0 0
427 1 15.698114287136633 9.69618761260985 13.720053154824623 0 0 0
477 1 17.44660036258284 11.668598914485099 15.238069549866264 0 0 0
479 1 24.15081616720697 11.374232107956795 14.9143808060199 0 0 0
470 1 22.53683899046369 9.862687511916763 13.538552394904881 0 0 0
480 1 1.6958103629299996 14.778686905492812 15.316901111643928 0 0 0
445 1 0.4199153162582589 13.014825054737466 13.419620354443673 0 0 0
483 1 7.653077700229271 14.586098190271834 15.25999068922363 0 0 0
413 1 9.213231829817088 15.952265793434764 13.766082845569356 0 0 0
476 1 12.429439087089328 13.351494097003833 13.710845264841215 0 0 0
485 1 14.19705392602465 14.863701996309008 15.370778862074303 0 0 0
488 1 18.873185657704386 13.090016284257027 13.644476178860938 0 0 0
489 1 20.632728547107767 14.610690878211491 15.272606482593982 0 0 0
631 1 4.922026926633967 17.75296054557949 15.33917661888065 0 0 0
662 1 3.3890383438657907 16.212437261074847 13.684616073391341 0 0 0
633 1 10.76303692498641 17.822492376814928 15.215220307529496 0 0 0
790 1 15.90331621201399 16.430742400269978 13.957198909821683 0 0 0
635 1 17.842842070428162 17.714118975675127 15.315452282105436 0 0 0
671 1 22.761967559275842 16.16149744759978 13.699189972041562 0 0 0
637 1 24.09690504565716 17.682769061588942 15.304010627539652 0 0 0
639 1 1.7055696343748843 20.920970833692138 15.544779530859259 0 0 0
638 1 0.14880371788581567 19.31108410489435 13.801424139008319 0 0 0
632 1 6.153248885672917 19.34976839004898 13.56997530712453 0 0 0
641 1 8.060847366122049 20.755066093306887 15.33654575746263 0 0 0
643 1 14.410007702964075 20.72662747890122 15.713702021645108 0 0 0
634 1 12.769375283076448 19.189843391635158 13.726502139851602 0 0 0
647 1 20.651338332697016 21.074140496438474 15.443415209602982 0 0 0
645 1 19.222538308637308 19.61566126287451 13.600990586838206 0 0 0
649 1 5.042812565138741 24.02093955714154 15.760263718294164 0 0 0
603 1 3.482277226478086 22.69037160817812 13.76942793540145 0 0 0
613 1 9.793460146509299 22.450006871248604 13.99863127788685 0 0 0
622 1 12.672087680891854 25.5426567670723 14.020724381056771 0 0 0
650 1 11.163257074131094 23.946987775225338 15.702450953975204 0 0 0
651 1 17.712550006091035 24.101168668717882 15.413619460665013 0 0 0
615 1 16.02174635708129 22.56595455139115 13.976845933927551 0 0 0
652 1 23.890991750706124 23.984552018574746 15.546183320663037 0 0 0
646 1 22.36804162671151 22.601188630910222 13.92770878162688 0 0 0
653 1 2.0002501591394153 27.25495925291282 15.62156072737831 0 0 0
654 1 8.194014175584684 27.671983591391935 15.845132188432572 0 0 0
618 1 6.559009205734015 25.754851466041323 14.105323042426463 0 0 0
657 1 14.579906440409902 27.248758296398783 15.653579142347642 0 0 0
659 1 20.539375680890597 27.474046013951202 15.594507490146585 0 0 0
658 1 19.275872082366494 25.887454163495683 13.804057445898835 0 0 0
661 1 22.306978293838146 28.726075632809177 14.12061659226404 0 0 0
663 1 4.905127890637934 30.553698419670276 15.842528027383615 0 0 0
617 1 3.4761584092078155 29.183514205986967 14.192095966803942 0 0 0
664 1 11.750568633792613 30.418473117790143 15.448822076732654 0 0 0
620 1 9.588473080300643 29.212276037820168 14.019699306218467 0 0 0
668 1 18.084635732691684 30.646919251179504 15.279516946706305 0 0 0
656 1 16.07378820755635 29.195809514480267 13.923048600100138 0 0 0
669 1 24.184186998798154 30.368224330411735 15.898609637888145 0 0 0
636 1 3.1842837461368383 0.1529028544631042 17.161049903312353 0 0 0
491 1 4.900932317719524 1.6714082308635247 18.962550005500148 0 0 0
788 1 9.512835980566118 0.01442811759559795 17.05592422681248 0 0 0
492 1 11.24582389541193 1.972761057840911 18.81649619124454 0 0 0
703 1 16.533016829086005 0.07166618232688535 17.044157277145274 0 0 0
494 1 18.112390036009845 2.1090024307983244 18.478842813627644 0 0 0
496 1 23.8245132109267 1.456668299300176 18.25993844118956 0 0 0
497 1 1.6473581929080274 4.895226609864611 18.64853222460421 0 0 0
499 1 6.447494204416523 3.425206685383816 17.45164011771312 0 0 0
500 1 8.15697458544528 5.556488351260106 18.83348960094216 0 0 0
493 1 12.904800089764898 3.565025894586388 17.274780871866646 0 0 0
503 1 14.41198409429671 5.231972035422614 18.81016024182582 0 0 0
451 1 19.478398857489616 3.5685878089443155 16.759139082078455 0 0 0
505 1 21.136045042501042 5.1358248070292305 18.835953550899205 0 0 0
463 1 3.0900178608720825 6.515035900817451 17.13169856457865 0 0 0
506 1 4.905806487657744 7.980237360773008 18.54245678556895 0 0 0
465 1 10.071733464574178 6.390895529106738 17.25012812168719 0 0 0
508 1 11.32158088451783 8.405512053470707 18.665454097641607 0 0 0
504 1 16.026284859055483 6.692529337117326 17.186268738843346 0 0 0
509 1 17.64477684354814 8.29201153325931 18.450110430920418 0 0 0
459 1 21.985201407474744 6.683201048827949 16.64758755954994 0 0 0
511 1 23.802857288902832 8.107689821058296 18.363300440707164 0 0 0
513 1 1.830493775559346 11.464036724629912 17.928410079929805 0 0 0
514 1 6.4492077971479755 9.612336378376739 16.833459242002363 0 0 0
516 1 8.028137129518319 11.174878850819931 18.265875271081704 0 0 0
467 1 12.767324678572551 9.974693276855762 16.90164582649281 0 0 0
517 1 14.731088509464126 11.530691520933507 18.4343316822956 0 0 0
468 1 19.027356628620332 9.967479357388465 16.84552956899971 0 0 0
520 1 20.540704693705518 11.63492207855322 18.3727373184934 0 0 0
481 1 3.5555602000325384 13.108151576837171 16.382944044548815 0 0 0
522 1 4.947211156420688 14.461192938133733 18.307056459162794 0 0 0
474 1 9.585855748888761 13.186903901499427 16.765082284042762 0 0 0
524 1 11.36364169911782 14.567889246302995 18.560527051957017 0 0 0
478 1 16.019175262416123 13.543081278406854 17.1721679939986 0 0 0
526 1 17.691453270321322 14.960660815845788 19.05870997917689 0 0 0
490 1 22.461680990458557 12.899165437557059 16.625100982977365 0 0 0
527 1 24.18717946499327 14.620972421287918 18.285849062211327 0 0 0