LAMMPS data file via write_data, version 29 Oct 2020, timestep = 200000

800 atoms
1 atom types

-0.04766416095134751 25.50122416095081 xlo xhi
-0.059580201189042725 31.876530201175107 ylo yhi
-0.059580201189042725 31.876530201175107 zlo zhi

Masses

1 18.015

Atoms # atomic

5 1 1.558300497389417 1.0968239335555634 1.6556382471368398 0 0 0
13 1 8.100585184750384 1.2479548539817888 1.6839553131603326 0 0 0
60 1 22.407098642108437 9.508094318678706 0.0766470476839087 0 0 0
21 1 14.475002811671587 1.7718700962624438 1.6813778452272454 0 0 0
19 1 15.837618365294155 0.15643637560225987 2.88669429415373 0 0 0
29 1 20.578859435709845 1.2410805173044652 1.3803363742099009 0 0 0
413 1 19.090721953750922 15.57142329838516 3.3556915609569127 0 0 0
8 1 4.990617457744475 4.688345731160637 1.4293222365862193 0 0 0
225 1 12.200623228929379 9.630329114180661 15.819453248826397 0 0 0
16 1 11.34938044893837 4.802741172689623 1.6471317445540252 0 0 0
18 1 12.92315275769748 3.086364898930233 3.446511552428877 0 0 0
51 1 16.04190538798577 6.119127092503019 2.8639456609405665 0 0 0
24 1 17.743778320476885 4.644226738869862 1.6088232901480657 0 0 0
32 1 23.669842250286848 5.0034173284906736 1.5948929489517527 0 0 0
83 1 2.9961613956968463 0.13355335041652136 9.562675747118968 0 0 0
37 1 1.6404592337731234 7.9754597181661815 1.3848092844407829 0 0 0
81 1 25.459720509197027 0.17954009171735577 6.155150002867731 -1 0 0
45 1 7.737880744847024 8.083408391114565 1.6647817626852737 0 0 0
43 1 9.42315499135058 6.065071388939854 2.8582588228302517 0 0 0
53 1 14.564714775734394 7.909685319307095 1.3753003094881209 0 0 0
230 1 21.923966063331285 6.722067379758982 15.72891049560924 0 0 0
61 1 20.76355771115478 7.7909598952061625 1.4283121959511782 0 0 0
58 1 19.039023940760288 9.272608697144786 3.069079038465533 0 0 0
40 1 4.823642306233545 10.60791539086608 1.1684080215769186 0 0 0
42 1 6.257598824948756 9.38285093345621 3.2730248278957546 0 0 0
70 1 9.353875004230641 12.884725088918648 2.962115449265164 0 0 0
48 1 10.995553493269897 11.357529215861893 1.3828486798134336 0 0 0
56 1 17.451855186975095 10.977138930329412 1.2600263781628571 0 0 0
74 1 16.144508133970653 12.44513467116715 3.029738020200914 0 0 0
64 1 24.042748857837083 11.151687028620552 1.3952824886424386 0 0 0
34 1 0.13699595099061737 9.798840941898789 3.051876500719587 0 0 0
199 1 19.066090394923783 12.827250149093588 12.817101447266573 0 0 0
67 1 1.3431042573461043 14.430175981333319 0.9835376980346591 0 0 0
66 1 3.175018676097483 12.721759469773296 2.493090914010705 0 0 0
71 1 7.863877294542754 14.337896101887004 1.3241118899009583 0 0 0
75 1 14.31771625942176 14.062583245529543 1.644247558562035 0 0 0
79 1 20.563917516752092 14.296835168208304 1.3108414714388053 0 0 0
200 1 20.716676692204416 14.426778516360466 14.374720974111385 0 0 0
2 1 0.2829701996409276 3.322587733035913 2.831138903803509 0 0 0
10 1 6.4230899241480754 3.053344826715669 3.044862716211127 0 0 0
7 1 5.0664236494108135 1.821600234335384 4.894669221977842 0 0 0
490 1 16.24424428842635 15.356548966410568 6.8798121463207975 0 0 0
15 1 11.273338680712072 1.5051809559346978 4.992928983207769 0 0 0
601 1 0.21680360643999425 15.86316229612817 15.621030675856751 0 0 0
165 1 6.296873716966365 0.05879654211606905 12.262774904334162 0 0 0
23 1 17.550329749646416 1.5527512445504958 4.762618013207554 0 0 0
108 1 22.120371363561297 3.2293827588014326 6.134936254418317 0 0 0
31 1 23.73244925735684 1.6412644280955402 4.320524969208054 0 0 0
6 1 1.849084784205816 5.121787904255227 4.397575725655556 0 0 0
92 1 9.574714574500852 3.1047747017264458 6.545519289214527 0 0 0
14 1 7.973994456142334 4.589785106273633 4.689579523482026 0 0 0
22 1 14.48462918859085 4.644977140213038 4.703931894519501 0 0 0
26 1 19.28042416034738 3.054536797096734 3.2422426554417356 0 0 0
30 1 20.91753959173542 4.837894935659939 4.858886793609609 0 0 0
35 1 3.537341862314717 6.452548686172679 2.816722153804115 0 0 0
39 1 4.67459849024967 7.870528621912506 4.8546069025010326 0 0 0
116 1 2.8280597110278936 9.586910289830682 5.757603192635756 0 0 0
47 1 11.299341586177166 7.811329090664525 4.383469131937512 0 0 0
50 1 12.85669822286764 9.413120855142292 3.001207161734164 0 0 0
55 1 17.310850155118295 7.735562414315951 4.881932728957577 0 0 0
137 1 19.09920980772477 6.220646051525463 6.49942597454028 0 0 0
59 1 22.51143619402135 6.49406407336331 3.291644627162348 0 0 0
63 1 23.99418361295819 8.1750632329385 4.776646953687194 0 0 0
38 1 1.6362388275105255 11.50682338230817 4.589691697830254 0 0 0
46 1 8.294777991214175 10.70500183952312 4.237143614177657 0 0 0
54 1 14.403957494252321 11.154334367376048 4.542068462754726 0 0 0
157 1 18.990028753118047 12.28156101018727 6.623435283066121 0 0 0
62 1 20.350539126113816 10.86594126312204 4.623489996866263 0 0 0
140 1 22.18138222892292 9.613893271171483 6.319537588124552 0 0 0
68 1 4.845497041113817 14.45187091879773 4.260068108653729 0 0 0
205 1 5.8437192049702835 2.991897984115842 15.8279838730765 0 0 0
149 1 6.496116320756557 12.662267785009888 5.770767168642448 0 0 0
72 1 10.940265670158249 14.326269892021699 5.133937747321184 0 0 0
494 1 22.273714230414008 15.850519870921259 6.478782765475126 0 0 0
76 1 17.60878507419499 13.921970473339577 4.84961825562926 0 0 0
78 1 22.186600090073277 12.613197562877835 2.8972526835690364 0 0 0
80 1 23.79684600426625 14.214194988291789 4.594923700191406 0 0 0
84 1 3.0245975317241265 3.60220741294798 6.24242400750079 0 0 0
85 1 1.4453442161772176 1.592225975200795 7.715159290516635 0 0 0
82 1 25.199469184906178 3.0814456771532384 9.070387049514444 -1 0 0
93 1 7.956241442983499 1.6286415668705827 8.180899697760527 0 0 0
101 1 14.769149238183443 1.3661585292003482 7.7759335864937995 0 0 0
109 1 20.72335680363267 1.3491383356001587 8.056757133068619 0 0 0
12 1 9.46040319195654 3.0751817957481595 0.07359999726481528 0 0 0
115 1 3.1539914376888354 6.414745095534753 9.907942139354502 0 0 0
88 1 4.7380493262152275 4.964052088503963 7.990556999914979 0 0 0
129 1 12.641569803265872 6.246223402174297 5.964012805688607 0 0 0
96 1 11.437690717068929 4.597690207828343 8.146149764266282 0 0 0
100 1 15.981610085005348 3.1880188074378033 6.509620795710598 0 0 0
98 1 13.095905387813495 3.0484348280621245 9.200136485832223 0 0 0
106 1 19.01432096317582 2.9397150706673534 9.712062653875762 0 0 0
104 1 17.471091144895503 4.600257289031707 8.18974138592014 0 0 0
112 1 23.790489950146444 4.854454548617164 7.687258161722661 0 0 0
117 1 1.8109931918242446 7.858405577686424 7.937140961703877 0 0 0
121 1 6.513573237936603 6.317517571721289 6.0504261397322905 0 0 0
125 1 8.247339208352534 8.05174800264504 7.8088243453939326 0 0 0
132 1 15.999168672742337 9.39304404265858 6.414641727339963 0 0 0
133 1 14.414189261076077 7.7307970888661535 7.595969555318727 0 0 0
130 1 12.662431592857686 9.484644066895088 9.154610011193132 0 0 0
141 1 20.53862693365197 7.853689577842741 8.029390285621364 0 0 0
113 1 0.2269636755932311 6.540947507023357 6.180737627435291 0 0 0
120 1 4.942006586953145 10.890863956255329 7.248643914695315 0 0 0
124 1 10.171287100604394 9.39400085629978 6.291541144007239 0 0 0
128 1 11.383502571529887 11.487260087304334 7.6858216062407445 0 0 0
153 1 12.941746808505277 12.965611128763099 6.236965817345831 0 0 0
136 1 17.25081025565281 10.992239663783199 8.30088361689452 0 0 0
158 1 22.01893625531904 12.422917509391088 10.157440108466917 0 0 0
144 1 23.4315753559163 11.223788136844066 8.180562838735806 0 0 0
209 1 12.743824899703277 3.0740835077968383 15.764021974230559 0 0 0
145 1 0.021694639480173805 12.725748767235029 6.502861701476673 0 0 0
147 1 1.6804280046136624 14.441647645766055 7.586687081345568 0 0 0
151 1 7.351518834100379 14.23614310708936 7.750140468370125 0 0 0
190 1 22.249088667939773 9.489015973492602 12.626358883271458 0 0 0
11 1 9.746961549785096 -0.04035470897783 3.507492169051198 0 0 0
155 1 14.251725490166931 14.444273099347935 8.400875000588467 0 0 0
159 1 20.609486045143804 13.97262542219487 8.091699049048453 0 0 0
198 1 14.305541002319478 14.607334691250061 14.305153012532056 0 0 0
233 1 3.1439787954668814 12.549032669083658 15.76849490483835 0 0 0
87 1 4.4317488186298375 1.6786590969219684 11.122674485995029 0 0 0
188 1 17.395150946854315 11.206954557363277 14.170433168432766 0 0 0
95 1 11.694076962267436 1.6296949236086247 11.130071159649692 0 0 0
103 1 17.27306654317357 1.376663362703115 11.07121854431773 0 0 0
111 1 24.051755572560893 1.3537291945001366 11.000251550462576 0 0 0
86 1 1.1745996270276842 4.554053442265782 10.905712872797015 0 0 0
90 1 6.17157634157874 3.2493946768370017 9.695628687180626 0 0 0
94 1 7.9282880293596385 4.707855794946994 11.237943323986832 0 0 0
102 1 14.454582098441964 4.466117911156152 10.986800067561196 0 0 0
170 1 15.989502226500145 3.287052921962106 12.85001243257124 0 0 0
110 1 20.403013250024692 4.796009234346958 11.255992254814556 0 0 0
139 1 22.18188336942518 6.410125333850772 9.395945105528588 0 0 0
174 1 22.324587000100145 3.257097089858051 12.79928263505145 0 0 0
114 1 0.0872171942885357 9.43817342474411 9.188763899765952 0 0 0
119 1 4.761335812523986 7.957934814047711 11.476840055850689 0 0 0
123 1 9.59781247768137 6.387820588070135 9.300878557422157 0 0 0
127 1 11.18190991332387 7.764387027577224 11.013322326335203 0 0 0
131 1 15.856999118865971 6.326561571939026 9.32714542310131 0 0 0
138 1 18.579845034861954 8.998562216389558 9.724191696924974 0 0 0
135 1 17.12682309520543 7.668344475516156 11.310477164374198 0 0 0
143 1 24.00359528630448 7.803867543544922 11.02193156212925 0 0 0
118 1 1.3602850932145236 11.362808830752353 10.751427646231598 0 0 0
146 1 3.0756886783969963 12.668210531511285 9.054539310092258 0 0 0
150 1 9.37308230664824 12.794180275131795 9.261613741055108 0 0 0
122 1 6.3830987585803705 9.413450202312786 9.264691509886243 0 0 0
126 1 8.03270448912369 10.991876700664585 10.641691244488204 0 0 0
182 1 9.419552705049261 9.336183843836722 12.380625322431243 0 0 0
154 1 15.669721769226483 12.456259924494804 9.863900192528016 0 0 0
134 1 14.048957300763817 10.83721021306128 11.194335866068533 0 0 0
142 1 20.258294278931373 10.560168559816347 10.994389492806151 0 0 0
401 1 25.401666936966222 15.632723362257819 3.0223917500667614 -1 0 0
148 1 4.4084161581160926 14.452796811547136 10.793065440875946 0 0 0
152 1 10.71237595575726 14.25056140446348 10.94413823058995 0 0 0
184 1 10.708689292978145 11.119173046622972 14.097173416686106 0 0 0
156 1 17.455040925102146 14.398920836217084 11.163055881951193 0 0 0
160 1 23.784125206752705 14.578125008625166 11.229955052905167 0 0 0
194 1 1.815567082504664 14.104352421587729 13.834222441462135 0 0 0
163 1 1.8544413967666011 1.488026428914713 14.310361752593028 0 0 0
162 1 2.9824665200806817 3.2434225634244247 12.677395152136304 0 0 0
192 1 23.785579670277976 11.226948337635912 14.284971412667682 0 0 0
167 1 7.844173825574804 1.6874007996644684 14.195242705560865 0 0 0
28 1 22.393997121678034 3.1292772765241845 0.014057435477217162 0 0 0
197 1 12.42019746254157 12.763803277853976 12.526154794578693 0 0 0
171 1 14.576512410777216 1.559200929616121 14.575104147980994 0 0 0
196 1 7.718553888346825 14.223897412825073 13.518164212610547 0 0 0
175 1 20.613633108317707 1.5662224723258493 14.40972284789241 0 0 0
173 1 19.077326911775593 -0.04587422150286301 12.6403117467877 0 0 0
164 1 4.572285031268261 5.008398852555824 14.651008861542307 0 0 0
195 1 5.9857518992041 12.469508835496912 12.006434892329711 0 0 0
166 1 9.825772766290363 3.0616069579605703 12.490185391861766 0 0 0
168 1 11.07436393223624 4.343279858048826 14.268768107795111 0 0 0
185 1 12.797437962525143 5.854835784458851 12.52022539550615 0 0 0
172 1 17.45113816679953 4.6335236062554666 14.505321772103038 0 0 0
176 1 23.553624359934084 4.814985615740049 14.516765551427934 0 0 0
179 1 1.3016105601343062 7.9578403311294235 13.910338815881111 0 0 0
181 1 6.356860947977551 6.285947391229914 12.83772993119433 0 0 0
4 1 3.0822549916562596 3.282420678340057 0.10159425873545136 0 0 0
183 1 8.044476143091948 7.803421171141449 14.305098811611918 0 0 0
193 1 25.365920347244547 12.77306431476691 12.569888257481137 -1 0 0
186 1 15.73410146310507 9.289192160197217 12.776176318425893 0 0 0
187 1 13.97799271097119 7.977356337355491 14.2701895267529 0 0 0
189 1 18.9869254888768 6.362078591326521 12.972630079634804 0 0 0
191 1 20.35840997398406 8.411529440748142 14.416580033648263 0 0 0
177 1 25.188963496882764 6.075001339465643 12.625637620298583 -1 0 0
178 1 2.9011232696541356 9.687870875119277 12.4947901529149 0 0 0
180 1 4.6561414115640005 11.189639757331278 13.882725936573586 0 0 0
603 1 6.065167545125354 15.544786456230279 15.463042693758249 0 0 0
169 1 13.173085773700423 -0.012743263681038536 12.979013329759043 0 0 0
409 1 12.919105368403399 15.372984099280027 3.2502831716353757 0 0 0
481 1 -0.011613585521524965 15.86090674211984 9.521226556698037 0 0 0
235 1 9.102728765772213 12.794895967481496 15.459462152955927 0 0 0
493 1 19.31913701874153 15.856580658973717 10.134883940421068 0 0 0
410 1 15.61592074299553 15.722161338900733 0.027184836677878896 0 0 0
201 1 0.057590545257876075 3.1018565289987268 15.888212158683197 0 0 0
105 1 18.888688583943285 -0.053235349574265456 6.259805296773456 0 0 0
217 1 25.222959746894958 9.526704172506163 15.827304008338228 -1 0 0
221 1 6.326580521816998 9.214788309775116 15.604903502043697 0 0 0
486 1 9.171497121400384 15.697394964982209 6.359141516671715 0 0 0
206 1 9.5518598819276 0.28547621697548564 15.881689807570302 0 0 0
226 1 15.722326952677575 6.279841088489371 15.839978382931822 0 0 0
222 1 9.298394279525356 6.224180995734674 15.841793326244574 0 0 0
239 1 22.187209754256898 12.716677617131596 15.879711603203141 0 0 0
44 1 9.351745157226715 9.493510293824313 0.01155482231843763 0 0 0
237 1 15.621655585451778 12.501679660375364 15.882363913377462 0 0 0
244 1 2.7762014120360203 3.193356965537503 19.503260289211838 0 0 0
204 1 4.569546866246112 1.6763157240389965 17.814680637304768 0 0 0
208 1 11.034795036580494 1.5935349727197152 17.620156903927608 0 0 0
20 1 16.028059109790412 3.289358105753817 31.560367634713767 0 0 -1
260 1 15.735780394629932 3.1448566802812703 19.168756571889585 0 0 0
212 1 17.38771779187085 1.8734642307851292 17.286691973501725 0 0 0
400 1 24.255767184678987 14.414540128331232 29.526478903786845 0 0 0
646 1 9.082883589943998 15.712651943686897 19.021759701111097 0 0 0
216 1 24.024825441567565 1.5542923157389976 17.442899041682207 0 0 0
726 1 9.44237283742579 15.78835608240383 25.266232450483276 0 0 0
203 1 1.5186568087378933 4.594135558810158 17.482583760461306 0 0 0
207 1 7.50120590583347 4.482822909893269 17.270778112688053 0 0 0
281 1 6.316890128183973 6.078919078959687 19.09055178367742 0 0 0
211 1 14.05032035575603 4.631402991191666 17.47504465176481 0 0 0
733 1 18.867385696262758 15.712024489217999 28.79567783667449 0 0 0
215 1 20.647225637854653 5.265328937943947 17.435263019853206 0 0 0
220 1 4.785720287705348 7.693090761802845 17.335278751237215 0 0 0
284 1 9.167664965680482 9.63398442737898 18.906414095787238 0 0 0
224 1 10.751116763247088 7.847898437294848 17.652257411563717 0 0 0
329 1 6.614071332212034 0.1665573542908603 25.8152711540942 0 0 0
228 1 17.143365834233087 8.143468517994002 17.354998611618175 0 0 0
292 1 15.561144146931913 9.462962024554107 18.975777012609854 0 0 0
33 1 25.175630964982908 6.383717261075549 31.662875778089788 -1 0 -1
323 1 3.029312123040236 0.1374006048029841 28.72263621313496 0 0 0
232 1 23.770824443659613 7.695122577173075 17.303707263224805 0 0 0
219 1 1.6516276163291579 11.019176902292873 17.268297031424304 0 0 0
223 1 7.929299325071095 10.96668077661651 16.96980367875095 0 0 0
337 1 12.820151050344226 0.04029943058557846 25.51782677629798 0 0 0
69 1 5.984165845706727 12.934786476011572 31.799459021613668 0 0 -1
227 1 13.79646573241182 11.195580736759513 17.667888744212796 0 0 0
231 1 20.53946202464674 11.418458455456284 17.461612052983973 0 0 0
73 1 12.661032430050021 12.781420020043809 31.725707083736772 0 0 -1
49 1 12.665954192418171 6.448348907283595 31.660590549047342 0 0 -1
234 1 4.7059940049341735 14.121538582101364 17.53765791741448 0 0 0
236 1 10.92245097227167 14.480786201332112 17.170934854410046 0 0 0
414 1 22.236578914340917 15.630238826271095 31.434492071539253 0 0 -1
238 1 17.231123120993296 14.321461309090369 17.33995031731361 0 0 0
378 1 19.386452107975515 9.37873460836758 28.458588403794128 0 0 0
240 1 24.197388664895144 14.364899219978408 17.302847052426007 0 0 0
305 1 0.2985461852463821 12.778210710366707 18.675650992818362 0 0 0
245 1 1.2833898643373554 1.4335933525168625 20.899208331981036 0 0 0
242 1 25.390773649904503 3.2558375199805254 22.19272534313984 -1 0 0
253 1 7.792545363493911 1.6366225328061461 20.980210715548477 0 0 0
261 1 14.385038935399788 1.4624566980422573 20.811044636655073 0 0 0
269 1 20.92410403883013 1.7100075725245387 20.50417375407545 0 0 0
266 1 19.337568559785083 3.341619289608203 22.01175964165603 0 0 0
268 1 22.1310608431002 3.3633078040385236 18.909399570891576 0 0 0
273 1 25.201237815745323 5.95278818135715 18.84816266115891 -1 0 0
248 1 4.647360147156507 4.831816279697988 20.840481696571896 0 0 0
252 1 9.245008143965283 3.0421716383817468 19.11173389769515 0 0 0
256 1 11.014513618059677 4.5229686067557235 20.85183790772047 0 0 0
289 1 12.616499499186657 6.1393068851570805 19.01163081265678 0 0 0
264 1 17.23670855139992 4.821199254081047 20.693913242971064 0 0 0
299 1 21.841811341455866 6.453052108168466 21.900322027601163 0 0 0
297 1 18.781718678627747 6.532389777525851 18.990093434248283 0 0 0
272 1 23.686039735620064 4.565235391194991 20.508903046355865 0 0 0
277 1 1.311218739526252 7.629266880320506 20.278846372923763 0 0 0
275 1 2.9659222112159807 6.285058678436182 22.383938692933146 0 0 0
285 1 8.260410790513122 7.671847771121482 20.83889277607546 0 0 0
283 1 9.94050858394524 6.16104507003602 22.502247318209015 0 0 0
293 1 14.121280202237864 7.6418556104880135 20.74274394600192 0 0 0
290 1 12.633347252084242 9.741183298641724 22.15412086832644 0 0 0
298 1 18.886986903132396 9.733976745515077 22.098061912761573 0 0 0
301 1 20.697448389296802 8.29813952938956 20.526401973007594 0 0 0
300 1 22.392885631414075 9.62929190601641 18.794461588345435 0 0 0
276 1 3.308535516642651 9.214019349531544 18.677848605605522 0 0 0
274 1 25.39051376764168 9.639179293052756 21.816869421624546 -1 0 0
280 1 4.813995869049846 10.599257410660428 20.408945327813115 0 0 0
310 1 9.455127011995309 12.950113842460219 22.017696774844854 0 0 0
288 1 11.091026741447573 11.288341324976722 20.524390870795333 0 0 0
313 1 12.295806685314593 13.114535970173597 18.966578525068606 0 0 0
296 1 17.30784479286578 11.433359240416348 20.492243317370935 0 0 0
314 1 15.881877277598967 13.305927516385308 22.4243667978531 0 0 0
304 1 24.005214729556982 11.139293020316208 20.168885101427417 0 0 0
307 1 1.5731383787225341 14.540271430962765 20.570994381969587 0 0 0
306 1 3.430989171679783 12.871441934065968 21.635948747718682 0 0 0
309 1 6.343345431961215 12.259927921522722 18.656453745016655 0 0 0
311 1 7.5243225786918195 14.347879373628066 20.514142072421304 0 0 0
57 1 19.03177656790821 6.539002952884426 31.686398075743266 0 0 -1
315 1 14.061616561805607 14.625199710420329 20.624817116275786 0 0 0
382 1 21.01493976938079 10.77038405767801 30.051831927983205 0 0 0
202 1 3.1772366921811233 0.03248241037713902 16.06034847429604 0 0 0
317 1 18.732973360636954 12.853325159955677 18.900277210474034 0 0 0
319 1 20.490719530096356 14.37244694926567 20.52674498344123 0 0 0
318 1 22.31780437740816 12.662669196554244 21.877858412719743 0 0 0
247 1 4.7749874911320696 1.4463769762595555 24.212920598694712 0 0 0
255 1 11.113400117214022 1.7474220831824077 24.067015924196948 0 0 0
258 1 12.770682283173194 3.3380610124237737 22.526874894754943 0 0 0
263 1 17.97295460927313 1.8835243361477696 23.729707334173394 0 0 0
348 1 22.669979031944138 3.004915148092916 25.544785910870516 0 0 0
271 1 23.6792449706276 1.2318563218282437 23.511026491297134 0 0 0
246 1 1.5247356846074034 4.666903421423427 23.899223470403193 0 0 0
324 1 2.9146143429564124 3.0448781945926604 25.525433221063267 0 0 0
250 1 6.319970138924445 3.198384576644424 22.703553544528365 0 0 0
254 1 8.027704920279215 5.327489929401199 24.083991981434945 0 0 0
332 1 9.3426350940321 3.2966832040271137 25.693148905356903 0 0 0
369 1 12.465468860925817 6.318829662083266 25.44262528547321 0 0 0
262 1 14.276327258690626 5.003304986524338 24.06068644459874 0 0 0
291 1 15.888979614424276 6.46237087107402 22.438453144021324 0 0 0
270 1 20.99352207451389 4.907255936836323 24.086453415381364 0 0 0
353 1 25.481792011016843 6.324436099925832 25.054212894948584 -1 0 0
279 1 4.779856683914958 7.74876397896288 23.79325634805506 0 0 0
364 1 9.729353708417745 9.664856666902171 25.23580740840877 0 0 0
287 1 11.189079748675482 8.173604411417937 23.91612806402803 0 0 0
295 1 17.505818910115437 8.06021978985807 23.701004290930197 0 0 0
372 1 16.179426115239977 9.576032813600536 25.428788416980527 0 0 0
303 1 23.65761116208966 7.876086293868465 23.61428294489883 0 0 0
380 1 22.22129725069984 9.669962930773947 25.002209415931887 0 0 0
278 1 1.7076842622384631 11.229005934907596 23.179836663199815 0 0 0
282 1 6.321681981856748 9.37919641323232 22.086003911123385 0 0 0
356 1 3.060268325705466 9.515381610131477 24.86914393771906 0 0 0
286 1 7.89899902399062 10.940143328534191 23.51695725892143 0 0 0
294 1 14.595105827144648 11.295592668078204 23.685241654440226 0 0 0
393 1 12.850122573329466 12.703897909789314 25.426151379773867 0 0 0
397 1 18.962739840270622 12.838397372979756 25.77008901659042 0 0 0
302 1 20.3987896449025 11.399716792872448 23.623710186417266 0 0 0
385 1 0.15839767094991059 12.92888591084607 25.269891066254203 0 0 0
308 1 4.8212190731775415 14.223101665842126 23.55809639570491 0 0 0
210 1 16.008381819103533 -0.029699291281303886 15.981884846370729 0 0 0
312 1 11.231097613765531 14.32968902333673 23.81130816237386 0 0 0
249 1 6.331031389846739 -0.02831645150807939 19.311770628613278 0 0 0
316 1 17.552447674244767 14.722059522512517 24.308982380651372 0 0 0
320 1 24.041540895732076 14.3827179935623 23.53691065423816 0 0 0
325 1 1.0783092045102538 1.4661440010910873 27.046618218493407 0 0 0
52 1 15.72241013854981 9.578416011750942 31.481717904442824 0 0 -1
333 1 8.605060176575305 1.5039506590746867 27.824877569324702 0 0 0
321 1 25.194135522044114 0.020876715710635485 25.438748237144615 -1 0 0
396 1 17.10028319508453 13.96866571618124 30.347933100258288 0 0 0
341 1 14.687271752175814 1.6616224281469105 27.050912495102928 0 0 0
340 1 16.151450860303434 3.2672178050291145 25.26224931196567 0 0 0
349 1 20.97112114783102 1.6331204385719873 27.366176168750332 0 0 0
374 1 14.094061346863535 11.259104238328321 30.015105143087087 0 0 0
328 1 5.091736571954205 4.14058512046981 26.71420355785853 0 0 0
330 1 6.4383891412253655 3.277424554582947 28.744996845888252 0 0 0
336 1 11.290925363612327 4.750261816521367 27.2975006197531 0 0 0
344 1 17.572793926394297 4.677812444908262 26.95899184742945 0 0 0
377 1 19.18066838312584 6.334162988305833 25.311634871755366 0 0 0
322 1 25.399846535395554 2.9326686560198927 28.912414578250914 -1 0 0
352 1 24.47382608197919 4.7499464100965705 26.989586737263544 0 0 0
357 1 1.6138938023437186 7.953119183720199 26.516600153418256 0 0 0
354 1 0.011416117881282162 9.750895673598263 28.11301229367159 0 0 0
361 1 6.143733414826858 6.439093692052708 25.83573928204351 0 0 0
355 1 3.223477498202369 6.206701012004826 28.114900170262402 0 0 0
365 1 7.952245692915565 8.144820862217037 26.986560458721538 0 0 0
373 1 14.312090740583745 7.957492089387836 26.863119031759886 0 0 0
371 1 15.884863412589189 6.614103107524611 28.440705571553988 0 0 0
381 1 20.931222561575183 7.708725928013153 26.747642395024382 0 0 0
379 1 22.60787988051471 6.210242828964819 28.48170007127273 0 0 0
360 1 4.560951324083933 11.301155237556845 26.637507059951435 0 0 0
390 1 9.332620680484231 12.882144098382527 29.117644866782452 0 0 0
368 1 10.753343950877749 11.27497694011528 26.906488038159825 0 0 0
370 1 12.691062400922526 9.791662806063405 28.177017293601683 0 0 0
394 1 15.746038252041917 12.639571317601904 28.553512421090563 0 0 0
376 1 17.637645313143103 11.10445886630522 27.367403695843628 0 0 0
398 1 22.378743109865553 12.448603644010593 28.350276528039558 0 0 0
384 1 23.891129800537932 11.158084909226835 26.550427154612283 0 0 0
387 1 1.9730733174794453 14.43613496045642 26.53991097919601 0 0 0
386 1 3.100020882166366 12.668444467016002 28.517611642161132 0 0 0
389 1 6.520736153755455 12.818007142600836 25.241604999207375 0 0 0
391 1 7.960159717276559 14.290695206718022 27.188178562756576 0 0 0
392 1 11.247285163949678 14.423643656830635 30.21938921140089 0 0 0
395 1 14.142347209141763 14.323338584013143 27.03222814977307 0 0 0
399 1 20.95021083538424 14.409488057612247 26.899528672661724 0 0 0
36 1 3.0223384157800472 9.176560583413984 31.495075887034854 0 0 -1
327 1 4.438751276781308 1.7304107190187235 30.28959323362629 0 0 0
388 1 4.46763676315705 14.544694189157294 29.966848099030006 0 0 0
338 1 13.015107588871539 3.3299418994325554 28.78550838666381 0 0 0
335 1 11.40771492825738 1.877352486403744 30.664809485246025 0 0 0
343 1 17.792340170274834 1.6896116534684398 30.24896701649543 0 0 0
351 1 24.2171309678699 1.2592156546903899 30.490480431182835 0 0 0
77 1 19.3039461760633 12.468055168557607 31.359544761448106 0 0 -1
326 1 1.641735518236643 4.745942452194478 30.14617715262691 0 0 0
334 1 8.079437881002065 4.861176872557033 30.33313662018964 0 0 0
366 1 7.620262936560035 10.946919130967949 30.201320972770272 0 0 0
342 1 14.513097790348334 4.959219365415418 29.97499877355789 0 0 0
346 1 19.464352928741697 3.3351159060851647 28.708186640263577 0 0 0
350 1 21.08362201386315 4.868338461401363 30.444700122216254 0 0 0
383 1 23.804139176417863 8.15957727873557 29.88350698915817 0 0 0
362 1 6.038859087452697 9.717868514096448 28.396623817831333 0 0 0
359 1 4.76479829257056 7.841496547844399 29.47454878032067 0 0 0
363 1 9.483931705260256 6.589070572091423 28.588381400369745 0 0 0
367 1 11.176474961515803 8.310987167916576 30.090934156849507 0 0 0
265 1 19.40132509957629 0.26719616925520606 18.635445217470338 0 0 0
358 1 1.4669615894217103 11.060799880847936 29.877113070600437 0 0 0
375 1 17.536221552778187 8.13027473539604 30.030648180756632 0 0 0
229 1 18.718591524459583 9.996629450089989 16.026186112717397 0 0 0
345 1 19.459501158261894 0.28214812650248156 25.76120572870518 0 0 0
65 1 -0.008244605834455854 12.731164076971755 31.42268059918443 0 0 -1
257 1 12.803946774471031 -0.045699678260622635 19.223339789405543 0 0 0
339 1 16.35084686181996 0.14880467334396583 28.560192211733707 0 0 0
218 1 2.7415757535165564 6.541025852525875 16.02218510887335 0 0 0
213 1 19.072191422075555 3.224662360867699 16.007148267217516 0 0 0
41 1 6.592299927746699 6.598372824090116 31.68095323064956 0 0 -1
404 1 4.648344076961755 18.063844018936127 1.804241630856481 0 0 0
428 1 9.645099558822304 22.153375611036253 0.3475900078922829 0 0 0
408 1 11.324712348627765 17.41526915067823 1.7842698845488376 0 0 0
427 1 9.416768350749601 19.021846853561485 3.3117874257485242 0 0 0
610 1 2.7846599143925634 19.143072036209944 15.808317274017085 0 0 0
27 1 22.17882505253052 31.634881929141194 3.0450074166183696 0 -1 0
412 1 17.90252802424193 17.181391698690877 1.264285909089765 0 0 0
99 1 16.05168166549859 31.540323445501823 9.342813528019263 0 -1 0
443 1 22.454896489431007 18.775343246634705 3.216401917137664 0 0 0
416 1 23.882557240605955 17.099979719827992 1.3015016954580036 0 0 0
421 1 1.3062903846143281 20.761961939851503 1.5903198869013069 0 0 0
97 1 12.907727383415837 31.83786711453468 6.328575108771133 0 -1 0
429 1 7.865179100491757 20.68483516328189 1.8737237650192025 0 0 0
468 1 16.21607537272954 28.58576303715502 0.1427879928249137 0 0 0
441 1 19.355129118232327 18.849047796947527 0.006463542286829355 0 0 0
437 1 14.414018685636897 20.51410547206146 1.7740904436397125 0 0 0
449 1 25.39377347200113 25.657034182257277 0.45693522052454516 -1 0 0
91 1 9.86702363986138 31.85467206550131 9.533210843158518 0 -1 0
445 1 20.91893593800291 20.436586965662052 1.893496462188397 0 0 0
424 1 4.661729050409286 24.077667921948535 1.8777502378260669 0 0 0
425 1 6.245114005574392 19.298108045006952 -0.015469305594018018 0 0 0
432 1 11.233220462300078 23.848498637346673 1.9867748245230743 0 0 0
440 1 17.524207121725368 23.59461062469506 2.103271342604584 0 0 0
448 1 23.951945672894006 23.966600764767055 1.8131110599060332 0 0 0
475 1 22.22499075171288 25.4746829583748 3.213511312006464 0 0 0
453 1 1.3694821463801288 27.33446969070559 1.6611032995651454 0 0 0
451 1 2.918845026294821 25.767207615827 3.30197909235276 0 0 0
461 1 8.01555028762139 26.639062639837174 1.5148416265573759 0 0 0
469 1 14.48555745455388 26.905130030335894 1.6882008566567368 0 0 0
561 1 2.900845298364226 16.062406425400773 12.442000474355938 0 0 0
477 1 20.464623911083635 26.696977431237016 1.8106209433597737 0 0 0
450 1 25.409440043895053 29.12840907892736 3.0074161679599185 -1 0 0
473 1 19.02753290837893 24.994081476390207 0.25731279576548816 0 0 0
600 1 24.07267431633251 29.863513233105287 14.391016279818121 0 0 0
456 1 4.752731579745734 29.936853950318778 1.7765090300671753 0 0 0
3 1 3.4795711275021537 31.79965812194516 3.488411758192393 0 -1 0
458 1 6.469083328815732 28.47723329562068 3.4272616770338473 0 0 0
464 1 11.241149402904304 30.374847459898216 1.8649605568620162 0 0 0
485 1 5.957231135680312 15.980843075977969 9.687886581078235 0 0 0
420 1 2.883943811725214 22.451113176065338 0.30878532925164753 0 0 0
472 1 17.49300533316878 30.380029889060186 1.8483205463458867 0 0 0
596 1 17.58759484236206 30.11913028778091 14.16648590750958 0 0 0
480 1 23.79290427484355 30.35901629136053 1.2749831348706226 0 0 0
403 1 1.301547343585962 17.325770902390808 4.461789720080249 0 0 0
497 1 0.17966276855405994 19.338982327317158 6.033913712615499 0 0 0