LAMMPS data file via write_data, version 29 Oct 2020, timestep = 200000

800 atoms
1 atom types

-0.0216306176637584 25.475190617664413 xlo xhi
-0.027038272078621972 31.84398827207577 ylo yhi
-0.027038272078621972 31.84398827207577 zlo zhi

Masses

1 18.015

Atoms # atomic

5 1 1.18293459430917 1.794041857818078 1.6294050284567299 0 0 0
565 1 16.164410073004177 15.561822974269093 12.496392707907342 0 0 0
165 1 6.0650131090705255 0.025079467187484848 12.546383164280746 0 0 0
13 1 8.298805739557002 1.677999473315381 1.592708585014409 0 0 0
21 1 14.704530875267064 1.3464898287330007 1.475475630395641 0 0 0
29 1 20.49149602895018 1.6620997772798496 1.4924302318339908 0 0 0
8 1 4.604143192981177 4.926663049261767 1.5801776962379956 0 0 0
43 1 9.816969476791849 6.109384180164256 2.929729259307644 0 0 0
210 1 15.66583070186891 0.336297800198703 15.783701967091272 0 0 0
16 1 11.650236667057783 4.743951295587589 1.6569020441510773 0 0 0
18 1 13.00004938762265 2.891018141296833 3.2201621215838863 0 0 0
222 1 9.59539741867277 6.056100801449733 15.700418772604902 0 0 0
24 1 17.795820036263983 4.702116447839139 1.6949205474715412 0 0 0
205 1 6.068345491597617 2.9716145055367726 15.353790565854773 0 0 0
32 1 23.918295315142657 5.10980173642847 1.7350641425902575 0 0 0
221 1 6.001372704704855 9.379666978601055 15.679689423114418 0 0 0
489 1 12.68356650233346 15.62734623428484 9.471454027941158 0 0 0
37 1 1.7267418896762354 8.113564583040409 1.285256461769295 0 0 0
45 1 8.22885491007177 7.887094513080795 1.5462864709435487 0 0 0
42 1 6.618825806589124 9.568006703020785 2.8419018034166026 0 0 0
12 1 9.812456792073048 3.4725382831115286 -0.010141537982571447 0 0 0
53 1 14.441126329331711 7.971568709837272 1.7598756321187838 0 0 0
58 1 19.043111793626167 9.589779133394082 2.829719066588784 0 0 0
61 1 20.59619935659252 8.13055453466838 1.245771511861654 0 0 0
34 1 25.440548974934163 9.574802517053367 2.636708392173549 -1 0 0
40 1 4.793011280093229 11.31762449144711 1.288922696043037 0 0 0
48 1 10.810543922970023 11.264279200638947 1.198044304529491 0 0 0
70 1 9.64137249208199 12.980606207173686 3.314551272074673 0 0 0
56 1 17.311321158521963 11.433873731839721 1.4244839438218435 0 0 0
64 1 23.961313258020006 11.447966860020108 1.28318845667466 0 0 0
78 1 22.47966597667989 12.71218117508806 3.0640888078828343 0 0 0
67 1 1.4077560434914698 14.230821283018544 1.4756486772183672 0 0 0
66 1 3.010504658741542 12.917752713562493 3.0953386117302566 0 0 0
71 1 8.00829594446241 14.284127886284224 1.4997742224504649 0 0 0
3 1 2.933156201070141 0.20107486647719475 2.8414257247583863 0 0 0
161 1 25.272558973593917 0.08147195779583481 12.868755053780585 -1 0 0
75 1 14.079262056379417 14.370985262162224 1.593516784274983 0 0 0
74 1 16.14551203677697 13.281953360682705 3.07952292982057 0 0 0
79 1 20.50123541862031 14.331782428321107 1.4635142871893427 0 0 0
173 1 19.200551026221845 0.115708703563218 13.061151489388891 0 0 0
10 1 6.461346556462983 3.1433655034336043 2.7815992706971424 0 0 0
7 1 4.639313686497666 1.5296544364944666 4.595846710285003 0 0 0
405 1 5.826304090888481 15.621743718855793 3.0065543763608775 0 0 0
15 1 11.00273705689723 1.3205363143480888 4.803007332171058 0 0 0
482 1 2.6869556206045524 15.817152954686007 6.528656206117936 0 0 0
23 1 17.75447008017632 1.4010834447923801 4.7086071524903526 0 0 0
31 1 23.567553702733704 1.4356666613369704 4.659457322962752 0 0 0
2 1 25.345230743822533 3.2700299774258625 3.437689186731412 -1 0 0
6 1 1.3668565583473735 4.9547133626419475 5.085112213013923 0 0 0
14 1 8.149972352374675 4.898623243925465 4.405518620074838 0 0 0
22 1 14.469226326858953 4.717817871792521 4.897580328471678 0 0 0
100 1 16.181658184488462 3.1218077304114504 6.3769680012570955 0 0 0
26 1 19.394493022045168 3.1458333085308645 3.46609643876795 0 0 0
30 1 20.697828050760627 5.017870650209715 5.053760808172131 0 0 0
35 1 2.9986331647927957 6.52360111646065 3.1953206752645436 0 0 0
39 1 4.577511791479535 8.200664972247344 4.311332324047168 0 0 0
124 1 9.312791895746123 9.208739250716519 5.896996115323354 0 0 0
121 1 5.871653861033326 6.38054811967403 5.794754742357381 0 0 0
47 1 11.396618427944933 7.983435312303072 4.480364994739597 0 0 0
51 1 16.06545485391564 6.272448922063612 3.2879230710887875 0 0 0
129 1 12.960581023803691 6.452097767302145 6.119227532936865 0 0 0
55 1 17.738622316443184 7.896646945063463 4.778440675921225 0 0 0
59 1 22.282258731458953 6.7860870316425075 3.279686876776057 0 0 0
63 1 23.94349432094826 8.605321434876569 4.55608718179469 0 0 0
38 1 1.6901660001408632 11.125162828420217 4.245867364052909 0 0 0
116 1 3.0546478319681043 9.755573190837604 5.931445681636387 0 0 0
46 1 8.01400995710713 11.24797096620744 4.490826113758327 0 0 0
50 1 12.714775674123894 9.674915478287502 2.867321679073395 0 0 0
54 1 14.606412344943216 11.105655043201356 4.481546968725272 0 0 0
62 1 20.632069885538783 11.127764872319332 4.41071790620695 0 0 0
157 1 18.995299306913843 13.022673428698665 6.433273620588584 0 0 0
140 1 21.92106977736607 9.690642643340224 6.27093446485065 0 0 0
68 1 4.4622566661832535 14.232453738581645 5.088599639382224 0 0 0
169 1 12.139486501764711 0.060731933644865094 12.337559730726696 0 0 0
200 1 20.40438419116613 14.086510509275042 14.18697323057048 0 0 0
72 1 11.285919137339782 14.389247633839943 5.06489764578298 0 0 0
567 1 22.462211284707287 15.730756067894621 12.979606508939613 0 0 0
76 1 17.40982980868383 14.658684445728094 4.931426089767549 0 0 0
107 1 22.40721017971375 0.15510187656235627 9.90752395448851 0 0 0
80 1 23.59708600705755 14.709620293716569 4.797823055861183 0 0 0
85 1 1.722362801835825 1.1094308829852244 7.385566534759502 0 0 0
84 1 2.9220426314460033 2.952047596654736 6.046502419962194 0 0 0
199 1 19.160123555977798 12.488214688317388 12.501827296077764 0 0 0
93 1 7.862709317259923 1.805686240530899 7.84342141784551 0 0 0
101 1 14.45287277857418 1.5755189313639828 7.823795358126589 0 0 0
198 1 14.456673560618803 14.640719181007483 14.606069770875601 0 0 0
109 1 20.81663959623986 1.604916850608761 7.939188419539126 0 0 0
82 1 25.46866723114401 3.0159816894872997 8.842478327041329 -1 0 0
88 1 4.784840347275179 4.594003546224417 7.502954539494354 0 0 0
92 1 9.275249821303964 3.0561174426792443 6.181943770996915 0 0 0
96 1 10.89049687338139 4.881776803154327 7.637314551077225 0 0 0
98 1 12.566853407574008 3.1480772698580823 9.076126461775987 0 0 0
104 1 17.628467610849633 4.682703718135459 8.079612055529273 0 0 0
108 1 22.318455327951703 3.173512237343497 6.364664862265008 0 0 0
112 1 24.062934303824456 4.985674844114343 7.708083008839678 0 0 0
117 1 1.7729740183653662 8.196654517561633 7.8041968447683105 0 0 0
115 1 3.6588313491258084 6.625267295788486 8.936772216942131 0 0 0
125 1 8.025368518926244 7.613237569913869 7.529798543841513 0 0 0
123 1 9.921797980545458 6.596854083517151 9.410209735100258 0 0 0
130 1 12.822300116477923 9.44753204394683 9.914884084953908 0 0 0
133 1 14.153739439838043 7.9990971350089275 8.09337480904903 0 0 0
137 1 19.1090470443976 6.430180370714858 6.512125198000293 0 0 0
141 1 20.64282445616903 7.897045240975032 8.178093485613694 0 0 0
113 1 0.003328920137822565 6.974649244975438 6.150418630792193 0 0 0
120 1 4.78909446376263 10.863751507855437 7.99131479447559 0 0 0
128 1 11.304775584814589 10.377614062115173 7.584959521468284 0 0 0
153 1 12.700344296601909 12.261467782854156 6.25637092519782 0 0 0
132 1 15.70823339783899 9.402292032340767 6.241448392278207 0 0 0
136 1 17.45035591199536 11.163774135504573 7.947746923202587 0 0 0
144 1 23.90083599471688 11.483747907951372 7.544235649442972 0 0 0
145 1 0.025717657298224804 12.657411085803146 5.8684340436075 0 0 0
147 1 1.436203997673647 13.774572527649338 8.094408664910928 0 0 0
149 1 6.490456007482075 12.479148538872712 6.443389725864029 0 0 0
151 1 7.830136282787271 14.241739686351872 7.886684438616674 0 0 0
154 1 15.811698024276167 12.831329418569506 9.556647221711966 0 0 0
155 1 14.109363307611344 14.097849178903783 7.768770869427003 0 0 0
159 1 20.7618406270783 14.373484221565459 7.977334663226339 0 0 0
201 1 0.502623906202893 3.660901113325843 15.513852723067915 0 0 0
87 1 4.7462514332471635 1.5002141927986186 10.763437556426632 0 0 0
95 1 10.803154958863395 2.047868345812653 10.907857463701765 0 0 0
481 1 -0.005956990569524045 15.85700555016875 9.700333610529901 0 0 0
103 1 17.72424946981498 1.5618707099735705 11.14880469290752 0 0 0
561 1 3.1696758819420228 15.622580357722024 12.593773056202236 0 0 0
196 1 8.052793386089268 13.720078576761551 14.462525222936543 0 0 0
111 1 24.174385733348203 1.8539744778762097 11.052233682845333 0 0 0
86 1 1.776543382802131 4.314935108642337 10.153218286981208 0 0 0
162 1 3.2549079720072545 3.0955965571301443 11.992113966439371 0 0 0
90 1 6.443608033890676 3.457662489196003 9.565855739296358 0 0 0
94 1 8.317739343584266 5.061853347467264 11.022916797871419 0 0 0
102 1 14.36945692216292 4.577034528283843 10.880386609218059 0 0 0
131 1 15.892849776222441 6.247590221168985 9.268657360752929 0 0 0
106 1 19.432706753770134 3.1756511298273353 9.669877619996388 0 0 0
110 1 20.99006981188701 5.030004567414238 11.228421541486208 0 0 0
119 1 4.912875508016824 7.8852476387624435 11.04292584309342 0 0 0
127 1 11.140237752742543 7.706025246337999 11.467118103556997 0 0 0
185 1 12.616241567543923 5.8892404374031635 12.488190932721194 0 0 0
135 1 17.537137042494194 7.470098152069587 10.987503062872996 0 0 0
139 1 22.558869311407904 6.553819085122127 9.41384123389771 0 0 0
143 1 24.06316519310443 8.072053699693157 11.162712712703224 0 0 0
118 1 1.4427701058240923 11.220550504874447 10.924021304208742 0 0 0
193 1 0.17483105553396247 12.511417725821165 12.922144503666923 0 0 0
146 1 3.353677719991659 12.408409930909919 9.476243234744896 0 0 0
122 1 6.620385581839563 9.205459831140377 9.263488230452424 0 0 0
126 1 8.090336434126995 10.740051989341607 10.851539135209016 0 0 0
150 1 9.84325309480735 12.199201681899394 9.039738473882965 0 0 0
134 1 14.488852825517434 11.390911358632545 11.467224014957768 0 0 0
138 1 18.9670300702234 9.464494355190798 9.42103058907991 0 0 0
186 1 15.98988910598045 9.197368763013804 12.641531676625917 0 0 0
142 1 21.02789850228286 10.979022107309603 10.933570191502096 0 0 0
114 1 25.34424984723941 9.73575743386768 9.230061634736964 -1 0 0
197 1 12.807742970072141 12.879489075868072 12.894831949258773 0 0 0
148 1 5.112941275841622 13.886196531080266 11.317102411768504 0 0 0
485 1 6.35861777932144 15.707037980246316 9.586612528470596 0 0 0
152 1 11.05795411281762 14.093857829149503 10.775458899265358 0 0 0
28 1 21.960924471478712 3.3418222139880536 0.10047715297625942 0 0 0
156 1 17.642868853406142 14.248456648923266 10.781266105941677 0 0 0
158 1 22.584981082206568 12.877499074625902 9.60659764566014 0 0 0
160 1 24.135365569985467 14.303349788671959 11.57376642534503 0 0 0
163 1 1.7359407812696745 1.7656981243083563 14.044808533198962 0 0 0
167 1 7.728486129592287 1.1809659006259647 14.21578705393807 0 0 0
166 1 9.341958393734464 3.2714329538681106 12.747000498129486 0 0 0
171 1 13.909799947698566 1.4068053797257907 13.77364147557291 0 0 0
170 1 15.968944892223192 2.895526942651528 12.339091347966422 0 0 0
194 1 1.5017834783828983 14.285148361358601 14.433101554295598 0 0 0
175 1 20.570593028564858 2.028205960731742 14.274068084123458 0 0 0
177 1 0.3343456892294339 6.107832099017963 12.111475832089 0 0 0
164 1 4.5314621901320695 4.9329592501622015 13.818486913115391 0 0 0
181 1 6.967333966827881 6.412179971050094 12.846501883807377 0 0 0
168 1 11.057690914485923 4.382935620595018 13.991802238510811 0 0 0
230 1 22.613391150670076 6.452256157582333 15.799501960256885 0 0 0
172 1 17.434160094712915 4.634104223218545 14.32466496097768 0 0 0
174 1 22.525239455974976 3.3646219047028945 12.69375698915449 0 0 0
176 1 24.45082202451283 4.957726549728644 14.077711874914094 0 0 0
179 1 1.583413490713872 7.8590268487535635 13.870418429640063 0 0 0
190 1 22.389088998356904 9.42654887015872 12.70864011285857 0 0 0
192 1 24.19890640160918 10.87771186637002 14.57615609671368 0 0 0
183 1 7.947214216251045 8.120272830683815 14.466996288404731 0 0 0
182 1 9.443531301009271 9.33686535096372 12.659289161016352 0 0 0
188 1 17.313805389930316 11.02885044265551 14.13048741597529 0 0 0
187 1 14.183645614284682 7.822758246640667 14.369491863183466 0 0 0
189 1 19.31202608071719 6.279014902271512 12.946725891134031 0 0 0
191 1 20.942816466498137 8.138378286951436 14.41386744509619 0 0 0
178 1 2.995708181320015 9.547242594360464 12.669870126068195 0 0 0
180 1 4.48586329949756 11.131290983083483 14.219244609741407 0 0 0
195 1 6.590560047870597 12.036399371488406 12.62372417209541 0 0 0
406 1 9.72430334582616 15.758038152718957 0.026905136607459322 0 0 0
184 1 11.295129280070851 10.940679503950046 14.200896830544869 0 0 0
563 1 9.605049960908653 15.711658211923044 12.772787488488264 0 0 0
218 1 3.1109063050844386 6.298001126528113 15.77400040980141 0 0 0
4 1 2.953399556860795 3.243994224776615 0.16197358958258343 0 0 0
91 1 9.460039977866586 0.23089590105042446 9.39716258315194 0 0 0
41 1 6.475642914424643 6.0641981523307775 0.27365621996160505 0 0 0
1 1 25.273141604688085 0.21262759691958977 0.142328013209287 -1 0 0
214 1 22.415622465397504 0.351599997949061 15.86091894496799 0 0 0
225 1 12.86126009370836 9.37412992124755 15.90774953873026 0 0 0
237 1 15.866325809746995 12.769529432629405 15.855926564107023 0 0 0
60 1 22.632092967508598 9.70216276631949 31.693544099338176 0 0 -1
400 1 23.486406120065304 14.722698068451438 29.98812352157124 0 0 0
204 1 5.0761637117699605 1.621514384987902 17.37253718207625 0 0 0
730 1 15.651379531069944 15.688838523529606 25.769943101444845 0 0 0
252 1 9.438512033085642 3.123769828359673 18.990154213008267 0 0 0
208 1 10.93046350896357 1.3700624763281464 17.70790686331044 0 0 0
649 1 12.656489389072728 15.467274978962845 21.863687814527587 0 0 0
212 1 17.15574551522522 1.910929100256755 17.598204611307644 0 0 0
229 1 19.01672131485713 9.810230208288635 16.010333946435765 0 0 0
268 1 22.35740589174477 3.2138376788987615 18.829190494097908 0 0 0
216 1 24.09741157198495 1.9673300443953674 16.942075747542 0 0 0
203 1 1.5013050792440445 4.808801297346093 17.488007133166697 0 0 0
207 1 7.997061015800236 4.599993598182086 17.187348233587173 0 0 0
33 1 0.093122845494111 6.501935071287035 31.68295533088535 0 0 -1
211 1 14.544672462333116 4.4203843368314875 17.52627025988133 0 0 0
215 1 20.735607365997843 5.145518549428332 17.37541598372423 0 0 0
297 1 19.003549292058942 6.564183017139263 19.269410233744438 0 0 0
249 1 6.856490408221113 0.029109783385193565 19.07884095013204 0 0 0
220 1 4.708480353369956 7.859144384333154 17.34754714073039 0 0 0
44 1 9.531542531499285 9.266359884338582 31.653028900649048 0 0 -1
224 1 11.143455511212695 7.561318221811429 17.324298164773815 0 0 0
410 1 15.752072880546654 15.581684859010313 31.46484463718182 0 0 -1
228 1 17.419576808335272 8.140713711838002 17.72294430566175 0 0 0
232 1 24.066912745802647 8.009288736428879 17.603261581623407 0 0 0
300 1 22.176806600984825 9.527076558543532 19.00170785899794 0 0 0
219 1 1.773077732835266 11.149714342316667 17.992768672501903 0 0 0
276 1 3.4122241136075075 9.417570068414552 19.17185771875254 0 0 0
223 1 7.645661004318743 11.087551886525283 17.167729019905323 0 0 0
309 1 6.208905902364993 12.608478822923551 18.793755730578923 0 0 0
227 1 14.446512577568495 10.869535806185302 17.26782354339271 0 0 0
653 1 18.790289152377873 15.666932718722057 22.37540686251063 0 0 0
231 1 20.58668291577552 11.12305176816535 17.58272802324209 0 0 0
305 1 25.377492179603976 12.550795258440846 19.3023813087353 -1 0 0
234 1 4.667286601812389 14.549790679610584 17.60729822485444 0 0 0
236 1 11.187855887228853 14.290862133380802 17.79404788664828 0 0 0
65 1 25.436354719249174 13.002288434373076 31.34785005805879 -1 0 -1
347 1 22.144014519182605 0.004129401831007344 28.798504037557286 0 0 0
359 1 5.063603052600661 7.867017690592168 30.43500891749234 0 0 0
238 1 17.650567487312323 14.393163060650974 17.454179827329938 0 0 0
240 1 23.934308339805142 14.21441496701539 17.77008048661336 0 0 0
245 1 1.6415784188552398 1.739617998730624 20.76639119086184 0 0 0
244 1 3.133652862468041 3.1289588617918587 18.938781800125255 0 0 0
250 1 6.444822886461909 3.0718958476458496 22.168223167406296 0 0 0
253 1 8.120854505050652 1.5261405768706415 20.802011027458754 0 0 0
261 1 14.436915747226804 1.6440324686000898 21.099879406809563 0 0 0
267 1 22.165499809581526 0.4074527169556873 22.31828999677294 0 0 0
260 1 16.098169597050592 3.4548788548620846 19.8266205078908 0 0 0
269 1 20.37456021031541 1.4081381707775322 20.41292976072709 0 0 0
339 1 15.921946773143485 0.10469857404089136 28.362401027757443 0 0 0
275 1 2.830595847570762 5.713538365414755 22.197127557683856 0 0 0
281 1 6.330658258811869 6.217808506566142 18.87381109294921 0 0 0
248 1 4.786261700206761 4.635155489670066 20.461247501711014 0 0 0
256 1 11.373560143787266 4.715522310059844 20.3522567994626 0 0 0
289 1 13.078506152336294 6.373136697007559 18.992868293083447 0 0 0
291 1 15.696775553070742 6.528162758075436 22.448524740934467 0 0 0
264 1 17.870628887957544 4.993385106904279 21.328639286164425 0 0 0
266 1 19.74088831816959 2.9160777497944514 22.794732035048092 0 0 0
273 1 0.10345359108749219 6.406495340381217 19.26147199794815 0 0 0
272 1 23.845276220547206 4.611928208851534 20.7714014399996 0 0 0
277 1 1.7518458730535467 8.078580551025214 20.732945705849836 0 0 0
285 1 7.916443720450129 7.972591723420908 20.385019106902313 0 0 0
284 1 9.446980238390644 9.458884062387433 18.51576767811961 0 0 0
293 1 14.34955386598919 8.23460208232198 20.806360421552434 0 0 0
301 1 20.830763890768488 7.823225804062747 20.526342105066988 0 0 0
299 1 22.35468542371406 6.479676235490808 22.064375807889874 0 0 0
280 1 4.861121733251846 10.852939751557008 20.623362177473368 0 0 0
306 1 3.280046833207835 12.889104487762639 21.993245836580456 0 0 0
288 1 11.195586598423512 10.805182612767165 20.216993017614143 0 0 0
310 1 9.197988122225018 12.136520030012736 22.06191200954683 0 0 0
313 1 12.893637588486389 12.44947293425791 18.7114047087127 0 0 0
292 1 15.932797241676912 9.666223898487281 19.13620768228541 0 0 0
290 1 12.266917613238848 9.610427273482298 22.272230358879234 0 0 0
296 1 17.196324689312085 11.372907720075291 20.667119707025925 0 0 0
298 1 18.690856006162605 9.277079849125995 21.859940498866557 0 0 0
304 1 23.67916549743493 10.790511533568296 20.810509681093926 0 0 0
318 1 22.31220921265647 12.301989691520658 22.468954576337943 0 0 0
274 1 25.45025890622499 9.46619344809557 22.32291911613624 -1 0 0
307 1 1.3317573579826707 14.651069529854432 20.7859328083859 0 0 0
311 1 7.914997490666783 14.144293954919203 20.648263461601026 0 0 0
396 1 17.61213515298622 14.068503954407204 30.13068982162887 0 0 0
315 1 14.406372170045946 14.040194974874673 20.485015431579818 0 0 0
317 1 18.984755345289756 12.728057668628873 19.190580461845663 0 0 0
319 1 20.675320525341313 14.026518459808557 20.875441908263603 0 0 0
239 1 22.20741109153861 12.630912512836263 16.080742847047013 0 0 0
324 1 3.2297440113665603 2.614215090875127 25.510932154358656 0 0 0
247 1 5.115334512729945 1.4043354464337219 23.853634019241852 0 0 0
332 1 9.768421886849241 3.144048024507684 25.486389666168925 0 0 0
258 1 12.761247105576304 3.3662293021928433 22.14371811920411 0 0 0
255 1 11.180175868832542 1.627284071678819 24.001416166406536 0 0 0
263 1 17.754690373526792 1.6208137481371463 24.13901592766851 0 0 0
733 1 19.074189687948376 15.908457106643352 28.77066037740954 0 0 0
271 1 23.68298248936263 1.8167938542068278 23.949691147588553 0 0 0
246 1 1.541369683187768 4.556306353578216 24.361584441288393 0 0 0
254 1 7.999498837070046 4.953537077636357 23.576118324897834 0 0 0
361 1 6.1987258748581855 6.122753895511016 25.097618047792473 0 0 0
283 1 9.529809295984611 6.418044251758362 22.00381411523926 0 0 0
262 1 13.9692998383062 5.084666162767731 23.738160046558285 0 0 0
340 1 15.709902396856737 3.3207194514614558 25.217442588300656 0 0 0
270 1 21.028452462042303 4.816137670227368 23.95600563237121 0 0 0
242 1 0.11349690043037408 3.0005360849012646 22.433088215352292 0 0 0
279 1 4.252617112238265 7.511759803756142 23.791766389192652 0 0 0
282 1 5.9860185495887475 8.859760931828028 22.179056147521116 0 0 0
287 1 10.919144896213739 7.89046157017201 23.809951833018573 0 0 0
372 1 15.476551314255202 9.465233416520023 25.3851957071789 0 0 0
295 1 17.31132054770407 7.948334715506002 23.986080258193766 0 0 0
377 1 19.02699129290646 6.312726719338194 25.258544776814823 0 0 0
353 1 25.335798642179306 6.312518945535471 25.634717439059543 -1 0 0
303 1 23.92672829586224 8.02068295325457 23.802173631572543 0 0 0
380 1 22.241809018702106 9.840844883747843 25.26902921454557 0 0 0
278 1 1.5889301496554002 11.471670266804976 23.64472902524163 0 0 0
356 1 3.0886173583557444 9.44941560959005 25.28760874271712 0 0 0
286 1 7.421516699648228 10.530973775493626 23.682475601203173 0 0 0
389 1 5.949856510111498 12.27954742856283 25.484830942367836 0 0 0
294 1 14.023969342132508 11.159990909918267 23.75888271192865 0 0 0
314 1 15.684285071598545 12.791903206098633 22.413717721478292 0 0 0
302 1 20.27176328542589 10.90517097174569 23.55287755556669 0 0 0
397 1 18.845752518133438 12.243032330139693 25.645125460195963 0 0 0
392 1 11.282358201805316 14.365269451889121 30.207055017634197 0 0 0
308 1 4.5628125574316725 14.386382428158978 23.79327005191648 0 0 0
312 1 10.66593977854957 13.941565538652227 23.880098435458393 0 0 0
390 1 9.66956052409216 12.633482282514226 28.64097429317895 0 0 0
316 1 17.364259059638314 13.919392810062172 24.460675519465767 0 0 0
388 1 4.987003876557867 14.414608403707554 30.210809349588637 0 0 0
320 1 23.724335665717035 14.411109959786259 23.891573774153564 0 0 0
325 1 1.6215323995656432 1.279683239225359 27.227882229962397 0 0 0
322 1 0.02404350550672836 3.025641895872824 28.784178991768336 0 0 0
330 1 6.525452526139218 2.783620181774909 28.633402331446163 0 0 0
333 1 8.115460325242827 1.1906525168972977 27.184639773436515 0 0 0
338 1 13.065454327409123 3.292673096867393 28.99430294318185 0 0 0
341 1 14.334291252994582 1.7720971825799428 27.082415531697727 0 0 0
367 1 11.257685696475063 7.822966988410605 30.077331998847022 0 0 0
349 1 20.608304140959312 1.3101050632773057 27.1367540598297 0 0 0
355 1 3.7587775956861593 6.162466707299423 28.550932764689932 0 0 0
328 1 4.963206979116609 4.392581718360449 26.99178357522844 0 0 0
363 1 9.348512587120563 5.961767719195201 28.625004583326366 0 0 0
336 1 11.229452087923345 4.345638692654599 27.167440346666396 0 0 0
369 1 12.60363821405773 6.34170893046896 25.42917762258761 0 0 0
344 1 17.40426106493956 4.65479030878511 26.444547003117982 0 0 0
371 1 15.83511802067207 6.358769219082845 28.30078443218394 0 0 0
348 1 21.910647611067567 3.0231104482847786 25.629039180609745 0 0 0
352 1 23.7842350402152 4.735888564098008 27.152551729416686 0 0 0
357 1 1.7067210390979688 7.887582432572945 27.00578927728889 0 0 0
365 1 7.686713780108095 7.496110333259193 26.980662115468007 0 0 0
370 1 12.666543005161495 9.543032341767706 28.567851838518436 0 0 0
373 1 14.054218029257925 7.742720307687295 26.871257577793834 0 0 0
378 1 19.231954851342216 9.271565766683898 28.592481324831553 0 0 0
381 1 20.719953406533804 7.828154481669905 26.93960598111994 0 0 0
379 1 22.33912234979759 6.198728666628048 28.580152119088545 0 0 0
360 1 4.750655518926616 10.949066986836039 27.436726302823168 0 0 0
364 1 9.122069130205535 9.203106870442305 25.375354711957122 0 0 0
362 1 6.610519949986694 9.503368570528803 28.859252071403077 0 0 0
368 1 11.196043946554772 11.145548571075192 27.055233550081198 0 0 0
394 1 15.766215693174289 12.636745325293619 28.576677860604775 0 0 0
376 1 17.23372245461033 10.655729318036121 27.437085367511557 0 0 0
398 1 22.128607981321487 12.716696043609092 28.83389894591403 0 0 0
384 1 23.86219446448475 11.331260454794647 27.162284105887736 0 0 0
385 1 25.396398590668632 13.183421282882748 25.49153399572682 -1 0 0
387 1 1.780596192136624 14.738524192409157 27.166876305246852 0 0 0
386 1 3.218873207797239 12.998732395401404 28.499317732321956 0 0 0
391 1 7.803438307645021 13.951694781270279 27.16446532839084 0 0 0
358 1 1.7728219170756065 11.532017287480773 30.074483636471847 0 0 0
393 1 12.623719579709565 12.966628968264581 25.370372591909742 0 0 0
395 1 14.16586127434182 14.1349767715495 27.18863857751571 0 0 0
383 1 23.854845022667966 7.936902452576283 29.865479145363636 0 0 0
399 1 20.564311534770127 14.177057333704127 27.197914894596643 0 0 0
734 1 22.151601170095354 15.676258651353569 25.576047618842132 0 0 0
327 1 4.823640546460811 1.7412893960270892 30.62538050831661 0 0 0
366 1 8.305518991687006 11.170674229287963 30.343250931315822 0 0 0
382 1 20.8271094405655 10.855822109260021 30.034374690686377 0 0 0
335 1 11.276209573362452 1.7600642648980993 30.33039461909854 0 0 0
343 1 17.8170950202433 1.6411951566283933 29.96432132918647 0 0 0
77 1 19.22171183298167 12.482914433043812 31.374700029195914 0 0 -1
375 1 17.168866604883476 7.683044209471101 30.294919661853534 0 0 0
374 1 14.228342538557115 11.252868434221554 30.239079651900283 0 0 0
351 1 23.514699254142492 1.7801478628810012 30.38172649771103 0 0 0
326 1 1.9157889678531803 4.839791052952053 30.094454614839954 0 0 0
334 1 7.918869881550993 4.342275966228573 30.453857537682993 0 0 0
342 1 14.675740968718836 5.0474535792556825 30.518962134590545 0 0 0
346 1 19.113874324980067 3.3882012102933796 28.26837308346459 0 0 0
350 1 20.529092122069713 4.895715569290862 30.078964008945434 0 0 0
354 1 25.33004610754118 9.534863540681723 28.48124497449939 -1 0 0
235 1 9.867292779437774 12.419220881652214 16.04315541485576 0 0 0
259 1 16.252994199802686 -0.022056637416709747 22.286851405124096 0 0 0
321 1 25.435544069323022 0.1956825599661776 25.350968292817655 -1 0 0
209 1 12.686386150582619 2.9456752493496268 15.958333425559735 0 0 0
69 1 6.572011316229118 12.597449537972656 31.601654174248452 0 0 -1
243 1 3.1851515461277757 0.10184924114116134 22.26146627538617 0 0 0
217 1 0.4420897330484208 9.538848972539693 16.101940278430448 0 0 0
241 1 0.019976938989877624 0.31471468798902386 18.897380358943266 0 0 0
654 1 22.098515484195566 15.611612952127864 19.260449298005454 0 0 0
36 1 3.3532289707103837 9.512988477930502 31.587114174100748 0 0 -1
213 1 19.112570628166992 3.432730347732401 16.06967381190072 0 0 0
257 1 12.853554393567018 0.11325392682098126 19.30793949436027 0 0 0
251 1 9.414432702327014 0.17665821114663058 22.647186173188864 0 0 0
323 1 3.531091775765288 0.04723862852986549 28.902344885678552 0 0 0
726 1 9.467721178528098 15.408240612811781 25.723661329144612 0 0 0
49 1 12.994530307492454 6.630614787073511 31.672299462292614 0 0 -1
25 1 19.099968373709054 0.10809787471085724 31.774476687842146 0 0 -1
52 1 15.65489027650196 9.564105776787533 31.741241658471345 0 0 -1
73 1 12.755222014529 12.761001122431185 31.58049518982132 0 0 -1
9 1 6.646352337693591 0.26301809572947177 31.71240278187912 0 0 -1
226 1 16.101665543747522 6.596485277731044 16.121923694389807 0 0 0
20 1 16.220624756958223 3.1840190799552803 31.81918646401091 0 0 -1
601 1 25.342906585484627 15.849264112099956 16.211350707254105 -1 0 0
233 1 3.1439428235680014 12.738458149431521 16.265946519012203 0 0 0
402 1 2.8311357777931914 15.721319538812542 31.79724312283054 0 0 -1
17 1 12.832859461242396 0.05864940171094882 31.815575627667744 0 0 -1
607 1 19.22174519500401 15.878284158500213 15.948549100889197 0 0 0
57 1 18.85023525535292 6.259356835928327 31.750814352323587 0 0 -1
600 1 23.794913610150687 30.251830186313377 14.541464191334152 0 0 0
404 1 4.385719292011443 17.3511336774204 1.521229344679478 0 0 0
427 1 9.405035014362358 18.678221907943886 3.149950871811752 0 0 0
408 1 11.289254831369059 17.473744568916715 1.8552550202678109 0 0 0
412 1 17.20657292818376 17.263399878746114 1.3114885650525216 0 0 0
435 1 15.988326262639335 18.913947712025625 3.0653579007250964 0 0 0
443 1 22.11713647895494 19.06580203004271 3.1845710755916654 0 0 0
596 1 17.578758702353994 30.581449990267757 14.59941034614296 0 0 0
416 1 23.810346774514137 17.76455138639895 1.5586626985480183 0 0 0
421 1 1.489714192879716 20.83484058241249 1.5727462972424122 0 0 0
429 1 7.943500703788318 20.62765815869986 1.5154008860995267 0 0 0
437 1 14.516795697663484 20.71780764467075 1.5756845025061894 0 0 0
442 1 19.076622495086013 22.560438120170886 3.271976484143459 0 0 0
445 1 20.709594269401123 20.967709048101952 1.638315198230315 0 0 0
424 1 4.802742019140981 23.89804814520047 1.684208153806689 0 0 0
426 1 6.397986380327507 22.22975755041339 3.205048390836725 0 0 0
432 1 10.847733110241876 23.940189489876225 1.3995916090367246 0 0 0
449 1 25.31013258819396 25.60403321040843 0.17976186375711714 -1 0 0
440 1 17.61597232431776 23.824588569535514 1.4927648088846486 0 0 0
475 1 22.615048610535787 25.516365915635596 2.977131267329823 0 0 0
448 1 23.855978599910365 23.6256306028438 1.6908770548532215 0 0 0
453 1 1.4148879717568486 27.229403620974765 1.8910329226227849 0 0 0
451 1 3.0266098866077735 25.426986382844618 3.296266334926142 0 0 0
459 1 9.324615985793589 25.54366992902215 3.380871820779041 0 0 0
461 1 7.457189337783663 27.536449810851508 1.6305327978392947 0 0 0
466 1 12.738519433667397 28.40845144819705 3.4041763062513577 0 0 0
469 1 14.316305702211631 26.972595198750412 1.4180414867848221 0 0 0
477 1 20.68427658855351 26.87260262800826 1.6361414769550415 0 0 0
493 1 19.0800836556728 15.996619692659129 9.23885370197879 0 0 0
456 1 4.756516368652112 30.743752065634702 1.2196145480342464 0 0 0
592 1 10.931065149586502 30.41045007842957 14.276425085182618 0 0 0
464 1 11.325001578846017 30.16603982726768 1.6168843897759606 0 0 0
472 1 17.756273148986544 30.078238391833395 1.4951857671139641 0 0 0
401 1 25.41392292790264 15.924815502841405 3.2228808291214524 -1 0 0
480 1 23.819729125764354 30.45243417462141 1.613187714552554 0 0 0
89 1 6.211336719150113 31.735208105902977 6.336607491196894 0 -1 0