
# Create simulation box of size ~50 x 30 x 30 Angstrom
#
#variable	    lattice_constant equal 6.36339
#lattice		    diamond ${lattice_constant}
region all block 0 ${LEN} 0 ${WIDTH} 0 ${WIDTH} units box
region all block 0 51.0977766438042 0 ${WIDTH} 0 ${WIDTH} units box
region all block 0 51.0977766438042 0 31.9361104023641 0 ${WIDTH} units box
region all block 0 51.0977766438042 0 31.9361104023641 0 31.9361104023641 units box
create_box 1 all
Created orthogonal box = (0.0000000 0.0000000 0.0000000) to (51.097777 31.936110 31.936110)
  2 by 1 by 2 MPI processor grid

# fill box with randomly distributed atoms
#
create_atoms 1 random 1652 63782 all
Created 1652 atoms
  create_atoms CPU = 0.001 seconds
mass 1 18.015
group water region all
1652 atoms in group water

# Define potential
#
pair_style sw
pair_coeff * * ML.sw mW
Reading sw potential file ML.sw with DATE: 2019-02-27

# Run minimization
#
minimize 1.0e-8 1.0e-8 10000 1000
WARNING: Using 'neigh_modify every 1 delay 0 check yes' setting during minimization (../min.cpp:187)
Neighbor list info ...
  update every 1 steps, delay 0 steps, check yes
  max neighbors/atom: 2000, page size: 100000
  master list distance cutoff = 6.0032907
  ghost atom cutoff = 6.0032907
  binsize = 3.0016454, bins = 18 11 11
  1 neighbor lists, perpetual/occasional/extra = 1 0 0
  (1) pair sw, perpetual
      attributes: full, newton on
      pair build: full/bin/atomonly
      stencil: full/bin/3d
      bin: standard
Per MPI rank memory allocation (min/avg/max) = 4.228 | 4.229 | 4.230 Mbytes
Step Temp E_pair E_mol TotEng Press 
       0            0     10568564            0     10568564     18786184 
     608            0   -17713.779            0   -17713.779   -1281.9514 
Loop time of 0.94881 on 4 procs for 608 steps with 1652 atoms

99.4% CPU use with 4 MPI tasks x no OpenMP threads

Minimization stats:
  Stopping criterion = max force evaluations
  Energy initial, next-to-last, final = 
      10568563.8399905   -17713.681060897  -17713.7788817433
  Force two-norm initial, final = 5.6030725e+08 2.7669943
  Force max component initial, final = 3.1532939e+08 0.56121165
  Final line search alpha, max atom move = 0.058061677 0.032584889
  Iterations, force evaluations = 608 1000

MPI task timing breakdown:
Section |  min time  |  avg time  |  max time  |%varavg| %total
---------------------------------------------------------------
Pair    | 0.66849    | 0.73628    | 0.84505    |   7.9 | 77.60
Neigh   | 0.016718   | 0.017952   | 0.019449   |   0.8 |  1.89
Comm    | 0.052727   | 0.16307    | 0.2321     |  17.1 | 17.19
Output  | 0          | 0          | 0          |   0.0 |  0.00
Modify  | 0          | 0          | 0          |   0.0 |  0.00
Other   |            | 0.0315     |            |       |  3.32

Nlocal:        413.000 ave         440 max         400 min
Histogram: 2 0 1 0 0 0 0 0 0 1
Nghost:        1062.50 ave        1095 max        1049 min
Histogram: 2 1 0 0 0 0 0 0 0 1
Neighs:        0.00000 ave           0 max           0 min
Histogram: 4 0 0 0 0 0 0 0 0 0
FullNghs:      11339.5 ave       12460 max       10671 min
Histogram: 2 0 0 0 1 0 0 0 0 1

Total # of neighbors = 45358
Ave neighs/atom = 27.456416
Neighbor list builds = 22
Dangerous builds = 0

# Add velocity/set timestep
#
velocity all create ${TEMP} 120598 rot yes dist gaussian
velocity all create 294 120598 rot yes dist gaussian
timestep 10.0

# Define output
#
compute 1 all msd
thermo 50
thermo_style custom step temp press vol etotal ke pe c_1[4]

# Neighbor lists
#
neigh_modify delay 0 every 1 check yes

# Set fixes
#
fix 1 all momentum 10 linear 1 1 1 rescale
fix 2 all nve
fix 3 all temp/csvr ${TEMP} ${TEMP} 500.0 928347
fix 3 all temp/csvr 294 ${TEMP} 500.0 928347
fix 3 all temp/csvr 294 294 500.0 928347
fix 4 all press/berendsen iso ${PRES} ${PRES} 1000.0 modulus 20000
fix 4 all press/berendsen iso -1000 ${PRES} 1000.0 modulus 20000
fix 4 all press/berendsen iso -1000 -1000 1000.0 modulus 20000

# Run 1 ns equilibration
#
dump 1 all atom 1000 eq.water.${NAME}.dump
dump 1 all atom 1000 eq.water.icewater_294K_1000atm_ML_DC.dump
run 100000
Per MPI rank memory allocation (min/avg/max) = 3.479 | 3.480 | 3.481 Mbytes
Step Temp Press Volume TotEng KinEng PotEng c_1[4] 
     608          294   -12.852412    52115.396   -16266.912    1446.8673   -17713.779 1.4247233e-33 
     650    198.14595   -913.77883    52250.198   -15706.671    975.13913    -16681.81   0.50407179 
     700    233.20895    -888.0699    52288.882   -15327.114    1147.6953   -16474.809    1.1306826 
     750    249.65424   -1129.1957    52109.346   -15148.157    1228.6277   -16376.785    1.7259196 
     800    271.30637   -867.22609    51978.819   -15025.636    1335.1848    -16360.82     2.486687 
     850    268.27169   -1234.0997    51662.293   -14906.432    1320.2501   -16226.682    3.2504366 
     900    290.42078   -1402.5162    51669.371   -14793.947    1429.2528     -16223.2    3.9560477 
     950    287.93794   -1255.3742    51455.032   -14795.205     1417.034   -16212.239    4.9777135 
    1000    283.60948   -1520.0196    51422.141   -14731.542    1395.7323   -16127.275    5.8320413 
    1050    289.05278   -923.11201    51295.777   -14693.983    1422.5205   -16116.503    6.6642784 
    1100    290.81082   -722.24542    51256.369   -14677.733    1431.1724   -16108.905    7.3895685 
    1150    288.83403   -889.03172    51271.572   -14604.726    1421.4439    -16026.17    8.4808033 
    1200    308.36397   -877.79542    51061.133   -14539.738     1517.557   -16057.295    9.4740364 
    1250    304.92924   -819.19163    51101.427   -14506.704    1500.6536   -16007.358    10.631273 
    1300    291.21491   -933.10304    51171.923   -14560.085     1433.161   -15993.246     11.77207 
    1350    298.45069   -429.35237    51425.881    -14560.61    1468.7705   -16029.381    12.887674 
    1400    298.88285   -1654.7533     51267.41   -14513.883    1470.8974    -15984.78    13.730329 
    1450    297.07033   -1018.8795    51325.656   -14529.148    1461.9774   -15991.126    14.755924 
    1500    304.27381   -988.66151    51367.796   -14534.352     1497.428    -16031.78    16.162909 
    1550    296.41021   -1019.3224    51337.617   -14588.215    1458.7287   -16046.943    17.238739 
    1600    292.24299   -1098.9005    51242.038   -14627.424    1438.2205   -16065.644     18.38744 
    1650    285.94168   -937.44831    51455.279   -14652.341    1407.2098    -16059.55    19.469372 
    1700    293.53423   -1153.9745     51452.31   -14605.739    1444.5751   -16050.314    20.591389 
    1750    301.22531   -1086.6349    51327.972   -14643.775    1482.4253     -16126.2    21.340227 
    1800    298.21729   -1458.1403    51249.734   -14642.727    1467.6219   -16110.349    22.084084 
    1850    299.53771   -897.76253    51375.295   -14641.408    1474.1201   -16115.528      23.3268 
    1900    290.12156   -1060.1426    51387.947   -14573.958    1427.7803   -16001.738    24.203005 
    1950    294.24948   -964.60793    51438.484   -14598.728    1448.0951   -16046.823    25.611929 
    2000     297.2637   -1038.1931    51308.947     -14620.6     1462.929   -16083.529    26.584368 
    2050    297.51257   -792.71171    51220.864   -14674.741    1464.1538   -16138.895    27.820995 
    2100    291.74835   -1001.7359    51368.698   -14662.734    1435.7862   -16098.521    28.894581 
    2150    283.74665   -1010.3436    51541.343   -14632.833    1396.4073    -16029.24     29.43431 
    2200    295.00223   -943.97203    51473.515   -14598.326    1451.7996   -16050.126    30.016432 
    2250    294.55446   -1197.6697     51464.55   -14608.564     1449.596    -16058.16    31.409239 
    2300    289.43516   -819.56657     51290.56   -14639.579    1424.4023   -16063.982    32.518302 
    2350    290.46772   -854.48298    51130.294   -14625.931    1429.4839   -16055.415    33.244803 
    2400    299.18045   -1098.0115    51289.092   -14626.853    1472.3619   -16099.215    34.319325 
    2450     292.8935   -1209.2285    51446.398   -14592.446    1441.4219   -16033.868    35.792422 
    2500    290.88571   -1060.8096    51223.779   -14555.092    1431.5409   -15986.633    36.571016 
    2550    304.83619   -685.71475    51340.655   -14515.334    1500.1956    -16015.53    38.175023 
    2600    296.13613   -1020.5849    51294.194   -14510.487    1457.3799   -15967.866    39.820238 
    2650    299.21802   -994.66856    51346.638   -14577.517    1472.5468   -16050.064    40.873129 
    2700    292.56737   -1295.2067    51298.792   -14634.108    1439.8169   -16073.925    42.098696 
    2750    304.68287   -532.90992    51218.478   -14607.679    1499.4411    -16107.12    43.084779 
    2800    298.99372   -903.29133    51246.276   -14581.638     1471.443   -16053.081    44.136642 
    2850    296.58134   -989.65144    50912.155   -14648.699    1459.5709    -16108.27    45.014335 
    2900    298.17817   -903.31201    50955.332   -14601.803    1467.4294   -16069.232    46.290998 
    2950    286.94767    -827.9091    51174.594   -14609.924    1412.1606   -16022.085    47.541612 
    3000     299.2108   -959.67085    51249.862   -14600.434    1472.5113   -16072.945    48.854459 
    3050    300.28591    -980.3673    51450.149   -14628.173    1477.8023   -16105.976    50.393339 
    3100    293.17338   -972.62783    51260.947    -14627.21    1442.7992   -16070.009    51.468338 
    3150    300.02676   -780.55771     51232.42   -14621.519    1476.5269   -16098.046    52.362164 
    3200    297.04345   -1296.0513    51222.462   -14611.185    1461.8451    -16073.03    53.593846 
    3250    293.92344   -666.23888    51100.736   -14607.855    1446.4905   -16054.345    54.669496 
    3300    291.88859   -1040.0348    51148.018   -14647.678    1436.4764   -16084.154    56.320292 
    3350    292.20102    -1067.738    51211.204   -14601.503    1438.0139   -16039.517    57.383275 
    3400    299.70518   -1362.5536     51177.43   -14571.226    1474.9443    -16046.17    57.824293 
    3450    306.22012    -852.9526    51209.855   -14543.218    1507.0064   -16050.224    58.652626 
    3500     298.0077   -971.10781    51082.129   -14583.979    1466.5905    -16050.57    59.904455 
    3550    294.85917   -909.40966    51230.445    -14616.53    1451.0956   -16067.626    61.439777 
    3600    304.15826   -1592.8778     51211.85   -14611.249    1496.8593   -16108.108    62.651131 
    3650    301.71751   -615.25696    51244.692   -14573.759    1484.8476   -16058.606    63.737459 
    3700    289.65797   -1054.6724    51245.555   -14605.363    1425.4988   -16030.862    64.965899 
    3750    294.35975   -854.11492    51251.651   -14606.028    1448.6378   -16054.666    65.955349 
    3800    295.70407   -1634.4044    50868.164   -14693.319    1455.2536   -16148.573    66.875183 
    3850     283.8571   -903.72098    50909.581   -14735.825    1396.9509   -16132.776    68.223911 
    3900    282.44448   -863.64677    50893.619   -14758.844    1389.9989   -16148.843    69.370361 
    3950    291.91928   -1178.1797    50829.801    -14706.39    1436.6274   -16143.018    70.232956 
    4000    291.16008   -795.48833    51095.125   -14651.221    1432.8912   -16084.112    71.565692 
    4050    295.70247   -1280.8463    51116.283   -14650.459    1455.2457   -16105.705    73.483526 
    4100    294.77032   -1110.2857    51212.751   -14672.555    1450.6583   -16123.214    74.494007 
    4150    286.73513   -562.04771    51321.812   -14676.337    1411.1146   -16087.452    75.459951 
    4200    297.61548   -1095.5134    51251.975   -14660.297    1464.6603   -16124.957    77.408227 
    4250    297.11002   -1039.2499    51046.662   -14590.736    1462.1727   -16052.909     78.76832 
    4300    288.55051   -857.33165     50812.42   -14672.651    1420.0486     -16092.7    80.040085 
    4350    303.19769   -1229.1129    50899.203   -14596.585    1492.1321   -16088.717    80.948908 
    4400     299.9794   -1087.2838     50987.08   -14582.429    1476.2938   -16058.723    82.043898 
    4450    294.35234    -933.8776    50969.381   -14577.203    1448.6013   -16025.804    82.706233 
    4500    285.68636   -1215.6282    50869.177    -14558.07    1405.9532   -15964.024    83.358702 
    4550    290.00051   -1248.9566    50776.667   -14579.714    1427.1846   -16006.898    85.533516 
    4600    296.74738   -1105.1219    50816.805   -14614.787     1460.388   -16075.175     86.71801 
    4650    296.04739   -1504.4811    50752.665   -14635.677    1456.9432    -16092.62     88.06954 
    4700    284.18417   -799.99422    50855.983     -14661.8    1398.5605    -16060.36    89.600731 
    4750    298.32622   -784.51032    51004.558   -14600.399     1468.158   -16068.557    90.750292 
    4800    301.38575   -1185.3478    50971.105   -14562.202    1483.2149   -16045.417    92.283584 
    4850    296.46199   -945.67524     50863.61    -14581.62    1458.9836   -16040.603    93.524587 
    4900    285.71215   -990.47637    50683.128   -14647.121    1406.0802   -16053.201    94.839746 
    4950    290.08938   -414.73495    50920.495   -14645.608    1427.6219    -16073.23    96.619179 
    5000    298.03011   -1023.8544    51013.273   -14579.617    1466.7007   -16046.318    98.304492 
    5050    296.90587    -1045.999    51042.629   -14624.927     1461.168   -16086.095    99.974135 
    5100    292.35311   -426.65689    51024.147   -14656.321    1438.7625   -16095.083    100.86016 
    5150    288.55754   -912.03647    51162.125   -14654.769    1420.0832   -16074.853    102.39578 
    5200    292.97342   -595.63572    51081.842   -14708.748    1441.8152   -16150.563    103.34421 
    5250    301.41397   -928.67455     51056.47   -14624.048    1483.3538   -16107.402    105.70696 
    5300    291.48864   -838.60821    51094.849   -14638.721    1434.5081   -16073.229    107.89881 
    5350    302.27935   -995.31186    51264.587   -14594.274    1487.6126   -16081.886    109.81388 
    5400    298.21991   -1029.9402    51266.047    -14590.85    1467.6348   -16058.485     110.8807 
    5450    302.64827   -1005.5712    51157.559   -14599.488    1489.4282   -16088.917    111.80133 
    5500    298.99976   -1102.4603    51210.747   -14599.945    1471.4727   -16071.418    113.38726 
    5550    297.39199   -934.87961    50995.546   -14590.184    1463.5604   -16053.744    115.14122 
    5600    289.92209   -907.18146    51100.389   -14640.979    1426.7986   -16067.778    116.72046 
    5650    291.27677   -951.00798    50839.058   -14659.701    1433.4654   -16093.167    116.81233 
    5700     297.3695   -987.32759    50746.124   -14607.922    1463.4497   -16071.372    117.77467 
    5750     295.6721   -921.43312    51011.897   -14606.413    1455.0962   -16061.509    119.05175 
    5800    281.47369   -903.62106    51131.607   -14620.933    1385.2214   -16006.154     120.6673 
    5850    293.76009   -581.95915    51037.233   -14653.608    1445.6866   -16099.295    121.03439 
    5900    286.58537   -1360.6028    51097.875    -14697.44    1410.3776   -16107.818    122.55154 
    5950    283.92256   -940.57658    50906.823   -14697.151     1397.273   -16094.424     123.6872 
    6000    285.94682   -1419.1271    51128.918    -14679.89    1407.2351   -16087.125    125.89153 
    6050    281.89818    -824.0829    50898.507   -14690.395    1387.3104   -16077.705    125.87117 
    6100     290.1437   -903.95629    51003.899   -14664.641    1427.8893   -16092.531    127.68898 
    6150    293.59078   -604.67105    51093.373   -14658.512    1444.8534   -16103.366    129.29996 
    6200    291.89134   -930.82603    51111.968   -14703.148    1436.4899   -16139.638    130.41731 
    6250    291.90433   -1393.1427    51406.112   -14644.164    1436.5539   -16080.718    131.29437 
    6300    290.48886    -588.3272    51261.313   -14649.844    1429.5879   -16079.432     131.4879 
    6350    299.24313    -1012.713    51392.386   -14637.047    1472.6704   -16109.717    132.86007 
    6400    301.83713   -862.70348    51286.273   -14647.992    1485.4363   -16133.428    133.16821 
    6450    296.30379   -785.43247    51389.127   -14613.814     1458.205   -16072.019     133.8566 
    6500    286.18921   -1100.9562    51286.869   -14698.929    1408.4279   -16107.357    135.13587 
    6550    295.36834   -819.82055     51222.02   -14663.797    1453.6014   -16117.399    136.11032 
    6600    293.16615    -709.7046    51347.991   -14715.278    1442.7637   -16158.042     137.8286 
    6650     286.1681    -826.4811    51299.965    -14676.07    1408.3241   -16084.394    137.78871 
    6700    289.82335   -574.18337    51280.281   -14726.442    1426.3127   -16152.755    139.15603 
    6750    286.54233   -1013.6261    51420.705   -14721.662    1410.1658   -16131.828    139.23704 
    6800    287.07368   -724.60037    51476.886   -14698.839    1412.7807    -16111.62    140.34456 
    6850    293.21908   -939.20006     51490.91   -14676.263    1443.0242   -16119.287    142.63163 
    6900    297.98348   -630.68141    51534.354   -14631.654    1466.4713   -16098.125    143.50929 
    6950    298.05599    -1190.683    51614.941   -14560.287    1466.8281   -16027.115    144.04598 
    7000    285.52713   -1018.6057    51090.351   -14630.664    1405.1696   -16035.834    143.68419 
    7050    290.69106   -921.57725    50986.057   -14674.108     1430.583   -16104.691    144.03917 
    7100    277.64148   -1001.0771    51031.593   -14662.971    1366.3618   -16029.333    144.91428 
    7150    287.42959   -1249.5034    51111.219   -14649.792    1414.5322   -16064.324    146.46874 
    7200    285.45596    -1083.936    51193.737   -14667.311    1404.8194    -16072.13    147.99128 
    7250    275.80569   -614.14566    51410.807   -14654.308    1357.3273   -16011.635    149.39942 
    7300    294.45771   -1289.6433    51261.238    -14658.04    1449.1198   -16107.159    149.72097 
    7350    293.04134   -821.72975    51281.642   -14698.026    1442.1494   -16140.176    150.25211 
    7400    293.11161   -1176.6357     51276.35   -14673.645    1442.4952    -16116.14    150.93388 
    7450    289.22354   -704.39415    51237.629   -14626.229    1423.3608    -16049.59    152.10823 
    7500    299.93411   -1070.8097    51511.142   -14612.209    1476.0709    -16088.28    154.48092 
    7550    297.99088   -668.00114     51549.84   -14614.523    1466.5077   -16081.031    156.13043 
    7600    283.72947   -923.09093    51456.308   -14624.827    1396.3228    -16021.15    157.24481 
    7650    294.12128   -564.25933    51295.763   -14566.414    1447.4642   -16013.879    157.78999 
    7700    293.04544    -913.1022    51308.348   -14650.898    1442.1696   -16093.068    157.97981 
    7750    290.66299   -813.22571    51405.448   -14641.702    1430.4448   -16072.147    159.01406 
    7800    288.74347    -985.6785      51284.1   -14684.796    1420.9983   -16105.794    158.44329 
    7850    294.32337   -1124.2413    51381.154   -14707.125    1448.4587   -16155.584    160.05342 
    7900    283.42354   -843.96185    51483.636   -14719.032    1394.8172    -16113.85     161.5342 
    7950    287.37504   -1323.1125    51509.543   -14678.652    1414.2638   -16092.915    162.03722 
    8000    288.67601   -1248.6065    51547.576   -14672.978    1420.6663   -16093.645    162.40152 
    8050    301.36511   -1267.2004    51407.973   -14643.632    1483.1134   -16126.745    163.28642 
    8100    300.56646   -1235.1786    51527.426   -14629.938    1479.1829   -16109.121    163.69298 
    8150    290.96869   -1146.5806    51483.572   -14668.777    1431.9493   -16100.727    164.43547 
    8200    293.90767   -1158.4131    51314.534   -14660.646    1446.4129   -16107.059    164.62737 
    8250    297.70908   -746.78107    51341.471   -14647.243    1465.1209   -16112.364    165.22083 
    8300    297.42255   -1221.7401    51279.458   -14608.503    1463.7108   -16072.214    165.99554 
    8350    299.26969   -654.78203    51072.384   -14649.635    1472.8011   -16122.436    166.65766 
    8400    290.34987    -703.9012    50799.296   -14655.634    1428.9039   -16084.538     167.3399 
    8450    284.74728   -1045.5715    50755.218   -14715.859    1401.3317   -16117.191    168.21977 
    8500     287.4419   -1232.3805    50867.987   -14713.887    1414.5928    -16128.48    170.03286 
    8550    300.22745   -735.01227    51199.024   -14604.063    1477.5146   -16081.578    171.35267 
    8600    301.60255   -926.55264    51281.873   -14584.673    1484.2819   -16068.955    172.80329 
    8650    305.34379   -915.66874    51212.631   -14601.474    1502.6937   -16104.168    173.56579 
    8700    297.19704   -750.14699    51284.663   -14607.298     1462.601   -16069.899    175.66518 
    8750    291.94286   -1289.4281    51371.104    -14547.25    1436.7435   -15983.994     176.8806 
    8800    292.11645   -937.78276     51060.09   -14614.303    1437.5978   -16051.901    176.66237 
    8850    299.51716   -1488.7981    51038.975   -14580.663     1474.019   -16054.682    177.06297 
    8900    297.90135   -846.13593    51277.575   -14524.673    1466.0671    -15990.74    178.39136 
    8950    302.57635     -849.604    51172.363   -14519.608    1489.0742   -16008.682    178.57047 
    9000    289.63342   -1220.6045    51316.294   -14529.127     1425.378   -15954.505    179.81857 
    9050    302.52714   -769.35581    51397.304   -14535.859    1488.8321   -16024.691    181.74699 
    9100    300.23552   -964.05148    51473.953   -14578.693    1477.5543   -16056.247    183.42276 
    9150    288.79942   -1039.7831    51275.001   -14620.698    1421.2736   -16041.971    184.83866 
    9200    292.33294   -1285.2837    51166.924   -14599.935    1438.6632   -16038.598    186.44396 
    9250    296.02703   -807.20249    51241.494   -14626.625     1456.843   -16083.468    187.12289 
    9300    293.06429   -1574.3978    51098.913   -14598.143    1442.2624   -16040.405    187.19758 
    9350     293.3903    -847.4636    51124.332   -14616.297    1443.8668   -16060.163    188.90483 
    9400    290.53651   -1034.1695    50939.809   -14623.584    1429.8224   -16053.406    189.98289 
    9450    296.14195   -1046.7413    50975.924   -14628.796    1457.4085   -16086.205    191.42666 
    9500    289.47293   -922.49569     50928.73   -14652.919    1424.5882   -16077.507    191.38889 
    9550    286.65448   -661.52745    51068.845   -14669.455    1410.7177   -16080.173    192.62705 
    9600    290.58193   -1115.6603    50888.519    -14632.92    1430.0459   -16062.966    193.54174 
    9650    295.40199   -1062.5465    50881.932   -14584.893     1453.767    -16038.66    195.05122 
    9700    289.62541   -863.53438    51026.752   -14619.363    1425.3386   -16044.702    196.56364 
    9750    296.80022   -1211.4962    51055.522   -14608.083    1460.6481   -16068.732    196.71432 
    9800    300.87475   -925.19727    51144.065   -14545.319    1480.7002   -16026.019    197.74042 
    9850    302.81563   -1008.7298    51162.431   -14526.097    1490.2518   -16016.348    198.43443 
    9900    287.50715    -1082.538     50974.27   -14617.398    1414.9139   -16032.312    200.25242 
    9950    290.06364   -807.84239    51072.214   -14678.316    1427.4952   -16105.812    201.64371 
   10000    285.49982   -1271.1434    51055.034    -14647.45    1405.0352   -16052.485    202.10279 
   10050    290.54587   -1249.4757    50955.672   -14628.286    1429.8684   -16058.155    202.46277 
   10100    291.27064    -231.4786    51012.779   -14631.047    1433.4352   -16064.483    203.87728 
   10150    293.79149   -951.28915    51094.658   -14652.236    1445.8412   -16098.077    206.12347 
   10200     294.1473   -1052.7798     51031.62   -14674.215    1447.5922   -16121.807    206.57986 
   10250    293.61146   -1020.2113    50991.586   -14641.973    1444.9552   -16086.928     207.4368 
   10300    295.62281   -732.36836    51208.065   -14634.886    1454.8537   -16089.739    209.00837 
   10350    301.41106   -1239.0964     51242.17   -14591.567    1483.3395   -16074.907    209.86155 
   10400    294.94729   -683.18005    51439.502   -14583.798    1451.5292   -16035.328    211.82178 
   10450    287.93617    -1104.227    51648.221   -14586.879    1417.0253   -16003.904    213.31483 
   10500    291.08901   -1171.5473    51750.407   -14605.421    1432.5414   -16037.962    214.56478 
   10550    297.21362   -800.22792    51750.552   -14569.373    1462.6826   -16032.056     215.5596 
   10600    300.25942   -843.93356    51870.159   -14572.644    1477.6719   -16050.316    216.40176 
   10650    297.83103   -554.35945    51783.091   -14604.095    1465.7211   -16069.816    216.78138 
   10700    299.88336   -1457.8768    51552.688   -14600.588    1475.8212   -16076.409    218.56751 
   10750    291.15964    -998.9631    51440.739   -14603.488     1432.889   -16036.377    219.42015 
   10800    301.45109    -1334.449      51144.4   -14570.474    1483.5365   -16054.011    220.25928 
   10850    299.30176   -1318.1856     51033.37   -14591.805     1472.959   -16064.764    222.08773 
   10900    289.32436   -923.79233    50980.997   -14620.361     1423.857   -16044.218    223.35579 
   10950    294.56736   -1121.0626    51117.563   -14600.394    1449.6595   -16050.054     225.7388 
   11000    302.86122   -832.70584    51008.016   -14607.943    1490.4762    -16098.42    226.82784 
   11050    291.39143   -549.23799    51074.493   -14590.788    1434.0297   -16024.818    228.59261 
   11100    289.56268   -1080.0047    51344.704   -14610.904    1425.0299   -16035.934    229.06003 
   11150    299.31125   -1422.8277    51230.033   -14618.345    1473.0057    -16091.35    230.26322 
   11200    288.68718   -830.84253    51042.451   -14635.981    1420.7213   -16056.702    229.96868 
   11250    296.81471   -1159.7146    51016.802   -14648.835    1460.7194   -16109.554    230.52618 
   11300    288.34106    -1076.962    51006.273   -14662.886    1419.0179   -16081.903    230.00645 
   11350    297.02837   -883.93709    51009.771   -14662.084    1461.7709   -16123.855    230.67374 
   11400    292.27692   -1049.6461    51007.478   -14666.615    1438.3875   -16105.002    232.34432 
   11450    281.61476   -1332.3049    51100.003   -14734.983    1385.9156   -16120.899    232.48427 
   11500    286.07845   -755.00838     51292.58   -14704.311    1407.8828   -16112.193    234.41542 
   11550    294.47893    -1280.109      51360.8   -14700.202    1449.2243   -16149.426     235.3031 
   11600    289.21745   -1295.3902    51254.551   -14731.889    1423.3309    -16155.22    236.92834 
   11650    279.34613   -1016.9396    51247.053   -14717.968    1374.7509   -16092.719    236.96417 
   11700    297.68939    -1090.024    51285.037   -14625.889     1465.024   -16090.913    238.26154 
   11750    287.70148   -629.61573    51245.212   -14631.559    1415.8703   -16047.429    239.36616 
   11800    291.32127   -1113.8506    51192.701   -14671.453    1433.6844   -16105.137    241.08135 
   11850    287.45215   -1084.1726    51033.596   -14727.473    1414.6433   -16142.117    241.70634 
   11900    296.93162   -1067.6686    50956.933   -14727.077    1461.2947   -16188.372    242.86296 
   11950    293.27604   -1096.0602    51157.772    -14653.24    1443.3045   -16096.545    245.23861 
   12000    280.27349   -1137.6304     51201.42   -14680.656    1379.3148   -16059.971     247.1225 
   12050    291.07593    -962.9721    51120.528   -14644.495     1432.477   -16076.972     248.3972 
   12100    298.31554   -1159.7964    51304.596   -14618.312    1468.1054   -16086.417    250.37221 
   12150    299.50961   -1145.2636    51354.682   -14564.018    1473.9819       -16038    251.92621 
   12200    294.96067   -921.87537     51358.32   -14489.688    1451.5951   -15941.283    254.12913 
   12250    304.21018   -1056.3275    51314.945    -14566.03    1497.1148   -16063.145    254.79442 
   12300    305.14481   -905.48506    51087.155   -14513.026    1501.7145    -16014.74    255.71211 
   12350     299.9502   -758.26258    50911.067   -14486.975    1476.1502   -15963.125    255.53646 
   12400    301.16176   -924.42706     50832.88    -14501.64    1482.1126   -15983.752    257.18147 
   12450    293.68382   -982.60338    50901.067   -14566.321    1445.3113   -16011.632    258.27592 
   12500    292.79133   -764.63679    51041.548    -14582.98    1440.9191   -16023.899    260.82754 
   12550    297.72188   -940.53497     51134.56   -14589.576    1465.1839    -16054.76    262.49828 
   12600    302.60191   -988.50959    51065.831   -14575.412    1489.2001   -16064.612    262.87409 
   12650    301.50855   -978.90443    51273.438   -14543.738    1483.8192   -16027.557    263.53704 
   12700    298.09409   -1365.5674     51140.61   -14593.739    1467.0156   -16060.754    264.47352 
   12750    297.47673   -969.11199    51085.564   -14601.515    1463.9774   -16065.492    265.64153 
   12800    290.55808   -980.15515    51125.847   -14600.046    1429.9285   -16029.974    266.83857 
   12850    300.74114   -900.86425    50924.315   -14589.442    1480.0426   -16069.484    267.10814 
   12900    302.94773   -1166.8143    50818.089   -14605.674    1490.9019   -16096.576     267.6375 
   12950    296.44153   -545.01854    50920.414   -14618.698    1458.8828   -16077.581    270.08991 
   13000    289.02018   -794.05125    50947.727   -14615.169      1422.36   -16037.529    270.55341 
   13050    292.67012   -898.34847    50946.922   -14586.766    1440.3225   -16027.089    271.88072 
   13100    295.83363   -593.57214     51020.49   -14604.382    1455.8912   -16060.273    273.53286 
   13150    304.23413   -749.79051    51051.764   -14559.891    1497.2327   -16057.124    274.76437 
   13200    298.14813   -1037.1131     51073.46   -14550.597    1467.2816   -16017.879    276.66107 
   13250    298.71152   -928.25797    51136.409    -14546.85    1470.0542   -16016.905    278.68016 
   13300    296.57259   -945.09527     51299.02   -14570.615    1459.5278   -16030.143    279.81311 
   13350    295.91456   -1105.9118    51322.188   -14593.703    1456.2895   -16049.993    279.83191 
   13400    298.06168   -939.98392    51119.316   -14601.828    1466.8561   -16068.684    278.99725 
   13450    292.76722   -846.34421    51244.248   -14614.072    1440.8004   -16054.872    280.43851 
   13500     302.4322   -1074.3489     51227.83   -14605.002    1488.3648   -16093.366    281.43526 
   13550     287.6349   -1468.3578    51332.534   -14647.033    1415.5426   -16062.576    283.57211 
   13600    290.58236   -1411.9596    51200.271   -14638.568     1430.048   -16068.616    283.45269 
   13650    298.59886   -945.64963    51195.766   -14628.635    1469.4998   -16098.135    285.15865 
   13700    295.71081   -1202.5389    51073.367   -14661.331    1455.2867   -16116.618    285.18519 
   13750     285.3937   -907.10631    51153.111   -14678.233     1404.513   -16082.746    287.54981 
   13800     286.4568   -1088.9361    51169.043   -14705.639    1409.7448   -16115.383    289.48141 
   13850    288.51943   -1549.9945    50926.877     -14694.2    1419.8957   -16114.096     290.2207 
   13900     294.7891   -1016.5643    50899.884   -14656.797    1450.7507   -16107.548    291.11112 
   13950    296.59475   -1454.6232    50792.709   -14660.782    1459.6369   -16120.419    292.60226 
   14000    286.37651   -1230.4227      50541.2   -14693.124    1409.3497   -16102.474    293.55252 
   14050    285.43945   -858.65538    50955.646   -14708.952    1404.7381    -16113.69     297.1063 
   14100    298.82427   -548.34822    50976.697   -14615.708    1470.6091   -16086.317    297.84795 
   14150    296.65442   -923.01182    51002.893    -14646.06    1459.9306   -16105.991    298.78744 
   14200    295.24749   -920.79052    50846.945   -14639.746    1453.0066   -16092.752    298.82353 
   14250    300.97305   -897.05214    50819.523   -14649.411    1481.1839   -16130.595    300.31653 
   14300    282.33997   -1069.5959    50921.823     -14695.9    1389.4846   -16085.384    301.66373 
   14350    300.37156   -1162.8132    51006.516   -14669.146    1478.2238   -16147.369    303.14965 
   14400    300.43136   -933.67572    50924.054   -14629.203    1478.5181   -16107.721    303.62377 
   14450    304.83332   -974.54742    50906.559   -14654.904    1500.1815   -16155.086    305.02196 
   14500    296.03788   -1226.9938     50921.29   -14686.889    1456.8964   -16143.786    305.86282 
   14550    300.16625   -1198.7705    50828.822   -14637.956    1477.2134   -16115.169    306.45749 
   14600      303.503   -1291.0646    50897.315   -14594.287    1493.6346   -16087.921    308.47133 
   14650    303.97248   -968.81963    50796.909   -14561.418    1495.9451   -16057.364    309.44487 
   14700    293.82343   -1225.0767    50938.829   -14615.527    1445.9983   -16061.525    311.00688 
   14750    295.18222   -1030.1812    50840.853   -14629.745    1452.6854   -16082.431    312.03097 
   14800    287.53464   -1156.1769    50974.784   -14658.243    1415.0492   -16073.292    313.82325 
   14850    292.64237   -1209.1209    51068.255    -14671.91     1440.186   -16112.096    315.74241 
   14900    299.64832   -1118.3452    51124.141   -14656.669    1474.6645   -16131.333    315.81727 
   14950    288.99057   -526.20395    51002.209   -14720.593    1422.2143   -16142.808    317.02266 
   15000     292.6152    -965.8329    51066.692   -14700.442    1440.0523   -16140.494    318.50825 
   15050    290.59667   -1139.5041    51055.918   -14698.163    1430.1184   -16128.281    319.74906 
   15100    294.37859   -759.17605     50899.71   -14679.463    1448.7305   -16128.194    321.41031 
   15150    286.15209   -686.95058    50985.656   -14706.623    1408.2452   -16114.869     323.4603 
   15200    290.22998   -902.60441    51213.518   -14684.162    1428.3138   -16112.476     326.8128 
   15250     294.6612   -943.38941    51233.983   -14634.313    1450.1213   -16084.434    328.24154 
   15300    284.57143   -909.38288     51341.17   -14644.606    1400.4663   -16045.072    328.78977 
   15350    292.77736   -812.83923     51211.45    -14614.91    1440.8503    -16055.76    329.02727 
   15400    298.86442   -1472.5784    51081.918   -14579.043    1470.8067    -16049.85    329.45863 
   15450    299.01948   -923.15566    50884.111   -14632.209    1471.5698   -16103.779    330.98693 
   15500    288.59119   -1085.9308    50959.241   -14638.585    1420.2489   -16058.834    331.68002 
   15550     287.7774   -631.47555    51024.684   -14604.601    1416.2439   -16020.845    332.64401 
   15600    290.85447   -1382.8019    51090.427   -14682.175    1431.3872   -16113.562    334.35473 
   15650    290.65364   -684.46677    51232.017   -14633.725    1430.3988   -16064.123    336.41417 
   15700    291.67811   -1443.9193    51013.797   -14642.163    1435.4406   -16077.604    336.29376 
   15750    293.68958   -1335.1691    50977.634     -14660.3    1445.3396   -16105.639    337.71667 
   15800    299.35369   -749.20898    50796.794   -14644.643    1473.2145   -16117.858    336.57283 
   15850    291.56808   -647.48912    50947.337    -14609.76    1434.8991   -16044.659    338.46129 
   15900    296.57349   -1023.5663    50963.336   -14626.766    1459.5323   -16086.298    338.24226 
   15950    288.06471   -932.26072    50918.261   -14672.225    1417.6579   -16089.883     338.0532 
   16000    298.45512   -1257.2007    50927.596   -14659.999    1468.7924   -16128.792    340.61441 
   16050     286.7175   -857.49507    50883.452   -14650.236    1411.0278   -16061.264    343.13658 
   16100    293.44189   -1290.7543    51126.299   -14625.568    1444.1207   -16069.689    346.30321 
   16150    298.37516   -638.82313    51218.905   -14609.988    1468.3988   -16078.387    348.94302 
   16200    305.28012   -914.55583    51345.585   -14542.836    1502.3804   -16045.216    351.90991 
   16250    297.39993   -1146.6155    51311.687   -14539.866    1463.5994   -16003.466    354.84908 
   16300    298.32892   -1396.6944    51126.631   -14526.034    1468.1713   -15994.205    354.82334 
   16350    295.02346   -808.84433    51139.671   -14541.262    1451.9041   -15993.166    356.17682 
   16400    304.92788   -763.78754    51191.114   -14532.155    1500.6469   -16032.802    358.18853 
   16450    292.06554    -871.4801    51095.866   -14557.667    1437.3472   -15995.014    359.77967 
   16500    293.36025   -996.97907    51038.741   -14533.792    1443.7189   -15977.511    360.21815 
   16550    295.17192   -232.02969    51246.532   -14546.365    1452.6347       -15999    363.12751 
   16600    294.74655   -1065.1824    51473.811   -14547.738    1450.5413   -15998.279    365.65296 
   16650    299.75912   -1378.2662    51363.715   -14576.003    1475.2098   -16051.213    366.52658 
   16700    299.73122   -934.16243    51647.391    -14584.96    1475.0724   -16060.032    367.45175 
   16750    298.88212   -874.35578    51746.425   -14571.306    1470.8938     -16042.2     369.8085 
   16800    305.40784   -911.63846     51626.54   -14522.772    1503.0089    -16025.78    371.42438 
   16850    298.20868   -941.59539    51411.627   -14590.185    1467.5796   -16057.765    371.54076 
   16900    303.19849    -903.3223    51454.603   -14596.172     1492.136   -16088.308    373.66941 
   16950    291.52966   -961.93326    51490.038    -14618.43      1434.71    -16053.14    374.67672 
   17000    298.11206   -1077.8052    51591.281   -14579.635    1467.1041   -16046.739    376.55745 
   17050    286.72695    -729.3025    51565.977   -14597.302    1411.0743   -16008.376      377.832 
   17100    297.87071   -783.02963    51419.565   -14550.397    1465.9163   -16016.313    378.42898 
   17150    301.81958   -871.76511    51457.168   -14535.903    1485.3499   -16021.253    379.83554 
   17200    300.87768   -937.69007    51323.462   -14533.854    1480.7145   -16014.569    379.12646 
   17250    293.55598   -848.58685    51247.419   -14499.187    1444.6822    -15943.87    379.94127 
   17300    287.62662   -1060.3527    51435.768   -14563.223    1415.5019   -15978.725     382.5613 
   17350    297.83695   -744.85275    51559.037    -14529.52    1465.7502    -15995.27    384.03304 
   17400    297.64102   -1250.3063    51532.952   -14573.916    1464.7859   -16038.702    385.30615 
   17450    306.11584   -694.42491    51644.029   -14583.812    1506.4932   -16090.306     387.3302 
   17500    296.15308   -708.22347    51900.475   -14610.306    1457.4633   -16067.769    389.61555 
   17550    297.30809   -1636.3783      51855.4   -14643.592    1463.1475    -16106.74    390.77049 
   17600    293.75621   -1381.9927    51486.127   -14650.593    1445.6675   -16096.261     390.4622 
   17650    292.61334   -984.29155    51273.102   -14684.916    1440.0431    -16124.96    390.79691 
   17700    296.67065   -1202.6416    51348.652   -14598.345    1460.0104   -16058.356     392.2055 
   17750    284.99461   -1396.5946    51380.252   -14616.298    1402.5489   -16018.846    392.76442 
   17800    287.37449   -1344.0018    51338.124   -14641.485    1414.2611   -16055.746    392.13707 
   17850    296.12893   -1201.7631    51327.462   -14647.153    1457.3444   -16104.498    393.77551 
   17900    295.67892   -672.75649    51384.645   -14666.473    1455.1298   -16121.603     396.3164 
   17950    283.76338   -1552.2945    51292.328   -14714.746    1396.4896   -16111.236    397.64064 
   18000    288.29876   -720.83408    51311.652    -14674.61    1418.8097    -16093.42    399.27893 
   18050    284.01146   -847.70191    51448.186    -14702.64    1397.7105    -16100.35    403.19861 
   18100    284.00047   -1184.9699    51404.201   -14662.898    1397.6565   -16060.555    404.77806 
   18150    293.76294    -1250.938    51381.068   -14637.223    1445.7007   -16082.924    405.79212 
   18200    291.08712   -678.04878    51514.353   -14614.736    1432.5321   -16047.269    409.03695 
   18250    292.77853   -1552.3347    51553.946   -14645.405    1440.8561   -16086.261    409.50992 
   18300     287.0686   -1021.4463    51487.438   -14623.334    1412.7557    -16036.09    409.93529 
   18350    284.41716   -954.87846    51463.167   -14659.344    1399.7071   -16059.051    410.87381 
   18400    291.59475    -934.3209    51491.572   -14657.567    1435.0303   -16092.597    411.58821 
   18450    293.85428    -1161.839    51338.271   -14656.043    1446.1502   -16102.194    411.79461 
   18500     297.1821   -1124.6173    51237.973   -14594.017    1462.5274   -16056.544    411.34988 
   18550    291.28056   -611.11106    51151.784   -14580.968    1433.4841   -16014.452    410.61323 
   18600    294.36843   -1207.7029    51267.852   -14621.217    1448.6805   -16069.897     413.0526 
   18650    293.09117   -1488.2753    51310.515   -14556.763    1442.3947   -15999.158    414.59986 
   18700    299.17682   -1012.0173     51519.33   -14546.897    1472.3441   -16019.241    416.07249 
   18750    297.25907   -1449.7205    51301.893   -14541.024    1462.9062   -16003.931     415.6119 
   18800    290.70334   -852.65371    51300.969   -14600.394    1430.6434   -16031.038    416.92518 
   18850    298.07262   -1435.2481    51040.506   -14548.728      1466.91   -16015.637    416.46164 
   18900    300.74668   -1138.8582    51188.653   -14525.051    1480.0699   -16005.121    418.15707 
   18950    295.14551   -1146.8579    51255.271   -14518.176    1452.5047    -15970.68    418.51233 
   19000    297.26976   -921.45534    51395.773   -14551.526    1462.9588   -16014.484    420.99862 
   19050    291.45723   -1067.4921    51421.683   -14620.531    1434.3535   -16054.884    421.86487 
   19100    296.60405   -1223.5678    51433.045   -14598.041    1459.6827   -16057.723    423.59923 
   19150    302.58421   -835.40434    51347.485   -14591.474    1489.1129   -16080.587    423.90016 
   19200    292.46991   -1174.8523    51258.195   -14591.032    1439.3373    -16030.37     424.2159 
   19250    294.75279   -862.85019    51330.807    -14568.07     1450.572   -16018.642    426.43355 
   19300    298.34075   -768.38137     51344.91    -14581.23    1468.2295   -16049.459    428.07996 
   19350    286.60684   -1481.1414     51280.33   -14608.542    1410.4832   -16019.025    429.57151 
   19400    295.68057    -641.9921    51233.663   -14604.984    1455.1379   -16060.122    432.32508 
   19450    291.99714    -608.4619    51406.468   -14599.381    1437.0106   -16036.391    433.90107 
   19500    289.66664   -1423.3286    51307.694   -14585.347    1425.5415   -16010.888    434.82798 
   19550    293.14245   -1216.8844    51286.804    -14548.21     1442.647   -15990.857    435.67739 
   19600     298.5337    -728.0571    51199.626    -14583.46    1469.1791   -16052.639    437.28507 
   19650    292.00217   -948.00586    51155.026    -14577.05    1437.0354   -16014.085    438.50133 
   19700    296.92297   -833.89174    51305.818   -14603.719    1461.2522   -16064.971    440.63121 
   19750    296.46613   -1020.9118    51233.865   -14551.235    1459.0039   -16010.238    442.50558 
   19800    288.79251   -1265.8122    51313.847   -14613.561    1421.2396   -16034.801    443.89471 
   19850    299.97707   -876.88948    51075.599   -14585.522    1476.2824   -16061.805    443.35485 
   19900    295.25924   -828.34783    51093.021   -14564.508    1453.0644   -16017.573    444.08215 
   19950    308.83505    -837.5171    51059.347   -14481.463    1519.8753   -16001.338    445.64432 
   20000    295.42723   -1026.8053    51154.765   -14535.851    1453.8912   -15989.742    445.89358 
   20050    294.52513   -1315.2132    50942.012   -14534.544    1449.4516   -15983.996    446.39981 
   20100    299.67399   -1152.8836    50810.391   -14566.491    1474.7908   -16041.282    445.95319 
   20150    296.03984    -854.3481    50868.089   -14532.164     1456.906    -15989.07    447.14489 
   20200    298.59455   -962.22884    50873.813   -14563.841    1469.4786   -16033.319    447.91762 
   20250    307.70393   -1612.4248    50929.748   -14531.262    1514.3087    -16045.57    449.62783 
   20300    298.03135    -1481.907     50905.93   -14545.447    1466.7069   -16012.154     450.8618 
   20350    296.31011   -981.71786    50842.244   -14551.192    1458.2361   -16009.428      451.018 
   20400    297.13882   -1096.4504    51140.903   -14546.555    1462.3144   -16008.869    453.23693 
   20450    304.16788   -985.38342     51265.58   -14500.365    1496.9067   -15997.271    454.95321 
   20500    299.59692   -1476.2418    51229.571   -14515.316    1474.4115   -15989.728    455.92581 
   20550    292.90401    -1125.097     51124.34    -14589.96    1441.4736   -16031.434    456.83149 
   20600    298.84491   -725.68772    51205.997    -14574.41    1470.7106    -16045.12    457.82556 
   20650    292.12806   -1147.8799    51324.983   -14613.646    1437.6549   -16051.301    458.54354 
   20700     292.6716   -1060.2697     51304.27   -14667.815    1440.3298   -16108.145    458.66482 
   20750    287.16782   -699.04624    51282.509   -14629.751     1413.244   -16042.995    459.87055 
   20800     290.1335   -645.52556     51427.72   -14643.143    1427.8391   -16070.982     460.8183 
   20850    289.73529   -948.27976    51440.366   -14605.912    1425.8793   -16031.792    461.07755 
   20900     293.1177   -851.83226    51452.447   -14629.669    1442.5252   -16072.194    461.28075 
   20950    298.87328   -976.43612    51312.361   -14588.993    1470.8503   -16059.843    461.54088 
   21000    295.20937   -935.91813    51521.619   -14550.653     1452.819   -16003.472    462.68185 
   21050    290.21802   -662.31023    51611.026   -14637.704     1428.255   -16065.959    463.07965 
   21100    293.69738   -901.83951     51406.48   -14630.086     1445.378   -16075.464    462.08102 
   21150    285.56652   -735.75969    51443.817   -14697.786    1405.3635   -16103.149    463.22763 
   21200    286.05047    -947.3888    51449.526   -14703.049    1407.7451   -16110.794     463.7992 
   21250    287.51217   -884.65509    51480.286   -14681.324    1414.9386   -16096.263    466.39565 
   21300    300.90873   -970.34799    51594.544   -14691.633    1480.8674   -16172.501    468.54695 
   21350     289.7322   -853.65308    51595.933   -14630.995    1425.8641   -16056.859    470.99564 
   21400    294.19901   -1405.2866    51473.151   -14644.912    1447.8467   -16092.759    468.81862 
   21450    301.47907   -1074.4889    51567.959   -14581.832    1483.6742   -16065.507     468.1279 
   21500    292.78879    -1181.357    51712.808   -14597.773    1440.9066    -16038.68     471.0866 
   21550    289.59183   -1367.0143    51364.241   -14654.558    1425.1733   -16079.732    469.70214 
   21600     286.8711   -1132.9895    51248.392   -14625.035    1411.7837   -16036.819    471.08972 
   21650    301.02666   -938.57257     51267.51   -14662.938    1481.4478   -16144.386    472.15003 
   21700    287.98632   -642.31055    51402.299   -14659.101    1417.2721   -16076.373    474.67193 
   21750     305.2737   -1001.6381    51481.872   -14586.839    1502.3488   -16089.188    476.06916 
   21800    297.87175   -777.05106    51389.237   -14616.916    1465.9214   -16082.838    476.70756 
   21850    289.96585   -960.81415     51471.63   -14610.924     1427.014   -16037.938    479.57825 
   21900    296.40409   -881.34583    51330.393   -14587.361    1458.6986    -16046.06     481.5532 
   21950    283.78911   -792.73608    51416.307    -14602.01    1396.6163   -15998.627    484.25127 
   22000    299.43911   -1230.3488    51327.773   -14632.262    1473.6349   -16105.897    484.41966 
   22050     297.9155   -1226.7462    51573.784   -14596.994    1466.1367   -16063.131    486.54741 
   22100     295.9451    -998.0782    51703.933   -14566.696    1456.4398   -16023.136    489.42427 
   22150    297.18189   -1548.3026    51716.014   -14515.227    1462.5264   -15977.754    489.26282 
   22200    301.39601   -898.27144    51721.596   -14491.762    1483.2654   -15975.027    490.98003 
   22250    308.15638   -1115.3109    51618.857   -14479.353    1516.5353   -15995.889    491.80314 
   22300    290.37699   -1403.5134    51563.457   -14563.737    1429.0373   -15992.775    492.59182 
   22350    283.87572   -857.16606    51489.736    -14644.48    1397.0425   -16041.522    494.10919 
   22400    290.96587   -775.48307    51349.811   -14623.975    1431.9354   -16055.911    495.11568 
   22450    293.93326   -740.59883    51227.216   -14629.773    1446.5389   -16076.312    495.38116 
   22500    289.30225   -1122.5341    50871.296   -14671.621    1423.7482   -16095.369    493.76665 
   22550    284.03071   -1057.7517     50855.83   -14648.737    1397.8053   -16046.542    493.44056 
   22600     288.8635   -817.97836     50850.89   -14679.422     1421.589   -16101.011     494.7682 
   22650    292.42804   -982.61301    51064.009   -14627.532    1439.1312   -16066.663    496.77652 
   22700    293.21058   -893.16131    51441.065   -14594.758    1442.9823    -16037.74    500.89874 
   22750    289.74456   -1151.0172    51382.575   -14682.464    1425.9249   -16108.389    503.11574 
   22800    284.38974   -786.38094    51210.757   -14744.098    1399.5722    -16143.67     502.0032 
   22850    288.81985   -990.55033    51075.175   -14747.235    1421.3741   -16168.609    501.05652 
   22900    282.80571   -664.61385    51093.665   -14685.707    1391.7767   -16077.483    502.07491 
   22950    296.61128   -1147.5802    51084.562   -14651.846    1459.7183   -16111.565    501.65828 
   23000    293.37082   -1071.0264    51068.522   -14573.282    1443.7709   -16017.053    503.81814 
   23050     288.8162   -876.51802    51049.507   -14617.766    1421.3562   -16039.122    505.96021 
   23100    294.35478   -803.24921    50976.151   -14604.363    1448.6133   -16052.976    506.68537 
   23150    301.98729    -1000.311    50981.286   -14593.953    1486.1753   -16080.128    509.24473 
   23200    287.65652   -1092.7662    50884.354   -14628.225     1415.649   -16043.874    509.60899 
   23250    294.43426   -994.85075    50910.241   -14622.169    1449.0045   -16071.173    510.54862 
   23300    294.74393   -820.37646    50932.742   -14696.253    1450.5284   -16146.781    511.46017 
   23350    297.10044   -1169.3609    51228.976   -14646.553    1462.1256   -16108.679    514.87911 
   23400    295.82157   -698.23719    51136.002   -14614.882    1455.8319   -16070.713    515.94963 
   23450    294.24087    -1378.261    51118.028    -14614.37    1448.0527   -16062.423    518.36908 
   23500    299.71341   -1233.1823    51010.032   -14665.036    1474.9848   -16140.021     519.5653 
   23550    299.60787   -487.30075    51099.386   -14646.058    1474.4654   -16120.523    520.37503 
   23600    288.15368   -1193.7521    51269.337   -14682.198    1418.0957   -16100.294    524.08816 
   23650    296.53552   -1068.0726    51214.616   -14668.495    1459.3454   -16127.841    524.71605 
   23700    290.69946   -1389.0747    51282.411   -14693.581    1430.6243   -16124.205    525.82144 
   23750    299.49322   -1272.2621    51234.265   -14627.978    1473.9012   -16101.879    526.27915 
   23800    291.34342   -981.24738    51192.359   -14675.634    1433.7934   -16109.427    527.34572 
   23850    297.34873   -1010.8188    51176.383   -14601.823    1463.3475    -16065.17    528.70285 
   23900    295.04676    -1207.337    51128.426   -14590.304    1452.0187   -16042.323    528.68472 
   23950    298.20158    -871.8673    51151.776   -14602.002    1467.5446   -16069.547    529.30297 
   24000    299.94797   -828.76915    51328.985   -14565.405    1476.1392   -16041.544    531.42688 
   24050     289.9696   -969.20617    51206.407   -14618.759    1427.0324   -16045.792    530.08191 
   24100    294.14474   -1059.8271    51315.074   -14576.724    1447.5796   -16024.303     531.2426 
   24150    290.91302   -820.10039    50922.239   -14535.771    1431.6753   -15967.446    528.67325 
   24200    288.08424   -864.31953    51215.621   -14506.836     1417.754    -15924.59     531.9602 
   24250     292.6383   -1212.8398    51081.136   -14527.453    1440.1659   -15967.619     533.7882 
   24300    302.97747    -709.8972    51071.436   -14571.296    1491.0483   -16062.344    535.46947 
   24350    302.71755   -818.46343    51203.891    -14541.15    1489.7691   -16030.919    537.51091 
   24400    300.55829   -1007.3354    51193.634   -14550.461    1479.1428   -16029.604    539.32239 
   24450     292.6359   -1034.3838    51164.365    -14568.84    1440.1542   -16008.994    541.03759 
   24500    288.47687   -1362.8616     50984.84   -14643.475    1419.6862   -16063.161    542.66097 
   24550    286.82603   -1087.9397    51008.896    -14647.06    1411.5619   -16058.622    544.27754 
   24600    291.05451   -1112.4007    51000.867   -14581.992    1432.3716   -16014.364     546.4998 
   24650    295.86891   -581.65286    51063.271   -14582.985    1456.0648    -16039.05    547.78996 
   24700    295.72816   -1234.8109    51018.493   -14576.956    1455.3721   -16032.328    548.63852 
   24750    291.74657    -1135.612    51127.016   -14528.687    1435.7775   -15964.465    550.59707 
   24800    288.38551   -835.73792    51236.394   -14573.842    1419.2366   -15993.078     551.9439 
   24850      291.382   -1095.0812     51133.22   -14618.866    1433.9833    -16052.85    551.48597 
   24900    291.41717   -748.96464    51222.163   -14598.888    1434.1564   -16033.045    553.72377 
   24950    285.77107   -910.30948    51233.776   -14628.779    1406.3701   -16035.149    555.01999 
   25000    294.90426    -1386.537    50896.366   -14614.875    1451.3175   -16066.192    554.43371 
   25050    291.78904   -748.97508    50829.146   -14660.301    1435.9865   -16096.288    554.45482 
   25100    296.00931    -1226.406    51066.546   -14667.101    1456.7558   -16123.857    558.38245 
   25150    289.16349   -1093.9032     50913.23   -14649.028    1423.0653   -16072.094    558.43126 
   25200    283.38745   -1237.6886    50901.194    -14648.43    1394.6396   -16043.069    560.24872 
   25250    291.37588   -636.84607    50909.689   -14647.167    1433.9532    -16081.12     561.7644 
   25300    298.57668   -1215.9439     50936.18   -14682.061    1469.3906   -16151.451      564.339 
   25350    297.20068   -842.54903    51112.379   -14669.316    1462.6189   -16131.935    567.38297 
   25400     296.3214   -632.69849      51156.7   -14632.369    1458.2916   -16090.661    568.93624 
   25450    292.37761   -1142.6155    51230.671   -14620.384     1438.883   -16059.267    569.96261 
   25500    282.01837   -1103.5933    51203.748   -14660.818    1387.9019    -16048.72    570.10271 
   25550    285.81716   -1105.3005    50975.699   -14676.931    1406.5969   -16083.528    570.33603 
   25600     292.2199   -1280.3839    51212.063     -14673.9    1438.1069   -16112.007    573.38704 
   25650    295.28236   -399.71616    51130.408   -14684.635    1453.1782   -16137.813    573.14726 
   25700    288.50821   -803.42793    51143.899   -14695.314    1419.8405   -16115.155    574.36285 
   25750    286.00718   -1051.0514    51059.117   -14700.595    1407.5321   -16108.127     574.2119 
   25800    274.19627   -1510.3071    50829.698   -14785.211    1349.4069   -16134.618    575.40587 
   25850    282.29651   -1167.8206    50739.904   -14803.705    1389.2707   -16192.976     575.3296 
   25900    287.86453   -1119.3984    50797.686   -14748.758    1416.6727    -16165.43    577.04886 
   25950     291.1654   -787.44315    50981.116   -14669.356    1432.9173   -16102.273    580.40109 
   26000    292.34064   -1149.0583    50984.092   -14653.138    1438.7011    -16091.84    582.14894 
   26050    298.27274   -961.38659    51133.363    -14689.84    1467.8948   -16157.735    584.96756 
   26100    290.06446   -759.90382    51146.655   -14661.185    1427.4993   -16088.685    586.00477 
   26150     299.9035   -670.80152    51239.959    -14611.68    1475.9203     -16087.6     588.0923 
   26200    307.32983   -1210.0392    51160.404   -14560.124    1512.4677   -16072.592    589.41279 
   26250    297.13537   -1402.5468    50850.669   -14583.309    1462.2975   -16045.606    588.09123 
   26300    294.26953   -776.65038    50931.154   -14646.925    1448.1938   -16095.118    589.70635 
   26350    290.78645   -752.83327    51077.167    -14646.76    1431.0524   -16077.813    590.36289 
   26400    291.79489   -733.28527    51201.769    -14584.93    1436.0153   -16020.945    593.62089 
   26450    300.00287   -1381.0396    50901.084    -14520.67    1476.4094    -15997.08    592.25017 
   26500    298.27899   -931.11442    50845.873   -14508.355    1467.9256    -15976.28    592.90985 
   26550    289.66975   -1013.3211    50650.086   -14564.943    1425.5568     -15990.5    594.42421 
   26600    296.47185   -1195.2509     50546.61   -14658.518    1459.0321    -16117.55    595.57491 
   26650    306.50395   -1045.6914     50620.84   -14606.358    1508.4032   -16114.761    597.22047 
   26700    299.09571   -1015.4415    50848.329   -14589.189    1471.9449   -16061.134    600.39537 
   26750    296.81873   -1022.6538    51088.213   -14579.211    1460.7392   -16039.951    605.21755 
   26800    299.27081   -1000.7908    50838.057   -14603.414    1472.8066    -16076.22    605.17601 
   26850    286.85976   -724.37476    50614.196   -14656.212    1411.7279   -16067.939    603.58909 
   26900    286.05073   -735.97883    50629.684   -14688.177    1407.7464   -16095.924    605.03026 
   26950    293.80001   -703.06665    50792.197   -14597.875    1445.8831   -16043.758    608.63334 
   27000    285.82506   -1155.8176    50903.895     -14685.2    1406.6359   -16091.836    610.91147 
   27050    295.33129   -1339.6342     50972.25   -14642.906     1453.419   -16096.325    611.87271 
   27100    296.77327   -1223.7344    50819.132   -14593.011    1460.5155   -16053.527    612.05297 
   27150    292.38595   -907.94962    50840.479    -14565.44    1438.9241   -16004.364    614.07634 
   27200    297.23712   -977.99959    50992.551   -14560.135    1462.7982   -16022.933    616.57569 
   27250    292.39949    -1532.919    50927.841   -14542.471    1438.9907   -15981.461    616.50867 
   27300    298.21109   -908.53588    51031.793   -14516.543    1467.5914   -15984.135    620.74516 
   27350    301.81031   -919.99782    50857.892   -14558.196    1485.3043     -16043.5    622.40355 
   27400    298.63912   -759.26091    50988.178   -14579.739    1469.6979   -16049.437    628.53564 
   27450    297.36426   -829.49501    50992.303    -14623.29    1463.4239   -16086.714    631.64297 
   27500    308.14001   -615.18691     51136.98   -14584.617    1516.4548   -16101.072     634.8354 
   27550    299.25385   -957.90151    50955.772   -14528.265    1472.7232   -16000.988    634.07918 
   27600    304.31794   -513.28818    51025.492    -14567.18    1497.6452   -16064.825    636.06196 
   27650    296.06136   -1146.4873     51044.54       -14594    1457.0119   -16051.012     636.6516 
   27700    301.71597   -815.49717    51054.219   -14569.321    1484.8401   -16054.162    636.42484 
   27750     306.5379   -1082.9241    51197.513   -14546.186    1508.5703   -16054.756    638.37564 
   27800    294.41989   -855.30635    51181.111   -14580.015    1448.9337   -16028.949    640.75378 
   27850    299.28127    -1197.008    51207.291    -14600.25    1472.8581   -16073.108    643.05839 
   27900    295.12584   -1401.7608    51037.258   -14545.177    1452.4079   -15997.585    643.78118 
   27950    313.97997   -1089.8088     51052.54   -14522.588    1545.1951   -16067.783    647.07031 
   28000    294.66612   -904.67994     50859.87   -14575.145    1450.1455    -16025.29    646.86981 
   28050    287.96945   -866.35993    51001.052   -14621.609    1417.1891   -16038.798    648.09059 
   28100    288.58954   -926.68502    51015.342   -14613.068    1420.2407   -16033.309    648.27044 
   28150    286.36074   -1027.4449    51022.892   -14659.864    1409.2721   -16069.136     650.4353 
   28200    284.57464     -737.872    50995.561   -14692.764    1400.4821   -16093.247    651.08952 
   28250    290.93736   -854.96128    51109.151   -14689.281    1431.7951   -16121.076    652.57926 
   28300    291.68168   -1432.7661    51192.503   -14663.015    1435.4581   -16098.473    653.17381 
   28350    298.30481   -1214.6968    51028.728   -14600.371    1468.0526   -16068.424    653.31017 
   28400    293.57386   -938.97621    50786.661   -14579.141    1444.7702   -16023.911     651.7274 
   28450    297.51028   -907.28695    50892.839    -14654.04    1464.1425   -16118.183    653.64969 
   28500    291.72446   -1497.6906    50516.051   -14717.626    1435.6687   -16153.295    652.69089 
   28550    296.23918   -1007.5457    50628.702   -14682.782     1457.887   -16140.669    655.02119 
   28600     293.1125   -1119.8473        50756   -14691.308    1442.4996   -16133.807    657.27696 
   28650    293.00816   -1100.6484    50955.246   -14729.771    1441.9861   -16171.757    660.14766 
   28700    291.94303   -950.82977    51085.131   -14732.362    1436.7443   -16169.107    662.69027 
   28750     295.1003   -1051.0596    51032.936    -14678.91    1452.2822   -16131.192    661.65063 
   28800    296.74525   -1080.4643     51187.61   -14674.547    1460.3776   -16134.925    664.35199 
   28850    289.42794   -1283.2734     51141.69   -14656.394    1424.3668   -16080.761    665.81561 
   28900    301.03044   -965.43488     51177.94   -14653.602    1481.4663   -16135.069    666.77903 
   28950    291.90256     -805.351    51266.357   -14677.008    1436.5451   -16113.553    668.52847 
   29000    291.79103   -1696.0293    50954.156   -14674.066    1435.9963   -16110.063    667.41997 
   29050    297.55029   -1011.4651    51074.589   -14611.528    1464.3394   -16075.867    668.62373 
   29100     292.0931   -1171.7125    51080.737   -14637.939    1437.4829   -16075.422    669.71752 
   29150    298.18453   -736.15401    51217.565   -14636.118    1467.4607   -16103.579    669.93768 
   29200    288.94918   -1011.8346    51218.291   -14661.017    1422.0106   -16083.028    670.67912 
   29250    297.56671   -1315.9524    51234.232    -14624.33    1464.4202    -16088.75     669.5291 
   29300    301.15115   -819.09316    51128.777   -14590.005    1482.0604   -16072.066    668.67933 
   29350    293.34718   -871.04505    51001.387   -14634.294    1443.6546   -16077.948    667.78502 
   29400    289.56232   -1015.5671    51205.917   -14662.174    1425.0281   -16087.202    668.56668 
   29450     293.2513   -1203.0884    51430.668   -14644.407    1443.1827   -16087.589    672.41993 
   29500    297.70352   -950.42152    51414.956   -14596.903    1465.0935   -16061.997    674.16797 
   29550    295.10837   -1466.7326    51164.429   -14626.169    1452.3219   -16078.491    672.70838 
   29600    285.26303   -1101.2833    51220.556   -14632.023    1403.8699   -16035.893    673.51174 
   29650    298.13754   -1066.6281    51035.066   -14596.349    1467.2294   -16063.578    672.74961 
   29700    296.11949   -1280.5444    50965.232   -14589.333     1457.298   -16046.631    673.40826 
   29750    295.77058   -1297.0837    50794.993   -14610.133    1455.5809   -16065.714    671.93003 
   29800    304.64424   -1171.6438    50889.919   -14595.433     1499.251   -16094.684    676.02966 
   29850    293.31438   -1256.4511    50797.115   -14606.841    1443.4931   -16050.334    675.92743 
   29900    295.88617   -867.54849    50891.172   -14600.418    1456.1498   -16056.568    677.84718 
   29950    288.83195   -1333.0944    50831.845   -14592.605    1421.4337   -16014.039    677.18726 
   30000    292.42914   -1029.9308    50915.268   -14600.315    1439.1366   -16039.451     678.0999 
   30050    302.03082   -958.50513    50952.428   -14580.659    1486.3895   -16067.049    678.69629 
   30100    297.26244   -794.61245    51012.153   -14594.399    1462.9228   -16057.322    680.08203 
   30150      294.227   -975.63034    51045.356   -14665.093    1447.9845   -16113.077    680.33419 
   30200    300.93524   -909.72509    50953.909   -14657.336    1480.9978   -16138.333    679.46304 
   30250    294.11171   -812.09887      51039.5   -14630.516    1447.4171   -16077.933    681.18713 
   30300    291.00838   -1218.6232     51124.42   -14639.061    1432.1446   -16071.206    681.77303 
   30350    284.06703   -1019.6995    51438.372   -14668.886     1397.984    -16066.87    686.49579 
   30400    287.05379   -1242.6186    51225.322   -14732.209    1412.6828   -16144.892    685.18949 
   30450    297.06734   -972.34067     51104.81    -14738.81    1461.9627   -16200.773    685.16141 
   30500    284.76692   -988.01136    51120.356   -14683.703    1401.4284   -16085.131      686.889 
   30550    291.11764   -1018.5536    51284.474   -14691.764    1432.6823   -16124.447    688.71931 
   30600    288.12501   -1423.0925    51296.694   -14729.233    1417.9546   -16147.187    689.38999 
   30650    281.43972   -1589.4869    51147.124   -14799.246    1385.0542   -16184.301    687.00013 
   30700    293.85592   -980.28828    51176.672   -14758.016    1446.1582   -16204.175    688.82691 
   30750    287.11786   -921.97766    51097.985   -14764.349    1412.9981   -16177.347    689.42446 
   30800    282.32909   -572.54208    51147.539    -14717.19    1389.4311   -16106.621    692.23249 
   30850    295.47484   -1250.5154    51056.776    -14731.15    1454.1255   -16185.276    691.60545 
   30900    295.95401   -1026.5807    50965.237   -14699.761    1456.4836   -16156.245    692.72565 
   30950    292.68574    -831.8436    50706.774   -14712.623    1440.3994   -16153.022    689.81779 
   31000    289.46175    -1110.557    50790.953   -14701.031    1424.5332   -16125.564    691.48839 
   31050    286.49648   -562.86883    50732.656   -14722.339    1409.9401   -16132.279     690.6548 
   31100    286.69148   -1161.0855    50609.203   -14781.228    1410.8998   -16192.128    689.59524 
   31150    278.73035   -668.75323    50708.347    -14764.96    1371.7205    -16136.68    690.88338 
   31200    286.72105   -603.61362    50767.337   -14689.631    1411.0453   -16100.677    692.29613 
   31250    298.78456   -857.66835    50795.413   -14667.139    1470.4137   -16137.553    692.93288 
   31300     296.9173   -368.04374    51120.491   -14657.018    1461.2243   -16118.242    696.86888 
   31350    294.37991   -1096.4727    51152.509   -14672.066     1448.737   -16120.803    697.45649 
   31400    293.79809   -1487.1562    51101.429   -14659.025    1445.8736   -16104.899    700.15088 
   31450    289.86505   -670.22983    51222.892   -14629.884    1426.5179   -16056.402    700.93644 
   31500    297.77501    -734.5409    51339.485   -14577.245    1465.4453    -16042.69    701.44488 
   31550    303.61443   -1297.4881    51274.786   -14545.606     1494.183   -16039.789    702.76314 
   31600    299.15479   -1004.2578    51284.062   -14565.453    1472.2357   -16037.689    704.31944 
   31650    298.52008   -959.58287     51100.37   -14603.443    1469.1121   -16072.555    703.59946 
   31700    289.16871   -1032.9057    51121.663   -14614.928     1423.091   -16038.019    704.23441 
   31750    295.07738   -1131.4481    50917.624   -14633.803    1452.1694   -16085.972    705.34984 
   31800    283.15374   -797.63907    50865.595   -14652.979    1393.4894   -16046.469     705.6688 
   31850    296.90883   -741.80574    51028.184   -14582.451    1461.1826   -16043.634    708.55728 
   31900     294.0928   -984.34225    51131.269   -14580.534     1447.324   -16027.858    711.23977 
   31950     305.3117   -1106.3582    51339.464   -14525.036    1502.5358   -16027.572    714.53444 
   32000    291.87238   -913.28742    51395.559   -14581.384    1436.3966   -16017.781    716.15869 
   32050     288.7518   -1167.2651    51464.849   -14589.755    1421.0392   -16010.794    717.82508 
   32100    293.59624    -1173.789    51362.505   -14600.023    1444.8803   -16044.903    717.98658 
   32150    306.54869   -841.50193    51085.525   -14587.666    1508.6234   -16096.289    718.57804 
   32200    284.44797   -1070.6083    50984.821   -14659.963    1399.8588   -16059.822    718.27384 
   32250    290.22573   -781.21002    51112.227   -14611.634    1428.2929   -16039.927    720.59052 
   32300    287.71009   -1023.3579    51110.784   -14616.034    1415.9127   -16031.947    721.22645 
   32350    296.83929   -1163.6668    51230.083   -14549.417    1460.8403   -16010.258    723.36604 
   32400     301.7483    -997.0775    51351.181   -14541.201    1484.9992     -16026.2    726.94192 
   32450    291.15363   -1132.2017    51173.751   -14615.991    1432.8594   -16048.851    726.41755 
   32500    290.82956    -1054.983    51068.329   -14638.661    1431.2646   -16069.925    727.55013 
   32550    292.61546   -1040.9115    50992.058   -14627.497    1440.0535    -16067.55     726.2635 
   32600    296.67793   -923.90413    51008.513   -14617.646    1460.0462   -16077.692    727.67314 
   32650     290.9175   -920.32605    50803.586   -14657.608    1431.6974   -16089.306    728.13165 
   32700    295.34276    -935.0557    50880.949   -14665.927    1453.4755   -16119.402    729.81308 
   32750    284.93488   -1403.9763    50934.657   -14683.117     1402.255   -16085.372    734.28206 
   32800    286.01258    -626.6732    50921.967   -14690.176    1407.5587   -16097.734    735.26404 
   32850    295.97012    -830.4944    51014.748   -14712.255    1456.5629   -16168.818    734.93891 
   32900    297.75701   -799.89272    51052.294   -14719.288    1465.3568   -16184.645    736.65862 
   32950    289.03034   -1076.3738    50947.411   -14679.833      1422.41   -16102.243    737.63258 
   33000    288.97492   -1248.2678    50976.129   -14693.123    1422.1373   -16115.261    739.42346 
   33050    292.35413   -767.46828    50869.525   -14703.422    1438.7675   -16142.189    739.11096 
   33100    297.17203   -804.70831    50791.159   -14659.272    1462.4779    -16121.75    740.07202 
   33150    292.35832   -711.78325    50834.393   -14625.084    1438.7881   -16063.873    742.92547 
   33200    296.79428   -1474.8969    50822.968   -14626.077    1460.6188   -16086.696     743.0667 
   33250    285.61131   -554.86888    51012.046   -14577.666    1405.5839    -15983.25    745.40687 
   33300    295.79208    -758.4723    51014.301   -14566.704    1455.6867    -16022.39    745.47976 
   33350    299.92694   -770.31597    51015.667   -14651.847    1476.0357   -16127.882    748.18789 
   33400    286.06059    -902.8692    51056.328   -14607.772     1407.795   -16015.567    750.88536 
   33450    294.48515   -741.35914    51287.597   -14554.266    1449.2549   -16003.521    753.60686 
   33500    289.08777   -1206.7977    51340.836   -14584.803    1422.6927   -16007.496    752.80546 
   33550    292.11622   -672.02326    51357.381   -14606.327    1437.5966   -16043.923    754.43985 
   33600    289.90976   -868.92481    51455.798    -14599.12    1426.7379   -16025.858    755.61566 
   33650    289.35642   -1015.4786    51532.817   -14566.948    1424.0148   -15990.962    756.98867 
   33700    291.80768   -1253.1819    51586.808   -14592.216    1436.0782   -16028.294    757.61421 
   33750    293.66038   -1277.3382    51448.434   -14617.107    1445.1959   -16062.303    758.64004 
   33800    292.42403   -892.70656    51411.095   -14582.807    1439.1115   -16021.918    760.53352 
   33850    297.79522   -1081.3278    51098.498   -14637.771    1465.5448   -16103.315    758.18716 
   33900     290.8608   -1119.9951    51203.701   -14615.012    1431.4183    -16046.43     761.7994 
   33950    298.78418   -614.90339    51241.676    -14628.15    1470.4118   -16098.562    763.78533 
   34000    296.17357   -1034.5401     51100.63   -14655.711    1457.5641   -16113.275    763.53028 
   34050    289.09582   -681.83913    51210.441   -14676.467    1422.7323   -16099.199    766.53066 
   34100    292.76187   -1059.1855    51322.712   -14682.712    1440.7741   -16123.486    769.87102 
   34150    298.47107   -626.06237    51267.442   -14652.741    1468.8709   -16121.612    770.10557 
   34200    291.77784   -1123.9077    51173.328   -14698.553    1435.9313   -16134.484    769.51216 
   34250     275.9422   -675.77117    51033.866   -14722.252    1357.9992   -16080.251    769.27182 
   34300    295.77976   -1375.0677    50993.948   -14669.753    1455.6261   -16125.379     770.3186 
   34350    298.49307   -884.50012    50987.153   -14617.209    1468.9791   -16086.188    772.69714 
   34400    296.49329   -992.78546    50946.822   -14561.033    1459.1376   -16020.171     772.3566 
   34450    309.89577   -1463.9868    50693.269   -14552.943    1525.0954   -16078.038     770.2351 
   34500    297.27327   -881.58959    50707.432   -14538.761    1462.9761   -16001.737    772.97434 
   34550    296.44217   -763.65912     50824.89    -14572.16     1458.886   -16031.046     775.1553 
   34600    288.44785   -742.17944    50968.816   -14619.116    1419.5434   -16038.659     778.0222 
   34650    292.63906   -887.31503    50955.091   -14655.739    1440.1697   -16095.909    779.16706 
   34700     288.5335   -1254.4791    50845.494   -14658.818    1419.9649   -16078.783    780.15151 
   34750    296.82185   -698.86291     50978.33   -14633.658    1460.7545   -16094.412    781.66697 
   34800    288.78415    -1117.013    51263.019   -14645.053    1421.1984   -16066.251    786.18726 
   34850    299.48191    -1525.461    51084.475   -14634.408    1473.8455   -16108.254    785.23918 
   34900    296.31005   -580.25501    51171.452   -14640.938    1458.2358   -16099.174    789.14388 
   34950    281.87009   -537.81283    51373.971   -14702.017    1387.1722   -16089.189    791.06546 
   35000    292.11007   -949.81787    51225.884   -14676.983    1437.5664   -16114.549    790.80954 
   35050     292.5312   -1060.9126    51110.393   -14622.868    1439.6389   -16062.507    790.94803 
   35100    289.49114   -816.01506    51176.916   -14614.769    1424.6778   -16039.447     791.7369 
   35150    303.53118   -1317.2711     51219.22   -14536.528    1493.7733   -16030.302    796.08198 
   35200    300.94948    -1201.897    51062.899   -14490.898    1481.0679   -15971.966     795.3095 
   35250    296.66526   -748.10766    50971.351   -14535.722    1459.9839   -15995.706    796.59236 
   35300    300.91681   -1574.8213    51065.076   -14521.871    1480.9071   -16002.778    799.54559 
   35350    297.51866   -940.40477    51127.501   -14608.827    1464.1838   -16073.011    801.20316 
   35400    295.57758   -765.45364    51184.858    -14599.08    1454.6311   -16053.711    802.16294 
   35450    295.50243   -574.25689     51224.31   -14577.278    1454.2612   -16031.539    803.96189 
   35500    289.89279    -676.5922    51059.525   -14608.426    1426.6544    -16035.08    802.19997 
   35550    287.42655   -678.66958    50847.565   -14567.485    1414.5173   -15982.002    802.54785 
   35600    301.33208   -720.84947    50945.006   -14584.592    1482.9508   -16067.542    804.68466 
   35650    311.02444   -580.62921    51147.651   -14590.204      1530.65   -16120.854    806.93329 
   35700    299.98118   -806.05136    51218.105   -14588.016    1476.3026   -16064.318    808.91167 
   35750    301.91454   -1128.4924    51161.684    -14617.35    1485.8173   -16103.167    808.90218 
   35800    299.30352    -1070.652    51152.746   -14576.015    1472.9676   -16048.983    809.65742 
   35850    293.26825   -1199.3199    51295.434   -14556.757    1443.2661   -16000.023     812.0787 
   35900    295.97475   -699.72563     51398.52   -14569.056    1456.5857   -16025.642    814.39789 
   35950    296.20493   -1148.9449    51363.447   -14613.078    1457.7185   -16070.796     814.2633 
   36000    301.39601   -1337.8574    51433.166   -14578.167    1483.2654   -16061.432    815.89545 
   36050    289.06025   -983.32253    51537.328     -14634.9    1422.5572   -16057.457    819.47413 
   36100    292.96522    -1189.397    51513.608   -14642.366    1441.7748   -16084.141    819.46369 
   36150    297.27781   -1221.7868    51353.093    -14621.18    1462.9984   -16084.178    818.95224 
   36200    292.20024   -598.09201    51413.803   -14583.635    1438.0101   -16021.646    819.82725 
   36250    297.67238   -1156.7611    51581.281   -14563.318    1464.9403   -16028.258    822.76911 
   36300    296.32422   -719.95226    51531.398   -14588.635    1458.3055   -16046.941    823.80942 
   36350     288.7562   -1111.0503     51597.03   -14591.679    1421.0609    -16012.74    825.81765 
   36400    302.28516   -970.52522    51627.594   -14500.573    1487.6412   -15988.214    826.66342 
   36450    301.24779   -795.26159    51627.698   -14500.699     1482.536   -15983.235     827.2703 
   36500    292.00283   -1341.2687    51473.526   -14516.023    1437.0386   -15953.062    826.51562 
   36550    290.87666   -1288.6929    51385.512   -14602.861    1431.4964   -16034.358    825.79838 
   36600     294.3526    -1030.367    51321.634   -14595.207    1448.6026   -16043.809    825.22641 
   36650    297.29633   -988.55394     51314.31   -14584.581    1463.0896   -16047.671    826.51572 
   36700     286.6004   -1386.2673    51514.445   -14590.002    1410.4515   -16000.453     830.4224 
   36750    285.85398    -848.7676    51292.682    -14599.01    1406.7782   -16005.788    830.07463 
   36800    287.26747   -1038.7922     51130.95   -14632.844    1413.7344   -16046.579    830.54473 
   36850    288.23308   -1153.4892    51016.917   -14638.676    1418.4865   -16057.163    830.14191 
   36900    288.39325   -845.24092     51107.46   -14635.287    1419.2747   -16054.562    832.65831 
   36950    289.62885    -1047.691    51185.287   -14603.347    1425.3555   -16028.703     833.2425 
   37000    291.53714   -1158.6729    50985.503   -14624.947    1434.7468   -16059.694    832.18415 
   37050     293.1339   -626.95727    51141.451   -14558.079     1442.605   -16000.684    835.56819 
   37100    295.62616   -997.10992    51319.388   -14594.144    1454.8702   -16049.015    838.23185 
   37150    291.06085   -680.01396    51196.873    -14608.27    1432.4028   -16040.673    838.34189 
   37200    296.76377   -907.34368    51097.343   -14621.473    1460.4687   -16081.942    838.03959 
   37250    289.39651   -944.58061    51028.568   -14620.677    1424.2121   -16044.889    838.82857 
   37300    293.91967    -953.9387    50822.391   -14621.487     1446.472   -16067.959    839.10358 
   37350    289.14012   -889.95873    50994.505   -14656.544    1422.9503   -16079.495    840.47764 
   37400    287.34837   -1237.6219    51312.785   -14635.496    1414.1325   -16049.629    844.12862 
   37450    282.77605   -1215.9654    51220.324   -14693.127    1391.6307   -16084.758    841.78022 
   37500    286.87056    -965.3178    51339.012   -14683.506    1411.7811   -16095.287    846.39736 
   37550    291.21084   -1114.1632    51386.566   -14623.494     1433.141   -16056.635    847.84259 
   37600    282.56362   -1345.9467    51432.805    -14640.38    1390.5853   -16030.965    850.11455 
   37650    289.80495   -679.70186    51236.649   -14619.836    1426.2222   -16046.058    850.14533 
   37700    294.45067   -1247.8916    51462.563   -14682.724    1449.0852   -16131.809    853.82462 
   37750     288.2758   -953.91729    51607.446   -14659.906    1418.6967   -16078.603    856.51836 
   37800    286.28497   -1146.9836    51449.384    -14634.67    1408.8992   -16043.569    856.48891 
   37850    285.02262    -942.2921    51540.364   -14619.815    1402.6868   -16022.502    858.22237 
   37900    289.67958   -795.28272    51531.326   -14598.201    1425.6052   -16023.807    859.56363 
   37950    295.67357   -835.55173    51608.101   -14634.873    1455.1035   -16089.977    860.78054 
   38000    296.02227   -761.04284    51551.913   -14646.403    1456.8196   -16103.222    861.50209 
   38050    296.88969   -899.76873    51425.968   -14639.736    1461.0884   -16100.824    861.95543 
[...]
   91550    291.09484   -782.40489    51033.737    -14671.18    1432.5701    -16103.75    2108.6056 
   91600    305.07156   -1382.3168    50943.321   -14705.691     1501.354   -16207.045    2104.1738 
   91650    285.12353   -1008.6327    50974.696   -14765.408    1403.1834   -16168.591     2107.885 
   91700    284.97644   -888.43426    51188.481   -14810.327    1402.4595   -16212.786    2115.7418 
   91750    283.68655   -1235.9142    51249.055   -14780.532    1396.1116   -16176.643    2118.2506 
   91800    290.90881   -1120.9085     51193.81   -14747.935    1431.6546    -16179.59    2117.0116 
   91850    293.97002   -911.71744    51166.357   -14693.274    1446.7198   -16139.994    2115.7922 
   91900    293.71913   -1007.0405    51215.291   -14667.497     1445.485   -16112.982    2116.3523 
   91950    302.31731   -1253.5816      51359.4   -14649.642    1487.7995   -16137.442    2119.6157 
   92000    288.40313    -1209.571    51327.145   -14657.414    1419.3233   -16076.737    2118.7233 
   92050    302.91096   -497.17972    51437.036   -14615.468     1490.721   -16106.189    2124.3946 
   92100    291.31573   -956.73788    51538.779   -14580.061    1433.6572   -16013.718    2129.9886 
   92150    301.50378   -866.09878     51530.14   -14504.858    1483.7958   -15988.654    2132.0426 
   92200    301.13409   -994.58714    51486.306   -14537.118    1481.9764   -16019.094    2132.8182 
   92250    298.50772   -1233.6108    51541.215   -14574.409    1469.0512    -16043.46    2133.8283 
   92300    295.28702   -1192.7414    51456.254   -14621.082    1453.2012   -16074.283    2134.8429 
   92350    290.80791   -1217.8931    51383.443   -14648.442     1431.158     -16079.6    2132.4338 
   92400     289.2405   -1463.0325    51220.581   -14623.379    1423.4443   -16046.823     2127.744 
   92450    299.97281   -636.47843    51326.893   -14633.801    1476.2614   -16110.063    2132.6324 
   92500    292.76966    -1075.405    51526.064   -14631.438    1440.8124   -16072.251    2140.6924 
   92550    287.66749   -964.92071    51358.138   -14670.371     1415.703   -16086.074    2135.2389 
   92600     289.0977   -979.26111    51349.756   -14607.264    1422.7416   -16030.005    2133.2791 
   92650    282.30206   -1230.9416     51317.49   -14679.653     1389.298   -16068.951    2131.6506 
   92700    297.47936   -1012.5614    51233.484    -14616.67    1463.9904    -16080.66    2130.1055 
   92750    292.17915   -920.11174    51191.947   -14623.203    1437.9064   -16061.109    2128.6812 
   92800    293.60971   -860.80646    51177.679   -14615.443    1444.9466   -16060.389    2129.2077 
   92850    296.59114    -878.3968    51130.396   -14622.458    1459.6192   -16082.077     2131.642 
   92900    287.33993    -877.2099    51192.035   -14615.384     1414.091   -16029.475    2134.0361 
   92950    293.76461   -935.75982    51182.921   -14580.827    1445.7089   -16026.536    2133.3797 
   93000    291.90021   -1346.5665    51126.296   -14590.204    1436.5336   -16026.738    2132.7105 
   93050    293.98768   -1113.7527    50975.326   -14604.114    1446.8067   -16050.921    2129.8221 
   93100    291.30128   -683.05275    51137.102   -14588.696     1433.586   -16022.282    2133.1387 
   93150    298.62317   -770.27121    51110.419   -14550.022    1469.6194   -16019.642    2135.5774 
   93200    302.94879   -773.38861    51201.471   -14532.068    1490.9071   -16022.975    2136.4589 
   93250    299.85821    -949.8308    51304.941   -14491.183    1475.6974   -15966.881    2140.9339 
   93300    292.69153   -1355.4242    51299.549   -14596.175    1440.4279   -16036.603     2142.132 
   93350    300.77248   -888.54448    51141.398   -14609.675    1480.1968   -16089.872    2138.0023 
   93400    289.13236   -935.28145    51003.478    -14627.42    1422.9121   -16050.332    2133.7597 
   93450    300.98751   -1248.9001    51089.857   -14607.424    1481.2551   -16088.679    2136.4861 
   93500    292.83088   -925.68834    50892.126   -14630.068    1441.1137   -16071.181     2133.805 
   93550    294.28276   -1145.3888    51080.265   -14648.162    1448.2589   -16096.421    2142.2663 
   93600    291.41188   -1288.7379    51054.775   -14644.681    1434.1304   -16078.811    2144.0978 
   93650    294.06486   -1235.8454    50984.725   -14635.444    1447.1865    -16082.63    2142.3681 
   93700     288.0243   -870.71895    50930.168   -14646.167     1417.459   -16063.626    2141.1628 
   93750    300.61067   -908.45446    50694.963   -14581.977    1479.4005   -16061.377    2135.0145 
   93800    295.50064   -879.71318    50818.625   -14648.018    1454.2524    -16102.27    2138.2546 
   93850    298.68407   -1055.0411    50767.846   -14680.149    1469.9191   -16150.068    2138.0693 
   93900    295.59042   -899.04878    51033.354   -14686.031    1454.6943   -16140.726    2147.1422 
   93950    290.70938   -957.35969    51083.849   -14694.266    1430.6731   -16124.939    2149.4613 
   94000    285.19338   -734.53778    51291.156   -14729.928    1403.5272   -16133.455    2156.1469 
   94050    289.12606   -1078.0696    51230.361   -14747.303    1422.8811   -16170.184    2156.1863 
   94100     285.7854   -1288.1897    51231.279   -14731.593    1406.4406   -16138.033    2156.2872 
   94150    286.55313   -1548.2948    50989.394    -14719.69    1410.2189   -16129.909    2151.1097 
   94200     296.1303   -884.79367    50875.006    -14687.06    1457.3512   -16144.411    2149.8164 
   94250    297.55354   -1309.5915    50728.877   -14723.924    1464.3554    -16188.28    2149.2684 
   94300     287.1889   -1252.9358    50925.055   -14699.228    1413.3478   -16112.576    2156.2076 
   94350    287.58583   -1329.9226    50750.569   -14748.883    1415.3011   -16164.184    2153.4432 
   94400    285.40955   -1070.8104     50811.25   -14744.766     1404.591   -16149.357    2158.2555 
   94450    285.95364   -956.16181    50847.073   -14697.876    1407.2686   -16105.145    2162.0257 
   94500     280.2746   -1384.5598    50923.987   -14752.043    1379.3203   -16131.364    2163.4923 
   94550    292.11678   -838.70891    50891.087   -14756.248    1437.5994   -16193.848    2164.5575 
   94600    289.70732   -1022.2621    51137.696    -14773.47    1425.7417   -16199.212    2172.5031 
   94650    284.81142   -1375.2936    51131.845   -14700.296    1401.6474   -16101.943     2169.419 
   94700    293.25411   -1183.9567    50953.735   -14638.598    1443.1966   -16081.794    2167.5309 
   94750    295.05813   -1281.2872    51021.521   -14588.374    1452.0747   -16040.449     2169.943 
   94800     293.4284   -1017.7785    50809.074   -14567.864    1444.0543   -16011.919    2164.9524 
   94850     302.2738   -904.01072    50879.272   -14582.574    1487.5853   -16070.159    2169.0539 
   94900    294.02289   -944.64547    50979.512   -14616.033      1446.98   -16063.013    2172.9772 
   94950    291.98203   -985.83671    50941.026   -14584.285    1436.9363   -16021.222    2174.4496 
   95000     292.8879   -1258.5089    50831.039    -14617.66    1441.3943   -16059.054    2174.1217 
   95050     300.6313   -685.49663    50817.871   -14583.202     1479.502   -16062.704    2173.5003 
   95100    298.52494   -706.40803    50798.358   -14545.768     1469.136   -16014.904    2175.9084 
   95150    292.85681    -733.6969     51041.89   -14555.758    1441.2413       -15997    2184.1796 
   95200    290.02125   -1108.2391    51110.058   -14591.645    1427.2866   -16018.932    2189.5549 
   95250    297.91352   -1199.7641    51019.088     -14569.3     1466.127   -16035.427    2187.5259 
   95300    299.24655   -916.19458    50968.257   -14577.228    1472.6873   -16049.915    2185.7051 
   95350    297.46944   -837.03998    51103.759   -14610.006    1463.9415   -16073.948     2191.056 
   95400    301.74688   -749.59689      50935.1   -14608.465    1484.9922   -16093.457    2184.3473 
   95450    287.41857   -502.19351    50945.066   -14662.669     1414.478   -16077.147    2186.0023 
   95500    288.27647   -1008.5331    51327.178    -14654.55       1418.7    -16073.25    2196.7663 
   95550    285.14947   -1039.8793    51340.833   -14655.562     1403.311   -16058.873    2199.7675 
   95600     297.5254   -1239.5732    51184.597   -14656.419    1464.2169   -16120.636    2194.1005 
   95650    294.33041   -850.25171    51209.642   -14645.379    1448.4934   -16093.873    2195.5832 
   95700    296.30109   -1247.7479    51043.859   -14647.717    1458.1917   -16105.909    2192.8857 
   95750    296.24178   -1212.7591     50907.49   -14623.244    1457.8998   -16081.144    2186.8846 
   95800      292.022   -1193.8638    50868.373   -14655.475     1437.133   -16092.607     2184.122 
   95850    292.18134   -934.07565    50892.606   -14645.675    1437.9171   -16083.593    2183.9993 
   95900    298.22218   -754.61754    50899.096   -14622.044     1467.646    -16089.69    2185.2017 
   95950    290.87876   -886.24459    50876.925   -14582.004    1431.5067    -16013.51    2185.9377 
   96000    297.85137   -1128.0053    50879.572   -14582.423    1465.8211   -16048.244    2186.6223 
   96050    301.51878     -922.325    50906.744   -14588.803    1483.8696   -16072.673    2190.6705 
   96100    295.16025   -987.99981    51152.426   -14573.912    1452.5773   -16026.489    2197.4964 
   96150    291.34194   -943.91819    51364.466   -14551.923    1433.7861    -15985.71    2203.5984 
   96200    300.30257   -885.47875    51254.752   -14567.758    1477.8843   -16045.642    2202.2971 
   96250    302.74392   -1239.5913    50998.843   -14550.268    1489.8989   -16040.167     2196.767 
   96300    286.86891   -1529.5916    51288.298   -14616.413     1411.773   -16028.186    2207.2425 
   96350    297.62918   -1317.3278    51063.254   -14618.501    1464.7276   -16083.229    2203.0188 
   96400    292.73371   -576.46251    51186.351   -14593.517    1440.6355   -16034.153    2205.7691 
   96450    302.76402   -989.77112    51211.739   -14583.592    1489.9978    -16073.59    2208.8773 
   96500    311.77618   -706.66741    51308.375   -14594.886    1534.3495   -16129.235    2211.9586 
   96550     297.4589   -630.92179    51330.563   -14614.664    1463.8897   -16078.554    2213.9971 
   96600    291.48125   -723.16911    51536.942   -14623.154    1434.4717   -16057.626    2219.7394 
   96650    303.83904   -878.49648    51460.727   -14609.918    1495.2884   -16105.206    2218.2918 
   96700    292.78675   -580.27322    51475.282   -14568.332    1440.8965   -16009.228    2220.0397 
   96750    295.76751   -1213.8246    51247.676   -14578.424    1455.5658   -16033.989    2213.9387 
   96800    297.86344   -906.99158    51442.653   -14541.396    1465.8805   -16007.277    2218.8516 
   96850    291.45693    -1623.121    51350.864   -14565.065    1434.3521   -15999.417    2218.0317 
   96900    298.07153   -1268.3435     51182.49   -14591.958    1466.9046   -16058.863    2211.3131 
   96950    294.77891   -1049.8102    51171.882   -14577.223    1450.7006   -16027.924    2211.8691 
   97000    295.40731   -832.87516    50987.968   -14581.905    1453.7932   -16035.698    2210.4024 
   97050    294.87737   -1094.4936    50785.192   -14590.953    1451.1851   -16042.138    2205.0022 
   97100    291.45541   -957.26563    50800.511   -14601.171    1434.3446   -16035.516    2207.5697 
   97150    306.89456   -1356.9505    50883.193   -14577.089    1510.3255   -16087.414    2212.3787 
   97200    291.39018   -837.33584     50643.22   -14655.085    1434.0236   -16089.109    2207.8375 
   97250    297.10357   -583.76855    50658.359   -14603.782     1462.141   -16065.923    2210.4772 
   97300    290.70805    -1195.475    50664.685   -14665.685    1430.6666   -16096.351    2210.9819 
   97350    298.57742   -898.63774    50780.676   -14615.253    1469.3943   -16084.647    2215.9489 
   97400    297.66767   -799.11175    50767.473   -14635.328    1464.9171   -16100.245    2217.3007 
   97450    279.78974   -699.85865    51023.153    -14679.53    1376.9341   -16056.464    2226.8718 
   97500    289.42628   -1009.5597    50846.631   -14649.535    1424.3586   -16073.893    2221.4856 
   97550    296.03103   -1010.0509    50808.774   -14638.693    1456.8627   -16095.555    2222.9983 
   97600     281.0149   -775.43164     51133.44   -14673.749    1382.9635   -16056.713    2233.3311 
   97650    289.45797   -989.89601     51302.92   -14657.654    1424.5145   -16082.169      2237.63 
   97700    293.66451   -700.65258    51175.646    -14613.06    1445.2163   -16058.276    2232.8589 
   97750    295.19164   -776.29647    51144.568   -14647.431    1452.7318   -16100.162    2233.5096 
   97800    295.33717   -1105.2572    51146.055   -14640.257    1453.4479   -16093.705    2232.7549 
   97850    298.75438   -728.51805    51428.597   -14597.189    1470.2651   -16067.454      2243.52 
   97900    294.77686   -1621.8763    51327.353   -14562.697    1450.6905   -16013.387    2242.6966 
   97950    296.43774   -1157.1025     51236.26   -14586.905    1458.8642    -16045.77    2241.6909 
   98000    289.97311   -1119.0598    51100.772   -14618.035    1427.0497   -16045.084    2238.0703 
   98050    291.64865   -895.32507    51135.871   -14650.792    1435.2956   -16086.087    2237.3934 
   98100    288.17939   -1073.1929    51281.481    -14578.21    1418.2222   -15996.432    2242.7126 
   98150    296.10989   -681.21839    51264.704   -14607.395    1457.2507   -16064.645    2244.1685 
   98200    291.38561   -915.16611    51230.207   -14572.828    1434.0011   -16006.829     2243.249 
   98250    296.49664   -962.12996     51174.84   -14552.121    1459.1541   -16011.275    2242.3619 
   98300    296.26259   -761.12435    51143.187   -14550.353    1458.0022   -16008.355    2245.8071 
   98350    298.66343   -541.04644    50982.207   -14533.107    1469.8175   -16002.924    2244.2178 
   98400    299.86462   -584.61458    51222.342   -14587.627     1475.729   -16063.356    2254.8404 
   98450    296.78375    -908.6828     51320.61    -14587.87     1460.567   -16048.437    2257.6205 
   98500     295.1395   -1045.7557    51206.525   -14602.754    1452.4751   -16055.229    2257.0762 
   98550    293.96722   -997.80547    51102.563   -14615.057     1446.706   -16061.763    2254.3361 
   98600    285.31958   -755.91004    51238.112   -14679.504    1404.1482   -16083.652    2260.6907 
   98650     289.2653   -772.78714    51445.027   -14667.269    1423.5664   -16090.835    2269.3362 
   98700    286.53446   -1362.3023     51252.58   -14667.532     1410.127   -16077.659    2264.0701 
   98750    281.55321   -1319.2623    51256.807   -14675.008    1385.6127   -16060.621    2264.0204 
   98800     295.9667   -862.14109    51212.543   -14655.047    1456.5461   -16111.593    2265.5091 
   98850    296.59356   -941.00674    51360.629   -14638.426     1459.631   -16098.057    2271.4202 
   98900    290.94297   -1130.0884    51246.708   -14584.769    1431.8227   -16016.592     2267.735 
   98950    300.15992   -812.71216    51217.527   -14544.675    1477.1822   -16021.857    2269.5272 
   99000    293.21435   -890.02774     51133.89   -14613.443    1443.0009   -16056.443     2268.425 
   99050     293.4159   -1084.0965    50946.825   -14636.458    1443.9928    -16080.45    2263.4209 
   99100    292.09014   -931.86619    51046.938   -14620.578    1437.4683   -16058.047    2267.6352 
   99150     291.1254   -1323.3877    50867.559   -14586.677    1432.7205   -16019.398    2264.7745 
   99200    288.61114   -1125.5913     50902.13   -14624.063     1420.347    -16044.41    2266.1617 
   99250     296.7433   -1093.7484     50869.05   -14607.803     1460.368   -16068.171    2270.1386 
   99300    288.80987   -585.52282    50968.687   -14598.473     1421.325   -16019.798    2273.5033 
   99350    305.91715   -1408.0067    50890.714   -14556.745    1505.5154   -16062.261    2272.8263 
   99400     296.2862   -1119.9145    50900.043   -14588.333    1458.1184   -16046.452    2275.6574 
   99450    299.35407   -723.40207    50925.422   -14596.008    1473.2164   -16069.225    2276.3928 
   99500     293.7734   -1160.8137    50910.603   -14628.069    1445.7521   -16073.821    2277.7424 
   99550    290.65788   -1502.4026      50737.6   -14630.041    1430.4197   -16060.461    2275.8624 
   99600    290.96447   -863.96338    50718.438   -14658.834    1431.9285   -16090.762    2274.0123 
   99650    306.61894   -954.06044    51012.736   -14591.772    1508.9691   -16100.741    2285.6347 
   99700     293.5702   -810.52734    51159.788   -14655.999    1444.7521   -16100.751    2288.6722 
   99750    285.54266   -1446.6576     51108.49   -14636.772    1405.2461   -16042.018    2292.5482 
   99800    290.89732    -291.9423    51212.538   -14624.064     1431.598   -16055.662    2297.4598 
   99850    293.96348   -389.63611    51296.814   -14602.984    1446.6876   -16049.672    2301.9681 
   99900    296.46574   -1040.8671    51454.432   -14584.206     1459.002   -16043.208    2307.1138 
   99950      295.656   -1061.3978    51279.245   -14589.418     1455.017   -16044.435    2303.8512 
  100000    301.12136   -1051.6534      51154.2   -14619.208    1481.9138   -16101.122    2304.3838 
  100050    305.74387   -742.00773    51155.566   -14647.491    1504.6626   -16152.154    2306.2675 
  100100    293.70095   -725.06314    51156.919    -14618.21    1445.3956   -16063.606    2308.7391 
  100150    295.83559   -1137.6227    50961.559   -14632.919    1455.9008    -16088.82    2304.2686 
  100200    290.02512   -670.30224    50987.131   -14629.597    1427.3057   -16056.903    2304.7918 
  100250    296.11739   -1005.0415    51051.593   -14623.419    1457.2877   -16080.707    2308.2287 
  100300    288.13466   -1362.3622    51058.883   -14654.143    1418.0021   -16072.145    2305.9785 
  100350    295.59584   -951.88545    51000.716   -14652.025    1454.7209   -16106.746    2305.4523 
  100400    290.21018   -1020.3083    51011.614   -14646.734    1428.2164   -16074.951    2306.8806 
  100450    287.33367   -859.87743    51207.261   -14656.429    1414.0602   -16070.489    2313.5598 
  100500    291.84433   -1168.8083    51186.158   -14656.719    1436.2586   -16092.977    2313.2256 
  100550    297.75646   -978.50275    51240.949   -14687.133     1465.354   -16152.487     2319.455 
  100600    298.04102   -1318.3622    51275.398   -14643.077    1466.7545   -16109.831    2322.1009 
  100608    302.06253   -960.99368    51270.894   -14635.873    1486.5456   -16122.418    2321.6461 
Loop time of 101.295 on 4 procs for 100000 steps with 1652 atoms

Performance: 852.957 ns/day, 0.028 hours/ns, 987.219 timesteps/s
99.6% CPU use with 4 MPI tasks x no OpenMP threads

MPI task timing breakdown:
Section |  min time  |  avg time  |  max time  |%varavg| %total
---------------------------------------------------------------
Pair    | 73.654     | 74.553     | 75.059     |   6.5 | 73.60
Neigh   | 10.558     | 10.597     | 10.627     |   0.9 | 10.46
Comm    | 12.306     | 12.777     | 13.669     |  15.4 | 12.61
Output  | 0.10499    | 0.11282    | 0.13557    |   3.9 |  0.11
Modify  | 2.4114     | 2.4442     | 2.4946     |   2.0 |  2.41
Other   |            | 0.8104     |            |       |  0.80

Nlocal:        413.000 ave         414 max         411 min
Histogram: 1 0 0 0 0 0 1 0 0 2
Nghost:        1063.25 ave        1075 max        1055 min
Histogram: 1 0 0 2 0 0 0 0 0 1
Neighs:        0.00000 ave           0 max           0 min
Histogram: 4 0 0 0 0 0 0 0 0 0
FullNghs:      11604.5 ave       11633 max       11577 min
Histogram: 1 1 0 0 0 0 0 0 1 1

Total # of neighbors = 46418
Ave neighs/atom = 28.098063
Neighbor list builds = 12924
Dangerous builds = 0
undump 1
reset_timestep 0
#unfix 2
#unfix 3
#unfix 4

################################################
####### Insert Ice #########
################################################

log log.${NAME}.eq_all
log log.icewater_294K_1000atm_ML_DC.eq_all
