
# Define the lattice
#
variable	    lattice_constant equal 6.36339
lattice		    diamond ${lattice_constant}
lattice		    diamond 6.36339
Lattice spacing in x,y,z = 6.3633900 6.3633900 6.3633900

# Define region
# multiples of lattice spacing
#
region 		    simbox block 0 4 0 5 0 5

# Create Atoms
#
create_box          1 simbox
Created orthogonal box = (0.0000000 0.0000000 0.0000000) to (25.453560 31.816950 31.816950)
  1 by 2 by 2 MPI processor grid
create_atoms        1 box
Created 800 atoms
  create_atoms CPU = 0.000 seconds
mass                1 18.015

# Define potential
#
pair_style          sw
pair_coeff          * * ML.sw mW
Reading sw potential file ML.sw with DATE: 2019-02-27

# Add velocity/set timestep
#
velocity            all create ${TEMP} 120598 rot yes dist gaussian
velocity            all create 294 120598 rot yes dist gaussian
timestep            5.0

# Define output
#
compute	            1 all msd
thermo              100
thermo_style        custom step temp press vol etotal ke pe c_1[4]

# Neighbor lists
#
neigh_modify        delay 0 every 1 check yes

# Set fixes
#
fix                 1 all momentum 10 linear 1 1 1 rescale
fix                 2 all nve
fix                 3 all temp/csvr ${TEMP} ${TEMP} 500.0 928347
fix                 3 all temp/csvr 294 ${TEMP} 500.0 928347
fix                 3 all temp/csvr 294 294 500.0 928347
fix                 4 all press/berendsen iso ${PRES} ${PRES} 1000.0 modulus 20000
fix                 4 all press/berendsen iso -1000 ${PRES} 1000.0 modulus 20000
fix                 4 all press/berendsen iso -1000 -1000 1000.0 modulus 20000

# Run 0.5 ns equilibration
#
dump		    1 all custom 1000 eq.${NAME}.dump id type x y z vx vy vz
dump		    1 all custom 1000 eq.ice_294K_1000atm_ML.dump id type x y z vx vy vz
run                 100000
Neighbor list info ...
  update every 1 steps, delay 0 steps, check yes
  max neighbors/atom: 2000, page size: 100000
  master list distance cutoff = 6.0032907
  ghost atom cutoff = 6.0032907
  binsize = 3.0016454, bins = 9 11 11
  1 neighbor lists, perpetual/occasional/extra = 1 0 0
  (1) pair sw, perpetual
      attributes: full, newton on
      pair build: full/bin/atomonly
      stencil: full/bin/3d
      bin: standard
Per MPI rank memory allocation (min/avg/max) = 4.718 | 4.718 | 4.718 Mbytes
Step Temp Press Volume TotEng KinEng PotEng c_1[4] 
       0          294   -620.08055    25767.105   -9004.1621    700.21017   -9704.3722            0 
     100    201.15811   -844.52118    25847.346   -8723.5331    479.09168   -9202.6247  0.095979864 
     200    213.98865   -980.38522    25899.428    -8589.158    509.64975   -9098.8077   0.12488568 
     300    246.08551   -1030.4859    25944.452   -8439.9321    586.09379   -9026.0258   0.12461104 
     400    267.77782   -1130.9976    25969.863   -8384.5263    637.75765    -9022.284   0.15345649 
     500    261.91151   -1206.7502    25996.068   -8342.6067    623.78607   -8966.3928    0.1657496 
     600    302.95487   -870.94773    26012.065   -8250.3137     721.5377   -8971.8514    0.1301438 
     700    297.54426   -861.83001    26021.233   -8230.1522    708.65142   -8938.8036   0.15827631 
     800    306.13476   -931.23033    26043.703   -8206.9267    729.11113   -8936.0378   0.15057198 
     900    281.89997    -1150.112    26030.121   -8210.1417    671.39192   -8881.5336   0.15666689 
    1000    288.42586   -1065.4833     26022.58   -8251.4038    686.93442   -8938.3382   0.16720582 
    1100    301.68603   -872.47439    26026.745   -8233.1695    718.51572   -8951.6852   0.14631165 
    1200    301.51064   -883.31075    26019.666   -8225.3464    718.09802   -8943.4444   0.13943976 
    1300    307.10574   -952.47774    26024.053   -8193.8318    731.42367   -8925.2554   0.18039576 
    1400    290.90417   -1007.8809    26021.806   -8209.6708    692.83693   -8902.5078    0.1538855 
    1500    293.41525   -940.35179    26017.315   -8235.9213    698.81748   -8934.7387   0.14070226 
    1600    307.89071   -961.55396     26029.29    -8223.242    733.29321   -8956.5352   0.16166479 
    1700    298.11729   -964.99621    26028.169   -8228.8223    710.01617   -8938.8385   0.14272058 
    1800    301.88771   -864.68646    26023.942   -8201.8611    718.99606   -8920.8572   0.15749743 
    1900    286.11004   -1024.9173    26039.077   -8187.1451    681.41891    -8868.564   0.18753046 
    2000     315.2013   -1118.1372    26057.993   -8174.7605    750.70462   -8925.4651   0.14940272 
    2100    299.29591   -923.40562    26039.408   -8230.7932    712.82326   -8943.6165   0.14312089 
    2200    296.38742   -979.77836    26030.513   -8216.5396    705.89621   -8922.4358    0.1619158 
    2300    310.69486    -906.3308    26037.166   -8193.9738    739.97177   -8933.9456   0.12961447 
    2400    291.46663   -1110.6283    26030.589   -8199.2449    694.17652   -8893.4215   0.17824414 
    2500    284.24038   -1043.7132    26032.093   -8221.2412    676.96599   -8898.2072   0.16917522 
    2600    301.71801   -988.35803    26035.856   -8204.6335    718.59191   -8923.2254   0.14077906 
    2700    294.79833   -1049.8375    26022.647   -8234.8843    702.11153   -8936.9959   0.15828269 
    2800    297.13042   -955.35877     26039.84   -8194.6555    707.66578   -8902.3213   0.14743943 
    2900    296.89917   -999.71866    26045.014   -8192.5559    707.11501   -8899.6709   0.14663086 
    3000    307.26489    -1037.952    26037.692   -8207.2902    731.80273   -8939.0929   0.16398867 
    3100    304.24585   -998.43608    26052.258   -8199.2781    724.61238   -8923.8905   0.14489946 
    3200    295.77269   -969.74818     26040.53   -8248.4022    704.43212   -8952.8343    0.1364062 
    3300    290.18317    -953.5303    26015.288   -8274.8266    691.11974   -8965.9464   0.15479772 
    3400     301.2025   -1051.3613    26037.126   -8239.8524    717.36412   -8957.2166   0.14418335 
    3500    298.14275   -936.06171    26025.017   -8265.4693    710.07682   -8975.5461   0.13555104 
    3600    302.75637   -999.50567    26030.842   -8238.7953    721.06492   -8959.8602   0.15520663 
    3700    310.80784   -1000.0987    26044.457   -8228.0517    740.24085   -8968.2926   0.13944978 
    3800    304.21664   -951.88902    26043.174    -8193.168    724.54279   -8917.7107   0.15607816 
    3900    304.10279   -1023.2371    26052.191    -8186.102    724.27164   -8910.3736   0.16896343 
    4000    295.22716   -983.38739    26041.464    -8229.274    703.13285   -8932.4068   0.14248675 
    4100    287.18867   -984.10391    26040.198   -8239.0104    683.98785   -8922.9983   0.15075812 
    4200    297.51288   -892.25032    26055.328   -8203.1967    708.57668   -8911.7734   0.15405715 
    4300     295.6744   -1037.5921    26040.624   -8256.0755    704.19803   -8960.2735   0.13488209 
    4400    296.20685   -894.92059    26032.959    -8215.666    705.46614   -8921.1321   0.15590314 
    4500    288.28109   -1028.6363    26035.456   -8238.4522    686.58963   -8925.0419   0.15592926 
    4600    283.07613   -1054.4739    26025.191   -8273.4435    674.19313   -8947.6366   0.13348542 
    4700    289.07075   -982.81362    26041.437   -8223.3563    688.47034   -8911.8267   0.15250835 
    4800    289.35061   -1083.5111    26043.599   -8201.8499    689.13686   -8890.9868    0.1506872 
    4900    294.57768   -939.04311    26047.088    -8184.074    701.58601     -8885.66   0.13660483 
    5000    294.87177   -1046.2946    26050.979   -8217.5307    702.28643   -8919.8172     0.154122 
    5100    297.09384   -989.25378    26035.947   -8195.9362    707.57867   -8903.5148   0.14837887 
    5200    305.84025   -960.15762    26042.018   -8209.0156    728.40971   -8937.4253   0.13634007 
    5300    281.97526   -1087.2197    26016.617   -8248.0127    671.57124    -8919.584   0.16332621 
    5400    287.43945   -1097.7863    26023.864   -8258.5964    684.58512   -8943.1815   0.14108964 
    5500    291.49042   -965.75005     26021.06   -8249.8037    694.23318   -8944.0369   0.13876027 
    5600    275.05956   -1075.1271    26017.226   -8271.7187    655.10034   -8926.8191   0.15374627 
    5700    298.64381   -846.10427     26024.85   -8248.5992    711.27018   -8959.8694   0.13095092 
    5800    289.33895   -1023.7575    26019.904   -8241.0668    689.10909   -8930.1759    0.1512502 
    5900    288.75249   -979.02174    26023.479   -8278.9481    687.71235   -8966.6605    0.1448389 
    6000    280.35686   -1046.7631    26024.621   -8299.3607    667.71674   -8967.0775   0.13387907 
    6100    292.25447   -939.77578    26021.575   -8267.6658     696.0529   -8963.7187   0.13010541 
    6200    285.44957   -961.06978    26021.144   -8273.6158    679.84588   -8953.4617   0.13861261 
    6300    301.06717   -1071.9349    26031.101   -8234.8965    717.04181   -8951.9383   0.13963917 
    6400    292.75433   -987.97191    26043.073    -8227.211     697.2434   -8924.4544   0.14964529 
    6500    297.65181   -1046.5131    26021.194   -8262.0481    708.90756   -8970.9556   0.14754122 
    6600    287.06717   -1036.6524    26019.286   -8275.5481    683.69846   -8959.2466   0.13433157 
    6700    290.93666   -1050.9877    26017.031   -8267.3741    692.91432   -8960.2884   0.15208116 
    6800    285.00573   -1006.3856    26022.678   -8286.4004    678.78881   -8965.1892   0.13945698 
    6900    287.62674   -1067.5015     26027.77   -8254.5564    685.03117   -8939.5876   0.13304184 
    7000    306.19871   -920.29511    26022.641   -8240.5326    729.26344    -8969.796   0.14021655 
    7100    296.73205   -1018.0714    26025.318   -8238.1794      706.717   -8944.8964   0.15172115 
    7200    287.30128   -1009.9792    26023.659   -8252.1541    684.25605   -8936.4101   0.13974522 
    7300    285.19801   -1050.1368    26023.067    -8298.395    679.24676   -8977.6418   0.14245612 
    7400      285.584   -1021.0089    26033.542   -8278.9852    680.16606   -8959.1512   0.13662375 
    7500    282.81685   -975.17836    26035.682   -8253.0586    673.57561   -8926.6342   0.13592509 
    7600    295.20789   -831.18991    26037.212   -8253.8418    703.08696   -8956.9288   0.13584818 
    7700    301.37441   -1006.3991    26049.659   -8223.5179    717.77356   -8941.2915   0.13578882 
    7800    289.49604   -928.03675    26039.127   -8256.4184    689.48323   -8945.9016   0.13267183 
    7900    279.49117   -948.01722    26036.374   -8289.4741    665.65495    -8955.129   0.14286174 
    8000    295.81519    -943.0441    26048.352   -8234.4494    704.53334   -8938.9828   0.13314188 
    8100    298.13167    -967.9574      26041.7    -8225.448    710.05043   -8935.4984   0.14228176 
    8200    300.71411   -1061.4731    26048.755    -8206.792    716.20095    -8922.993    0.1509077 
    8300    302.20151   -1083.8882    26044.163   -8198.5188    719.74344   -8918.2622   0.13664595 
    8400    314.64333    -894.6775    26053.269   -8163.7509     749.3757   -8913.1266   0.14709814 
    8500    293.39251   -1023.8459    26051.971   -8198.9052    698.76332   -8897.6685   0.15363767 
    8600    301.27425   -1043.0411    26051.521   -8221.9503    717.53501   -8939.4854   0.13535748 
    8700    299.81477   -892.05257    26049.142   -8210.8332      714.059   -8924.8922   0.14736532 
    8800    293.83897   -1110.4385    26059.735   -8246.0409    699.82664   -8945.8676   0.14397108 
    8900    286.57315   -949.03004    26038.387   -8256.8271    682.52188    -8939.349   0.12750125 
    9000    287.03161   -956.85993    26025.209   -8270.0782    683.61377    -8953.692    0.1426287 
    9100    292.66324   -948.04384    26025.424   -8245.6497    697.02644   -8942.6762   0.14195824 
    9200    291.57681   -882.71861    26037.898    -8220.229    694.43892   -8914.6679    0.1388533 
    9300     297.8778   -968.05169    26041.963    -8234.892    709.44578   -8944.3378   0.15084968 
    9400    280.04927   -1023.9216    26035.808   -8273.6823    666.98416   -8940.6665   0.13818456 
    9500    298.75053   -886.85901    26044.444   -8260.6463    711.52434   -8972.1706   0.12367487 
    9600     291.3103   -974.19565    26034.598   -8272.0043     693.8042   -8965.8085   0.13919131 
    9700    292.42843   -1077.7806    26039.586   -8249.2906     696.4672   -8945.7578   0.13499424 
    9800    300.08566   -972.87754    26046.141   -8227.1471    714.70418   -8941.8513   0.13791048 
    9900    301.71033   -935.42848    26047.184   -8221.2459     718.5736   -8939.8195   0.15256433 
   10000     291.4725   -1046.3541    26052.418   -8215.6035     694.1905   -8909.7939   0.14537178 
   10100    302.22389   -997.03164    26049.754    -8218.169    719.79673   -8937.9657   0.13932266 
   10200    307.89869   -900.15476    26065.587   -8196.1499    733.31222   -8929.4621   0.14433259 
   10300    301.32728   -908.03891     26077.67   -8175.7856    717.66132   -8893.4469   0.13192796 
   10400    299.94384   -1031.1826    26072.686   -8182.9235    714.36641   -8897.2899   0.14637035 
   10500      287.224   -1041.0151    26064.861   -8212.7999      684.072   -8896.8719   0.15453757 
   10600    290.62307   -1019.0217    26045.763   -8260.4586    692.16743    -8952.626   0.12822668 
   10700    275.98044   -926.48216    26037.851   -8264.7007    657.29357   -8921.9943   0.14146775 
   10800    274.32554   -1106.8737      26032.3   -8269.9748    653.35216   -8923.3269   0.15231796 
   10900    280.05522    -1028.775    26031.735   -8305.3158    666.99834   -8972.3141   0.12375388 
   11000    284.00108   -1042.0561    26018.391    -8329.209    676.39605    -9005.605   0.12815269 
   11100    286.77858   -850.71794    26028.437    -8253.346    683.01114   -8936.3572   0.13828693 
   11200    289.85475   -955.76139    26030.182   -8249.4699    690.33756   -8939.8074   0.13606791 
   11300    285.70061   -1036.3945    26021.791   -8274.6724    680.44377   -8955.1162    0.1468859 
   11400    282.58746   -957.23602    26034.779   -8279.4458    673.02929   -8952.4751   0.13494808 
   11500    291.66738   -946.21342    26040.509   -8247.0147    694.65463   -8941.6693   0.13065448 
   11600    302.94542   -975.25391    26056.341   -8192.2364    721.51518   -8913.7516   0.14785346 
   11700    306.90507   -1027.3661    26067.359   -8184.8498    730.94574   -8915.7955   0.14880622 
   11800    307.37769   -939.80241    26060.947   -8158.8217    732.07137    -8890.893    0.1381629 
   11900    307.22477   -1005.5342    26052.107   -8194.3762    731.70717   -8926.0834   0.15134681 
   12000    305.26281   -1055.6335    26046.727   -8208.9241    727.03444   -8935.9585   0.15099373 
   12100    309.86076   -958.76924    26055.218   -8191.9503    737.98521   -8929.9355   0.14154605 
   12200    297.64215   -1026.1338    26046.346   -8215.3375    708.88455   -8924.2221   0.15244084 
   12300    295.49943   -1026.1567    26043.361   -8225.4451    703.78132   -8929.2264   0.14016514 
   12400    296.41977   -984.80485    26037.461   -8242.0004    705.97326   -8947.9737   0.13415269 
   12500    288.61597   -1042.7704    26040.943     -8224.67     687.3872   -8912.0572   0.15448857 
   12600    297.44833   -996.58601     26044.21   -8216.0197    708.42295   -8924.4426   0.14196578 
   12700    309.06889   -916.10052    26045.269    -8211.009    736.09924   -8947.1082   0.13685934 
   12800    294.53483   -991.13764    26039.627   -8239.8205    701.48395   -8941.3044   0.15229698 
   12900    290.53955   -996.14905    26041.665   -8242.3731    691.96853   -8934.3416   0.13281624 
   13000    290.90032   -948.66814    26043.306   -8203.5582    692.82775    -8896.386   0.14160745 
   13100    294.99414   -1060.5685    26041.243   -8234.0366    702.57788   -8936.6145   0.14314891 
   13200    292.51572   -1031.1801    26035.462   -8266.4165     696.6751   -8963.0916   0.12909633 
   13300    286.21247   -1000.3469    26022.002   -8267.6648    681.66285   -8949.3276   0.14100976 
   13400    283.39163   -901.56898    26021.305   -8271.6049    674.94456   -8946.5494   0.13698436 
   13500    290.50464   -939.74113    26032.102   -8258.6678    691.88539   -8950.5532   0.12971091 
   13600    279.10922    -1057.248    26025.067   -8250.9996    664.74529   -8915.7449   0.15607711 
   13700    292.65353   -995.20927    26032.375   -8261.3943    697.00332   -8958.3977   0.13850984 
   13800    296.12163   -932.29379    26027.031   -8245.2464    705.26317   -8950.5095    0.1258494 
   13900    299.54745    -1004.284    26020.315    -8245.497    713.42234   -8958.9194   0.14154093 
   14000    295.32649   -1045.8361    26034.622   -8213.6552    703.36942   -8917.0246   0.15035418 
   14100    308.12797   -963.66854    26039.442   -8189.3404    733.85829   -8923.1987    0.1438189 
   14200    292.13349    -984.3048    26039.674   -8232.7126    695.76476   -8928.4774   0.14549813 
   14300    297.32209   -970.50562    26041.718   -8242.5522    708.12227   -8950.6745   0.13603717 
   14400    291.11908   -987.76654    26034.877   -8280.5595    693.34877   -8973.9083   0.12762181 
   14500    298.67402   -1038.7907    26034.032   -8261.4909    711.34213    -8972.833   0.13138998 
   14600    284.01996   -990.85692    26040.149   -8266.2755    676.44104   -8942.7165   0.13343629 
   14700    295.28749   -1020.8804    26042.504   -8234.8334    703.27653     -8938.11   0.13862069 
   14800    301.94754   -1070.5792    26053.323   -8202.8513    719.13856   -8921.9899   0.15239514 
   14900     310.1113   -960.26581    26053.418   -8227.8155    738.58192   -8966.3974   0.13227477 
   15000    300.86823   -1042.5143    26050.949   -8229.3204      716.568   -8945.8884   0.13813949 
   15100    288.60809   -1025.9011    26038.409   -8245.7714    687.36843   -8933.1398   0.13633561 
   15200    283.19766   -1089.1445    26029.447   -8252.5913    674.48258   -8927.0739   0.14914787 
   15300    290.58345   -968.33771     26041.28   -8229.1566    692.07307   -8921.2297   0.14007119 
   15400    290.89076   -1052.6562    26038.597   -8252.3845    692.80499   -8945.1895   0.14429679 
   15500    276.59463   -993.25858    26035.836   -8260.5963    658.75637   -8919.3526   0.13684094 
   15600     307.6117    -891.1104    26052.787   -8200.6392    732.62871    -8933.268   0.13160655 
   15700    298.45434   -968.88253    26060.651   -8191.5848    710.81893   -8902.4037   0.14812243 
   15800    306.77121   -965.98095    26068.006   -8180.3796    730.62693   -8911.0065   0.14055846 
   15900    307.07857   -967.91476    26060.737   -8193.9162    731.35897   -8925.2752   0.13639219 
   16000    300.32087   -889.21321     26055.26   -8207.1325    715.26438   -8922.3968   0.13513936 
   16100    295.37042   -1031.4699    26048.615   -8239.9638    703.47405   -8943.4379   0.13885941 
   16200    301.66288   -911.93095    26043.405   -8194.4295    718.46059   -8912.8901    0.1468113 
   16300    291.14837   -1065.8304    26055.684   -8203.5976    693.41853   -8897.0161   0.14570448 
   16400     309.1078    -967.0073    26044.084   -8225.8033    736.19191   -8961.9953   0.13019764 
   16500    292.80149    -1032.227    26034.953   -8239.0899    697.35572   -8936.4456   0.14565438 
   16600    306.22328   -937.61285    26052.985   -8199.9948    729.32195   -8929.3167   0.13891766 
   16700    292.86105   -989.69075    26060.723   -8194.9324    697.49757     -8892.43   0.14420702 
   16800    296.09969   -994.37736    26048.053   -8213.3468    705.21093   -8918.5577    0.1446681 
   16900    300.06692    -996.9174    26045.655   -8210.4513    714.65956   -8925.1108   0.14428939 
   17000    299.40169   -936.49798    26046.824   -8250.0334     713.0752   -8963.1086   0.13350692 
   17100    294.86839   -1019.8007    26043.329   -8251.2079    702.27839   -8953.4863   0.13591006 
   17200    279.96122   -1037.5444    26039.679   -8271.6513    666.77447   -8938.4257   0.13701506 
   17300    289.75002   -1000.9228    26025.702   -8285.9931    690.08813   -8976.0812   0.13342936 
   17400    293.95671   -965.17072    26028.711   -8297.4362    700.10707   -8997.5433   0.12902403 
   17500    297.15383   -893.11808    26029.134   -8273.5952    707.72154   -8981.3167   0.12550617 
   17600    288.47861   -979.63443    26036.091   -8242.0674    687.06006   -8929.1274   0.14537934 
   17700    297.30552   -1020.9528    26042.322   -8259.6451    708.08283   -8967.7279   0.13069585 
   17800    285.36952   -1031.5748    26038.039   -8277.4916    679.65524   -8957.1469   0.13437375 
   17900    298.47419    -922.5594    26034.828   -8233.0336     710.8662   -8943.8998   0.13303503 
   18000    288.82623   -1019.0193    26034.533   -8236.8468    687.88796   -8924.7348   0.14477644 
   18100    312.77217   -1034.5879    26029.889   -8214.7061    744.91922   -8959.6253   0.14224796 
   18200    298.51631   -1074.9715    26036.198   -8224.0521    710.96651   -8935.0186   0.14202359 
   18300    308.80078   -1006.0792    26037.792   -8224.8945     735.4607   -8960.3552   0.13636169 
   18400    296.95479   -1024.2314    26035.153   -8216.8844    707.24749   -8924.1319   0.14501716 
   18500    288.50495   -1027.9727    26037.987   -8240.4116    687.12278   -8927.5344   0.14040077 
   18600    295.84692   -909.95058    26030.391     -8205.48    704.60891   -8910.0889   0.14129899 
   18700     302.2852   -1023.2328    26037.039    -8216.075    719.94275   -8936.0178    0.1382769 
   18800    292.82017    -1016.111    26035.041   -8240.4085     697.4002   -8937.8087   0.13899347 
   18900    313.35849   -948.01929    26030.757   -8209.7293    746.31565    -8956.045   0.14125993 
   19000    300.85483   -899.76286    26032.785   -8215.0641    716.53609   -8931.6002   0.13971714 
   19100    289.67301   -1079.4287    26033.281   -8225.2846     689.9047   -8915.1893   0.14393118 
   19200    297.11175   -972.93536     26033.48   -8210.7979    707.62132   -8918.4193   0.14187355 
   19300    301.73152   -1003.3846    26030.636   -8207.1508    718.62407   -8925.7749   0.14473606 
   19400    309.55233   -1014.6745     26037.13   -8178.2367    737.25064   -8915.4874   0.15323901 
   19500     304.9474   -1080.3115    26032.997   -8206.0537    726.28322   -8932.3369   0.14726624 
   19600    297.72712   -1139.9489    26027.052   -8187.9823    709.08693   -8897.0692   0.15236448 
   19700    309.56751   -1009.0702    26038.187   -8203.6093     737.2868   -8940.8961   0.14632949 
   19800      310.452   -1002.7042     26028.82   -8204.8636    739.39335   -8944.2569   0.14798718 
   19900    316.98536   -988.46652    26039.135   -8176.5143    754.95363   -8931.4679   0.14734726 
   20000    304.47897   -1029.9924    26030.076   -8213.5614    725.16759    -8938.729   0.14337555 
   20100    295.27411   -1005.0477    26027.334   -8216.8166    703.24467   -8920.0613   0.14826697 
   20200    296.28325   -1029.2781    26024.953   -8217.0308    705.64811   -8922.6789   0.14901382 
   20300    303.46704   -932.33964    26030.933   -8227.6895    722.75751   -8950.4471   0.14589665 
   20400    298.47326   -1009.5569    26046.322   -8192.9873    710.86399   -8903.8513   0.15349007 
   20500    301.79769   -965.13538    26034.721   -8216.4103    718.78166   -8935.1919   0.14202283 
   20600    288.99002   -949.29819    26023.311   -8268.6192    688.27805   -8956.8973   0.13881387 
   20700    279.42875   -1040.6355    26015.796   -8290.2962    665.50631   -8955.8025   0.14160489 
   20800     289.1952   -980.30154    26018.332   -8263.2537    688.76674   -8952.0204   0.13861012 
   20900    298.42242   -1037.7169    26034.303   -8211.9073     710.7429   -8922.6502   0.15555324 
   21000    294.20893    -1045.961    26031.179   -8237.1585    700.70777   -8937.8662   0.14348444 
   21100    304.16125   -1022.3692     26033.57    -8225.704    724.41088   -8950.1148   0.14358599 
   21200    293.54935   -1024.0152    26039.752   -8229.6705    699.13687   -8928.8073     0.148108 
   21300    304.87815   -958.60465    26045.588   -8199.1425    726.11829   -8925.2608   0.13854812 
   21400    306.47736   -1037.8641    26047.231   -8218.8288    729.92708   -8948.7559   0.14189488 
   21500    301.81397   -960.94423    26043.852   -8193.8942    718.82044   -8912.7146   0.14863516 
   21600     314.4265   -1016.2126    26052.713   -8199.7872     748.8593   -8948.6465   0.13793339 
   21700    298.94422   -987.36633    26055.068   -8205.7652    711.98565   -8917.7509   0.13960295 
   21800    303.65671   -1046.4416    26042.986   -8251.7522    723.20923   -8974.9615   0.13144559 
   21900    298.67524   -1061.6608    26037.818   -8247.1687    711.34504   -8958.5137   0.13576277 
   22000    295.98639    -985.9281    26032.187   -8246.6382    704.94108   -8951.5792   0.14230499 
   22100     296.7649   -954.21174    26040.293   -8254.5425    706.79525   -8961.3377   0.13720799 
   22200    289.37569   -1025.4935    26029.566   -8295.2449     689.1966   -8984.4415   0.13195912 
   22300    273.09074   -1076.8181    26017.564   -8306.9049    650.41126   -8957.3161   0.14370834 
   22400     299.5124   -971.96839    26040.471   -8238.9414    713.33886   -8952.2803   0.14005235 
   22500    285.39112   -976.73059    26047.003   -8232.1466    679.70667   -8911.8532   0.14475717 
   22600    296.08593   -1115.0702    26050.969   -8244.8596    705.17815   -8950.0378   0.14955463 
   22700    293.53013   -1018.4821    26040.311   -8248.7898    699.09108   -8947.8809   0.14550658 
   22800    297.61501   -1069.7156    26032.226   -8253.4099    708.81991   -8962.2298   0.13944942 
   22900    299.91441   -1047.5563     26031.18   -8237.5299    714.29632   -8951.8262   0.14536245 
   23000     294.6521   -1090.1094    26037.738   -8256.1821    701.76324   -8957.9453   0.14219113 
   23100    292.87984    -964.2004     26022.33   -8259.7952    697.54232   -8957.3375   0.13439851 
   23200    288.67611   -1014.1805    26026.565   -8247.1792    687.53043   -8934.7096   0.15258451 
   23300    298.54303   -1004.2712    26028.386   -8216.4912    711.03015   -8927.5213   0.14516952 
   23400     301.3988   -979.23849    26034.398   -8198.2629    717.83164   -8916.0946   0.15109216 
   23500    293.28663   -964.58688    26032.679   -8205.0166    698.51117   -8903.5278   0.15456874 
   23600    314.80455   -960.68835    26040.254   -8168.6133    749.75969    -8918.373   0.14686307 
   23700     303.6683   -956.51858    26039.747   -8191.5632    723.23683   -8914.8001   0.14901438 
   23800    305.50264   -927.55727    26041.238   -8191.8336    727.60562   -8919.4392   0.15065844 
   23900    304.48547   -982.39625     26044.84    -8235.819    725.18306   -8961.0021   0.12843289 
   24000    307.45844   -935.95895     26040.82   -8222.8059    732.26369   -8955.0696   0.13940598 
   24100    304.71779   -894.83708    26050.056   -8197.2446    725.73639    -8922.981   0.14431506 
   24200    292.37398   -967.80452    26054.208   -8179.9193    696.33752   -8876.2568   0.14335224 
   24300    280.52325   -968.59661    26046.724   -8245.2854    668.11304   -8913.3985   0.14508726 
   24400    289.47553   -975.41851    26043.756   -8246.7142    689.43438   -8936.1485   0.13529611 
   24500    293.00029   -1011.3121    26036.245   -8237.2887    697.82918   -8935.1179   0.13809325 
   24600    290.57609   -924.01457    26027.288   -8272.3945    692.05555   -8964.4501   0.13651546 
   24700    273.24295   -1102.4553    26025.463   -8288.2755    650.77379   -8939.0493   0.14185617 
   24800    288.67708   -1023.9433    26026.808   -8263.9541    687.53274   -8951.4869   0.13241199 
   24900    289.81832   -1023.4447    26032.995   -8257.1236     690.2508   -8947.3744   0.14565662 
   25000    276.83271   -1046.8245    26028.143   -8284.7846    659.32339    -8944.108    0.1371109 
   25100    283.39927   -1027.1626    26019.071   -8286.4409    674.96275   -8961.4036   0.13764329 
   25200    269.78394   -1091.0717    26022.528    -8303.288    642.53556   -8945.8236   0.14313723 
   25300    282.52413   -989.00286     26013.91   -8312.8685    672.87846   -8985.7469   0.13336664 
   25400    298.66477   -959.90294    26017.717   -8259.4459     711.3201    -8970.766   0.14022489 
   25500    275.81258   -996.52036    26022.958   -8254.9212    656.89378    -8911.815   0.14896096 
   25600    287.18635    -1028.578    26022.423   -8259.7069    683.98232   -8943.6892   0.13804434 
   25700    295.02061   -983.95077    26032.205   -8223.1703    702.64092   -8925.8113   0.15284925 
   25800    283.51136   -1083.4644    26030.569    -8248.332     675.2297   -8923.5617   0.15127816 
   25900    317.07734   -914.39131    26054.308   -8186.5725     755.1727   -8941.7452   0.13749353 
   26000     293.2483   -1004.8806    26046.222   -8212.9781    698.41988    -8911.398   0.14756585 
   26100    288.78825   -982.60755    26041.163   -8222.5624    687.79751   -8910.3599   0.14971173 
   26200    296.98486   -936.81627    26044.072   -8222.3803    707.31911   -8929.6994   0.14600069 
   26300    282.78561   -989.10999    26026.489   -8251.6065    673.50123   -8925.1077    0.1455837 
   26400    294.22346   -968.19087    26020.159   -8265.5023    700.74238   -8966.2446   0.14008539 
   26500    300.64335   -947.78806    26028.865   -8238.0071    716.03241   -8954.0395   0.13599684 
   26600    297.30902   -986.57103    26031.976   -8231.5164    708.09114   -8939.6075   0.14829732 
   26700    298.26345   -1059.1096    26029.372   -8219.5402    710.36429   -8929.9045   0.14734698 
   26800    296.70056    -994.0203    26040.145   -8211.6043    706.64201   -8918.2463    0.1480901 
   26900    292.27668   -953.19398    26034.658   -8224.6194     696.1058   -8920.7252   0.13900149 
   27000    295.63857   -1000.1513    26054.341   -8186.7335    704.11269   -8890.8462    0.1456302 
   27100    295.94043    -1024.532    26036.135    -8204.242    704.83161   -8909.0736   0.14190325 
   27200    294.99623   -956.87756    26038.012   -8201.5715    702.58285   -8904.1543   0.14772997 
   27300    302.96695   -981.46237    26035.215   -8200.1668    721.56645   -8921.7332   0.14788999 
   27400    296.74843   -1020.8348    26048.908   -8184.3585      706.756   -8891.1145   0.14469209 
   27500    293.68044   -942.42204     26048.34   -8213.1423    699.44908   -8912.5914   0.13678763 
   27600    294.15124    -887.0092    26033.997   -8254.8428    700.57037   -8955.4132   0.13233999 
   27700    288.19489   -1002.8649    26015.468   -8242.4888    686.38432   -8928.8731   0.15013536 
   27800    293.91649    -1021.629    26028.811   -8203.3484    700.01127   -8903.3596   0.15911537 
   27900    297.01384   -1016.7685    26032.319    -8237.419    707.38814   -8944.8072   0.14170869 
   28000    304.09839   -914.73161    26032.159   -8237.3819    724.26118   -8961.6431   0.13149783 
   28100    276.46536   -1059.5416    26018.493   -8260.0902     658.4485   -8918.5387   0.15604801 
   28200    299.10617   -1002.9243    26020.772   -8235.8227    712.37137   -8948.1941   0.14478194 
   28300    283.31821   -1037.1304    26013.508   -8245.5455    674.76971   -8920.3152   0.15606392 
   28400    284.58835   -921.56803    26017.628   -8239.2073    677.79475   -8917.0021   0.14608016 
   28500    292.48786   -979.72253    26026.217   -8246.2713    696.60874     -8942.88   0.13907223 
   28600    294.01468   -934.58223    26012.444   -8254.2654    700.24513   -8954.5106   0.14509367 
   28700    289.98031   -1030.1828    26022.431   -8256.2428    690.63661   -8946.8794   0.14646791 
   28800    280.50656   -1086.1141    26022.357   -8262.9976    668.07327   -8931.0709   0.14467081 
   28900    286.13874   -982.65715    26016.479    -8266.908    681.48726   -8948.3952   0.14667364 
   29000    288.72965   -995.48592    26022.745   -8254.3937    687.65794   -8942.0516   0.13941902 
   29100     295.5207   -917.49021    26027.687   -8232.2051    703.83196   -8936.0371   0.13711367 
   29200    297.05233   -972.10471    26028.273   -8218.2569     707.4798   -8925.7367   0.14811204 
   29300     292.3545   -1024.1014    26032.859   -8222.0066    696.29114   -8918.2977   0.14398179 
   29400    300.97304   -1042.1699    26030.456   -8224.0204    716.81762    -8940.838   0.14883382 
   29500    298.88103   -955.49814    26026.174    -8206.835    711.83517   -8918.6702   0.14719457 
   29600    298.82498   -950.68681    26024.152   -8246.0536    711.70167   -8957.7553   0.13138561 
   29700     304.9384   -939.72475    26027.935   -8198.9828    726.26179   -8925.2446   0.14241983 
   29800    290.99191   -1004.7499    26028.327   -8248.2053    693.04589   -8941.2511   0.14305138 
   29900    289.11322   -1066.8128    26030.332   -8259.7926    688.57149   -8948.3641   0.14017809 
   30000    291.19702   -1054.7646    26020.818   -8268.8471    693.53441   -8962.3815   0.14389473 
   30100    285.84931   -916.83418    26010.147   -8299.1894    680.79793   -8979.9873   0.12772329 
   30200    278.54848   -1026.5581    26006.629   -8283.4914    663.40978   -8946.9012   0.14008542 
   30300    287.60498   -991.48867      26002.5   -8267.1295    684.97937   -8952.1089   0.14602013 
   30400    289.74719   -925.93078    26010.106   -8238.7472    690.08139   -8928.8286   0.14409611 
   30500    283.22837    -1007.504    26000.102   -8315.4067    674.55574   -8989.9625    0.1335074 
   30600    287.72328   -872.41129    26000.917    -8309.562     685.2611   -8994.8231   0.12972592 
   30700    281.18133   -992.03305    26012.002   -8268.2215    669.68035   -8937.9018   0.14514379 
   30800    284.85582   -999.04432    25994.308   -8273.7272    678.43178    -8952.159   0.14320393 
   30900    283.21251   -1070.3773    26015.853   -8245.6519    674.51795   -8920.1699    0.1490258 
   31000    292.07218   -1090.0245    26021.816   -8225.6587    695.61875   -8921.2774   0.15830851 
   31100    297.92797   -994.61585    26027.726   -8209.9407    709.56527    -8919.506    0.1528478 
   31200    302.30523   -1026.3487     26031.88   -8213.7931    719.99047   -8933.7836   0.14373071 
   31300    302.99476   -968.84854    26033.139   -8198.7699    721.63269   -8920.4026   0.15250922 
   31400    301.48584   -1035.6007    26041.277   -8190.2282    718.03896   -8908.2672   0.16052392 
   31500    294.23702   -1031.9519    26032.864    -8225.221    700.77466   -8925.9957   0.15482843 
   31600     293.8174     -959.979    26030.162   -8202.3205    699.77528   -8902.0958   0.14619885 
   31700    293.68022   -1057.2673    26034.504   -8220.1124    699.44856   -8919.5609   0.14441612 
   31800    296.27441    -1039.027    26036.613   -8200.4411    705.62706   -8906.0682   0.15557381 
   31900    290.13803   -1109.4885    26029.219   -8219.3216    691.01223   -8910.3339   0.15461475 
   32000     295.5926   -1016.0382    26025.734   -8237.4564    704.00322   -8941.4596   0.14084756 
   32100    294.43751   -1059.3041    26026.859   -8239.7269    701.25218   -8940.9791   0.14722009 
   32200    286.91168   -1050.1057    26015.348    -8255.283    683.32815   -8938.6111   0.14173417 
   32300    279.08012   -1025.1546    26010.226   -8276.9153    664.67597   -8941.5912    0.1408494 
   32400    301.06636   -929.74933    26012.787   -8240.9821    717.03987    -8958.022   0.13384502 
   32500    276.46044   -995.34441    26019.057   -8289.9843    658.43677    -8948.421   0.13498518 
   32600    297.22338   -1031.3997    26024.719   -8234.4692    707.88718   -8942.3564   0.14856283 
   32700    295.17977    -951.2762     26030.19   -8224.7291    703.01999   -8927.7491   0.13840077 
   32800    290.75404   -1053.1702    26027.457   -8245.9375    692.47936   -8938.4168   0.13656135 
   32900    296.36036   -1072.0092    26031.556   -8216.4193    705.83175   -8922.2511   0.14766269 
   33000    302.49214   -946.51662    26020.583   -8235.6018    720.43563   -8956.0374   0.13491983 
   33100    288.59073    -1032.669    26014.287   -8252.1326    687.32708   -8939.4597   0.14626166 
   33200     294.5881   -991.36141    26015.286   -8246.2942    701.61082    -8947.905   0.14088192 
   33300    291.42532   -959.58028     26016.57   -8260.2907    694.07813   -8954.3688   0.13224081 
   33400    298.10274    -977.6385    26020.763    -8241.065    709.98152   -8951.0465   0.14320262 
   33500    284.34952   -1019.4167    26010.685   -8269.0814    677.22594   -8946.3074   0.14404217 
   33600    291.88957   -1003.6551    26019.782   -8244.3207    695.18382   -8939.5046   0.14232759 
   33700    286.61545   -1088.5142    26010.689   -8250.0234    682.62264    -8932.646   0.14966177 
   33800    294.43172   -945.02115    26019.434   -8242.9732    701.23839   -8944.2116   0.13803857 
   33900    292.12506   -974.03719    26023.256   -8210.1299    695.74469   -8905.8746   0.15075956 
   34000      299.534   -1014.0572    26031.027   -8221.3991    713.39031   -8934.7895   0.14556455 
   34100    282.60423   -998.40173    26019.357   -8254.9584    673.06924   -8928.0277   0.14657797 
   34200    287.37633   -934.30516    26022.511   -8248.6585    684.43479   -8933.0933   0.14099224 
   34300    292.44728   -980.51749    26031.542   -8239.2667    696.51209   -8935.7788   0.14000045 
   34400    288.30935   -947.46598    26030.387    -8269.722    686.65694   -8956.3789    0.1274326 
   34500    293.66711   -1005.8516    26025.016   -8256.5001    699.41734   -8955.9175   0.13794258 
   34600    312.35151   -864.75372    26034.379   -8181.4416    743.91736   -8925.3589   0.13799037 
   34700    306.99873   -1061.0721    26036.741   -8219.3957    731.16881   -8950.5645   0.14466888 
   34800    290.42432   -1000.5148    26029.263   -8241.3553    691.69408   -8933.0494   0.13553122 
   34900    300.62159   -913.78701    26030.878   -8229.2782    715.98059   -8945.2588   0.13421468 
   35000    309.44789   -946.18066    26038.229   -8227.1878     737.0019   -8964.1897   0.13015606 
   35100    304.14051   -972.12563    26034.097   -8214.2279    724.36149   -8938.5894   0.13995895 
   35200    289.63349   -982.11295    26038.211   -8239.2464    689.81058    -8929.057   0.13394357 
   35300    287.56402   -999.20085    26036.754   -8237.1608    684.88179   -8922.0426   0.13846796 
   35400    286.02034   -986.13654    26039.345   -8241.5765    681.20528   -8922.7818   0.13838859 
   35500    290.78485   -1052.2834    26033.612   -8239.4978    692.55276   -8932.0506   0.14621894 
   35600    286.38881   -960.88314    26027.387   -8226.8854    682.08285   -8908.9683   0.13993118 
   35700    296.65526   -998.89445     26044.15   -8225.3784    706.53411   -8931.9125   0.13610515 
   35800     295.1001    -932.7886    26060.736   -8191.0045    702.83025   -8893.8347   0.14182252 
   35900    298.24105   -1038.1933    26058.446   -8172.7635    710.31094   -8883.0745   0.14922645 
   36000    303.98979   -1118.8632    26039.732    -8224.098    724.00253   -8948.1005   0.14301441 
   36100    295.65464    -1053.606    26041.561    -8221.851    704.15097    -8926.002    0.1375075 
   36200    299.70957   -1022.8073    26048.598   -8220.8249    713.80846   -8934.6334   0.13731979 
   36300    283.45649   -1063.9894    26033.345   -8275.6299    675.09903   -8950.7289   0.13648085 
   36400    280.20765   -1009.3589    26033.936   -8259.5062    667.36138   -8926.8676   0.13646035 
   36500    292.35447   -997.69776    26035.566   -8229.9513    696.29106   -8926.2424   0.13675589 
   36600    288.71943   -964.69459    26043.945   -8228.0506    687.63362   -8915.6842   0.14556056 
   36700    305.58772     -1023.73    26047.164   -8212.9649    727.80826   -8940.7731   0.14220363 
   36800     289.0867   -973.84767    26034.999   -8258.5788    688.50832   -8947.0871   0.12945511 
   36900    290.05921   -885.25511    26021.337   -8262.3724    690.82451   -8953.1969   0.13174629 
   37000    292.87251   -1040.6909    26026.378   -8264.6418    697.52487   -8962.1667   0.13923579 
   37100    294.06636    -1067.412    26028.736   -8254.6766    700.36821   -8955.0449   0.14011808 
   37200    295.04667   -958.03257    26033.794   -8239.2916    702.70298   -8941.9945   0.13990629 
   37300    295.80614    -952.2845    26032.422   -8267.3905     704.5118   -8971.9023   0.12824108 
   37400    292.20874   -973.87161     26028.88   -8250.3279    695.94398   -8946.2719   0.14378059 
   37500    289.14882   -1075.7957    26027.782   -8245.8122    688.65627   -8934.4685    0.1472223 
   37600    291.03238   -1133.9321    26027.679   -8262.5889    693.14229   -8955.7312    0.1384089 
   37700    286.46152   -1016.8498    26030.697   -8266.5581    682.25601   -8948.8142   0.14687066 
   37800    282.07363   -1012.6358    26010.425   -8297.9926    671.80552   -8969.7981   0.13123735 
   37900    284.30421   -1034.9575    26011.532   -8292.3932    677.11803   -8969.5112   0.13365235 
   38000    286.68453   -1066.2474    26021.652   -8230.9371    682.78716   -8913.7243   0.14953319 
   38100    292.22554   -1078.5087     26032.04   -8235.5994    695.98398   -8931.5834   0.14286348 
   38200    302.09284   -971.19408    26027.774   -8213.7497    719.48463   -8933.2343   0.14540617 
   38300    289.71726   -975.25621    26032.713   -8197.3729     690.0101    -8887.383   0.14575613 
   38400    306.11752   -928.01809    26034.345   -8223.5743    729.07006   -8952.6443   0.12365334 
   38500    294.03437   -963.70381    26047.703   -8221.0379    700.29202   -8921.3299   0.14427352 
   38600    290.01936   -983.50117    26029.122   -8223.9541    690.72961   -8914.6837   0.14408201 
   38700    291.64233   -1012.1705    26035.977   -8205.4951    694.59498   -8900.0901   0.14505394 
   38800    294.91624   -953.82703    26045.921   -8218.9281    702.39235   -8921.3205    0.1398814 
   38900     290.8239   -992.00371    26043.486   -8225.4079    692.64575   -8918.0537   0.13232467 
   39000    294.87538   -1000.6889     26044.63   -8214.8391    702.29502   -8917.1341   0.13950887 
   39100    300.22953   -970.52798    26036.859   -8238.0773    715.04684   -8953.1241   0.14003923 
   39200    293.69315   -998.23485    26039.963   -8238.7306    699.47935   -8938.2099    0.1396896 
   39300    284.11007   -987.87534    26023.803   -8310.6052    676.65565   -8987.2609   0.13277989 
   39400    277.95507   -1002.0616    26022.818   -8284.3615    661.99648   -8946.3579   0.13632199 
   39500    293.41841   -984.08685    26028.881     -8264.94    698.82501    -8963.765   0.13257599 
   39600     285.8143   -1024.2782    26029.613   -8237.5293    680.71454   -8918.2438    0.1475431 
   39700    308.36274   -1079.7707    26037.274   -8225.5681    734.41742   -8959.9855   0.14493343 
   39800     294.8878   -1070.7758    26033.218   -8236.1842    702.32461   -8938.5088   0.14669887 
   39900    300.80274   -962.73762    26033.429    -8251.593    716.41202    -8968.005   0.12904195 
   40000    281.61552   -1118.2039     26035.29   -8225.5449    670.71445   -8896.2593   0.14987541 
   40100    286.86606   -1002.2857    26033.195   -8242.6861    683.21951   -8925.9056   0.14144259 
   40200    279.29012    -1053.203    26031.608   -8243.0956    665.17612   -8908.2717   0.15073423 
   40300    286.22929   -950.74473    26039.405   -8247.3094    681.70291   -8929.0124   0.14145535 
   40400    283.34779   -975.81435    26025.408   -8256.4706    674.84014   -8931.3108   0.13885874 
   40500     290.5576   -919.69858    26027.616   -8256.9538    692.01152   -8948.9653   0.12722204 
   40600    296.74979   -1053.0558    26036.367   -8198.9544    706.75925   -8905.7136   0.14959537 
   40700    284.62381   -990.58498    26024.246    -8260.219     677.8792   -8938.0982   0.13885061 
   40800    279.49493   -995.84979    26018.733   -8262.3492    665.66391   -8928.0131   0.14828791 
   40900    293.35027   -1039.6003    26030.783    -8229.142    698.66272   -8927.8047   0.14744767 
   41000    295.47028   -1072.2754    26028.567   -8217.5874    703.71189   -8921.2992   0.14010523 
   41100     274.6912   -1068.1982    26017.807   -8290.3846    654.22304   -8944.6076   0.14244695 
   41200    291.83114   -1031.4708    26019.002   -8248.4163    695.04465   -8943.4609   0.14292337 
   41300    294.57519   -919.55053    26027.042   -8217.5165    701.58009   -8919.0966   0.14065616 
   41400    297.87777   -999.87446    26024.376   -8238.5354    709.44572   -8947.9811   0.14447463 
   41500     292.3781   -1088.2375    26027.383   -8253.7747    696.34734   -8950.1221   0.14333629 
   41600    298.39439   -926.83027     26027.29    -8225.148    710.67614   -8935.8242   0.13259045 
   41700    291.18937   -1066.5504    26026.188   -8253.3136    693.51617   -8946.8298   0.14547665 
   41800    286.51369   -997.19676    26021.552   -8260.8173    682.38027   -8943.1976   0.14342889 
   41900    285.71493   -992.57855    26023.713   -8250.8141    680.47788    -8931.292   0.14405183 
   42000     287.1782   -983.27235    26021.784   -8266.5846    683.96291   -8950.5475   0.14336285 
   42100    286.17094   -1018.8772    26028.535   -8273.9823    681.56395   -8955.5462   0.13082038 
   42200    290.83087   -979.51808    26015.621   -8288.3635    692.66234   -8981.0259   0.13465304 
   42300    296.63036   -959.46787    26017.876   -8266.8368    706.47482   -8973.3116   0.14483273 
   42400    284.27986   -953.96382    26026.134   -8243.7497    677.06003   -8920.8098   0.14229446 
   42500    298.17281   -968.06221    26037.178   -8249.6084    710.14842   -8959.7568     0.139093 
   42600    282.79214   -1005.0375    26042.947   -8259.7563    673.51677    -8933.273   0.13735342 
   42700    287.27551   -902.63225    26036.966   -8246.0079    684.19467   -8930.2026   0.12945652 
   42800    284.48732   -998.20993    26023.622   -8289.5988    677.55413   -8967.1529   0.13507133 
   42900    286.51786   -1001.5642    26033.962   -8256.1642    682.39019   -8938.5543    0.1450975 
   43000    287.70432   -1028.2882    26036.924    -8276.276    685.21595    -8961.492   0.13537008 
   43100    288.92709   -981.04771    26036.899   -8262.6291    688.12818   -8950.7573   0.13325494 
   43200    292.20762   -969.95577    26041.016   -8251.7715    695.94131   -8947.7128   0.13441554 
   43300    285.03968   -1092.8689    26039.106   -8258.0146    678.86966   -8936.8843    0.1405787 
   43400    300.51983   -933.15695     26033.12   -8227.2916    715.73822   -8943.0298   0.14186668 
   43500     291.2206   -1015.1288    26042.558   -8206.0915    693.59055   -8899.6821   0.14971033 
   43600    298.39958   -1028.0112    26039.631   -8234.2601     710.6885   -8944.9486   0.14009823 
   43700    290.32063   -1051.9333    26032.835    -8255.055    691.44713   -8946.5021   0.14475027 
   43800    289.56642   -994.13858    26032.575   -8253.4114    689.65085   -8943.0622   0.14508816 
   43900    288.01995   -1090.7974    26021.256   -8282.8412    685.96768   -8968.8089   0.13917855 
   44000    280.45656   -1012.6252    26019.347   -8286.4453    667.95419   -8954.3995   0.14802747 
   44100      278.218   -1010.9563    26009.252   -8311.7908    662.62269   -8974.4135   0.13984887 
   44200     289.5261   -945.72492    26021.043   -8266.3131    689.55483   -8955.8679   0.13159507 
   44300    274.59536   -960.66083    26018.041   -8275.5606    653.99476   -8929.5554   0.13685946 
   44400    277.73304   -1018.9358    26019.483    -8272.723    661.46767   -8934.1907   0.14351687 
   44500     289.9739   -987.17624    26017.374   -8267.0922    690.62133   -8957.7136   0.14031307 
   44600    285.97527   -1094.7455    26025.328   -8283.7127    681.09792   -8964.8107   0.14735518 
   44700    295.76906   -1014.5475    26031.347   -8276.8438    704.42348   -8981.2673   0.13237275 
   44800    291.66776   -951.51776    26023.599   -8258.5166    694.65554   -8953.1722   0.13188917 
   44900    288.34631   -1030.8839    26027.453   -8229.1569    686.74497   -8915.9019   0.15998349 
   45000    276.68106   -1069.6786    26023.673   -8244.5222    658.96221   -8903.4844   0.15942021 
   45100    294.20921   -1008.9961    26018.437   -8231.9406    700.70843    -8932.649   0.15072746 
   45200    298.72891   -1001.4368    26025.391   -8214.9268    711.47286   -8926.3996    0.1615819 
   45300    305.62015   -976.85642    26030.214   -8207.0363     727.8855   -8934.9218   0.13890916 
   45400    294.19928   -1004.2392    26020.632   -8245.2935    700.68479   -8945.9783   0.14940299 
   45500    301.07816   -939.15438    26026.791   -8195.9915    717.06799   -8913.0594   0.15595115 
   45600    303.68291    -883.2745    26033.617   -8200.7886    723.27162   -8924.0602   0.14397455 
   45700    306.58694   -939.27668    26034.155    -8222.256    730.18807    -8952.444   0.14718831 
   45800    285.95899   -1029.5578    26039.076   -8228.5471    681.05916   -8909.6063   0.14887037 
   45900    304.67849   -867.02634    26033.843   -8197.4564    725.64277   -8923.0991   0.13539952 
   46000    313.64671   -894.38744    26041.415   -8168.0811    747.00209   -8915.0832   0.15780229 
   46100    296.64474   -1024.4559    26035.202   -8176.8886    706.50905   -8883.3976   0.16545124 
   46200    300.25314   -1009.8123    26050.101   -8187.9251    715.10305   -8903.0282   0.14708613 
   46300    305.75293   -1014.2462    26047.552   -8197.1457    728.20173   -8925.3475   0.15243385 
   46400    306.92822   -944.07417    26031.125   -8216.5302    731.00089   -8947.5311   0.14317652 
   46500    306.95678   -950.49345     26027.06   -8211.6843    731.06891   -8942.7532   0.14456753 
   46600    293.33688   -1085.0421    26026.034   -8226.2553    698.63083   -8924.8861   0.15876467 
   46700    306.31417   -1005.2748    26041.738   -8208.5643    729.53843   -8938.1027   0.14341423 
   46800    304.39662   -988.70336    26043.883   -8197.3408    724.97146   -8922.3122   0.14961415 
   46900    298.49603   -1126.1416    26031.312   -8234.7757    710.91821   -8945.6939   0.15563204 
   47000    305.86499   -1002.4799    26039.604   -8199.3397    728.46861   -8927.8083    0.1421128 
   47100    297.98281   -1036.2989    26039.436    -8226.648     709.6959   -8936.3439   0.14846975 
   47200    301.16203   -925.59333    26036.389   -8253.8009    717.26773   -8971.0687   0.14578438 
   47300    292.21657   -995.58901    26039.184   -8228.7887    695.96264   -8924.7514   0.15490893 
   47400    296.43812   -975.24792    26034.238    -8252.776    706.01696    -8958.793   0.13358021 
   47500    285.53241   -970.05198    26031.684   -8264.8747    680.04319   -8944.9179   0.13450669 
   47600    291.83306   -956.79195    26031.952   -8239.8538    695.04925    -8934.903   0.14708746 
   47700    281.98668   -1025.5455    26028.095   -8239.2027    671.59844   -8910.8011   0.15262962 
   47800    288.99239   -1005.2821    26038.999    -8227.916    688.28371   -8916.1997    0.1454205 
   47900    283.56802   -988.02223    26041.829   -8238.3214    675.36465    -8913.686   0.13695548 
   48000    307.94265   -1012.6412    26036.946    -8242.265    733.41692   -8975.6819   0.13187536 
   48100    282.61091   -1057.1294    26034.545   -8272.6901    673.08513   -8945.7752   0.15035778 
   48200    293.30244   -999.61941    26034.155   -8266.2182    698.54881    -8964.767   0.14202295 
   48300    294.26677   -961.43111    26044.113   -8241.1636    700.84552   -8942.0091   0.13892486 
   48400    295.47197   -977.86198    26047.779   -8223.8885    703.71591   -8927.6044   0.15280461 
   48500    309.22837   -951.72344    26041.493   -8246.7921    736.47907   -8983.2712   0.13506743 
   48600    278.85053   -1012.7714    26024.199   -8285.3972    664.12917   -8949.5264   0.14542559 
   48700    288.86527   -983.19319    26023.693   -8268.2384    687.98096   -8956.2193   0.15282021 
   48800     287.7598   -1020.1532    26029.954   -8288.3754     685.3481   -8973.7234   0.13631708 
   48900    290.58867   -1049.2863    26028.305   -8261.3049    692.08552   -8953.3904   0.15058747 
   49000     290.6926   -1020.3839    26039.641   -8275.2869    692.33304     -8967.62   0.13034422 
   49100    295.97842   -941.82458    26035.124   -8231.5941    704.92209   -8936.5162   0.13204394 
   49200    289.07098   -899.76077    26047.184   -8219.8007    688.47088   -8908.2716   0.15406881 
   49300    292.49764   -935.64713    26053.599   -8235.0847    696.63204   -8931.7167   0.13783419 
   49400    297.25169   -947.16273    26058.722   -8247.4295    707.95461   -8955.3841   0.13378535 
   49500    291.89905   -948.18516    26051.999   -8248.2387     695.2064   -8943.4451   0.13829974 
   49600    302.99942   -1063.9047    26048.118   -8251.3616    721.64379   -8973.0054   0.12925392 
   49700    303.46149   -983.48207    26048.601   -8230.8615    722.74429   -8953.6058   0.14080225 
   49800    283.15623   -1007.9843    26037.385   -8258.0996    674.38391   -8932.4835   0.15141806 
   49900    282.38694   -1118.9462    26039.273   -8268.5335    672.55172   -8941.0853   0.14439193 
   50000    296.89021   -978.78165    26035.016   -8244.4194    707.09368   -8951.5131   0.14072394 
   50100    294.88725   -1003.5186    26042.753   -8223.6771    702.32329   -8926.0004   0.14618813 
   50200    292.97968   -1043.7185    26055.213   -8219.4336    697.78011   -8917.2137   0.14589505 
   50300    301.35524   -956.93049    26053.905   -8212.3343     717.7279   -8930.0622   0.14852351 
   50400    288.95825    -1078.002    26041.503   -8251.6378     688.2024   -8939.8402   0.13924469 
   50500    283.22703   -1029.9058    26037.176   -8247.6561    674.55253   -8922.2087   0.14778884 
   50600    300.97648   -941.63279    26041.749    -8228.433    716.82582   -8945.2588   0.14288826 
   50700    286.82929   -1074.9311    26052.784   -8228.4073    683.13192   -8911.5392   0.14289529 
   50800    275.43413   -974.22273    26028.366   -8303.4274    655.99245   -8959.4199   0.13632633 
   50900     291.2666    -1036.159    26028.478   -8301.9781    693.70012   -8995.6782   0.13736823 
   51000    285.47137   -951.50024    26039.665   -8272.9598     679.8978   -8952.8576   0.13692798 
   51100    279.09261   -973.84503    26042.486   -8265.6322    664.70572   -8930.3379     0.136982 
   51200    292.74318   -954.64715    26033.845    -8287.207    697.21685   -8984.4239   0.12380638 
   51300     277.6048   -898.47161    26028.995   -8300.6503    661.16226   -8961.8126   0.13569197 
   51400    278.70817   -985.77131    26033.433   -8281.6084    663.79011   -8945.3985   0.14505411 
   51500    284.99177   -1064.9068    26035.174   -8284.5824    678.75557   -8963.3379    0.1395824 
   51600    287.91395   -971.93142     26031.87   -8288.3666    685.71523   -8974.0818    0.1241367 
   51700    287.17171   -953.73037    26034.043   -8249.7256    683.94744    -8933.673   0.13410444 
   51800    296.38182   -1066.7593    26049.782   -8211.4279    705.88287   -8917.3107   0.15404848 
   51900    290.25116   -1021.6058    26053.929   -8240.7048    691.28168   -8931.9865   0.14349711 
   52000     295.7825   -1030.5002    26042.267   -8273.7393     704.4555   -8978.1948   0.12932184 
   52100    292.95875   -1082.7219    26041.785   -8271.2696    697.73026   -8968.9998    0.1430693 
   52200    280.93383   -1052.8727    26035.146   -8295.9774    669.09091   -8965.0683   0.14044935 
   52300    275.54895    -1031.764    26023.277   -8308.4437    656.26592   -8964.7096   0.13707875 
   52400     267.2359   -1027.8688    26023.215   -8315.5787    636.46698   -8952.0457   0.13510392 
   52500    291.88187   -925.20764    26016.619   -8315.1078    695.16549   -9010.2733   0.12412621 
   52600    288.80761   -1027.3057    26018.946   -8243.7043    687.84362   -8931.5479   0.15437346 
   52700    288.54341   -977.59787    26034.572   -8257.7054    687.21438   -8944.9197   0.14087148 
   52800    317.26021   -937.13205    26037.786   -8199.2812    755.60825   -8954.8895   0.13475023 
   52900    297.91696    -1037.229    26044.147   -8201.2441    709.53906   -8910.7832   0.15151246 
   53000     286.6849   -1002.0244    26040.491   -8198.2505    682.78803   -8881.0386    0.1620054 
   53100    296.51891   -1030.6159    26029.369   -8255.4046    706.20938    -8961.614   0.14132354 
   53200    284.03479   -933.83723    26012.618   -8283.4445    676.47635   -8959.9208   0.13654139 
   53300    281.33101    -1076.236    26003.922   -8295.3938    670.03686   -8965.4307    0.1446481 
   53400    279.46183   -1037.0026    26010.069   -8256.2438    665.58508   -8921.8289   0.15100433 
   53500    291.53392   -1028.6277    26017.516   -8265.5243    694.33678   -8959.8611   0.14775463 
   53600     290.7706   -1011.4309    26013.307   -8233.9781    692.51881   -8926.4969   0.14723432 
   53700    298.43006   -929.52082    26018.042   -8236.3644    710.76109   -8947.1255   0.14308758 
   53800     293.7001   -1059.5524    26027.596   -8250.8875     699.4959   -8950.3834   0.15442034 
   53900    297.01963   -938.33564    26027.339   -8247.8309    707.40193   -8955.2328   0.13514597 
   54000    294.70716   -949.71634    26031.877   -8240.8186    701.89438    -8942.713   0.13436712 
   54100    284.70426   -912.99988    26019.011   -8284.7425    678.07081   -8962.8134   0.13424863 
   54200    299.01777   -973.72484    26022.631   -8243.0714    712.16083   -8955.2323   0.15033136 
   54300    301.08464   -994.73064    26041.147   -8218.6689    717.08342   -8935.7524   0.15005767 
   54400    307.15894   -968.84656    26046.771      -8224.4    731.55037   -8955.9504   0.12997562 
   54500     303.5501   -926.69527    26050.429   -8202.7862    722.95533   -8925.7415   0.13996635 
   54600    302.13316   -1017.4802    26046.145   -8229.2827    719.58066   -8948.8633   0.14567277 
   54700    315.58189   -983.21559    26041.817   -8217.1976    751.61106   -8968.8086   0.14005123 
   54800      306.384   -1001.9589    26047.684   -8217.4447    729.70472   -8947.1494   0.13425325 
   54900    295.03412   -1030.6343    26031.405   -8223.5455    702.67309   -8926.2186   0.14095307 
   55000    302.91912   -944.94997    26026.635   -8206.4149    721.45255   -8927.8674   0.15063083 
   55100    294.30911   -891.88898    26022.445   -8221.0246    700.94636    -8921.971   0.14720139 
   55200    304.86496   -943.03216    26016.754   -8250.4084    726.08689   -8976.4953   0.13654479 
   55300    278.68974   -1043.1139    26006.415    -8275.277    663.74622   -8939.0233   0.15290103 
   55400    281.40908   -1098.3924    26006.631   -8294.2572    670.22278   -8964.4799   0.14818815 
   55500    294.15445    -928.0936    26017.658   -8258.4934    700.57801   -8959.0714   0.13839819 
   55600    295.42877    -973.3309    26008.477   -8263.3246    703.61301   -8966.9376   0.14453457 
   55700    306.58946   -1032.0893    26018.403   -8226.2903    730.19408   -8956.4844   0.14930002 
   55800    298.54499   -1062.2412    26018.069   -8207.2852    711.03482     -8918.32   0.16238064 
   55900    299.27022   -1117.3788    26027.884   -8222.8265    712.76208   -8935.5885   0.15916969 
   56000    306.72168   -993.61119    26032.025   -8205.9554    730.50898   -8936.4644    0.1403155 
   56100    299.82931   -1027.8691    26022.929   -8207.0383    714.09364   -8921.1319   0.15031944 
   56200    287.04274   -1054.5759    26019.166   -8243.2223    683.64029   -8926.8626   0.15896437 
   56300    290.97963   -1008.3376    26016.388   -8267.3617    693.01666   -8960.3784   0.13934299 
   56400    280.89895   -1026.3761     26016.54   -8273.2289    669.00783   -8942.2367   0.14783822 
   56500    280.54532   -1025.7367    26007.207   -8294.5488     668.1656   -8962.7145   0.14681687 
   56600    289.90747   -968.42625    26002.587   -8314.6486    690.46312   -9005.1117   0.13754445 
   56700    289.42057   -1027.2839    26013.327   -8298.9104    689.30348   -8988.2139   0.14464518 
   56800    291.03511   -996.46895    26011.329   -8284.7518    693.14878   -8977.9005   0.14014117 
   56900    279.29913   -1003.9783    26018.602   -8274.9926    665.19759   -8940.1902   0.14465142 
   57000    288.75601   -978.66134     26006.22   -8287.9121    687.72073   -8975.6329   0.14764687 
   57100    282.94676   -980.47591    26004.475   -8290.7502    673.88502   -8964.6352   0.14054834 
   57200    288.27862   -992.14596    26024.007   -8228.3896    686.58373   -8914.9733   0.15026502 
   57300    288.91398   -1012.3226    26024.641    -8270.032    688.09697    -8958.129   0.13863156 
   57400    291.53439   -994.76607    26012.512   -8282.4656     694.3379   -8976.8035   0.13749857 
   57500    298.96858   -979.12535    26023.914    -8230.529    712.04367   -8942.5726   0.15300503 
   57600    276.11893   -1043.6747    26023.934   -8272.8242     657.6234   -8930.4476    0.1444525 
   57700    292.06209   -1078.9815     26015.97   -8292.2901     695.5947   -8987.8848   0.13475344 
   57800    287.65892   -951.14292    26024.411   -8242.6091    685.10783   -8927.7169   0.14833007 
   57900    286.10591   -1008.3852    26038.773   -8230.1404    681.40908   -8911.5494   0.15637237 
   58000    285.70307   -1073.3233    26042.755   -8256.4927    680.44964   -8936.9423   0.15080302 
   58100    295.49856   -958.60109    26033.818   -8266.3303    703.77925   -8970.1095   0.14007759 
   58200    286.77221   -1015.6263    26022.211   -8256.0454    682.99597   -8939.0414   0.14577329 
   58300    308.45863   -978.78349     26032.09   -8216.2867    734.64581   -8950.9326   0.14743045 
   58400    295.20615   -963.18839    26034.996   -8251.9738    703.08282   -8955.0566   0.13686705 
   58500    288.28121   -1020.7253    26029.698   -8250.3875    686.58991   -8936.9774   0.14500089 
   58600    293.85306    -965.5286    26026.259   -8237.7908    699.86019    -8937.651   0.14975994 
   58700    285.47802   -1059.6918    26032.345    -8239.524    679.91364   -8919.4376   0.15054106 
   58800    298.54914   -900.22061    26040.918   -8212.2061     711.0447   -8923.2508   0.14459534 
   58900    304.10617   -946.70154    26035.542   -8222.3254    724.27971   -8946.6051   0.14240733 
   59000    302.20681   -967.93246      26045.5   -8197.0866    719.75606   -8916.8426   0.15091096 
   59100    303.34461   -993.15685    26043.689    -8209.484    722.46593   -8931.9499   0.15960201 
   59200    298.53613    -1088.646     26043.45   -8213.5042    711.01372    -8924.518   0.15662194 
   59300    292.71153   -1012.6441    26029.908   -8271.1379    697.14147   -8968.2794   0.13752792 
   59400    286.08366   -1095.5405    26029.067   -8228.3866    681.35607   -8909.7427   0.15727667 
   59500     290.5663     -1084.09    26029.781   -8218.7496    692.03223   -8910.7818   0.15882656 
   59600    281.19377    -962.9638    26026.869   -8268.0827    669.70998   -8937.7927   0.14563291 
   59700    286.26045   -937.95276    26015.538   -8245.8489    681.77714    -8927.626   0.15015855 
   59800    292.09586    -939.7045    26034.328   -8225.4468    695.67513   -8921.1219   0.14733779 
   59900    280.42323   -1012.3843    26015.488   -8271.4754    667.87483   -8939.3502   0.15359302 
   60000    289.96481   -991.41794    26019.572   -8270.5457    690.59968   -8961.1453   0.14350807 
   60100    267.89951   -997.97305    26023.493   -8258.0593    638.04749   -8896.1068   0.15086905 
   60200    290.40035   -1039.6602    26034.988   -8251.2677    691.63699   -8942.9046   0.15119876 
   60300    289.24317   -1005.1116    26026.079    -8253.849    688.88098     -8942.73   0.15152031 
   60400    289.85705   -1014.1725    26031.358   -8223.9107    690.34304   -8914.2538   0.14833079 
   60500    294.90447   -921.46257    26041.846   -8199.6163    702.36431   -8901.9806   0.14985634 
   60600    289.87987   -907.25283    26035.462   -8214.7466    690.39738    -8905.144   0.14535732 
   60700    297.17169   -982.86285    26039.773   -8212.4284    707.76408   -8920.1925    0.1468715 
   60800    310.35404   -984.56099     26050.82   -8158.6462    739.16006   -8897.8062   0.15276937 
   60900    304.32703   -892.18867    26050.443   -8175.0629    724.80571   -8899.8686   0.13718611 
   61000    305.96521   -944.90324    26036.422   -8221.1682    728.70731   -8949.8755   0.13490195 
   61100    304.88572   -1039.3252    26046.899   -8218.3424    726.13632   -8944.4787   0.14606816 
   61200    304.50979   -1030.0106    26042.524   -8229.7214    725.24099   -8954.9624    0.1482094 
   61300    303.91067   -1030.5715    26041.154   -8214.6094    723.81409   -8938.4235   0.14655043 
   61400    302.03952   -1041.4672    26046.277    -8229.673    719.35762   -8949.0306   0.14209682 
   61500    291.96022    -1030.428    26038.338   -8239.9306    695.35209   -8935.2827    0.1460909 
   61600    287.00581    -1075.429    26032.319   -8253.5051    683.55233   -8937.0574   0.15014903 
   61700    285.15487   -1014.3723    26026.163   -8270.0825      679.144   -8949.2265   0.14559593 
   61800    299.18116   -965.48368    26024.221   -8277.4255    712.54996   -8989.9755   0.13512943 
   61900    279.65224   -993.40016    26027.881   -8255.2061    666.03857   -8921.2446   0.14464135 
   62000    299.79825   -1065.0509    26038.097   -8234.5061    714.01967   -8948.5258   0.14843932 
   62100     292.3509   -945.48004     26036.15   -8245.8342    696.28256   -8942.1168    0.1362053 
   62200    287.98849   -1003.8704    26034.797     -8263.09    685.89274   -8948.9828   0.13314451 
   62300    297.89693   -1025.6816     26037.02   -8237.9775    709.49135   -8947.4689   0.15416119 
   62400    302.54776   -968.63636    26045.948   -8209.8319    720.56809      -8930.4   0.14838449 
   62500    311.73245   -948.04843     26039.71   -8227.0924    742.44296   -8969.5353   0.14247442 
   62600    288.99643   -1032.4021    26036.982   -8238.6362    688.29332   -8926.9295   0.15510139 
   62700    279.73992   -1141.3958    26018.718   -8282.8159     666.2474   -8949.0633   0.15576775 
   62800    285.94653   -951.09928    26013.785   -8303.7023    681.02947   -8984.7317   0.14536636 
   62900    284.04633   -1152.4009    26022.907   -8222.7698    676.50385   -8899.2736   0.17411314 
   63000    298.94829   -1056.0155    26032.013   -8250.7097    711.99534    -8962.705   0.14470808 
   63100    292.44976   -1064.0825    26019.091   -8275.6945    696.51801   -8972.2125    0.1483815 
   63200    295.88802   -1002.1886    26018.272   -8274.3428    704.70681   -8979.0496   0.14644611 
   63300     293.7715   -1036.9143    26033.235   -8253.4188    699.66595   -8953.0848   0.14281657 
   63400     277.4829   -1010.2428    26025.571   -8284.0864    660.87194   -8944.9584   0.14704072 
   63500    288.67217   -977.15374    26029.818   -8251.9764    687.52105   -8939.4974   0.14280292 
   63600     275.4464   -989.51036    26018.484   -8277.2347    656.02167   -8933.2564     0.139316 
   63700    279.30955    -924.8242    26014.494    -8298.447    665.22239   -8963.6694   0.13930371 
   63800    275.34224   -924.52212    26015.081   -8299.6486    655.77359   -8955.4222   0.13776493 
   63900    277.97839   -988.25544    26016.817   -8293.2473    662.05202   -8955.2993   0.13815443 
   64000    287.09665   -958.33211    26029.451   -8269.4497    683.76868   -8953.2184   0.14275911 
   64100    288.52869   -1053.8395    26045.552   -8251.3953    687.17933   -8938.5746   0.14233825 
   64200    289.21563   -1057.4022    26045.499   -8227.3055    688.81539   -8916.1209    0.1440364 
   64300    306.88149   -955.84657    26045.118   -8198.7897    730.88958   -8929.6793   0.14323385 
   64400    293.85128   -955.51274     26058.57   -8207.3099    699.85596   -8907.1658   0.14851347 
   64500    299.59692     -959.589    26043.914   -8244.5998    713.54018     -8958.14   0.14382389 
   64600    296.55843   -1040.5382    26043.836   -8248.5191     706.3035   -8954.8226   0.14831877 
   64700    298.09423    -978.8589    26044.687   -8248.1069    709.96125   -8958.0681   0.13883012 
   64800    286.08288   -978.84139    26029.399   -8265.5146    681.35421   -8946.8688   0.13765196 
   64900    295.46081   -1025.1253    26036.866   -8236.9951    703.68934   -8940.6845   0.15177303 
   65000    293.83636   -1067.8659    26036.749   -8213.6493    699.82044   -8913.4698   0.15900961 
   65100    300.48227   -1024.1936    26031.556    -8220.673    715.64876   -8936.3218   0.14765433 
   65200    301.56284   -973.99473    26033.123   -8238.7414    718.22233   -8956.9637   0.14800075 
   65300    293.71798   -975.32445    26031.199   -8224.8218     699.5385   -8924.3602   0.14758425 
   65400    278.11685   -1022.4282    26025.409    -8251.972    662.38178   -8914.3538   0.14893529 
   65500    302.72305   -985.10269     26033.84   -8219.6745    720.98556     -8940.66   0.14380175 
   65600    288.90843   -998.40018     26039.25   -8218.5082    688.08375    -8906.592   0.15082846 
   65700    292.25076   -959.63283    26027.703   -8228.2928    696.04405   -8924.3369   0.15174887 
   65800     291.7539   -1013.2428    26027.147   -8227.4767    694.86069   -8922.3374   0.15912382 
   65900    294.63345   -974.84017    26031.698   -8239.9416    701.71883   -8941.6604   0.14836526 
   66000    294.79306   -1015.3691    26024.974   -8253.9751    702.09897   -8956.0741   0.15126375 
   66100    273.03084   -1121.1374    26020.933   -8277.2639     650.2686   -8927.5325    0.1657072 
   66200    283.85416   -1074.7642    26036.279   -8280.9412    676.04616   -8956.9874   0.14568942 
   66300    282.68724   -886.15317    26023.763   -8273.3819    673.26693   -8946.6488   0.13827183 
   66400    287.54019    -1049.575    26025.925   -8273.3023    684.82505   -8958.1274   0.14954661 
   66500    298.96193    -1080.974    26026.641   -8247.2031    712.02783   -8959.2309   0.14651691 
   66600    278.92489   -996.32176    26020.991   -8280.6711    664.30628   -8944.9774   0.14794375 
   66700    273.16324   -1037.3701    26012.093    -8276.066    650.58394   -8926.6499   0.14567172 
   66800      290.612   -1016.8752    26014.781   -8278.2294    692.14107   -8970.3705   0.13468463 
   66900    285.90684   -1029.0327      26013.2   -8274.2807    680.93494   -8955.2157   0.14759441 
   67000    279.57031   -1037.3558    26009.487   -8307.8731    665.84344   -8973.7165   0.13558737 
   67100    282.56577   -914.48366    26018.141   -8275.0809    672.97763   -8948.0585   0.13926667 
   67200    286.58301   -1058.2325    26016.538   -8269.3763    682.54537   -8951.9216   0.15367386 
   67300    287.74301   -1023.6423    26013.672    -8266.541    685.30809   -8951.8491     0.152966 
   67400    293.54713   -1042.9054     26015.22   -8267.5753    699.13158   -8966.7068   0.14493474 
   67500    289.35043   -990.10013    26011.052   -8251.2075    689.13643    -8940.344   0.15145228 
   67600    291.14371   -994.30614    26016.701   -8252.3851    693.40743   -8945.7926   0.14757311 
   67700    298.88881   -962.97559    26024.848   -8229.3026    711.85367   -8941.1563   0.15421741 
   67800    293.03718   -1026.1227    26024.963   -8229.6654    697.91704   -8927.5824   0.16366103 
   67900    290.32776   -970.91611    26024.428   -8230.9152    691.46411   -8922.3794   0.15220764 
   68000    295.31914   -1001.1599    26021.905    -8257.973    703.35193   -8961.3249   0.14655696 
   68100    292.75956     -1023.15     26018.49   -8256.2305    697.25585   -8953.4864   0.15827986 
   68200    297.00642   -1041.5415    26014.374   -8251.3044    707.37045   -8958.6748    0.1539352 
   68300    287.62115   -1126.6982    26007.114   -8253.9926    685.01787   -8939.0105   0.16469877 
   68400    286.90249    -1039.763    26018.011   -8241.0022    683.30626   -8924.3085   0.15783648 
   68500     300.5614    -1024.469    26021.004   -8216.4661    715.83724   -8932.3034   0.15754569 
   68600    297.59007   -1020.1888     26009.83   -8233.7417    708.76051   -8942.5022   0.16086489 
   68700    302.70801   -925.24068    26008.202   -8262.2571    720.94974   -8983.2068   0.14617346 
   68800    301.87373   -921.21625    26015.895   -8225.4459    718.96277   -8944.4087   0.15359515 
   68900     292.0777   -1037.8348    26015.053   -8260.5487    695.63189   -8956.1806    0.1553351 
   69000    291.72263   -1085.0947    26018.619   -8221.8179    694.78622   -8916.6041   0.15815416 
   69100    299.71687   -961.28642    26015.224   -8258.8425    713.82586   -8972.6683   0.13777086 
   69200    277.27272   -987.08851     26005.91   -8272.0145    660.37136   -8932.3859    0.1571546 
   69300    271.12529   -1103.0486    26001.098   -8305.9843    645.73022   -8951.7145   0.16405584 
   69400    272.28165   -1062.5628    26002.561   -8312.4646    648.48428   -8960.9489   0.15555063 
   69500    275.67691   -1009.7101    26007.985   -8283.0204    656.57067   -8939.5911   0.15217581 
   69600    315.91821   -931.09434    26026.692   -8196.1703    752.41205   -8948.5824   0.14730386 
   69700    305.11697   -958.01646    26030.216   -8211.0957    726.68709   -8937.7828    0.1539548 
   69800    285.56213   -1009.2572     26013.01   -8245.2816    680.11396   -8925.3955   0.16769547 
   69900     282.2959    -1068.921    26016.362   -8266.2535     672.3349   -8938.5884   0.15134434 
   70000    292.50631   -1017.8057    26015.785   -8233.6367    696.65269   -8930.2894   0.15367172 
   70100    284.05479   -950.69733    26016.087     -8278.92    676.52399    -8955.444   0.15046918 
   70200     288.3248   -1037.8886    26018.545   -8228.5182    686.69373   -8915.2119   0.16277211 
   70300    299.38636   -1024.0745    26027.562   -8259.0086    713.03869   -8972.0473   0.14644773 
   70400    305.01931   -1012.4174    26032.794   -8210.4496    726.45449   -8936.9041    0.1514542 
   70500    306.51426   -1057.9782    26024.124   -8235.2591    730.01498   -8965.2741   0.15488937 
   70600    284.05461     -1017.03    26030.379   -8246.0018    676.52355   -8922.5254   0.15346215 
   70700    297.42264   -939.90861    26024.702   -8246.8869    708.36175   -8955.2486   0.14532513 
   70800    291.48171   -990.56908    26020.347   -8255.3992    694.21244   -8949.6117   0.14869079 
   70900    288.53054   -969.49515    26019.823   -8261.8757    687.18374   -8949.0594   0.15825813 
   71000    277.94524   -1037.4104     26017.67   -8264.6124    661.97306   -8926.5855   0.15368388 
   71100    286.16374   -982.94716    26023.992   -8274.1799     681.5468   -8955.7267   0.13445559 
   71200    300.75885   -857.41477    26037.943   -8238.8054     716.3075   -8955.1129   0.13059118 
   71300    284.63636   -1081.6371    26029.429   -8277.9996     677.9091   -8955.9087   0.14615511 
   71400    291.06299   -952.60549    26037.372   -8265.7832    693.21518   -8958.9984   0.14439529 
   71500     293.7674   -1015.0874    26039.373   -8253.1382     699.6562   -8952.7944   0.14992004 
   71600    291.99914   -1012.5682    26038.334   -8244.4282    695.44479    -8939.873    0.1442926 
   71700    296.55406   -987.18698    26032.462   -8251.7137    706.29308   -8958.0068   0.14174748 
   71800    291.40872   -985.52659    26013.846    -8286.226    694.03859   -8980.2646   0.13622004 
   71900    275.10865    -1063.472    26011.935   -8277.1332    655.21726   -8932.3505   0.14980638 
   72000    290.25855   -1016.0695    26013.985   -8271.2747    691.29928    -8962.574   0.14862242 
   72100    291.80655   -1020.4081    26036.195   -8218.0138     694.9861   -8912.9999   0.16249384 
   72200    307.19504   -952.16658    26045.833   -8172.2403    731.63636   -8903.8767   0.15796424 
   72300    307.02529   -1010.0559    26066.474    -8152.809    731.23207    -8884.041   0.15847401 
   72400     292.6692   -1043.3525    26051.161   -8231.9982    697.04063   -8929.0388   0.14022375 
   72500    296.73842   -1024.4488    26043.372   -8226.2749    706.73217   -8933.0071   0.14739562 
   72600    290.50284   -982.44506    26046.269   -8196.9334     691.8811   -8888.8145     0.158704 
   72700    297.60479   -1041.8283    26037.146   -8233.9449    708.79558   -8942.7405   0.14871434 
   72800    299.25864   -966.34199    26028.679   -8226.5069    712.73451   -8939.2414   0.15214319 
   72900    296.16225   -968.19637    26028.638   -8242.4715    705.35993   -8947.8314   0.14535322 
   73000    288.74307   -975.08211    26027.684   -8259.4801     687.6899     -8947.17   0.14618442 
   73100    285.31516   -1074.6567    26024.036   -8251.5866    679.52577   -8931.1123   0.15229416 
   73200    300.19106   -910.08857    26036.293   -8187.7437     714.9552   -8902.6989   0.14857607 
   73300    295.59978   -949.76668    26037.521   -8165.9033    704.02031   -8869.9236   0.16503548 
   73400    288.49739   -1098.1073     26049.52   -8209.3087    687.10478   -8896.4135   0.16082325 
   73500    311.77055   -1076.5024    26054.908   -8186.2721    742.53371   -8928.8058   0.15432427 
   73600    299.29436    -1048.492    26034.213   -8215.3684    712.81958   -8928.1879   0.15457523 
   73700     313.0127    -1053.375    26034.611   -8230.8314    745.49209   -8976.3235   0.14336922 
   73800    290.39602    -1048.066    26017.277   -8259.6394    691.62668   -8951.2661   0.14588205 
   73900    290.42882   -1095.4442     26009.97   -8246.9221     691.7048   -8938.6269   0.15779326 
   74000    272.95405   -1066.0927    26003.429   -8279.7043    650.08571     -8929.79   0.15136442 
   74100    297.68291   -992.58307    26006.599   -8217.5861    708.98164   -8926.5677    0.1615221 
   74200    296.24866   -975.48433    26018.368   -8228.5234    705.56572   -8934.0891   0.15809649 
   74300    282.06839   -1058.5353    26004.601   -8267.0587    671.79304   -8938.8518   0.15382741 
   74400     286.3327    -1039.829    26015.557   -8237.4624    681.94921   -8919.4116   0.14974531 
   74500    287.81644   -957.22278    26006.314   -8267.8824    685.48299   -8953.3654   0.14383424 
   74600    292.65872   -990.57952    26010.012   -8259.7324    697.01568    -8956.748   0.14706106 
   74700    291.39657   -942.46561    26016.274   -8213.3192    694.00965   -8907.3289   0.15496513 
   74800    291.30088   -975.15733    26015.066   -8236.3558    693.78177   -8930.1376   0.15034677 
   74900    295.99414   -913.51465    26017.976   -8229.9134    704.95954   -8934.8729   0.14378599 
   75000    293.73781   -931.36408    26011.511   -8256.3996    699.58573   -8955.9853   0.13977693 
   75100    305.40414   -925.68701     26023.49   -8202.7156    727.37104   -8930.0866   0.15076831 
   75200    306.60978   -921.82375    26030.804   -8213.3988    730.24246   -8943.6413   0.14566904 
   75300    297.14616   -967.08619    26018.563   -8239.6112    707.70326   -8947.3145   0.14530636 
   75400    286.15611   -1024.4103    26020.562   -8258.4041    681.52863   -8939.9327   0.14705112 
   75500    296.63313   -1029.6604    26023.283   -8269.4677     706.4814   -8975.9491   0.14210792 
   75600    300.78238   -1051.6871    26015.056   -8247.0339    716.36353   -8963.3974   0.14742835 
   75700    300.53904   -975.88065     26018.07   -8214.1386    715.78399   -8929.9226   0.15662698 
   75800    292.63319   -1003.0396    26030.755   -8204.9496    696.95487   -8901.9045   0.15747385 
   75900    290.78483   -993.96158    26025.757   -8224.7988    692.55269   -8917.3515   0.15450468 
   76000    304.13059   -968.67727    26038.102   -8184.2037    724.33785   -8908.5416     0.160653 
   76100    294.19028   -1110.3019    26026.593   -8233.1668    700.66334   -8933.8302   0.15358313 
   76200    289.00291   -1023.2236    26024.844   -8262.1617    688.30876   -8950.4704   0.15075139 
   76300      288.289   -1008.3086    26016.142   -8260.1671    686.60847   -8946.7755   0.15502874 
   76400    282.39037   -957.26281    26024.009   -8254.3404    672.55988   -8926.9002   0.14307761 
   76500     304.7192   -996.53334    26012.741   -8271.3575    725.73972   -8997.0972   0.14405963 
   76600    284.10114   -978.67519    26022.624   -8257.5721    676.63437   -8934.2065   0.14854534 
   76700    297.42955   -976.84137    26027.892   -8232.9101    708.37822   -8941.2883   0.14906296 
[...]
   81900    281.15368   -999.36939    26014.233   -8274.9912    669.61451   -8944.6058   0.14954546 
   82000    296.55643   -971.83747    26023.808   -8235.5287    706.29873   -8941.8275    0.1492496 
   82100    292.39294   -1031.0013     26043.51    -8214.378    696.38269   -8910.7606    0.1451164 
   82200    303.16023   -985.48526    26042.667   -8209.0338    722.02678   -8931.0606   0.15089594 
   82300    292.64115   -1065.2769    26034.252   -8249.9789    696.97384   -8946.9527   0.14503229 
   82400    300.63848   -985.77136    26041.125   -8208.7803    716.02082   -8924.8011   0.14623222 
   82500    306.19965   -959.15337    26052.052   -8155.4586    729.26566   -8884.7242   0.15681948 
   82600    281.28027    -1049.228    26039.258   -8202.3881      669.916   -8872.3041   0.15311947 
   82700    289.08264    -1029.299     26038.85   -8240.9611    688.49864   -8929.4598   0.14629849 
   82800    294.68874   -919.13072    26029.567   -8235.9136    701.85051   -8937.7642    0.1427033 
   82900    299.26347   -968.35478    26028.832   -8225.1085    712.74599   -8937.8545   0.14348543 
   83000    303.99465   -991.83621    26035.179   -8192.9009    724.01409    -8916.915   0.15047707 
   83100    303.27882   -923.65374     26037.22   -8208.3975    722.30923   -8930.7068   0.14208999 
   83200     293.5096   -1013.6188    26038.135   -8223.4576    699.04219   -8922.4998   0.14531865 
   83300    292.97786   -1033.7171    26041.308    -8239.442    697.77577   -8937.2177   0.14516863 
   83400    294.42037   -1027.0448    26034.774   -8266.6663    701.21135   -8967.8777   0.13912793 
   83500    279.41952   -1003.1213    26025.781   -8308.7339    665.48431   -8974.2182   0.13514457 
   83600    289.28954   -963.99818    26027.648   -8276.1019    688.99143   -8965.0933    0.1307762 
   83700    290.18819   -998.03612    26027.384   -8286.6912     691.1317   -8977.8229   0.12887631 
   83800    292.16857   -964.39586    26027.387   -8275.2854    695.84831   -8971.1337   0.13359532 
   83900    281.71577   -1029.1902    26027.205   -8285.2325    670.95321   -8956.1857   0.13490355 
   84000     277.8158   -1019.1162    26028.626   -8286.6605     661.6648   -8948.3253   0.13556147 
   84100    285.54516   -1031.7051    26028.824   -8257.9227    680.07354   -8937.9963   0.14337795 
   84200     290.2393   -1041.2003    26032.007   -8236.5954    691.25343   -8927.8488    0.1376704 
   84300    288.72123   -1006.9599    26034.969   -8227.1514    687.63789   -8914.7892   0.14622481 
   84400    295.99156   -1030.4017     26027.07   -8245.0369    704.95341   -8949.9903   0.13417038 
   84500    285.53466   -994.29492    26022.272   -8256.9803    680.04855   -8937.0288    0.1386051 
   84600    295.44823   -986.79468    26036.413   -8215.8246    703.65936    -8919.484   0.15332826 
   84700    293.01418   -1008.4153    26040.623   -8214.6223    697.86226   -8912.4845   0.14095768 
   84800    293.35006   -1087.0899    26046.468   -8212.5456    698.66222   -8911.2078   0.15040569 
   84900    287.11948   -1034.6925    26041.034   -8229.9525    683.82307   -8913.7756   0.14924528 
   85000    299.56964   -1050.0388    26034.556   -8236.7812    713.47519   -8950.2564   0.13595437 
   85100    275.97201   -1080.3737    26028.834   -8244.1236    657.27348   -8901.3971   0.15431561 
   85200    287.86738   -1021.9751     26020.95    -8251.893    685.60431   -8937.4973   0.14363688 
   85300    278.85527   -988.40966    26031.564   -8257.1935    664.14045    -8921.334   0.14368691 
   85400    290.44228   -1032.2496    26029.312   -8245.5683    691.73686   -8937.3052   0.15322705 
   85500    301.62234   -1050.1112    26041.497   -8237.4787    718.36404   -8955.8427   0.14439748 
   85600    284.10831   -981.27844    26030.269   -8247.8531    676.65145   -8924.5045   0.13640928 
   85700    294.89876   -1073.8619    26034.868   -8237.2078     702.3507   -8939.5585   0.14910629 
   85800    295.99151   -1001.4342    26042.258   -8212.6329    704.95327   -8917.5862   0.14731372 
   85900    297.33945   -1049.0029    26050.947   -8210.6837    708.16362   -8918.8473   0.14826841 
   86000    280.67606   -1012.8496     26043.21   -8220.9451    668.47697    -8889.422   0.14823222 
   86100     303.1492   -1011.3945    26044.633   -8203.2508    722.00052   -8925.2513   0.14465286 
   86200    294.86087    -1021.832    26043.876   -8221.0044    702.26048   -8923.2649   0.14832378 
   86300    302.79573   -945.16664    26022.407   -8243.4594    721.15866   -8964.6181   0.14217313 
   86400     293.2099   -971.19003    26023.802   -8256.3832     698.3284   -8954.7116   0.13182791 
   86500    292.91196   -985.51012    26022.854   -8244.0007    697.61881   -8941.6195   0.13857693 
   86600     292.1534   -1020.9676    26029.817   -8211.1461    695.81217   -8906.9583   0.15505596 
   86700    291.69307   -1101.4502    26028.021   -8243.4147    694.71583   -8938.1305   0.14210756 
   86800    282.81885    -1042.594    26020.131   -8258.6245    673.58039   -8932.2049   0.14089903 
   86900    283.03178   -1031.5382    26025.142   -8260.6491    674.08751   -8934.7366   0.14337314 
   87000    301.99901   -946.62584     26017.18   -8269.5553    719.26113   -8988.8164   0.13307515 
   87100    300.55374   -965.96594    26024.664    -8209.029      715.819    -8924.848   0.14518342 
   87200    291.87659   -994.30899    26031.359   -8248.6531    695.15291    -8943.806   0.13582551 
   87300    284.48484   -997.14951    26041.086   -8229.9834    677.54822   -8907.5316   0.14079324 
   87400     296.7578    -985.0581    26025.746   -8243.2532    706.77832   -8950.0315   0.14135609 
   87500    298.12783   -988.57769    26034.871   -8222.9497    710.04128    -8932.991   0.14972346 
   87600    291.22567   -1032.7878    26042.099   -8221.6396    693.60263   -8915.2423   0.14583149 
   87700    283.76525   -1118.0622    26034.879   -8245.0475    675.83439   -8920.8819    0.1519197 
   87800    288.03724   -949.21537    26017.462   -8251.7787    686.00887   -8937.7875    0.1428239 
   87900    293.71569   -1005.8182    26015.972   -8249.7511    699.53303   -8949.2841   0.13789061 
   88000    297.93069   -936.13281     26023.98   -8237.0792    709.57175   -8946.6509   0.14346571 
   88100    291.90533   -1045.0329    26026.625   -8243.3454    695.22135   -8938.5667   0.15027091 
   88200    292.68004   -969.97614    26024.651   -8261.1304    697.06647   -8958.1969   0.13682745 
   88300    288.84361   -942.21558    26031.954     -8240.79    687.92937   -8928.7193   0.14753712 
   88400    287.69628   -1105.4143    26042.184    -8227.975     685.1968   -8913.1718   0.14873738 
   88500    287.14291    -1064.952     26036.75   -8245.6007    683.87885   -8929.4795   0.13983625 
   88600    282.74259   -970.98575    26028.492   -8253.5259    673.39876   -8926.9246   0.14426057 
   88700    281.47241   -1138.6774    26042.117   -8229.0069    670.37361   -8899.3805   0.15432739 
   88800    285.40733   -1083.1318     26027.75   -8295.8528    679.74528    -8975.598   0.14158183 
   88900    280.24488   -1061.7331     26025.04   -8259.8191    667.45005   -8927.2692   0.15189561 
   89000    291.76655   -966.10982    26031.384   -8256.6309    694.89083   -8951.5217   0.13287653 
   89100    278.10845    -1040.723    26037.176   -8277.3062    662.36179    -8939.668   0.13869366 
   89200    287.83059    -1039.593    26033.821   -8256.9558    685.51669   -8942.4725   0.14769658 
   89300    298.91396   -965.18743    26030.975   -8265.6041    711.91358   -8977.5176   0.12530906 
   89400     288.6861   -989.93219    26034.432   -8237.7282    687.55422   -8925.2824   0.14501382 
   89500    281.31269   -1091.4486    26025.365   -8293.8079    669.99322   -8963.8012   0.14291511 
   89600    279.22209   -1051.6294    26017.582   -8301.7592     665.0141   -8966.7733   0.13457837 
   89700     292.3206   -933.43331    26036.759    -8244.642    696.21039   -8940.8524    0.1379774 
   89800    296.23246   -956.36084    26053.759   -8215.8877    705.52714   -8921.4148   0.13845673 
   89900    293.83741   -986.92502    26047.483   -8223.8709    699.82293   -8923.6938    0.1378944 
   90000    294.32178   -987.50051    26041.193   -8231.8251    700.97654   -8932.8017   0.13928644 
   90100    301.57812   -970.54276    26040.988   -8229.7442    718.25873   -8948.0029   0.13814523 
   90200    290.97569    -1088.993    26031.612   -8257.2041    693.00726   -8950.2113    0.1373012 
   90300    289.63328   -1033.5209    26027.646   -8241.1097    689.81009   -8930.9197   0.15370493 
   90400    290.69491   -1087.0401    26030.918   -8227.4202    692.33853   -8919.7587   0.14545428 
   90500    300.98725   -910.23877    26028.332   -8235.3036    716.85147   -8952.1551   0.13162148 
   90600    291.51989   -1025.4864    26040.442   -8228.5607    694.30336   -8922.8641   0.14568908 
   90700    304.20743   -915.29951    26029.737   -8215.2908    724.52086   -8939.8116   0.14359165 
   90800    296.43854    -969.3257    26028.827    -8227.487    706.01795    -8933.505   0.14018149 
   90900    293.74467   -1024.3218    26026.151   -8231.8775    699.60206   -8931.4796   0.15843825 
   91000     295.3528   -1019.5108    26012.857   -8284.3063    703.43208   -8987.7384   0.14290611 
   91100     277.2572   -957.33947    25991.881   -8316.0647    660.33439   -8976.3991   0.13889468 
   91200    277.05219   -947.85639    25997.085   -8299.0366    659.84612   -8958.8827   0.13942678 
   91300    293.49291   -966.63667    26002.622   -8259.0658    699.00244   -8958.0683   0.14261452 
   91400    302.21198   -940.12725    26019.582    -8239.636    719.76837   -8959.4044   0.14243001 
   91500    293.46333   -1016.7606    26029.542   -8165.0831      698.932   -8864.0151   0.17098292 
   91600    296.62782   -1019.9709    26038.124   -8199.6804    706.46875   -8906.1492    0.1454768 
   91700    299.20209   -1040.9796    26035.995   -8227.3195    712.59982   -8939.9193   0.14179116 
   91800    284.75964   -1012.9575    26031.444   -8210.3587    678.20269   -8888.5614   0.15607725 
   91900    292.72914   -973.12235    26043.348   -8189.9107     697.1834   -8887.0942   0.14792487 
   92000    287.40037   -1003.2353    26042.253   -8233.3225    684.49205   -8917.8146   0.14834959 
   92100    294.95423   -1058.1664    26037.033   -8206.5439    702.48282   -8909.0267   0.15403983 
   92200    291.61653   -1027.1906    26043.843   -8219.8918    694.53354   -8914.4254   0.13993148 
   92300    298.78827   -1066.8706    26048.406    -8190.536    711.61424   -8902.1503   0.15300956 
   92400    307.75544   -925.66523    26054.318   -8203.4572    732.97105   -8936.4282   0.13611028 
   92500     299.3478   -1002.0083     26044.53    -8199.439    712.94684   -8912.3859   0.14411233 
   92600    308.58513   -1024.4884    26047.518   -8165.5598    734.94709   -8900.5069   0.15758253 
   92700    299.51275   -946.13224    26048.159   -8217.2552    713.33971   -8930.5949   0.13780122 
   92800      285.337   -1011.5104    26046.012   -8236.4587    679.57779   -8916.0365   0.14158481 
   92900    290.72628   -993.13116    26039.392   -8263.3349    692.41326   -8955.7482   0.14158532 
   93000    298.59147   -922.58219    26032.536   -8258.5033    711.14553   -8969.6489   0.13408037 
   93100     298.4788   -989.54352    26030.615   -8235.8108    710.87717    -8946.688   0.14069458 
   93200    291.83573    -1106.835     26034.78   -8264.3337     695.0556   -8959.3893   0.14165524 
   93300    285.99874   -1103.8262     26026.29    -8271.677    681.15383   -8952.8309   0.13552449 
   93400    290.93809   -1048.2664    26020.968   -8302.7863    692.91771    -8995.704   0.13221132 
   93500    291.48734   -909.19847    26028.196   -8295.3819    694.22585   -8989.6077   0.13330568 
   93600    283.96191   -907.00154    26026.899   -8263.3508    676.30277   -8939.6535   0.14179691 
   93700    288.23817     -912.083    26018.841   -8274.2568     686.4874   -8960.7442   0.13959465 
   93800    289.01083   -955.06629    26025.467   -8257.6618    688.32762   -8945.9895   0.13877767 
   93900    284.11165   -1052.5645    26016.755   -8291.8548    676.65941   -8968.5142   0.13151176 
   94000    292.04622   -935.70681    26025.266   -8253.1013     695.5569   -8948.6582   0.13627759 
   94100    302.33411   -976.86726    26038.856   -8217.9365    720.05924   -8937.9957   0.13964977 
   94200     296.5901   -1033.4032    26038.276   -8214.7246    706.37892   -8921.1035   0.14652461 
   94300    297.89098   -962.51016    26037.819   -8207.2994     709.4772   -8916.7766   0.14403224 
   94400    299.63724   -986.00392    26043.158   -8195.5529     713.6362   -8909.1891   0.14671681 
   94500    300.47067   -907.04452     26052.81   -8190.4431    715.62114   -8906.0642   0.13938399 
   94600    295.46951   -965.78061    26048.402   -8218.4886    703.71004   -8922.1986   0.14062579 
   94700    306.86776   -1038.7958    26035.683   -8238.2776    730.85688   -8969.1345   0.13712281 
   94800     289.9713   -1019.0147     26029.95   -8233.8692    690.61515   -8924.4843   0.14108361 
   94900       284.21   -1057.0129    26025.522   -8257.7527    676.89364   -8934.6463   0.13815182 
   95000    281.66931   -1010.3662    26027.682   -8261.1391    670.84258   -8931.9817   0.13942128 
   95100    293.25277   -868.40689    26040.821    -8220.768    698.43052   -8919.1985   0.13960246 
   95200    302.25006    -907.4308    26045.693   -8241.2175    719.85907   -8961.0765   0.13463868 
   95300    293.70915   -971.91553    26045.067   -8225.0446    699.51746    -8924.562   0.13415134 
   95400     301.6051   -1029.6712    26042.636   -8230.2656    718.32298   -8948.5886   0.13177383 
   95500    304.13975   -922.63112    26050.634   -8200.9949    724.35968   -8925.3546   0.14165813 
   95600    302.67317   -1031.7761     26053.84   -8194.4693    720.86676    -8915.336   0.14817989 
   95700    302.92324   -977.74967    26049.415   -8232.7692    721.46235   -8954.2315    0.1405305 
   95800    296.27643   -1024.6275    26047.729   -8215.8976    705.63187   -8921.5295   0.14994018 
   95900    299.69014   -1133.5436    26042.666   -8217.8061    713.76218   -8931.5683   0.15031261 
   96000    310.66436   -1024.8161    26041.078   -8205.2214    739.89914   -8945.1205   0.13870166 
   96100    305.84478   -941.61873    26044.644   -8189.4407    728.42049   -8917.8611   0.13604188 
   96200    302.49698    -1032.181    26041.621   -8218.2204    720.44713   -8938.6675   0.14419825 
   96300    288.05988   -1020.3536    26024.342   -8223.9199    686.06278   -8909.9826   0.15509287 
   96400    296.49251   -931.23453    26028.212   -8227.7989    706.14651   -8933.9454   0.14457068 
   96500    302.48019   -949.28827    26032.585   -8217.8782    720.40715   -8938.2854   0.14759119 
   96600    282.01205   -1033.6123    26025.958   -8227.4222    671.65886    -8899.081   0.14998638 
   96700    294.48611   -936.68099    26023.653   -8236.4254    701.36793   -8937.7933   0.14436529 
   96800    297.15812   -1005.6006    26017.398   -8245.8924    707.73176   -8953.6241   0.13868125 
   96900    303.83814   -883.70282    26020.667   -8223.4009    723.64135   -8947.0422   0.13671267 
   97000    284.25687   -1140.9427    26021.367   -8250.5441    677.00526   -8927.5494   0.15214864 
   97100    304.04594   -1018.2869    26025.805   -8233.1527    724.13625    -8957.289   0.14373779 
   97200    307.96264   -911.44766    26029.269   -8208.5939    733.46452   -8942.0584   0.14270372 
   97300    303.19382   -942.42669    26043.279   -8193.9162    722.10679    -8916.023   0.14413313 
   97400    298.68479   -907.49352    26040.442   -8228.5346    711.36777   -8939.9024   0.13333944 
   97500    285.19725   -1002.9424    26032.029   -8228.8231    679.24494    -8908.068   0.14313996 
   97600    300.87062   -931.63393    26032.847    -8197.595    716.57369   -8914.1687   0.14154545 
   97700    296.15832   -1060.0408    26036.181   -8191.9539    705.35058   -8897.3044   0.15331081 
   97800    296.03413    -1039.672    26026.278   -8205.6669    705.05478   -8910.7217    0.1556459 
   97900     302.0289   -983.22672    26022.456   -8199.1929    719.33234   -8918.5252   0.14920041 
   98000    302.34945   -1017.0639    26019.011   -8240.0654    720.09578   -8960.1611   0.13861073 
   98100    297.52549    -1045.281    26004.252   -8249.9868    708.60671   -8958.5935    0.1429888 
   98200    295.49789   -957.19006    26012.367   -8236.7944    703.77763   -8940.5721   0.14041361 
   98300     301.5937   -1012.9716    26031.142   -8222.5365    718.29584   -8940.8323   0.13932648 
   98400    280.95409   -1089.6416    26018.744   -8261.3572    669.13914   -8930.4963   0.15639866 
   98500     291.1725   -986.59106    26006.852   -8232.9652    693.47601   -8926.4412   0.14904022 
   98600    291.56103   -994.58945    26008.435   -8240.8232    694.40135   -8935.2245   0.14919159 
   98700    308.66837   -902.26948    26026.941   -8212.8497    735.14534    -8947.995   0.13784647 
   98800    297.80324   -1020.4299    26027.404   -8221.2425    709.26821   -8930.5108   0.14080205 
   98900    289.88909   -1084.1132    26012.037   -8234.6737    690.41935    -8925.093   0.14886127 
   99000     291.1097   -1030.0027    26015.005   -8221.4543    693.32643   -8914.7807   0.15330184 
   99100    293.03225   -998.44456    26013.991   -8243.7309     697.9053   -8941.6362   0.14413124 
   99200    286.89623   -995.86636     26019.62   -8230.5471    683.29134   -8913.8384   0.15219124 
   99300     300.5119   -998.57601    26030.691      -8204.5    715.71935   -8920.2193   0.14641387 
   99400    297.35417   -976.98202    26031.212    -8204.268    708.19867   -8912.4667   0.14340772 
   99500     315.1776   -917.74783     26027.08   -8206.5397    750.64817   -8957.1879   0.13711981 
   99600    296.67826   -1037.1378    26030.015   -8220.4889    706.58889   -8927.0778   0.13945575 
   99700    286.05477   -1026.7553    26019.247   -8231.4972    681.28726   -8912.7845   0.14258981 
   99800    295.41542    -1097.123    26025.703   -8237.8838    703.58122    -8941.465   0.14809629 
   99900    292.78686   -1007.4777     26021.69   -8253.3326    697.32087   -8950.6534   0.14333536 
  100000    294.81296   -968.22819    26015.289   -8242.6078    702.14636   -8944.7541    0.1392597 
Loop time of 18.6591 on 4 procs for 100000 steps with 800 atoms

Performance: 2315.225 ns/day, 0.010 hours/ns, 5359.318 timesteps/s
99.4% CPU use with 4 MPI tasks x no OpenMP threads

MPI task timing breakdown:
Section |  min time  |  avg time  |  max time  |%varavg| %total
---------------------------------------------------------------
Pair    | 12.787     | 12.85      | 12.927     |   1.4 | 68.87
Neigh   | 1.8784     | 1.8863     | 1.8961     |   0.5 | 10.11
Comm    | 2.4099     | 2.4924     | 2.5518     |   3.4 | 13.36
Output  | 0.074969   | 0.077436   | 0.084335   |   1.4 |  0.42
Modify  | 1.0298     | 1.0513     | 1.0761     |   1.6 |  5.63
Other   |            | 0.3021     |            |       |  1.62

Nlocal:        200.000 ave         208 max         193 min
Histogram: 1 0 0 1 0 1 0 0 0 1
Nghost:        644.500 ave         651 max         637 min
Histogram: 1 0 0 0 0 1 1 0 0 1
Neighs:        0.00000 ave           0 max           0 min
Histogram: 4 0 0 0 0 0 0 0 0 0
FullNghs:      5697.00 ave        5938 max        5461 min
Histogram: 1 0 0 0 1 1 0 0 0 1

Total # of neighbors = 22788
Ave neighs/atom = 28.485000
Neighbor list builds = 5173
Dangerous builds = 0

undump              1
unfix               2
unfix               3
unfix               4




################################################
#######         Run Simulation         #########
################################################

reset_timestep      0
log                 log.run_${NAME}
log                 log.run_ice_294K_1000atm_ML
