
# Define the lattice
#
variable	    lattice_constant equal 6.36339
lattice		    diamond ${lattice_constant}
lattice		    diamond 6.36339
Lattice spacing in x,y,z = 6.3633900 6.3633900 6.3633900

# Define region
# multiples of lattice spacing
#
region 		    simbox block 0 4 0 5 0 5

# Create Atoms
#
create_box          1 simbox
Created orthogonal box = (0.0000000 0.0000000 0.0000000) to (25.453560 31.816950 31.816950)
  1 by 2 by 2 MPI processor grid
create_atoms        1 box
Created 800 atoms
  create_atoms CPU = 0.000 seconds
mass                1 18.015

# Define potential
#
pair_style          sw
pair_coeff          * * ML.sw mW
Reading sw potential file ML.sw with DATE: 2019-02-27

# Add velocity/set timestep
#
velocity            all create ${TEMP} 120598 rot yes dist gaussian
velocity            all create 298 120598 rot yes dist gaussian
timestep            5.0

# Define output
#
compute	            1 all msd
thermo              100
thermo_style        custom step temp press vol etotal ke pe c_1[4]

# Neighbor lists
#
neigh_modify        delay 0 every 1 check yes

# Set fixes
#
fix                 1 all momentum 10 linear 1 1 1 rescale
fix                 2 all nve
fix                 3 all temp/csvr ${TEMP} ${TEMP} 500.0 928347
fix                 3 all temp/csvr 298 ${TEMP} 500.0 928347
fix                 3 all temp/csvr 298 298 500.0 928347
fix                 4 all press/berendsen iso ${PRES} ${PRES} 1000.0 modulus 20000
fix                 4 all press/berendsen iso -1000 ${PRES} 1000.0 modulus 20000
fix                 4 all press/berendsen iso -1000 -1000 1000.0 modulus 20000

# Run 0.5 ns equilibration
#
dump		    1 all custom 1000 eq.${NAME}.dump id type x y z vx vy vz
dump		    1 all custom 1000 eq.ice_298K_1000atm_ML.dump id type x y z vx vy vz
run                 100000
Neighbor list info ...
  update every 1 steps, delay 0 steps, check yes
  max neighbors/atom: 2000, page size: 100000
  master list distance cutoff = 6.0032907
  ghost atom cutoff = 6.0032907
  binsize = 3.0016454, bins = 9 11 11
  1 neighbor lists, perpetual/occasional/extra = 1 0 0
  (1) pair sw, perpetual
      attributes: full, newton on
      pair build: full/bin/atomonly
      stencil: full/bin/3d
      bin: standard
Per MPI rank memory allocation (min/avg/max) = 4.718 | 4.718 | 4.718 Mbytes
Step Temp Press Volume TotEng KinEng PotEng c_1[4] 
       0          298   -603.17971    25767.105   -8994.6354    709.73683   -9704.3722            0 
     100     204.1652   -842.71034    25850.663   -8710.0268    486.25356   -9196.2804  0.097538379 
     200    217.22825   -983.48396    25903.721   -8573.7571    517.36541   -9091.1225   0.12686497 
     300    248.68592   -1031.4883    25950.264   -8422.1568    592.28711   -9014.4439    0.1269219 
     400    272.24237   -1134.6947    25975.715   -8365.9099    648.39072   -9014.3006   0.15562051 
     500    267.32799   -1207.1015    26002.507   -8323.5436    636.68631   -8960.2299   0.16699875 
     600    306.61292   -870.22041    26016.729   -8229.3336    730.24994   -8959.5835   0.13322529 
     700    300.76654   -885.65414    26025.314    -8209.015    716.32582   -8925.3408   0.16329266 
     800    308.36833   -922.55966    26049.156   -8185.2771    734.43075   -8919.7079   0.15293697 
     900    288.90928   -1160.1263    26037.343   -8189.3237    688.08576   -8877.4095   0.16158321 
    1000    293.44169   -1084.8594    26028.861   -8230.5709    698.88045   -8929.4514   0.17232774 
    1100    304.29056   -890.88659     26030.93   -8211.5855    724.71886   -8936.3043   0.14892874 
    1200    299.44814   -897.81635    26023.903   -8203.2658    713.18582   -8916.4516   0.14491209 
    1300    310.45006   -956.98916    26029.896   -8171.7011    739.38874   -8911.0898   0.18472776 
    1400    296.66469   -1043.9672    26027.372    -8188.461    706.55658   -8895.0176   0.15866664 
    1500    297.44305   -967.73957    26020.836    -8214.684    708.41037   -8923.0944   0.14338107 
    1600    315.75205     -896.375    26033.076   -8200.7116    752.01632    -8952.728   0.16156142 
    1700    299.29892   -909.10552    26031.493   -8207.1485    712.83044    -8919.979   0.14673066 
    1800    303.08914   -923.96413    26032.405   -8180.1353    721.85748   -8901.9928   0.16728406 
    1900    294.00906   -1038.4424    26046.257   -8165.9443    700.23173   -8866.1761    0.1849452 
    2000    312.73818   -1022.8403    26067.922     -8151.41    744.83827   -8896.2483    0.1468828 
    2100    304.08686   -901.06036    26045.026   -8207.9466    724.23372   -8932.1803   0.14823188 
    2200    304.17447   -1003.6331     26042.65   -8195.3009    724.44236   -8919.7433   0.16704161 
    2300    316.76971    -920.1574    26054.664    -8168.907    754.44003    -8923.347   0.13282958 
    2400    288.90593   -1127.8071    26044.978    -8177.906    688.07778   -8865.9838   0.18443141 
    2500    303.44695   -1107.2808    26039.614   -8200.9894    722.70965   -8923.6991   0.16813527 
    2600    317.85697   -863.86539    26043.327   -8181.0396    757.02953   -8938.0691   0.13386198 
    2700    306.99846   -1041.6371    26038.399   -8213.5266    731.16816   -8944.6947   0.15968072 
    2800    308.19084   -979.22671    26048.367   -8173.8006    734.00801   -8907.8086   0.14655154 
    2900    309.51605    -1047.082    26040.054   -8172.0011    737.16422   -8909.1653   0.15635771 
    3000    295.64727   -1008.7928    26034.448   -8186.2598    704.13341   -8890.3932   0.17566366 
    3100    303.29137   -1004.8861    26040.422   -8179.3501    722.33913   -8901.6893   0.14795582 
    3200    319.36006   -928.16175     26039.99   -8229.6773    760.60938   -8990.2866   0.13137821 
    3300    286.67927   -1089.9932    26021.381   -8255.4758    682.77461   -8938.2504   0.15882057 
    3400    296.34947   -1052.5319    26027.801   -8216.8943    705.80581   -8922.7001   0.14410391 
    3500    291.52973   -1118.4227    26010.831   -8244.3859    694.32679   -8938.7127    0.1488936 
    3600    298.83931   -1052.6524    26018.733   -8217.0259    711.73579   -8928.7617   0.16058734 
    3700     302.9719   -1014.9812    26027.553   -8205.6186    721.57824   -8927.1968   0.15400132 
    3800    308.59021   -1037.0728    26025.498   -8168.6681     734.9592   -8903.6273   0.17288212 
    3900     301.7371   -1203.5533    26039.245   -8163.3896    718.63737    -8882.027   0.18404806 
    4000    298.52076   -983.41162    26023.285   -8204.6163    710.97711   -8915.5934   0.14926938 
    4100    295.66817    -972.5025     26029.78   -8215.1269    704.18318   -8919.3101   0.16260661 
    4200    310.24727   -941.98989    26032.581   -8177.5179    738.90576   -8916.4236   0.16877077 
    4300     299.0733   -989.35964    26030.695   -8230.4991    712.29308   -8942.7922   0.14199883 
    4400    304.96154   -985.91509    26031.973   -8191.9275    726.31692   -8918.2444   0.17186959 
    4500    293.47063   -949.45068    26035.938   -8215.4594    698.94939   -8914.4088   0.15727351 
    4600    299.19301   -1066.3303    26037.011   -8250.0739    712.57818   -8962.6521   0.14621553 
    4700    306.03232    -1010.843    26043.938   -8201.9876    728.86715   -8930.8547   0.16349884 
    4800    310.96068   -937.62157    26060.303   -8181.0093    740.60486   -8921.6142   0.14578932 
    4900    309.62988   -987.34606     26045.18   -8163.0043    737.43534   -8900.4397   0.15306647 
    5000    304.08676   -1034.6643    26031.664    -8192.393    724.23347   -8916.6264   0.17672515 
    5100    306.39411   -973.19213      26042.1   -8174.6288    729.72881   -8904.3576   0.15206272 
    5200    305.32582   -938.90832    26043.157   -8182.9878    727.18449   -8910.1723   0.15351009 
    5300    295.69729   -961.99939    26031.272   -8227.1666    704.25255   -8931.4191    0.1666753 
    5400    286.13306   -1095.7553    26024.987   -8237.8978    681.47373   -8919.3716   0.15238544 
    5500    293.25279   -983.32144    26030.123   -8229.3797    698.43057   -8927.8103   0.15364613 
    5600    289.54247   -978.29353    26026.717   -8249.4939    689.59381   -8939.0877   0.15406942 
    5700    309.20752   -964.98398    26028.112   -8228.0544    736.42941   -8964.4838   0.14206723 
    5800    297.87464    -958.8729     26024.65   -8221.3521    709.43828   -8930.7904   0.16437152 
    5900    285.29103   -1106.0235    26022.905   -8260.0441    679.46829   -8939.5124   0.15957505 
    6000    286.70543   -1042.0718    26019.313    -8278.641    682.83693   -8961.4779   0.13698537 
    6100    289.15938    -875.8751    26023.225   -8246.9813    688.68141   -8935.6627   0.15173304 
    6200    290.17407   -984.36563    26026.442    -8255.074    691.09807    -8946.172   0.15104529 
    6300    287.77974   -999.60252     26040.39   -8213.5412    685.39557   -8898.9367   0.14467769 
    6400    297.61809   -981.83774    26055.516   -8202.1592    708.82725   -8910.9864   0.15257007 
    6500    293.34273   -1085.3536    26042.355   -8242.4677    698.64476   -8941.1124   0.15147006 
    6600    291.52423   -961.15445    26031.361   -8254.8184     694.3137   -8949.1321   0.14414877 
    6700    295.77822   -992.17921     26032.54   -8248.8727     704.4453    -8953.318   0.14945831 
    6800    292.19906   -1000.7852    26031.572   -8266.1304    695.92091   -8962.0513   0.13355912 
    6900    299.44944   -965.65284    26042.873   -8234.4573    713.18893   -8947.6462   0.13809064 
    7000    287.53812   -1032.0038     26043.81   -8221.5718    684.82012   -8906.3919   0.16205103 
    7100    297.88961   -996.82855    26048.512   -8216.8876    709.47393   -8926.3615    0.1401617 
    7200    283.23528   -968.24184    26042.341   -8231.1021    674.57218   -8905.6742   0.13988729 
    7300    281.95345   -1054.3024     26029.06   -8278.2019    671.51929   -8949.7212   0.15257754 
    7400    287.90743   -954.26266     26029.55   -8258.3236    685.69969   -8944.0233   0.14770968 
    7500    286.04366    -991.3579    26032.896   -8232.1335    681.26082   -8913.3943   0.14764369 
    7600    298.58512   -1034.0293    26028.274   -8235.9474    711.13038   -8947.0778   0.15039424 
    7700    300.51841   -1014.1733    26030.582   -8203.6473    715.73484   -8919.3822   0.15402307 
    7800    288.03481   -1055.8616    26022.216   -8235.2454    686.00307   -8921.2484   0.15983414 
    7900    284.23508   -991.20771     26022.15   -8270.4219    676.95338   -8947.3753   0.15011325 
    8000    295.91919   -898.88643    26036.193    -8217.846    704.78104   -8922.6271    0.1434002 
    8100    297.16571   -921.48938    26034.482   -8205.0468    707.74982   -8912.7966   0.15272324 
    8200    310.40165   -975.73259    26044.351   -8183.3031    739.27344   -8922.5765   0.15790287 
    8300    313.67459     -1009.41    26057.329   -8174.6892    747.06849   -8921.7577   0.14302943 
    8400    314.22942   -1004.9548    26053.568   -8144.3767    748.38992   -8892.7666   0.15771624 
    8500    299.93537   -1033.5813    26038.044    -8175.952    714.34625   -8890.2982   0.16199822 
    8600    296.23466   -1093.1633    26041.893   -8198.7003    705.53238   -8904.2327   0.15322187 
    8700    307.12332    -909.2965    26042.039    -8187.756    731.46554   -8919.2215   0.14951696 
    8800    299.45486   -1019.9158    26043.679   -8228.3561    713.20184   -8941.5579   0.14369932 
    8900    299.69882   -924.00746    26028.635    -8234.819    713.78285   -8948.6019   0.13681443 
    9000    298.02233   -863.44068    26021.638    -8249.698    709.79002   -8959.4881   0.14404923 
    9100    292.19626   -1020.7369    26033.375   -8226.1862    695.91426   -8922.1004   0.14676097 
    9200    295.07836   -1047.4352    26026.847   -8201.6733    702.77846   -8904.4518   0.15645076 
    9300    287.73525    -1108.857    26032.066   -8212.4351    685.28961   -8897.7247   0.17150282 
    9400    293.21116   -991.45561    26024.848   -8252.3615     698.3314   -8950.6929   0.14409951 
    9500    288.07701   -998.63438    26041.365    -8240.627    686.10357   -8926.7306   0.14264716 
    9600    285.97562   -1040.6438    26035.257   -8251.0254    681.09875   -8932.1242   0.14908745 
    9700    293.43668   -987.96515    26035.962   -8226.0667    698.86852   -8924.9352   0.14177513 
    9800    296.10186   -911.07796    26042.276   -8203.9557    705.21611   -8909.1719   0.15223936 
    9900    292.27247   -1029.8951    26036.776   -8198.3908    696.09576   -8894.4865   0.16424365 
   10000    288.58334   -998.93259    26047.098   -8191.0913    687.30949   -8878.4008   0.14552295 
   10100    303.24176     -969.663    26045.758   -8195.2945    722.22095   -8917.5155   0.14705821 
   10200    304.98303   -934.88053    26051.683   -8171.9411    726.36808   -8898.3092   0.15630076 
   10300    309.19814   -1091.7495    26064.026    -8153.029    736.40707    -8889.436   0.15470155 
   10400    317.63957   -1059.7476     26059.39    -8160.515    756.51176   -8917.0267   0.15507092 
   10500     305.3353   -1076.7534    26047.985    -8188.802    727.20708   -8916.0091   0.15483514 
   10600    294.25701   -1000.7215    26041.206   -8238.5473    700.82227   -8939.3696   0.14378783 
   10700    303.64618   -1007.1215    26025.799   -8241.4557    723.18415   -8964.6398    0.1520232 
   10800    296.65409   -973.60354    26038.605   -8248.8363    706.53133   -8955.3676   0.14304272 
   10900    280.20818   -953.00381    26027.247   -8282.8565    667.36264   -8950.2192   0.13141428 
   11000    278.37002   -985.30837    26016.679   -8307.9204    662.98477   -8970.9051    0.1402117 
   11100    294.50461   -975.72019    26022.278   -8231.3035    701.41197   -8932.7155   0.14964977 
   11200    301.87563   -1017.8646    26020.892   -8228.2422     718.9673   -8947.2095   0.13816255 
   11300    293.80075   -968.17944    26005.789    -8251.549    699.73561   -8951.2847    0.1474334 
   11400    283.18354   -973.38042    26017.233   -8258.5629    674.44895   -8933.0118   0.15362312 
   11500    299.61455   -956.97624    26013.035   -8222.0944    713.58217   -8935.6766   0.14694584 
   11600    303.01623   -922.43973    26030.291   -8167.7589    721.68381   -8889.4427   0.15757874 
   11700    304.26567   -1014.5607    26033.024   -8155.3576    724.65958   -8880.0171   0.15316055 
   11800    323.68665   -975.18891    26044.984   -8133.2504    770.91388   -8904.1643   0.15589751 
   11900    301.59062   -1033.4208    26037.842   -8170.1963    718.28849   -8888.4848   0.16659616 
   12000    305.34471   -996.69638    26039.606   -8182.8914    727.22949   -8910.1209   0.14600281 
   12100    300.03927    -1061.863    26041.398   -8166.0871    714.59369   -8880.6808   0.15577057 
   12200    298.59846   -1028.9517    26039.062   -8192.2455    711.16218   -8903.4077   0.16080717 
   12300    299.78205   -968.58599    26038.112   -8202.9668    713.98108   -8916.9478   0.14320911 
   12400    299.59295   -881.31052    26037.183   -8217.6202    713.53071   -8931.1509   0.14145719 
   12500    295.34694   -1033.5128    26034.272   -8201.1382    703.41812   -8904.5563   0.15489217 
   12600    303.07266   -1076.7204    26035.946   -8192.5324    721.81823   -8914.3506   0.14928105 
   12700     306.8618   -936.51974    26045.107   -8187.8081    730.84268   -8918.6508   0.14881674 
   12800    301.87408   -1003.0353    26036.275   -8217.2946     718.9636   -8936.2582    0.1433051 
   12900    287.82989   -1029.3613    26035.736   -8219.2131    685.51501   -8904.7281   0.14070438 
   13000    293.48775   -1053.4145    26031.937   -8181.2785    698.99015   -8880.2687   0.16345477 
   13100    294.97823   -1012.4398    26029.088   -8212.9774    702.53997   -8915.5174   0.14893313 
   13200    289.45428    -1003.282    26023.423   -8246.2231    689.38377   -8935.6069   0.13843801 
   13300    296.30774   -933.83111    26015.202   -8248.9252    705.70644   -8954.6316   0.14003314 
   13400     291.7511   -1022.7381    26014.781    -8253.248    694.85404    -8948.102   0.14633664 
   13500    285.96549   -1027.2288    26020.301   -8237.1521    681.07464   -8918.2268   0.14672104 
   13600    293.64416   -1026.8911    26027.237   -8228.5715    699.36266   -8927.9342   0.15153787 
   13700    291.88786   -1057.5495    26028.424   -8238.4641    695.17974   -8933.6438   0.14486059 
   13800    292.49985   -892.78806    26015.611   -8220.1471     696.6373   -8916.7844   0.14637339 
   13900    297.90604    -928.0005    26026.461   -8222.4954    709.51304   -8932.0084   0.14978205 
   14000    299.81531   -1019.1304    26035.703   -8189.4204     714.0603   -8903.4807   0.14748194 
   14100    314.11384   -1035.1243    26028.852   -8166.3904    748.11463   -8914.5051   0.15826795 
   14200    297.57703   -1110.9469    26024.848   -8211.1712    708.72946   -8919.9006   0.16400147 
   14300    307.32169    -983.0828    26030.165   -8220.2925    731.93799   -8952.2305   0.14087976 
   14400    288.53155   -1035.6183    26016.763   -8258.5914    687.18613   -8945.7775   0.14911749 
   14500    298.71087   -969.81482    26011.471   -8236.7109    711.42989   -8948.1407   0.15093533 
   14600     296.2671   -1008.8327    26007.775    -8239.614    705.60963   -8945.2236   0.14974808 
   14700    295.17679   -1104.3787    26027.221   -8208.5696    703.01288   -8911.5825   0.16328376 
   14800    309.27998   -964.89381    26037.495   -8175.4265      736.602   -8912.0285   0.15153915 
   14900    310.47718   -842.75757    26035.173   -8197.6252    739.45333   -8937.0785   0.13400551 
   15000    308.10521   -893.92946     26039.04   -8202.2967    733.80408   -8936.1008   0.14695152 
   15100     302.8993   -960.19443    26039.517   -8224.7598    721.40535   -8946.1652   0.14146966 
   15200    288.74582   -1140.2422    26039.424   -8230.1741    687.69645   -8917.8706   0.14660019 
   15300    304.31029    -931.9597    26037.794   -8205.3499    724.76584   -8930.1158   0.14846558 
   15400    293.55913   -928.25926     26040.79   -8231.6878    699.16017    -8930.848   0.14013746 
   15500    285.70413   -997.15127    26032.948    -8241.712    680.45217   -8922.1641   0.14250044 
   15600    306.94725   -1018.7198    26036.939   -8178.5315    731.04621   -8909.5777   0.15966979 
   15700      302.077   -1006.3522    26049.973   -8168.5542    719.44689   -8888.0011   0.15166481 
   15800    308.89821   -992.93878    26044.025   -8155.8183    735.69274    -8891.511   0.16044166 
   15900    312.13287   -997.67451    26048.348   -8171.0151    743.39663   -8914.4117   0.15283665 
   16000    323.67117    -958.2154    26055.276   -8180.7265    770.87701   -8951.6035    0.1300301 
   16100    290.46407   -1012.3469    26038.487    -8211.518    691.78877   -8903.3068   0.14903159 
   16200     303.4644   -1092.0124    26045.012    -8170.904    722.75123   -8893.6552   0.16640641 
   16300    304.21173   -1026.2889    26053.809   -8178.4472    724.53112   -8902.9783   0.14466852 
   16400    291.14217   -977.40074    26038.607   -8198.6732    693.40377    -8892.077   0.14947067 
   16500    283.93826   -1020.0634    26030.114   -8213.0758    676.24645   -8889.3223   0.14648663 
   16600    301.46275   -979.39251    26032.269   -8174.6956    717.98396   -8892.6796   0.15862392 
   16700    296.47097   -1020.2042    26043.893   -8168.1618    706.09518    -8874.257   0.16541065 
   16800    306.11682   -895.28121    26036.533   -8189.7505    729.06839   -8918.8189   0.14412074 
   16900    297.40003    -968.8549    26024.796   -8184.2381    708.30791    -8892.546   0.14740696 
   17000    305.94058   -868.20775    26021.201   -8228.0291    728.64866   -8956.6778   0.14678967 
   17100    300.91463   -972.84716    26008.755   -8225.5279     716.6785   -8942.2064   0.14918304 
   17200    296.09787   -1068.5039    26010.554   -8248.3162    705.20658   -8953.5228   0.14528051 
   17300    285.95313   -942.79467    26012.921   -8261.5363    681.04521   -8942.5815   0.14622021 
   17400     288.0691   -964.42951    26005.987   -8273.3729    686.08474   -8959.4576   0.13870679 
   17500    295.15026    -916.5213    26006.219   -8249.2605    702.94969   -8952.2102   0.13935486 
   17600    296.85088   -924.49996    26020.075   -8218.4158    707.00002   -8925.4158   0.14060921 
   17700     295.6857   -1039.5483     26021.39   -8232.7616    704.22494   -8936.9866   0.14351658 
   17800    296.53495   -1047.9233    26018.816   -8253.4272    706.24756   -8959.6747   0.14822385 
   17900    285.09906   -1075.7769    26022.612    -8207.483    679.01108   -8886.4941   0.16670553 
   18000    291.25349   -1025.6769    26034.312   -8213.2209     693.6689   -8906.8898   0.14182978 
   18100    297.66685   -842.00766     26027.82   -8188.2794    708.94337   -8897.2228   0.14625258 
   18200    294.21003   -947.46141    26034.144   -8193.8817    700.71038   -8894.5921    0.1620735 
   18300    285.66364   -1013.2459    26024.952   -8192.8367    680.35572   -8873.1924   0.16408815 
   18400    303.89705   -972.65837    26034.392   -8188.7955    723.78165   -8912.5772   0.14775783 
   18500    294.62833    -1105.803    26029.682   -8214.5071    701.70664   -8916.2137   0.14648336 
   18600    307.57182   -1009.6828    26033.312   -8181.1713    732.53372    -8913.705   0.14551064 
   18700    312.87362   -1052.0161    26031.767   -8192.2438    745.16084   -8937.4046   0.15321141 
   18800    306.84928    -988.0386    26030.087   -8216.7451    730.81287    -8947.558   0.13486985 
   18900    301.68632     -1039.54    26032.857   -8185.3269    718.51643   -8903.8433   0.14973853 
   19000    300.36056   -958.47385    26028.222   -8188.3964    715.35889   -8903.7553   0.15102473 
   19100    309.26748   -1005.7305    26039.599   -8201.8286    736.57222   -8938.4008   0.14060499 
   19200    302.78225   -1022.6745    26041.888    -8184.681    721.12657   -8905.8075   0.14483223 
   19300    312.45881   -964.82591    26039.317   -8181.8649    744.17291   -8926.0378   0.15006393 
   19400    298.60371   -1090.5427    26047.873   -8154.8464    711.17468   -8866.0211   0.16566624 
   19500    308.65063   -983.79904    26045.935   -8183.9143     735.1031   -8919.0174   0.14506487 
   19600    310.88522   -994.23876    26041.485   -8164.3707    740.42513   -8904.7958    0.1491133 
   19700    300.45835   -991.06823    26047.019   -8179.6632    715.59181   -8895.2551   0.14543351 
   19800    308.91873   -942.77054    26036.861   -8180.9294    735.74162    -8916.671   0.15465512 
   19900    313.02116   -885.46773    26047.974   -8154.1431    745.51224   -8899.6554   0.14929716 
   20000    300.17477    -942.0437    26049.191   -8191.6083    714.91641   -8906.5247   0.13587344 
   20100    311.68629   -994.87357     26045.54   -8196.2364    742.33302   -8938.5694   0.14084807 
   20200    296.17828   -960.20287    26045.926   -8192.8543    705.39811   -8898.2525   0.15111009 
   20300    291.36811   -979.79115    26047.918   -8207.4369    693.94188   -8901.3787   0.14736799 
   20400     297.4141   -973.50732    26044.468   -8173.4048    708.34142   -8881.7462   0.15024112 
   20500    308.66658   -1010.3692    26051.549   -8194.9931    735.14107   -8930.1341   0.14518814 
   20600    285.40517   -1018.2969    26033.365   -8245.7352    679.74013   -8925.4753   0.14562635 
   20700    284.43759   -1020.5834    26028.544   -8267.8813    677.43569    -8945.317   0.14671197 
   20800    293.52972   -947.80055    26036.833   -8242.5511    699.09011   -8941.6412   0.13268762 
   20900     296.0383    -986.0881    26050.429   -8187.3342    705.06472   -8892.3989   0.14889299 
   21000    293.19977   -1045.0779    26032.209   -8215.8667    698.30429    -8914.171    0.1495229 
   21100    292.12244   -981.05788    26030.542    -8202.404    695.73843   -8898.1424   0.15103894 
   21200    300.61748   -1039.0133    26037.395   -8207.7346     715.9708   -8923.7054   0.14073497 
   21300    301.00049   -931.20663    26049.444   -8176.8714    716.88301   -8893.7544   0.14048519 
   21400    303.85756   -965.87287     26042.42    -8196.964    723.68759   -8920.6516   0.14764527 
   21500     307.6246   -1030.7371    26043.652    -8173.068    732.65943   -8905.7275   0.14779069 
   21600     305.8375   -1002.5332     26043.73   -8174.5439    728.40316   -8902.9471   0.15253998 
   21700     306.0672    -1162.132    26046.218   -8180.5457    728.95022   -8909.4959   0.15278473 
   21800    292.36726   -993.84781    26030.926   -8225.1088    696.32151   -8921.4303   0.14341752 
   21900    302.82692   -986.14068      26034.9   -8222.9841    721.23295   -8944.2171   0.14087315 
   22000    289.70518   -939.93401    26026.598   -8222.5105    689.98134   -8912.4919   0.14046269 
   22100    301.84974   -1033.6906    26030.641   -8231.3161    718.90563   -8950.2217   0.13688897 
   22200    285.82108   -1068.1691    26023.691   -8274.4435     680.7307   -8955.1742   0.13582647 
   22300    308.41355   -847.36681    26023.505   -8285.0665    734.53845   -9019.6049   0.11667876 
   22400    295.96814   -959.94287    26038.298   -8216.4805    704.89761   -8921.3781   0.13853279 
   22500    294.48403   -1024.6241    26049.668   -8209.5749    701.36296   -8910.9378   0.14342732 
   22600    294.92657   -1097.4535     26046.99   -8222.2624    702.41695   -8924.6793   0.14671073 
   22700    304.68405   -1040.6284    26050.578   -8227.0117    725.65601   -8952.6677   0.13514756 
   22800    293.77544   -939.57291    26042.404   -8231.0025    699.67533   -8930.6778   0.13206921 
   22900    301.34976   -994.94797    26047.305   -8216.4815    717.71484   -8934.1963   0.13825488 
   23000      290.893   -1039.7678    26047.054    -8235.036    692.81033   -8927.8463   0.14835035 
   23100    296.29509   -1029.9162    26032.062   -8239.2908    705.67631   -8944.9671   0.14112857 
   23200    296.31707    -986.6999    26044.414   -8228.0042    705.72866   -8933.7328   0.13698605 
   23300    300.80458   -1005.4555    26054.489   -8197.8867    716.41641   -8914.3032   0.14278375 
   23400    305.74106    -1056.316    26057.513   -8177.8999    728.17347   -8906.0733   0.14946063 
   23500    300.71217   -944.23322    26061.431   -8184.8856    716.19632   -8901.0819   0.14304955 
   23600    316.40962   -904.55704    26060.756   -8146.2331    753.58243   -8899.8155    0.1361119 
   23700    294.00193   -1064.7428    26064.819   -8172.3169    700.21477   -8872.5317   0.14674396 
   23800    298.78495   -1037.6815     26055.09   -8171.0813    711.60632   -8882.6876   0.15459589 
   23900    283.08485   -994.13981    26055.869   -8217.0275    674.21392   -8891.2414   0.15063266 
   24000    310.53252   -1001.4518     26053.47   -8201.2314    739.58512   -8940.8165   0.13727148 
   24100    303.98829    -994.3813     26054.17    -8176.405    723.99895   -8900.4039   0.14342662 
   24200    292.32544   -1072.9449    26060.307   -8159.7159    696.22192   -8855.9379     0.161199 
   24300     294.7674   -937.84811    26050.212   -8225.1128    702.03786   -8927.1506   0.14488362 
   24400    301.39137   -1018.9549    26045.707   -8225.2234    717.81395   -8943.0374   0.14116394 
   24500    290.28662   -938.85375    26048.399   -8215.3852    691.36613   -8906.7513   0.13673133 
   24600    281.98362   -1043.6544    26039.882   -8251.3848    671.59114    -8922.976   0.14341173 
   24700    285.30846   -1079.7887    26028.497   -8268.6308    679.50981   -8948.1406   0.13524596 
   24800    298.20431   -988.21959    26032.324   -8245.0381    710.22344   -8955.2615   0.13669825 
   24900    300.36299    -959.3841    26043.266   -8236.4887    715.36469   -8951.8534   0.13174184 
   25000    288.56401   -1022.7104    26032.225   -8266.4962    687.26345   -8953.7596   0.13684056 
   25100    298.07053   -966.68062     26031.84   -8267.1854    709.90482   -8977.0902   0.12776944 
   25200    284.15697   -1039.1265    26023.981   -8284.8899    676.76734   -8961.6572    0.1353726 
   25300    281.10485   -978.84524    26009.109   -8291.0616    669.49821   -8960.5598   0.13554148 
   25400    285.86361    -1046.128    26019.026   -8239.2596    680.83199   -8920.0916   0.14736448 
   25500    297.54342   -990.39582    26032.894    -8233.357    708.64941   -8942.0064   0.13299668 
   25600    301.33123   -1003.9073    26034.717   -8237.6975    717.67071   -8955.3683   0.13293684 
   25700    293.32451   -991.33348    26041.522   -8201.9775    698.60138   -8900.5789   0.14149676 
   25800    290.29122   -985.41554    26032.829   -8225.5705    691.37708   -8916.9476   0.13915361 
   25900    304.64909   -987.49177    26055.294   -8163.1707    725.57275   -8888.7435   0.14688672 
   26000    305.22582   -1113.8195    26058.411   -8192.2834    726.94634   -8919.2298   0.14668523 
   26100    303.27086   -1010.5697    26052.522   -8202.2667    722.29027    -8924.557   0.14437127 
   26200    301.60361   -1035.6748    26043.676   -8202.7902    718.31944   -8921.1096   0.14296358 
   26300    292.32494   -939.72523    26034.824   -8231.3798    696.22073   -8927.6006   0.13313441 
   26400    295.17118   -1075.6552    26031.377   -8243.9219    702.99954   -8946.9214   0.14169202 
   26500    289.03498   -997.35606    26032.235   -8218.8315    688.38514   -8907.2167   0.14463012 
   26600    288.35156   -998.40878    26038.054    -8208.846    686.75745   -8895.6034   0.14344292 
   26700    301.00751   -974.60725    26044.613   -8196.7505    716.89972   -8913.6502   0.14624882 
   26800    300.01292   -1033.6918    26052.269   -8190.8626    714.53095   -8905.3935   0.14578665 
   26900    309.60739   -974.42945    26047.994   -8207.1553    737.38178   -8944.5371   0.13160571 
   27000    322.50992   -980.17999    26062.468   -8166.5816    768.11131   -8934.6929   0.13768376 
   27100    310.77083    -913.2373    26045.605   -8183.4878     740.1527   -8923.6405   0.13683261 
   27200    297.64388    -1103.145    26046.779   -8180.3095    708.88866   -8889.1982   0.14866474 
   27300    301.39446    -907.6198    26053.345   -8177.2043    717.82132   -8895.0256   0.14423703 
   27400     307.3664   -1047.8342    26061.956    -8161.712    732.04449   -8893.7565    0.1455599 
   27500    300.03776   -949.67558    26048.552   -8191.4101    714.59009   -8906.0002    0.1448835 
   27600    294.63305   -912.13659    26044.678   -8232.8922    701.71789   -8934.6101   0.13343071 
   27700    300.04701    -920.4765    26043.477   -8222.2065    714.61214   -8936.8186    0.1282124 
   27800     305.9466   -915.25386    26040.762   -8180.9033    728.66299   -8909.5663   0.13729625 
   27900    291.42102   -1033.0613    26041.777   -8213.8018     694.0679   -8907.8697   0.13973482 
   28000    303.13494   -940.42485    26041.744   -8215.4477    721.96654   -8937.4143   0.13805338 
   28100    301.03638   -989.61457    26040.911   -8241.7689    716.96848   -8958.7374   0.13392936 
   28200    296.73461    -1066.166    26044.594   -8217.0405     706.7231   -8923.7636   0.13903392 
   28300    305.61291   -1000.5187    26043.416   -8225.1185    727.86826   -8952.9868   0.13120033 
   28400    304.22231   -962.95409    26042.355   -8219.7351     724.5563   -8944.2914   0.12923888 
   28500    304.85798   -1002.1193    26047.631   -8225.1584    726.07027   -8951.2286   0.13612118 
   28600    303.38309   -1022.5003    26047.625   -8239.3152    722.55757   -8961.8727   0.14169064 
   28700    292.96475   -962.64721    26044.385   -8235.6011    697.74453   -8933.3456   0.13878025 
   28800    295.21994   -1023.4961    26043.942   -8244.6009    703.11565   -8947.7166   0.13768323 
   28900     276.5627   -984.75253    26044.656   -8248.6312    658.68032   -8907.3115   0.14098858 
   29000    298.70245   -920.74634    26046.186   -8233.9942    711.40984   -8945.4041   0.13178084 
   29100    306.25213   -1005.8894    26047.702   -8212.2493    729.39066     -8941.64   0.14268021 
   29200    299.23987   -945.50846    26058.512    -8200.977    712.68979   -8913.6668   0.13460293 
   29300    304.85685   -962.47185    26066.219   -8204.7526    726.06756   -8930.8202   0.13331008 
   29400    310.46115   -1002.3075    26051.503   -8204.7094    739.41515   -8944.1246   0.14288023 
   29500    312.86212   -902.69964    26070.604   -8187.3815    745.13346   -8932.5149   0.12647612 
   29600    306.63201   -1023.0405     26063.04   -8228.4752    730.29541   -8958.7706   0.12596958 
   29700    293.08428   -966.95789    26078.766   -8180.8909    698.02922   -8878.9201   0.13729442 
   29800    292.33378   -1057.3668    26057.193   -8229.3599    696.24179   -8925.6017   0.13223992 
   29900    286.14703    -1027.826     26047.52   -8238.2366      681.507   -8919.7436   0.13679416 
   30000    288.85139   -986.07698    26049.858   -8251.8871    687.94788    -8939.835    0.1285207 
   30100    270.92056   -1070.7263     26035.67   -8277.0421    645.24263   -8922.2847   0.13501271 
   30200    289.66821   -1034.0904    26038.994   -8263.5341    689.89327   -8953.4274   0.13817196 
   30300    286.53809   -1021.8096    26049.005   -8247.4203    682.43837   -8929.8587   0.13576466 
   30400    303.03549   -957.45216    26045.878    -8220.203     721.7297   -8941.9327   0.12354295 
   30500    279.17763   -1034.8248    26039.694   -8296.1242    664.90822   -8961.0324   0.12738512 
   30600    289.30905   -945.44423    26030.917   -8289.7833    689.03789   -8978.8212   0.11814722 
   30700    287.85951   -905.00515    26040.718   -8247.0532    685.58555   -8932.6387    0.1269177 
   30800    286.58943   -1016.8405    26047.833   -8257.0143    682.56065    -8939.575    0.1414758 
   30900    285.03048   -987.49473     26057.18   -8230.4106    678.84776   -8909.2583   0.13794442 
   31000    302.89191   -822.48062    26069.575    -8205.226    721.38773   -8926.6137   0.12967474 
   31100    306.67578     -983.943    26064.344   -8192.6442    730.39965   -8923.0438   0.13783119 
   31200     303.3388   -919.36144    26053.083   -8193.8961    722.45207   -8916.3482   0.14097579 
   31300    305.87775   -1023.8208    26065.817   -8178.9375    728.49901   -8907.4365   0.15277491 
   31400     307.0244   -1007.0705    26073.608   -8169.9501    731.22995   -8901.1801   0.14636518 
   31500    297.73665   -878.61261    26067.211   -8205.6362    709.10961   -8914.7458   0.13520328 
   31600    312.80895   -927.68761    26069.574   -8183.0836    745.00682   -8928.0905   0.13536334 
   31700    300.53216   -1049.4431    26060.423   -8198.9486    715.76759   -8914.7162   0.14210024 
   31800    297.10467   -1021.1763    26067.024   -8181.3293    707.60446   -8888.9338    0.1470068 
   31900    308.02538   -951.62519    26076.086   -8201.2668    733.61396   -8934.8808   0.13090911 
   32000    302.96227   -1033.6819    26059.903   -8217.9877    721.55532   -8939.5431   0.13698993 
   32100    308.26324   -1007.3401    26048.644   -8220.6678    734.18046   -8954.8483   0.13746409 
   32200    298.42468   -1040.0278    26042.706   -8236.3123    710.74829   -8947.0606    0.1383059 
   32300    293.63706   -1064.4518    26030.029   -8259.2195    699.34577   -8958.5652   0.13959325 
   32400    294.61381    -951.6003    26036.656   -8222.8809    701.67205    -8924.553   0.13934407 
   32500     284.3966   -953.03982    26030.359   -8268.7267    677.33807   -8946.0648   0.13071838 
   32600    299.00877   -989.83504    26042.195   -8215.9071    712.13939   -8928.0465   0.14762256 
   32700    300.45577    -931.3901    26040.478   -8202.9879    715.58566   -8918.5736   0.13774932 
   32800    305.35036    -968.1704    26037.457    -8224.781    727.24293    -8952.024   0.13852857 
   32900    303.98089   -996.84252    26049.264   -8196.3941    723.98133   -8920.3755   0.15109052 
   33000    285.85688   -981.52157      26048.4   -8215.7583    680.81596   -8896.5742   0.13929311 
   33100    298.33769   -1082.1697    26046.016    -8233.476    710.54109   -8944.0171   0.14242814 
   33200     299.0313   -959.44165    26050.267   -8227.3315    712.19304   -8939.5245   0.13797567 
   33300    296.07042    -1009.168    26051.458   -8241.7068    705.14121    -8946.848   0.13003788 
   33400    296.57513   -935.64316      26050.6   -8220.6154    706.34327   -8926.9587   0.14384592 
   33500    285.04901     -986.456    26046.052    -8251.263     678.8919   -8930.1549   0.14457605 
   33600    288.60513    -955.4504     26042.58   -8225.6842    687.36139   -8913.0456   0.14272623 
   33700    295.79077   -982.34976    26037.995   -8232.2339    704.47519   -8936.7091   0.14606319 
   33800    298.12024    -894.8518    26049.366   -8222.5084    710.02321   -8932.5317   0.13154935 
   33900    293.52206   -1042.4973    26048.871   -8187.4521    699.07186    -8886.524   0.15077964 
   34000    306.49498   -1028.5275     26048.38   -8203.6581    729.96904   -8933.6271   0.15476264 
   34100    291.86848   -1022.4059    26031.615   -8237.6199     695.1336   -8932.7535   0.13987425 
   34200    308.49909   -958.35435    26038.176   -8229.2583    734.74216   -8964.0005   0.14064993 
   34300    307.10631   -1087.5728    26035.222   -8218.8095    731.42504   -8950.2345   0.14903543 
   34400    306.35811   -935.44476    26034.566   -8251.3624    729.64306   -8981.0055   0.12890105 
   34500    296.16779   -1029.6544    26036.049   -8238.4708    705.37313   -8943.8439   0.14876435 
   34600    304.65883   -995.22534    26046.004   -8162.8208    725.59595   -8888.4168   0.15682599 
   34700    296.58098   -1028.2981     26049.05   -8199.9147     706.3572   -8906.2719   0.14558491 
   34800    293.65507   -1078.6464    26032.498   -8222.0773    699.38866   -8921.4659   0.15096176 
   34900    300.98972   -1100.4159    26031.059   -8212.0052    716.85735   -8928.8626   0.15456174 
   35000    299.01697   -923.50745    26031.266   -8204.5733    712.15892   -8916.7323   0.15093019 
   35100    301.87035   -950.02673    26032.276   -8193.8781    718.95473   -8912.8328   0.15136267 
   35200    297.26582   -1036.3942    26030.943   -8218.4703    707.98826   -8926.4585   0.14686457 
   35300    286.03046   -920.69898    26034.861   -8215.4209    681.22937   -8896.6502    0.1448504 
   35400    291.09185   -909.66905    26030.978    -8216.364    693.28391    -8909.648   0.13973957 
   35500    306.70511   -967.17527    26027.931   -8218.0314    730.46951   -8948.5009    0.1428697 
   35600    294.22568   -1011.7048    26027.339   -8205.3586    700.74765   -8906.1062   0.15400922 
   35700    302.73398   -984.39585    26033.288   -8201.6757     721.0116   -8922.6873   0.14605912 
   35800    312.78069   -917.75044    26036.418   -8165.7412    744.93952   -8910.6807   0.14278317 
   35900    311.72672   -955.97747    26045.585   -8149.0901    742.42933   -8891.5194   0.15189635 
   36000    295.01423   -1110.8929    26037.732   -8203.1782    702.62573    -8905.804   0.15713374 
   36100    300.30604   -949.36277    26026.632    -8196.569    715.22904    -8911.798   0.14669483 
   36200    304.05832   -967.89256    26032.757   -8196.2515    724.16574   -8920.4172   0.14073616 
   36300    290.84428   -1038.4521    26023.699   -8255.1855    692.69429   -8947.8798   0.14308389 
   36400    293.99069   -1080.8646    26017.949    -8238.888    700.18799    -8939.076   0.14964373 
   36500    308.04846   -987.70727    26032.452   -8209.5377    733.66892   -8943.2066   0.14073857 
   36600    295.50418   -1046.9924    26027.329   -8204.5905    703.79263   -8908.3832   0.14543866 
   36700    305.28267   -961.10097    26040.425   -8190.3535    727.08174   -8917.4353   0.14644795 
   36800    284.14973   -967.14042    26025.425   -8235.3985     676.7501   -8912.1486   0.15024731 
   36900    294.38943   -949.77388    26021.161   -8240.8645    701.13766   -8942.0022   0.14086666 
   37000    296.06402   -909.70971    26020.321   -8242.4972    705.12596   -8947.6231   0.13680105 
   37100    297.80993   -943.58739    26022.403   -8233.9279    709.28415   -8943.2121   0.14722099 
   37200    297.57587   -1013.7546    26034.356   -8217.5077     708.7267   -8926.2344   0.15065557 
   37300    287.16229   -1014.1132    26031.883   -8244.0925    683.92502   -8928.0176   0.13765151 
   37400    280.24051   -996.14153    26035.063   -8229.3717    667.43963   -8896.8113   0.14433503 
   37500    291.21881   -1005.0997    26039.015   -8226.2413    693.58631   -8919.8276   0.14504785 
   37600    285.95367   -1018.7187    26031.154   -8241.1645    681.04649    -8922.211   0.14580225 
   37700    293.86002   -1025.6653    26029.897   -8245.9547    699.87677   -8945.8314   0.14713425 
   37800    285.27159   -1052.4458    26026.119   -8281.1213    679.42199   -8960.5433   0.13200875 
   37900     288.1507   -1010.2754    26018.744   -8274.0758    686.27909   -8960.3549   0.13676333 
   38000    301.78989   -981.17883    26022.535   -8209.9054    718.76308   -8928.6685   0.15268911 
   38100    295.49834   -1050.6771    26028.696   -8214.4983    703.77871   -8918.2771   0.14933533 
   38200    302.22218    -981.9003    26032.428   -8191.8153    719.79266    -8911.608   0.14922917 
   38300    311.87923   -988.77498    26040.929    -8177.683    742.79253   -8920.4755   0.15320374 
   38400    299.53172    -974.4063    26033.881   -8202.5139    713.38489   -8915.8988   0.14654409 
   38500     297.8803   -1054.1229    26042.899   -8201.8517    709.45175   -8911.3034    0.1474566 
   38600    302.57592    -1007.327    26041.125   -8205.4418    720.63515    -8926.077   0.14073749 
   38700    308.81181   -987.51746    26045.561   -8184.4316    735.48697   -8919.9185   0.13931452 
   38800    299.59742   -1025.9066    26048.283   -8196.6371    713.54135   -8910.1784   0.14848909 
   38900      300.345   -935.97259    26044.334   -8201.5177    715.32185   -8916.8395    0.1360056 
   39000    309.33306   -1017.9501    26058.053   -8192.2247     736.7284   -8928.9531   0.13582379 
   39100    305.66796   -1079.2887    26046.627   -8216.8731    727.99936   -8944.8725   0.14395447 
   39200    306.56077   -1056.7866     26041.46   -8216.7275    730.12573   -8946.8532   0.14153873 
   39300    282.91495   -1002.8467     26028.74   -8289.7018    673.80926   -8963.5111   0.12793281 
   39400    286.08491   -955.07796    26031.039   -8261.8452    681.35906   -8943.2042   0.13023629 
   39500     281.1259    -982.3847    26046.286   -8242.8338    669.54834   -8912.3822   0.14095169 
   39600    298.90124   -1007.7078    26038.686   -8214.9189    711.88329   -8926.8022   0.14761653 
   39700    298.30138    -938.6141    26049.575   -8201.5155    710.45462   -8911.9701   0.13971565 
   39800    296.34482   -1043.9144    26037.789   -8213.9781    705.79475   -8919.7729   0.14321027 
   39900    304.41186   -985.79067    26035.991   -8230.6213    725.00775   -8955.6291    0.1368591 
   40000    296.79513   -906.21127    26037.826   -8203.1979    706.86724   -8910.0652   0.14125172 
   40100    298.94519   -971.35736    26028.102   -8218.8434    711.98795   -8930.8314    0.1364832 
   40200    293.22767    -1029.796    26028.013   -8222.8966    698.37073   -8921.2673   0.14104899 
   40300    292.15816   -1084.5074    26024.705   -8223.3333    695.82352   -8919.1568   0.14924783 
   40400    294.40937   -1047.8552    26022.822   -8235.7375    701.18514   -8936.9227   0.14533879 
   40500    290.95647   -949.90417    26026.049   -8234.1104     692.9615   -8927.0719   0.13468673 
   40600    299.98821   -980.00501    26045.403   -8175.5169    714.47208    -8889.989   0.14988427 
   40700    284.38541    -1051.081    26036.724   -8239.2228    677.31141   -8916.5342   0.14078614 
   40800    296.48264   -1029.1237    26034.763    -8242.007    706.12298     -8948.13    0.1372805 
   40900     296.5041   -1005.5749    26046.924   -8206.6275    706.17409   -8912.8016   0.14323265 
   41000    305.10683   -1027.8393    26043.768   -8195.5213    726.66294   -8922.1842   0.14427523 
   41100    286.19508   -1022.7167    26039.373   -8270.0172    681.62145   -8951.6387   0.13489221 
   41200    278.53511   -953.26171    26041.191   -8228.8972    663.37796   -8892.2751    0.1412652 
   41300    305.81345   -1001.3549    26054.963   -8200.9927    728.34588   -8929.3385   0.13321259 
   41400    295.44882   -927.61113    26045.026   -8217.7707    703.66076   -8921.4315   0.13335522 
   41500    296.01059   -1014.8966    26045.146   -8232.4982    704.99872   -8937.4969   0.13828489 
   41600    297.63828   -971.36248    26049.205   -8203.9738    708.87534   -8912.8491   0.13854302 
   41700    292.49821   -1022.8331    26045.113   -8230.5238     696.6334   -8927.1572   0.14144485 
   41800    303.20572   -929.10869    26033.236   -8237.8482    722.13512   -8959.9833   0.13154608 
   41900     295.5973   -1027.0231    26039.261   -8229.7637     704.0144   -8933.7781   0.14439925 
   42000    297.22274   -900.78785    26045.114   -8247.5434    707.88567   -8955.4291   0.13083866 
   42100    293.35154   -1038.0559    26049.291    -8255.204    698.66574   -8953.8698     0.133471 
   42200    294.15977   -1038.1266      26033.6   -8269.8793     700.5907     -8970.47   0.13569561 
   42300    292.94496   -1015.8666    26037.453   -8248.2025     697.6974   -8945.8999   0.14133941 
   42400    295.05373   -1058.6152    26038.085    -8225.957     702.7198   -8928.6768   0.14100885 
   42500    306.23892   -997.71714    26039.767   -8228.1328     729.3592    -8957.492   0.13472306 
   42600    294.32818   -958.35851    26037.132   -8234.7848    700.99179   -8935.7766   0.13785103 
   42700    296.22902   -1042.3228    26031.126   -8224.2748    705.51894   -8929.7937   0.14538889 
   42800    279.79865   -1021.5378    26031.733   -8270.7337    666.38727    -8937.121   0.14149706 
   42900     290.1146   -963.83355    26030.074   -8236.3134    690.95644   -8927.2698   0.13681308 
   43000    290.75018   -1031.0142    26028.264    -8253.824    692.47018   -8946.2942   0.13925094 
   43100    293.62979   -1069.3868    26027.967    -8239.621    699.32845   -8938.9495   0.14597109 
   43200    279.11154   -1017.5227    26033.128   -8229.5053     664.7508   -8894.2561   0.15179681 
   43300     286.5904   -1048.0359     26028.95   -8234.8411    682.56297   -8917.4041   0.14447228 
   43400    299.50394   -917.70253    26030.011   -8204.5252    713.31871   -8917.8439   0.14459296 
   43500    312.68612   -941.20319    26032.545   -8181.9518     744.7143   -8926.6661    0.1465162 
   43600    302.41825     -999.482    26036.632   -8210.3754    720.25963    -8930.635     0.144279 
   43700     301.5009   -957.53547    26027.466   -8232.5834    718.07481   -8950.6582   0.13921081 
   43800    286.91618   -1050.2947    26022.902   -8229.6652    683.33885   -8913.0041   0.15125993 
   43900    295.08434   -1044.3973    26006.872   -8261.0644    702.79271   -8963.8571   0.14604446 
   44000     288.1261   -994.75404    26011.786   -8263.1946    686.22049   -8949.4151   0.14657395 
   44100    279.38594   -983.13995    25996.727   -8287.4967    665.40433    -8952.901   0.13811709 
   44200    284.36376   -1021.9978    26003.435    -8242.384    677.25984   -8919.6439   0.14679436 
   44300    289.10454   -908.07935    26008.062   -8250.5015    688.55082   -8939.0523   0.15020582 
   44400    285.17724   -894.20049     26020.63   -8247.3155    679.19728   -8926.5128   0.15313773 
   44500    300.01987   -1036.5198    26025.455   -8243.6879     714.5475   -8958.2354    0.1477503 
   44600    280.93143    -1079.914    26017.135   -8259.5076    669.08519   -8928.5928    0.1504879 
   44700     279.4579   -1018.8687    26018.695    -8249.701    665.57572   -8915.2768    0.1547779 
   44800    293.93355   -1015.6674     26020.24   -8235.1078    700.05191   -8935.1597   0.14303798 
   44900    291.35006   -1056.5786    26023.166   -8204.2841    693.89888    -8898.183   0.15456303 
   45000    302.36109   -983.67762    26035.621   -8221.3716     720.1235   -8941.4951   0.13497169 
   45100    295.61731   -985.89413     26029.13   -8209.7719    704.06206   -8913.8339   0.14157286 
   45200    297.72563   -1058.0107    26047.299   -8190.8507    709.08337   -8899.9341    0.1521598 
   45300    320.67685   -992.90684    26034.303   -8185.5113    763.74555   -8949.2569   0.13541871 
   45400    298.22218   -954.41003    26030.611   -8221.7998      710.266   -8932.0658    0.1358315 
   45500    303.30126   -959.86578    26036.537   -8173.9586    722.36268   -8896.3212   0.15005871 
   45600    304.04446   -1016.3873    26040.594   -8181.1003    724.13274    -8905.233   0.14544426 
   45700    299.11232   -977.03539    26034.511   -8200.3505      712.386   -8912.7365   0.14273303 
   45800    305.63402   -988.85005    26032.437   -8204.9731    727.91854   -8932.8916   0.14226715 
   45900     309.2066   -1019.2292     26027.87   -8173.8378    736.42723   -8910.2651   0.14846595 
   46000    314.28051   -1044.1094     26035.92   -8146.7863    748.51159   -8895.2978   0.16062556 
   46100    313.84399   -977.94158    26036.585   -8154.6001    747.47194    -8902.072   0.14897124 
   46200    307.72621   -949.20889    26029.659   -8165.3557    732.90143   -8898.2571   0.14751628 
   46300    298.50114    -1058.203    26027.314   -8173.4624    710.93039   -8884.3928   0.15514374 
   46400    303.34522   -1076.8205    26028.542   -8195.4427    722.46737   -8917.9101   0.14866973 
   46500    303.79817   -978.81049    26035.333   -8190.3806    723.54614   -8913.9267   0.14562421 
   46600    300.88945   -972.29961    26036.858   -8204.7474    716.61855    -8921.366   0.14408264 
   46700    300.27224   -1043.4345    26040.651    -8184.044    715.14855   -8899.1926   0.15655013 
   46800    310.06561   -1037.7646    26043.192   -8177.6594     738.4731   -8916.1325   0.15407763 
   46900    306.91538   -975.60129    26039.221   -8217.1468    730.97031   -8948.1171   0.13622284 
   47000    297.29084    -1029.606    26027.805   -8177.7942    708.04786    -8885.842    0.1528227 
   47100    293.72724   -1084.8639    26026.487   -8205.7411    699.56054   -8905.3016   0.15485431 
   47200    281.47779   -1049.9237    26026.644   -8231.5779    670.38642   -8901.9644   0.14461446 
   47300    292.91712   -978.52075    26037.425   -8203.8057    697.63111   -8901.4368   0.15114633 
   47400    288.67712   -926.40517    26026.927   -8229.9634    687.53285   -8917.4962   0.13450676 
   47500    291.89451   -923.59071    26026.107   -8242.4541    695.19558   -8937.6497   0.13899741 
   47600    295.84954   -1019.5849    26032.812    -8219.324    704.61516   -8923.9391   0.14929897 
   47700    306.61179   -1017.3542    26037.911    -8219.634    730.24726   -8949.8813   0.13543867 
   47800    302.12443    -1044.987    26040.164   -8206.4814    719.55985   -8926.0413   0.14158907 
   47900    299.86661   -979.17473    26028.386   -8219.4294    714.18248   -8933.6118   0.14754013 
   48000    303.99397   -1020.8705     26026.32   -8223.2973    724.01248   -8947.3098   0.14113252 
   48100    295.53744   -1035.8905      26026.5   -8252.6331    703.87184    -8956.505   0.14124218 
   48200    292.72652   -1009.1659    26017.057   -8242.7449    697.17715   -8939.9221    0.1430317 
   48300    296.28874    -923.2785    26024.083   -8218.5176    705.66119   -8924.1788   0.13948376 
   48400    308.58987   -944.18457    26031.052   -8199.3155    734.95837   -8934.2739   0.14933154 
   48500    302.61389    -875.8321    26029.327   -8223.2406    720.72559   -8943.9662   0.13737858 
   48600    286.30416   -1012.1734    26023.078   -8264.6551    681.88124   -8946.5364   0.13716548 
   48700      297.881   -980.12899    26025.992   -8246.2701    709.45341   -8955.7235   0.13420723 
   48800    294.15091   -1062.2794    26026.821   -8271.1611    700.56958   -8971.7307   0.13867685 
   48900    293.70971   -999.61285    26032.101   -8244.7602    699.51878    -8944.279     0.143663 
   49000    299.25406   -939.76003    26027.467   -8254.1893    712.72358   -8966.9129   0.13633409 
   49100    296.51108   -987.32062    26027.134   -8209.5883    706.19073    -8915.779   0.14611269 
   49200    296.22198   -1015.1793    26037.701   -8199.2978    705.50218   -8904.7999   0.15365021 
   49300    298.14135   -925.87366    26043.974   -8213.3223    710.07348   -8923.3958   0.13549912 
   49400    301.50071   -932.71927    26030.829   -8222.1435    718.07437   -8940.2178   0.13897597 
   49500     300.9793   -964.80636    26030.062   -8224.0187    716.83253   -8940.8512   0.13782089 
   49600    306.39775   -1005.9765    26034.744   -8230.2457    729.73748   -8959.9832   0.13525372 
   49700    307.08367   -1054.0237    26033.356   -8205.9593    731.37112   -8937.3304   0.14490273 
   49800     295.4016   -1071.1924     26028.19   -8235.1007    703.54831    -8938.649   0.14179262 
   49900      297.279   -1016.2962    26026.824   -8247.5361    708.01964   -8955.5557   0.13819619 
   50000     304.3638   -938.74753     26020.22   -8222.2835    724.89329   -8947.1768   0.14413028 
   50100    287.83544   -1033.1317    26026.084   -8199.3824    685.52824   -8884.9106   0.15163335 
   50200    293.28289   -1081.1428    26029.405   -8192.2813    698.50224   -8890.7836   0.15038085 
   50300    299.72893   -919.45588    26034.363   -8187.9882    713.85457   -8901.8428    0.1530133 
   50400     291.6167   -999.83995    26020.417   -8229.9592    694.53394   -8924.4932   0.14764764 
   50500    291.23543   -1065.6675    26016.341   -8225.3114    693.62588   -8918.9373   0.15459164 
   50600    306.88392   -944.47406    26023.395   -8202.9824    730.89538   -8933.8778   0.14947992 
   50700    294.19273   -1056.6555    26030.588   -8204.7226     700.6692   -8905.3918   0.14800699 
   50800    281.56199    -1076.615    26010.135   -8280.0857    670.58696   -8950.6727   0.14714352 
   50900    291.70386   -1086.2641    26012.775   -8279.9742    694.74153   -8974.7157   0.14180246 
   51000    290.67766   -990.96737    26015.079   -8251.8419    692.29747   -8944.1394   0.14444468 
   51100    284.21075   -1009.4611    26021.953   -8243.7066    676.89542    -8920.602   0.15336367 
   51200    285.44408   -1051.1969    26022.869   -8267.5511    679.83282   -8947.3839   0.14578349 
   51300    283.76922   -1031.3436    26011.418    -8280.815    675.84385   -8956.6588   0.14286561 
   51400    276.39482   -983.19959    26010.199   -8261.2966    658.28048   -8919.5771   0.14885584 
   51500    299.55288   -1034.2675    26018.469   -8260.2661    713.43528   -8973.7014    0.1337753 
   51600    279.48048   -1052.4305    26010.451   -8265.6814    665.62949   -8931.3109   0.14764233 
   51700    292.14175   -969.43466    26032.089   -8228.7434    695.78444   -8924.5279   0.14026002 
   51800    311.98603   -951.20372    26041.516   -8188.9287     743.0469   -8931.9756   0.13506679 
   51900    291.87827   -968.70584    26030.775   -8218.6002    695.15692   -8913.7571   0.14206516 
   52000     287.1072   -1034.8809    26023.018   -8251.5821     683.7938   -8935.3759   0.14018387 
   52100    292.52344   -1028.3664    26031.448   -8248.6779    696.69349   -8945.3714   0.13604171 
   52200    279.84674   -1012.8119    26025.098   -8273.0668    666.50181   -8939.5686   0.13859339 
   52300    290.06328   -1026.3462    26012.861   -8285.2594    690.83422   -8976.0936   0.13131497 
   52400    275.39026   -983.75799    26010.932   -8295.3718    655.88796   -8951.2598   0.13538438 
   52500     284.8768   -905.36777    26004.516   -8293.3709    678.48174   -8971.8527   0.12864756 
   52600    281.73501   -1030.1584    26019.833   -8223.4207    670.99905   -8894.4198    0.1540504 
   52700    299.92633   -927.06571    26034.349   -8236.5793    714.32472    -8950.904   0.13757321 
   52800     310.5019   -980.65571    26040.044   -8176.5508    739.51221    -8916.063    0.1454422 
   52900    297.21381    -1016.952    26042.812   -8178.2044    707.86439   -8886.0688   0.15364202 
   53000    301.20154    -911.4175    26031.578   -8174.5399    717.36183   -8891.9018    0.1458658 
   53100    290.94381   -1082.9184    26033.559   -8232.3257    692.93134    -8925.257    0.1467555 
   53200    294.45677   -1031.8394    26024.537   -8262.9817    701.29803   -8964.2798   0.14422481 
   53300     286.9354    -1041.548    26018.209   -8275.6223    683.38463    -8959.007   0.14489788 
   53400    292.72793   -1016.9064    26003.384   -8233.9019    697.18051   -8931.0825   0.15505139 
   53500    288.09062   -1023.7044    26019.547   -8244.5293    686.13598   -8930.6653   0.14948923 
   53600    291.83232   -973.35547    26029.639   -8213.3152    695.04748   -8908.3627   0.14552973 
   53700    294.69396   -974.56616    26026.057   -8215.1827    701.86295   -8917.0456   0.15712089 
   53800    287.62736   -1023.5693    26029.286   -8228.0289    685.03265   -8913.0615   0.15237952 
   53900    304.14256   -1054.8053    26031.529   -8227.4235    724.36637   -8951.7899   0.14679918 
   54000    296.47875   -1015.8758    26021.887   -8217.5025    706.11373   -8923.6162   0.15936627 
   54100    272.31891   -1037.1279    26013.925   -8265.9089    648.57303    -8914.482   0.15473588 
   54200    293.64251   -982.94887    26019.439   -8221.4803    699.35874   -8920.8391   0.14767611 
   54300     315.1783   -908.79792    26015.798   -8194.4269    750.64984   -8945.0767   0.14802256 
   54400     301.3876   -1015.9239    26018.706   -8199.3167    717.80497   -8917.1217   0.15499778 
   54500     305.4748    -1001.832     26033.19   -8177.4191    727.53932   -8904.9584   0.16119463 
   54600    312.50931   -914.30636     26028.92   -8205.0186    744.29317   -8949.3117    0.1510539 
   54700    308.09507   -880.61678     26031.09   -8191.8158    733.77994   -8925.5958   0.14289265 
   54800    301.77269   -971.55481    26033.008   -8194.1487    718.72213   -8912.8708   0.15275851 
   54900    297.20425   -979.26702    26027.647   -8202.0531    707.84161   -8909.8948     0.155294 
   55000    297.94817   -950.54289    26023.733   -8182.1686     709.6134    -8891.782   0.15178436 
   55100     301.8172   -949.67572    26021.697   -8197.1337    718.82813   -8915.9619    0.1453964 
   55200    298.77334   -980.84714    26023.214   -8229.0939    711.57867   -8940.6725   0.14730083 
   55300    295.30868   -973.70366    26011.391   -8253.1316    703.32701   -8956.4586   0.14287823 
   55400    282.90001   -1042.7925    26003.945   -8270.5106    673.77369   -8944.2843   0.15232026 
   55500    300.35946   -959.48184    26004.621   -8234.9279    715.35629   -8950.2842   0.14174839 
   55600    289.48026   -1037.9546    26003.401   -8239.0278    689.44564   -8928.4734   0.14697089 
   55700    300.61444   -970.34497    26011.167   -8203.0725    715.96357    -8919.036   0.15671521 
   55800    300.79643    -1029.841     26009.13   -8183.4567    716.39699   -8899.8537    0.1622809 
   55900    296.32625   -1042.1242    26021.408   -8195.6856    705.75052   -8901.4361   0.15303149 
   56000    305.58883   -1041.0626      26027.3   -8181.4045    727.81089   -8909.2154   0.16335627 
   56100    297.09283   -1001.9206    26028.571   -8181.5619    707.57625   -8889.1381   0.15676443 
   56200    294.80732   -1062.2322    26021.801   -8220.6184    702.13293   -8922.7514   0.15080115 
   56300    295.64893   -968.45871    26013.244    -8241.462    704.13736   -8945.5994   0.14081365 
   56400    290.00488   -987.48192    26014.156   -8248.4427    690.69511   -8939.1378    0.1472524 
   56500    288.15238   -1082.7492    26011.778   -8274.3909    686.28308   -8960.6739   0.14630575 
   56600    292.52212    -973.6771    26001.177   -8294.4309    696.69035   -8991.1212   0.14288397 
   56700    282.99933   -1037.9429    26008.555   -8278.2539    674.01022   -8952.2641   0.14968243 
   56800    295.24233   -1043.5715    26006.402   -8265.0188    703.16897   -8968.1878   0.15616682 
   56900     294.9929   -1049.5779    26011.213   -8256.0441    702.57492    -8958.619   0.15587263 
   57000    286.87127   -1033.0706    26004.819    -8267.909    683.23191   -8951.1409   0.15160997 
   57100    288.81974   -978.72701    25999.545    -8267.837    687.87252   -8955.7095   0.14939866 
   57200    301.34394   -932.18411    26018.668   -8205.8417    717.70098   -8923.5427    0.1650785 
   57300    290.66211   -985.27167    26011.892   -8245.9102    692.26043   -8938.1706   0.15761395 
   57400    277.73215   -1009.4085    26000.962   -8258.5132    661.46555   -8919.9787   0.16021813 
   57500    292.48721    -990.5679    26018.065    -8207.132    696.60719   -8903.7392   0.16422438 
   57600    292.81895   -973.28253    26028.094   -8249.9889    697.39729   -8947.3862   0.14557303 
   57700    280.70338   -939.63158    26015.631   -8268.0441    668.54205   -8936.5861   0.14712552 
   57800    299.00822   -965.87703    26021.615   -8222.2833    712.13808   -8934.4214   0.15197735 
   57900    297.61122   -878.45845    26025.117   -8208.8105     708.8109   -8917.6214   0.14736114 
   58000    297.52123   -1053.4736    26025.762   -8234.7868    708.59656   -8943.3834   0.15461087 
   58100    289.51585    -1015.217    26019.534   -8244.2552    689.53041   -8933.7856    0.1535198 
   58200    286.91628   -1006.5835    26018.604   -8232.6829    683.33909    -8916.022    0.1483516 
   58300    297.31506   -949.63265     26031.76   -8193.2438    708.10553   -8901.3493   0.15651192 
   58400    303.03423   -1010.3612     26034.06   -8230.2944    721.72669   -8952.0211   0.14366857 
   58500    305.81747   -953.64818    26034.899   -8230.4056    728.35546   -8958.7611   0.13503996 
   58600    292.92428   -1008.2762    26036.251   -8215.5386    697.64815   -8913.1867    0.1551513 
   58700    292.96348   -904.49937    26034.277   -8216.0011    697.74151   -8913.7426   0.13951855 
   58800    299.37452   -974.65698    26031.779   -8187.5177    713.01049   -8900.5282   0.15366091 
   58900    295.04707   -960.47972    26025.413   -8201.2121    702.70395    -8903.916   0.15327497 
   59000    314.04141   -950.89485    26035.559   -8175.2716    747.94213   -8923.2138   0.13904833 
   59100    316.84833   -1057.0139    26037.219   -8190.0463    754.62728   -8944.6736   0.14943998 
   59200    305.06853   -986.15193    26030.777   -8189.4584    726.57171   -8916.0301   0.16150059 
   59300    287.70859   -1017.3786    26020.796   -8249.3345    685.22611   -8934.5606   0.14514367 
   59400    302.13217   -1001.2751    26021.235   -8205.7596    719.57829   -8925.3379   0.15097503 
   59500      307.977   -1030.8991    26018.198   -8193.2234    733.49873   -8926.7222   0.15175675 
   59600    303.66828   -975.79857    26016.926    -8245.269     723.2368   -8968.5058    0.1360252 
   59700    300.56812   -976.38483    26012.647   -8224.3957    715.85325    -8940.249   0.15731201 
   59800     305.3638   -1002.1799    26025.333   -8201.2052    727.27494   -8928.4802   0.14772149 
   59900    293.44072   -1001.5745    26020.711   -8252.1413    698.87814   -8951.0194   0.14407836 
   60000    292.78809   -1055.3681    26014.717    -8248.376     697.3238   -8945.6997   0.15595822 
   60100    289.34628   -991.70339    26029.781   -8237.8813    689.12656   -8927.0079   0.15229014 
   60200    301.27822   -970.64793    26021.249   -8226.7734    717.54447   -8944.3179   0.14489193 
   60300      294.587   -1027.1774    26016.569    -8232.192     701.6082   -8933.8002   0.15716227 
   60400    308.26273   -958.38034     26025.49   -8203.3403    734.17924   -8937.5195   0.14667298 
   60500    296.53707   -1081.6973    26020.264   -8174.6293    706.25263    -8880.882   0.16797095 
   60600    308.93146   -944.33763    26039.943   -8194.1237    735.77193   -8929.8956   0.14869711 
   60700    287.31642   -1023.9568    26034.636   -8190.1553    684.29211   -8874.4474   0.15461777 
   60800    308.93229   -980.87243    26049.786   -8136.1552    735.77392   -8871.9291   0.15994528 
   60900      311.575   -1004.0369    26051.508   -8153.2206    742.06797   -8895.2886   0.15456071 
   61000    298.64892   -1057.5685    26032.811   -8200.0435    711.28235   -8911.3259   0.14663679 
   61100    289.88734    -1113.339    26023.689    -8194.392    690.41519   -8884.8072   0.15897955 
   61200    306.81072   -993.61504    26029.096   -8204.0257    730.72105   -8934.7467   0.14670308 
   61300    310.24893    -946.1509     26031.34   -8186.5127    738.90971   -8925.4225   0.14998658 
   61400    295.63607   -1004.3314    26040.275   -8203.2524    704.10674   -8907.3591   0.14680156 
   61500    288.81376    -1047.023    26032.324   -8213.8112    687.85827   -8901.6695   0.14444237 
   61600    294.09538    -1003.335    26027.336   -8227.6364    700.43732   -8928.0737   0.14067657 
   61700    291.68941   -975.12292    26024.231   -8248.4842     694.7071   -8943.1913   0.14380605 
   61800    295.08489   -998.54419    26008.807   -8253.0366      702.794   -8955.8306   0.13731947 
   61900    290.21128    -978.5668    26010.767   -8232.4503     691.1867    -8923.637   0.14084497 
   62000    302.70015   -1040.4393    26008.244   -8210.2073    720.93102   -8931.1384   0.15600159 
   62100    298.63095   -1003.7042    26018.377   -8222.5214    711.23954    -8933.761   0.14748462 
   62200    290.64673   -903.24261    26011.373   -8238.2954    692.22378   -8930.5192   0.13692603 
   62300    285.61195   -1043.9118    26018.404   -8213.7859    680.23262   -8894.0185   0.15364994 
   62400    306.03564   -955.67304    26024.182   -8187.1812    728.87506   -8916.0562   0.14396695 
   62500    300.12816   -1103.7519    26019.037   -8203.7347     714.8054   -8918.5401   0.15063864 
   62600    301.92804   -1024.6565     26019.82   -8213.3306    719.09213   -8932.4227   0.15099518 
   62700    293.86899   -1007.4056    26014.966   -8261.0374    699.89814   -8960.9356   0.14054768 
   62800    280.19268   -1057.0612    26001.578   -8284.1485    667.32572   -8951.4742   0.14820462 
   62900    300.02931   -979.77245    26021.313   -8201.9685    714.56998   -8916.5385   0.15478493 
   63000    293.12052   -1055.4123    26022.853   -8227.4534    698.11554   -8925.5689   0.13922432 
   63100    287.38377   -1035.0821    26015.618   -8254.0551    684.45252   -8938.5077    0.1448147 
   63200    295.48961   -1041.3032    26010.469   -8251.0707    703.75792   -8954.8286   0.14586579 
   63300    300.48358   -885.56474    26030.808   -8230.1783    715.65189   -8945.8302   0.13557982 
   63400    300.66708   -950.19201    26018.152   -8262.1075    716.08893   -8978.1964   0.13654739 
   63500    283.23075   -1041.2454    26021.698   -8230.3667     674.5614   -8904.9281   0.14942202 
   63600    291.15555   -968.50332    26017.472   -8257.6237    693.43562   -8951.0594    0.1344931 
   63700    287.71855     -998.172    26011.988   -8278.6736    685.24985   -8963.9235   0.14577557 
   63800    280.94681   -975.21256    26018.703   -8278.9019    669.12182   -8948.0237   0.13736775 
   63900    279.07177   -989.71206    26010.935   -8272.7417    664.65609   -8937.3978   0.14206093 
   64000    296.88243    -976.1337     26009.99    -8248.969    707.07516   -8956.0442   0.15068421 
   64100    299.83004   -1079.8114    26021.089   -8227.9024    714.09537   -8941.9978   0.15271584 
   64200    292.11063   -999.19432    26023.385   -8203.6242    695.71032   -8899.3345   0.15451387 
   64300    301.82217   -947.39801    26025.966   -8174.2142    718.83997   -8893.0542   0.15730449 
   64400    294.64025   -982.25549    26022.358   -8183.3699    701.73504    -8885.105   0.15475219 
   64500    302.58562   -962.88382      26018.1   -8222.0655    720.65825   -8942.7238   0.14478425 
   64600    300.56826   -1019.9121    26021.999   -8227.7051    715.85358   -8943.5587   0.14844846 
   64700    293.43242   -1027.7827    26002.645   -8219.9846    698.85838    -8918.843   0.14499382 
   64800    298.55632   -964.86967    26001.538   -8242.3363    711.06181   -8953.3981   0.14238108 
   64900    307.28174   -913.33636    26011.765   -8212.7158    731.84286   -8944.5587   0.15099222 
   65000    295.25638   -1081.4151    26032.768   -8190.8565    703.20244   -8894.0589   0.15749901 
   65100    292.12995   -1023.1772    26028.416   -8199.2827    695.75633   -8895.0391     0.151956 
   65200    293.98342   -1019.8425    26019.488   -8214.5424    700.17068    -8914.713   0.15471793 
   65300    302.60297   -1021.2191    26027.569   -8202.0834    720.69957    -8922.783   0.14700302 
   65400    291.17013   -1037.8086    26013.971   -8229.2059    693.47035   -8922.6762   0.15474762 
   65500    296.63408   -1020.5221    26010.782   -8197.5113    706.48367    -8903.995   0.16083677 
   65600    302.61756   -1037.4436    26018.541   -8195.8079    720.73432   -8916.5422   0.14755931 
   65700    299.26196   -1075.2421     26017.46   -8206.5354     712.7424   -8919.2778   0.15816846 
   65800    308.14725   -1070.6988    26024.705   -8207.2631     733.9042   -8941.1673   0.15087359 
   65900    293.81156   -998.40258    26014.254   -8215.3463    699.76137   -8915.1077   0.14895651 
   66000    290.52648   -1084.3731    26010.516   -8230.9058    691.93739   -8922.8432   0.15931365 
   66100    288.34468   -1135.5093    26000.584   -8255.8407    686.74108   -8942.5818   0.15498051 
   66200    291.51997   -1026.7315    26000.716   -8256.5546    694.30356   -8950.8581   0.14464995 
   66300    293.46282   -926.33262    25992.473   -8251.0674    698.93078   -8949.9981   0.15983429 
   66400    283.49343   -1120.0412    26002.158   -8251.4801    675.18701   -8926.6671   0.16659553 
   66500    288.20674   -959.98442    26002.319   -8224.7498    686.41255   -8911.1624   0.15986833 
   66600    276.29129   -1063.3076    25995.568   -8257.5079    658.03391   -8915.5418   0.16389213 
   66700     294.5026   -865.28651    25994.777   -8252.2454     701.4072   -8953.6526     0.139288 
   66800    291.68887    -993.8538    25996.581   -8253.3308    694.70582   -8948.0367   0.14447419 
   66900    278.26933   -1026.8044    25998.979   -8251.4436    662.74494   -8914.1886   0.16302021 
   67000     274.8742   -1017.3366    25996.818   -8287.6923    654.65888   -8942.3512   0.14142769 
   67100    290.29805   -906.90015    25990.441   -8252.7422    691.39336   -8944.1356   0.14021257 
   67200    295.49834    -974.8242    26005.361   -8248.0314    703.77872   -8951.8101   0.14750914 
   67300     290.8573   -1135.8547    25999.892   -8245.0087    692.72529    -8937.734   0.15927158 
   67400     290.7145    -995.1315    25993.585   -8244.4804    692.38519   -8936.8656    0.1513149 
   67500    298.58745   -974.98942    25997.616   -8226.7441    711.13595   -8937.8801   0.15405496 
   67600    294.85905   -992.31454    26010.084   -8227.9666    702.25614   -8930.2227   0.14837688 
   67700    288.13207   -1022.6761    26015.613   -8206.6463    686.23472    -8892.881     0.164102 
   67800    295.94119   -998.91451     26017.31   -8208.2138    704.83343   -8913.0472   0.15498056 
   67900    312.07767   -1005.0723    26015.145   -8209.4358    743.26516   -8952.7009   0.13967608 
   68000    290.12915   -899.59555    26003.993   -8235.6171    690.99109   -8926.6082    0.1444619 
   68100    288.54671   -1025.5253    26008.496   -8233.4881    687.22225   -8920.7104    0.1543111 
   68200    306.56912   -881.17683     26014.71   -8228.9346    730.14562   -8959.0802   0.12869851 
   68300    303.03503   -922.86867     26011.31   -8230.5961    721.72859   -8952.3247   0.14843891 
   68400    298.93771   -934.12348    26017.257   -8219.3898    711.97015   -8931.3599   0.14488411 
   68500    298.18364   -1023.3606    26014.728   -8194.2876    710.17419   -8904.4618   0.15691041 
   68600    291.40119   -991.59229    26012.499   -8213.2907    694.02067   -8907.3114   0.16229719 
   68700    299.97203    -1071.807    26009.366   -8241.3625    714.43355   -8955.7961   0.14413647 
   68800     302.3746   -1018.7518    26006.714   -8201.7601    720.15568   -8921.9158   0.15884386 
   68900    292.79222   -1082.0124    26005.863   -8235.3885    697.33363   -8932.7222   0.16453437 
   69000    306.28586   -997.25289    26008.909   -8196.1571      729.471   -8925.6281   0.15128684 
   69100    296.51099   -877.41723    26002.844   -8232.7593     706.1905   -8938.9498   0.15024761 
   69200    291.78849   -1028.4871    26003.508   -8251.3876    694.94308   -8946.3307   0.15078449 
   69300    272.46123   -1036.5801    25997.351   -8285.4536    648.91197   -8934.3656    0.1424802 
   69400    282.62896    -929.7438    25996.176   -8291.9724    673.12813   -8965.1005   0.13402552 
   69500    285.51241   -928.24485    25996.545   -8262.0828    679.99554   -8942.0783    0.1410151 
   69600    313.10905   -943.53935    26022.208   -8174.2603    745.72155   -8919.9818   0.14750828 
   69700    301.79928   -961.83212    26029.198   -8186.9815    718.78546    -8905.767   0.15777589 
   69800    292.80511   -992.57091    26028.277   -8225.4065    697.36433   -8922.7709    0.1524525 
   69900    298.34637   -971.53165    26027.145   -8245.6039    710.56177   -8956.1657   0.13811983 
   70000    294.86365   -927.47966    26024.413   -8212.3852     702.2671   -8914.6523    0.1554148 
   70100    289.91102   -1003.4173     26021.26   -8257.2147    690.47157   -8947.6863   0.15051188 
   70200    294.66039    -958.9427    26024.284   -8206.4996      701.783   -8908.2826   0.15274866 
   70300    297.83611   -1026.7704    26021.899    -8234.942    709.34651   -8944.2885   0.14562364 
   70400    303.57091   -996.65414    26035.853   -8187.4848    723.00489   -8910.4897   0.15244696 
   70500    294.03422   -1137.6271    26023.934   -8213.3326    700.29167   -8913.6243    0.1591821 
   70600    292.59605   -995.52314     26019.55   -8222.6855    696.86642   -8919.5519   0.14998499 
   70700    292.48381   -1004.1158    26022.249   -8222.2057    696.59911   -8918.8048   0.14817829 
   70800    297.72696   -969.77735    26021.204   -8231.9941    709.08655   -8941.0806    0.1394555 
   70900    282.83698   -966.39227    26028.551   -8239.9748    673.62358   -8913.5984   0.14312784 
   71000    292.69949   -944.39664    26025.469   -8241.3758    697.11279   -8938.4886   0.13569399 
   71100    289.88595   -1053.1248    26022.121   -8251.8269    690.41188   -8942.2388   0.14086423 
   71200     294.3303   -1009.2959    26023.542   -8215.9545    700.99682   -8916.9514   0.15112596 
   71300    287.91788   -1024.8444    26028.885    -8257.739    685.72459   -8943.4636    0.1424625 
   71400    296.74633   -996.30122    26022.389   -8246.1524      706.751   -8952.9034   0.13143901 
   71500    295.61557   -929.38236    26020.731   -8229.5413    704.05791   -8933.5992   0.14260514 
   71600    304.10538   -1030.2972    26027.456    -8221.713    724.27782   -8945.9908   0.13820277 
   71700    300.46846   -951.70785    26020.501   -8227.3308    715.61589   -8942.9467   0.13661678 
   71800    284.08548   -1057.2309    26011.852   -8265.4201    676.59707   -8942.0172   0.14175492 
   71900    278.46864   -980.61655    26017.006   -8257.0893    663.21963    -8920.309   0.13838658 
   72000    300.28181   -985.69486    26013.331   -8251.2449    715.17134   -8966.4162   0.14024998 
   72100    290.89697   -970.08397     26027.42   -8196.0102    692.81977   -8888.8299   0.15129675 
   72200    313.32308   -1020.0557    26041.727   -8149.6599    746.23131   -8895.8912   0.14875544 
   72300    319.18322   -1047.3504    26040.564   -8129.3315    760.18821   -8889.5198   0.15577925 
   72400     291.5857   -1129.4851     26033.04   -8210.0103     694.4601   -8904.4704   0.15428695 
   72500    290.52502   -1043.1227    26028.743   -8202.9902    691.93393   -8894.9241   0.14775811 
   72600    313.48177   -942.00972    26039.634   -8173.4117    746.60927    -8920.021    0.1453477 
   72700    289.46941    -1010.372     26024.06   -8207.0023    689.41981   -8896.4221   0.15009745 
   72800    287.60738   -1061.1997    26022.093   -8203.3441    684.98508   -8888.3291   0.15460298 
   72900    293.98275   -983.11784    26032.685   -8220.6871    700.16909   -8920.8562   0.14321605 
   73000    307.37088   -1021.1601     26041.38   -8238.3701    732.05514   -8970.4253   0.12893582 
   73100    297.27311   -960.21165    26034.875   -8227.4411    708.00563   -8935.4468   0.13642489 
   73200     314.5788   -1022.5243      26049.9   -8165.3688    749.22202   -8914.5908   0.15475578 
   73300    302.16441   -1064.8254    26060.224   -8144.5454    719.65508   -8864.2005   0.16449697 
   73400    308.72074   -984.31056    26061.824   -8186.9413    735.27008   -8922.2114   0.14140397 
   73500    301.40902   -970.98015    26049.146    -8160.885    717.85599    -8878.741   0.15237979 
   73600    310.40954   -851.51276    26039.119    -8190.231    739.29223   -8929.5232    0.1352558 
   73700    297.18837   -941.34597    26041.538   -8205.0099     707.8038   -8912.8137    0.1489905 
   73800    284.71981   -1101.6721    26036.285     -8238.67    678.10785   -8916.7778   0.15128368 
   73900    298.65745   -977.90448     26036.56   -8224.8167    711.30266   -8936.1194   0.13397773 
   74000     288.0532   -1028.1933     26021.33   -8259.9067    686.04686   -8945.9535   0.13957596 
   74100    299.78093   -986.70901    26025.446   -8198.3189    713.97842   -8912.2973   0.15090999 
   74200    308.96723   -975.96228    26023.266   -8208.1482    735.85712   -8944.0053   0.14006043 
   74300     291.1295   -1075.7128    26014.281   -8248.1565    693.37358   -8941.5301   0.14102321 
   74400    303.77753   -1007.9791    26021.442   -8218.2654    723.49698   -8941.7623   0.14353799 
   74500    309.31703   -955.99458    26019.891   -8251.3621    736.69024   -8988.0524   0.12881532 
   74600    296.45196   -950.18518    26023.606   -8240.8505    706.04993   -8946.9004   0.13717004 
   74700    301.74341    -975.2385    26024.872   -8194.2929    718.65238   -8912.9453   0.14991651 
   74800    284.96388   -999.19737    26035.349    -8216.201    678.68912   -8894.8901   0.14815529 
   74900    303.96963   -922.26918    26032.126   -8210.0209    723.95451   -8933.9754   0.14060677 
   75000    296.42787   -933.39847    26033.036   -8237.2077    705.99255   -8943.2003   0.13397631 
   75100    297.69686   -959.96891    26036.262   -8182.0751    709.01486     -8891.09   0.14309516 
   75200    306.43201   -935.32102    26039.047   -8192.5464    729.81908   -8922.3655   0.14646022 
   75300     303.1677   -1022.5103    26037.027   -8220.8559    722.04458   -8942.9004   0.14171219 
   75400    305.57718   -943.22055    26036.162    -8238.952    727.78315   -8966.7351   0.13245289 
   75500    301.46085   -1003.5846     26032.49   -8248.3512    717.97944   -8966.3307   0.13259829 
   75600    306.53197   -971.26607    26042.421   -8227.0615    730.05714   -8957.1186   0.13177269 
   75700    309.01694    -912.3722    26051.215   -8194.2745    735.97551     -8930.25   0.13132774 
   75800    311.84585    -1000.147    26055.658   -8184.2332    742.71304   -8926.9463   0.14060237 
   75900    302.75776    -988.1015    26050.348   -8207.3053    721.06824   -8928.3736   0.13967031 
   76000    311.24291   -1090.5461    26056.901   -8165.4877    741.27705   -8906.7648   0.15339522 
   76100    297.75959   -1011.8559     26051.18   -8216.4943    709.16427   -8925.6586   0.14268504 
   76200    299.06425    -967.2775    26037.329   -8243.5148    712.27152   -8955.7863   0.13028945 
   76300    287.28836   -1021.1052    26033.242   -8241.2673    684.22528   -8925.4925   0.14035972 
   76400    291.19593    -1064.627    26039.975   -8235.1545    693.53181   -8928.6863    0.1428032 
   76500    284.83792   -1000.6913     26040.67   -8250.5511    678.38913   -8928.9402   0.13741521 
   76600    290.59423   -1072.9071    26050.615   -8238.2871    692.09875   -8930.3859   0.14066423 
   76700    297.95915   -992.59306    26052.226   -8212.3607    709.63953   -8922.0002   0.13888388 
[...]
   81900    286.39125   -974.69687    26008.501   -8254.0032    682.08866   -8936.0919    0.1348954 
   82000    302.86498   -991.51167    26014.844   -8213.6211    721.32359   -8934.9447   0.14824744 
   82100    302.59777   -992.00782    26025.001   -8191.1723    720.68719   -8911.8595   0.15151589 
   82200    296.64426     -1145.44    26028.178   -8186.3445    706.50791   -8892.8524   0.15686238 
   82300    287.25326   -941.12512    26020.164   -8228.4389    684.14167   -8912.5806   0.15078997 
   82400    296.82791   -977.86747    26015.595   -8184.1046    706.94531   -8891.0499   0.15151683 
   82500    319.88056   -914.58251    26034.964   -8129.0274    761.84905   -8890.8765    0.1508774 
   82600    291.36603   -1099.4291    26035.196   -8179.9256    693.93694   -8873.8625    0.1637713 
   82700    310.19139   -977.21313    26021.639   -8218.6007    738.77267   -8957.3733   0.14071168 
   82800    303.31055   -1036.2175    26029.035   -8213.9019     722.3848   -8936.2867   0.14359317 
   82900    297.50101   -1066.7148    26039.093   -8204.9498     708.5484   -8913.4982   0.15003472 
   83000    305.04637   -930.56621    26042.544   -8170.1337    726.51894   -8896.6526   0.14023265 
   83100    300.22054   -1004.4087    26023.603   -8183.5017    715.02541   -8898.5272    0.1490209 
   83200    310.61697   -1001.5031    26041.745    -8202.293    739.78626   -8942.0793   0.14090062 
   83300    298.14999   -1099.6044    26034.704   -8217.1735    710.09407   -8927.2676   0.14257905 
   83400    290.30451   -1118.5101     26031.61   -8244.5777    691.40873   -8935.9864   0.14135143 
   83500    282.31098   -947.40684    26014.963   -8285.7752    672.37081    -8958.146   0.13091101 
   83600    297.33509   -981.52072    26022.132   -8256.5413    708.15325   -8964.6945   0.13477599 
   83700    299.02279   -1021.5602    26027.621   -8266.9191    712.17277   -8979.0919   0.13127818 
   83800    292.58451   -993.08634    26026.057   -8253.6671    696.83893    -8950.506   0.13858625 
   83900    289.45415    -1097.267    26023.774   -8267.2833    689.38347   -8956.6667   0.13847423 
   84000    284.37368   -960.86879    26020.899   -8265.9143    677.28347   -8943.1978   0.13163001 
   84100    278.49539    -1005.014    26011.308   -8233.4543    663.28335   -8896.7376   0.15589707 
   84200    290.84961   -1071.7001    26026.125   -8213.6067    692.70697   -8906.3137     0.146672 
   84300    306.56863   -1007.4012    26025.885   -8203.5652    730.14445   -8933.7096   0.14265998 
   84400    296.34261    -991.4786     26029.51   -8224.7478    705.78949   -8930.5373   0.14521446 
   84500    298.92381   -873.70705    26034.466    -8233.361    711.93704    -8945.298   0.13175135 
   84600    301.20531    -914.5018    26031.255     -8191.28     717.3708   -8908.6508   0.13808622 
   84700     289.7019   -964.63867    26050.823   -8194.4948    689.97352   -8884.4684   0.14625584 
   84800    310.22842   -947.20559    26045.927   -8191.1519    738.86086   -8930.0128   0.13568421 
   84900    296.86894   -1016.4868    26052.399   -8210.4381    707.04302   -8917.4811   0.14447738 
   85000    302.27004    -997.3737    26044.982   -8217.8792    719.90664   -8937.7858   0.13407004 
   85100    297.78168   -1031.7304    26049.065    -8223.156    709.21687   -8932.3729   0.12955093 
   85200    290.49116   -1049.4688    26047.902   -8234.7418    691.85327   -8926.5951   0.14222237 
   85300    294.40287   -951.36508    26048.035   -8238.4023    701.16968    -8939.572   0.13298256 
   85400    293.41145   -945.15821    26052.263   -8229.2574    698.80844   -8928.0658   0.13030375 
   85500    298.13034    -1049.202    26053.965   -8218.2754    710.04727   -8928.3227   0.14572071 
   85600    291.65314   -1091.0773    26045.425   -8228.8519    694.62074   -8923.4726   0.14299344 
   85700    293.89574   -1029.7364    26048.421   -8217.8558    699.96186   -8917.8176      0.14249 
   85800    296.06245   -959.19311    26057.093   -8191.1193    705.12225   -8896.2416   0.14694195 
   85900    302.36249   -988.87331    26062.835   -8192.6215    720.12682   -8912.7483   0.13850409 
   86000     300.5198   -1068.3564    26047.259   -8203.4682    715.73816   -8919.2063    0.1548907 
   86100    312.54966   -984.38356    26054.119   -8183.8322    744.38929   -8928.2215   0.14592048 
   86200    302.50311   -998.79499    26052.817   -8204.6216    720.46175   -8925.0833   0.13945857 
   86300    301.17986   -1036.0317    26042.118   -8226.2329    717.31019   -8943.5431   0.14760186 
   86400    302.83483   -952.06977    26033.765   -8236.8376     721.2518   -8958.0894   0.14028624 
   86500    287.65838    -1013.314    26031.922   -8224.8114    685.10654    -8909.918    0.1466365 
   86600    304.81738   -1024.4312    26048.739    -8192.647    725.97356   -8918.6206   0.15094274 
   86700    296.88877   -1078.1197    26056.942   -8226.6344    707.09026   -8933.7247   0.13835977 
   86800    291.00148    -1035.665    26040.283   -8238.2393    693.06869    -8931.308   0.13985072 
   86900    293.94362   -970.46249    26045.159   -8240.9289    700.07589   -8941.0048   0.14049109 
   87000    290.18238   -1076.6424    26044.745   -8251.1613    691.11787   -8942.2792   0.14194768 
   87100    303.65126   -923.80512    26051.453   -8189.2516    723.19626   -8912.4479   0.14289797 
   87200    286.43764   -963.29282    26043.087   -8228.4225    682.19915   -8910.6216   0.14570481 
   87300    303.94374   -1040.9945    26043.418   -8210.2821    723.89284   -8934.1749   0.14161694 
   87400    289.53536   -1048.5799    26034.697   -8220.7052    689.57688   -8910.2821   0.15166141 
   87500    305.85285   -964.23012    26041.502   -8198.2607     728.4397   -8926.7004   0.14649357 
   87600    295.53702    -999.2108    26039.482   -8197.3814    703.87083   -8901.2522   0.14834823 
   87700      292.972   -1049.3741    26035.313   -8223.4773    697.76181   -8921.2391   0.15019395 
   87800    292.38848    -939.8015    26026.941   -8230.8988    696.37205   -8927.2709   0.14591028 
   87900     288.1888   -928.18841    26026.473    -8226.135    686.36983   -8912.5048   0.13899691 
   88000    300.82244   -992.64438    26033.049    -8212.688    716.45894   -8929.1469   0.14359086 
   88100    288.37815   -995.85474    26037.631   -8219.9147    686.82079   -8906.7355   0.14683707 
   88200    293.34566   -917.67755     26040.54   -8240.0057    698.65174   -8938.6575   0.13548577 
   88300    298.84067   -999.40237    26039.275   -8218.5162    711.73903   -8930.2552   0.13870494 
   88400    303.82819   -1010.9983    26043.529   -8207.3061    723.61763   -8930.9237   0.14778718 
   88500    306.88839   -1029.6412     26042.85   -8225.7487    730.90602   -8956.6547   0.13969932 
   88600    294.53929    -931.1823    26036.671   -8233.9778    701.49458   -8935.4723   0.14587194 
   88700    287.45916   -1106.5825    26054.147   -8207.6538    684.63206   -8892.2858    0.1569752 
   88800    293.37968   -1007.3534    26038.084   -8274.5531    698.73277   -8973.2858   0.13393469 
   88900    298.54114   -1073.8176    26032.529   -8240.9145    711.02566   -8951.9402   0.14736936 
   89000    302.96539   -969.83231    26034.396   -8236.7048    721.56275   -8958.2676   0.13506969 
   89100     292.9704    -1032.564    26034.512   -8256.4242      697.758   -8954.1822   0.13746546 
   89200    289.64906    -1015.463    26033.069   -8234.2617    689.84768   -8924.1094   0.15399837 
   89300    295.68705   -993.26821    26031.032   -8244.6233    704.22815   -8948.8514   0.14469508 
   89400    304.78612   -909.93394    26039.221   -8215.3058    725.89912    -8941.205   0.13806346 
   89500    287.78902   -1022.9288    26029.402   -8273.5499    685.41769   -8958.9675   0.13855002 
   89600     283.7106   -1009.5537     26020.39   -8283.1808    675.70425   -8958.8851   0.13282362 
   89700    299.67478   -965.09176    26029.116   -8222.0943    713.72561     -8935.82   0.14533735 
   89800    307.39169   -905.47507    26043.161    -8192.932    732.10472   -8925.0367   0.14922337 
   89900    301.87566   -963.05511    26039.372   -8201.9764    718.96736   -8920.9438   0.14198244 
   90000    302.29257   -1103.7462    26038.779   -8210.5638    719.96031   -8930.5241   0.14870346 
   90100    297.08824    -1011.242    26040.526   -8209.9692    707.56534   -8917.5345   0.14683779 
   90200    300.61788   -956.82275    26042.035   -8234.0929    715.97176   -8950.0647   0.13194074 
   90300    287.56337   -967.90657    26039.993   -8218.7104    684.88026   -8903.5906   0.14487476 
   90400    292.35358   -1072.3462    26047.719   -8206.2374    696.28895   -8902.5264   0.15311617 
   90500    291.15706   -1038.5577    26031.556   -8214.5462    693.43924   -8907.9854   0.14600855 
   90600      298.295   -1075.6883    26030.689   -8207.4209    710.43943   -8917.8604   0.15828962 
   90700    301.65204   -1060.2567    26027.741   -8194.5474    718.43477   -8912.9821   0.15731346 
   90800    298.61441   -1042.8694    26025.705   -8205.0749    711.20015    -8916.275   0.15527708 
   90900    291.81758     -1029.27    26030.899   -8210.2008    695.01236   -8905.2132   0.15405481 
   91000     291.7461   -1042.9933    26023.325   -8261.5521    694.84213   -8956.3942   0.13796622 
   91100    293.10014   -973.33487     26011.59   -8299.0623    698.06699   -8997.1293   0.12831375 
   91200    289.57436   -962.47577    26010.406   -8278.3751    689.66976   -8968.0449   0.13783452 
   91300    288.20507   -1003.2403    26025.401   -8239.1572    686.40857   -8925.5658   0.13658478 
   91400    306.02631   -984.15986    26030.622   -8219.5268    728.85283   -8948.3796   0.13262159 
   91500    313.64938   -965.74864    26052.924   -8144.6355    747.00846   -8891.6439   0.14873585 
   91600    317.37901   -1039.8717     26058.86   -8181.0022     755.8912   -8936.8934   0.12773063 
   91700    304.96335   -906.81028    26041.265   -8207.5623    726.32123   -8933.8835   0.13002246 
   91800    301.76251   -1037.5481    26049.223   -8191.8895    718.69789   -8910.5874   0.14775309 
   91900    302.47887   -982.48645     26055.38   -8170.0643    720.40401   -8890.4683   0.14910201 
   92000    307.41964   -950.55635    26060.052   -8213.8163    732.17127   -8945.9875   0.13961198 
   92100    304.06428   -1038.2165    26056.368   -8189.5822    724.17993   -8913.7621   0.14310225 
   92200    299.23256   -1047.2754    26053.883   -8199.7748    712.67238   -8912.4471    0.1334243 
   92300    302.98543   -1026.8064    26049.801   -8169.4059    721.61046   -8891.0164   0.15079131 
   92400    304.09689   -1054.0939    26045.209   -8178.9714    724.25759    -8903.229   0.15097848 
   92500    308.62046   -1069.3186    26050.898   -8178.2809    735.03124   -8913.3121   0.15046676 
   92600    312.05914   -988.79355    26056.683   -8146.4725    743.22103   -8889.6935   0.15157501 
   92700    300.49789   -940.11029    26051.338   -8193.8423    715.68598   -8909.5283   0.14246228 
   92800    287.19526   -1012.9213    26037.139   -8211.0525    684.00353    -8895.056   0.15025537 
   92900    296.19672   -1040.4229    26028.442   -8241.0426    705.44202   -8946.4846    0.1498946 
   93000    291.65742   -1106.9614    26024.162   -8234.7397    694.63093   -8929.3706    0.1538136 
   93100    300.63395   -984.20801    26029.757   -8214.1033    716.01004   -8930.1134    0.1437088 
   93200     286.3192   -948.89368    26025.514   -8237.9039    681.91705    -8919.821    0.1441281 
   93300     288.4131    -920.1981    26021.056    -8247.414    686.90404    -8934.318   0.13790082 
   93400     286.9072   -1044.5628    26007.599   -8278.6509    683.31748   -8961.9684   0.14093639 
   93500    281.95302   -1005.3949    26019.288     -8272.84    671.51826   -8944.3583    0.1423602 
   93600    296.00157   -937.40972    26018.633   -8242.1509    704.97724   -8947.1282   0.13588716 
   93700     284.4058   -926.40318    26027.206   -8254.5697    677.35998   -8931.9297   0.12874949 
   93800    300.32049   -902.49837    26030.202    -8233.582    715.26347   -8948.8455   0.13580823 
   93900    288.35466   -936.44484    26022.792    -8268.082    686.76485   -8954.8469    0.1274836 
   94000    292.45369   -983.82554    26013.622   -8229.3953    696.52738   -8925.9227   0.14737445 
   94100    301.41194   -933.66772    26033.808   -8196.3223    717.86293   -8914.1852   0.15280572 
   94200    305.45024   -898.23303    26033.866   -8192.4168    727.48083   -8919.8976   0.14135952 
   94300    311.94995   -1020.8288    26031.228    -8183.288    742.96097   -8926.2489   0.14229749 
   94400    308.23847   -1087.2635    26028.836   -8172.3893    734.12147   -8906.5107   0.16132211 
   94500    313.99588   -949.20276    26034.983    -8168.517    747.83369   -8916.3507   0.15541421 
   94600    303.26304   -1010.0348    26032.803   -8196.1562    722.27165   -8918.4279    0.1583353 
   94700    305.20897   -1044.0285    26036.302   -8217.4955    726.90621   -8944.4017   0.14720817 
   94800     302.7866   -1028.9716    26031.703   -8214.2738    721.13692   -8935.4107   0.13778824 
   94900    298.33235   -994.53388     26025.84   -8237.1804    710.52839   -8947.7088   0.14437627 
   95000    295.50254   -1117.8326    26023.404   -8241.5505    703.78872   -8945.3392   0.15083978 
   95100    298.26958   -1017.7128    26023.554   -8199.8271    710.37889    -8910.206   0.15630865 
   95200    299.07894   -1001.0599    26019.404   -8218.8456    712.30652   -8931.1521   0.15096862 
   95300    289.98426   -1078.8009    26027.226    -8203.497      690.646    -8894.143    0.1526533 
   95400    302.53238   -1033.6693    26031.839   -8207.5997    720.53145   -8928.1312   0.14746508 
   95500    296.11315    -904.6282    26028.207   -8176.0467    705.24299   -8881.2897   0.15998152 
   95600     310.1596   -1083.0769    26026.621   -8169.6187    738.69695   -8908.3156   0.16030489 
   95700    294.11443   -1049.3901    26031.112    -8210.546    700.48269   -8911.0287   0.15149113 
   95800    308.77193   -985.14678    26027.049   -8189.4115    735.39199   -8924.8035   0.14314273 
   95900    306.69034   -1018.6467     26027.42   -8194.5151    730.43434   -8924.9494   0.14480494 
   96000    302.17571   -1002.9617    26020.588   -8180.3021    719.68199   -8899.9841   0.16191475 
   96100    305.23608   -1011.6869    26035.064   -8167.2471    726.97078   -8894.2179   0.15664864 
   96200    298.08483   -1029.2318    26039.924   -8195.2245    709.93886   -8905.1633   0.15010377 
   96300    301.45341   -1062.0417    26030.202   -8202.1525     717.9617   -8920.1142   0.14769191 
   96400    303.43511   -1037.6963    26031.459   -8205.9745    722.68145    -8928.656   0.14275247 
   96500    309.19033   -1004.5786    26015.531   -8190.2009    736.38847   -8926.5894    0.1567865 
   96600    296.31275   -955.68068    26026.613   -8202.3019    705.71836   -8908.0203   0.15357871 
   96700    291.29855   -1006.0895    26029.293   -8213.8055    693.77621   -8907.5817   0.15230489 
   96800    293.40813   -1049.2189    26035.545   -8227.2775    698.80053    -8926.078   0.15257926 
   96900    301.29475   -883.64977    26034.159   -8203.0216    717.58384   -8920.6055   0.13773527 
   97000    300.37774   -930.15571    26025.771   -8228.8485    715.39981   -8944.2483   0.13405333 
   97100    307.62795   -907.99405    26021.222   -8209.5207    732.66741   -8942.1881   0.14274769 
   97200    300.64566   -953.41288    26032.496   -8185.4685    716.03791   -8901.5064   0.14952174 
   97300    308.83187   -946.15516    26043.914   -8171.3877    735.53474   -8906.9224   0.15024541 
   97400    302.04755    -946.7153    26051.217   -8208.3033    719.37674   -8927.6801   0.13471796 
   97500    305.99011   -1004.7253    26033.541   -8206.8339    728.76663   -8935.6005   0.14053261 
   97600    308.72229   -1001.0261    26038.717   -8176.9698    735.27377   -8912.2436   0.14719223 
   97700    305.53167    -1029.511    26038.754   -8171.5502    727.67477    -8899.225   0.14768052 
   97800    311.72099   -886.42237    26039.655    -8186.875    742.41567   -8929.2907   0.14327569 
   97900    304.66343    -1042.862    26044.479   -8180.3742    725.60691   -8905.9811   0.14527814 
   98000    301.87016   -1118.3664    26042.388   -8219.2447    718.95428   -8938.1989   0.14756718 
   98100    285.89477   -1036.6202    26038.147    -8232.103     680.9062   -8913.0092   0.15306262 
   98200    301.95824   -963.74244    26026.985   -8215.8497    719.16405   -8935.0137   0.14330158 
   98300    307.74517   -1004.3996    26039.947   -8207.0873    732.94659   -8940.0339   0.14873993 
   98400    282.02304   -1137.8425    26031.031   -8242.7258    671.68504   -8914.4109   0.14861346 
   98500    299.74165   -1019.9347    26033.016   -8213.9809    713.88487   -8927.8657   0.14276848 
   98600    299.00589   -1060.8816    26031.898   -8220.5971    712.13254   -8932.7296   0.15549457 
   98700    312.03645   -1012.4468    26038.544   -8190.9457    743.16699   -8934.1126   0.14702655 
   98800    306.22417   -1048.3471    26042.749   -8199.8508    729.32408   -8929.1748   0.14991861 
   98900     288.7963   -1101.7852    26031.269   -8216.2486    687.81668   -8904.0653   0.15124793 
   99000     292.4904   -860.99093    26027.199   -8198.8871    696.61479   -8895.5019   0.14322166 
   99100    305.05264   -947.23695    26025.753   -8225.7667    726.53387   -8952.3006   0.13622722 
   99200    303.06247   -958.59569    26030.679   -8211.0062    721.79396   -8932.8002   0.14328831 
   99300    299.39833   -1050.0095    26032.181   -8181.5194    713.06719   -8894.5866   0.14846771 
   99400    301.36358   -1088.1276    26040.244   -8182.6445    717.74776   -8900.3922   0.15828298 
   99500    310.76583   -941.45789    26037.764   -8183.8552     740.1408    -8923.996   0.13667816 
   99600     297.8706   -987.81846    26035.967   -8195.8433    709.42864    -8905.272   0.14304951 
   99700    305.08702   -960.64682    26032.008   -8209.6414    726.61577   -8936.2572   0.14320184 
   99800    298.94004   -1015.2095    26034.291   -8214.0932    711.97569   -8926.0689   0.13997816 
   99900    283.86141   -1038.3155    26034.647    -8232.011    676.06342   -8908.0744   0.14834601 
  100000    300.53861   -971.83977    26032.022   -8223.2028    715.78297   -8938.9858   0.14485507 
Loop time of 20.0133 on 4 procs for 100000 steps with 800 atoms

Performance: 2158.559 ns/day, 0.011 hours/ns, 4996.665 timesteps/s
99.5% CPU use with 4 MPI tasks x no OpenMP threads

MPI task timing breakdown:
Section |  min time  |  avg time  |  max time  |%varavg| %total
---------------------------------------------------------------
Pair    | 13.28      | 13.469     | 13.627     |   3.8 | 67.30
Neigh   | 1.9654     | 1.9708     | 1.9737     |   0.2 |  9.85
Comm    | 2.7692     | 2.9462     | 3.1558     |   8.9 | 14.72
Output  | 0.081723   | 0.085197   | 0.095124   |   2.0 |  0.43
Modify  | 1.183      | 1.1923     | 1.2042     |   0.8 |  5.96
Other   |            | 0.3501     |            |       |  1.75

Nlocal:        200.000 ave         205 max         194 min
Histogram: 1 0 0 0 1 0 0 1 0 1
Nghost:        647.500 ave         655 max         642 min
Histogram: 1 0 0 2 0 0 0 0 0 1
Neighs:        0.00000 ave           0 max           0 min
Histogram: 4 0 0 0 0 0 0 0 0 0
FullNghs:      5689.50 ave        5829 max        5519 min
Histogram: 1 0 0 0 1 0 0 1 0 1

Total # of neighbors = 22758
Ave neighs/atom = 28.447500
Neighbor list builds = 5253
Dangerous builds = 0

undump              1
unfix               2
unfix               3
unfix               4




################################################
#######         Run Simulation         #########
################################################

reset_timestep      0
log                 log.run_${NAME}
log                 log.run_ice_298K_1000atm_ML
