
# Set production fixes - Nose/Hoover
#
fix                 2 all nph iso ${PRES} ${PRES} ${PCOUPL}
fix                 2 all nph iso -1000 ${PRES} ${PCOUPL}
fix                 2 all nph iso -1000 -1000 ${PCOUPL}
fix                 2 all nph iso -1000 -1000 10000.0
fix                 3 all temp/csvr ${TEMP} ${TEMP} ${TCOUPL} 837492
fix                 3 all temp/csvr 298 ${TEMP} ${TCOUPL} 837492
fix                 3 all temp/csvr 298 298 ${TCOUPL} 837492
fix                 3 all temp/csvr 298 298 5000.0 837492

# Define Order parameter
#
compute             2 all orientorder/atom nnn NULL cutoff 3.5
thermo              200
thermo_style        custom step temp press vol etotal ke pe c_1[4]

# Run 1ns simulation
dump		    1 all custom 400 prod.${NAME}.dump id type x y z vx vy vz c_2[*]
dump		    1 all custom 400 prod.ice_298K_1000atm_ML.dump id type x y z vx vy vz c_2[*]
run                 200000
Neighbor list info ...
  update every 1 steps, delay 0 steps, check yes
  max neighbors/atom: 2000, page size: 100000
  master list distance cutoff = 6.0032907
  ghost atom cutoff = 6.0032907
  binsize = 3.0016454, bins = 9 11 11
  2 neighbor lists, perpetual/occasional/extra = 1 1 0
  (1) pair sw, perpetual
      attributes: full, newton on
      pair build: full/bin/atomonly
      stencil: full/bin/3d
      bin: standard
  (2) compute orientorder/atom, occasional, copy from (1)
      attributes: full, newton on
      pair build: copy
      stencil: none
      bin: none
Per MPI rank memory allocation (min/avg/max) = 5.736 | 5.736 | 5.736 Mbytes
Step Temp Press Volume TotEng KinEng PotEng c_1[4] 
       0    300.53861    -972.6298    26032.022   -8223.1969    715.78297   -8938.9799   0.14485507 
     200    306.13716   -967.28374    26038.046   -8222.9211    729.11684    -8952.038   0.15043759 
     400    306.60877   -1084.5394    26045.374   -8221.3372    730.24006   -8951.5773   0.13506235 
     600    305.41595   -1051.3238    26034.483   -8235.1342    727.39916   -8962.5333   0.14089444 
     800    289.55245   -970.31697    26006.272   -8242.8154    689.61757    -8932.433   0.14841626 
    1000    292.05171   -933.39513    26015.999   -8244.7846    695.56999   -8940.3546   0.14366015 
    1200    293.11737   -1040.4742    26051.736   -8244.1288    698.10804   -8942.2369    0.1315453 
    1400    283.60512   -1048.2368    26042.972   -8244.4909    675.45303    -8919.944   0.15099213 
    1600    279.49797    -1024.907    26015.822   -8257.1044    665.67116   -8922.7755   0.15285557 
    1800    278.30755   -963.47411    26016.846   -8251.0341    662.83598   -8913.8701   0.14857882 
    2000    303.11923   -1063.4584    26053.632   -8231.6009    721.92913   -8953.5301    0.1415066 
    2200    279.35562   -987.04081    26046.614   -8220.2964    665.33213   -8885.6286   0.14909109 
    2400    290.48285   -882.25219    26011.188   -8225.1628    691.83349   -8916.9963    0.1457349 
    2600    298.34253   -866.27334     26019.33   -8237.5416    710.55262   -8948.0943   0.13725558 
    2800    304.47753   -1125.8106     26064.29   -8240.6201    725.16416   -8965.7842   0.14044989 
    3000    308.05291   -1004.0258    26050.625   -8248.5349    733.67951   -8982.2144   0.12594509 
    3200    303.02875   -848.64753    25996.403   -8217.3608    721.71363   -8939.0744   0.14507901 
    3400    300.22163   -1040.3699    26031.011   -8241.5745    715.02802   -8956.6025   0.14940794 
    3600    277.43308   -1264.8327    26089.732   -8261.9504    660.75327   -8922.7037   0.14047369 
    3800    292.88816   -972.96032    26026.434   -8229.8402    697.56214   -8927.4024   0.14071159 
    4000    301.84795   -718.51999     25979.54     -8222.78    718.90137   -8941.6814   0.13876311 
    4200    297.32834   -1089.7453    26056.323   -8232.0222    708.13717   -8940.1594   0.15183344 
    4400     294.7758   -1176.0116    26089.918   -8220.6829    702.05787   -8922.7407   0.13872485 
    4600    293.80654    -883.0823     26004.57   -8212.1982     699.7494   -8911.9476   0.14590282 
    4800    299.83851    -718.5016    25982.677   -8199.9833    714.11555   -8914.0989   0.14488835 
    5000    301.91292   -1203.6966    26078.341   -8201.2252     719.0561   -8920.2813   0.15046647 
    5200    292.61983   -1270.6246    26087.997   -8194.6988    696.92305   -8891.6218   0.14902658 
    5400    294.08273    -824.0373    25995.988   -8180.8684     700.4072   -8881.2756   0.15811152 
    5600    307.70203    -729.5048    25996.253   -8181.1525    732.84385   -8913.9963   0.15121142 
    5800     302.5737   -1176.4537    26096.872   -8176.2004    720.62986   -8896.8303     0.153376 
    6000    304.97466   -1262.6564    26109.387   -8167.1968    726.34816   -8893.5449   0.15581919 
    6200    301.30632   -806.57196    26009.858   -8175.0904    717.61138   -8892.7017     0.144981 
    6400    312.44277   -779.03993    26002.707   -8159.6835    744.13471   -8903.8182   0.15078223 
    6600    302.43484   -1284.5777    26095.413   -8172.1059    720.29914   -8892.4051   0.15922699 
    6800    289.18311    -1143.759    26071.668   -8194.1981    688.73795    -8882.936   0.15539915 
    7000    304.66326   -705.03394    25964.687   -8178.4754     725.6065   -8904.0819   0.15345957 
    7200    311.59028   -879.09839    25991.522   -8151.3129    742.10436   -8893.4172   0.15844745 
    7400    313.42879     -1255.87    26107.755   -8138.0502    746.48308   -8884.5333    0.1715394 
    7600    300.51271   -1213.6173    26085.635   -8147.1096    715.72127   -8862.8309   0.16451178 
    7800    305.30705    -480.0569    25950.176   -8165.6571    727.13979   -8892.7969   0.14049041 
    8000    307.96673   -842.95644    26011.882   -8149.4485    733.47427   -8882.9228   0.16139491 
    8200    306.21934   -1508.5993    26174.222   -8166.9299    729.31257   -8896.2425   0.15586707 
    8400    316.37096   -1102.6986    26081.209   -8174.3574    753.49034   -8927.8477   0.13840893 
    8600    306.24734   -292.19542     25924.57   -8155.2818    729.37926   -8884.6611    0.1480765 
    8800    314.31184   -1068.6875    26046.401   -8135.1231     748.5862   -8883.7093   0.16379476 
    9000    307.27933   -1684.1054    26212.059   -8134.3276     731.8371   -8866.1647   0.16684444 
    9200    311.13718   -1008.0754    26061.342   -8129.8012    741.02523   -8870.8264    0.1647407 
    9400    304.07343   -277.22895    25904.341   -8141.1549    724.20173   -8865.3566   0.16332169 
    9600    300.14289   -1165.6295    26095.702   -8137.7163    714.84049   -8852.5568   0.16489144 
    9800    314.72649   -1767.6509    26252.793   -8140.0188    749.57377   -8889.5926   0.15620824 
   10000    314.71854   -866.27445    26047.086   -8149.4139    749.55483   -8898.9688   0.14889988 
   10200    303.74686   -329.05622    25895.642   -8156.9454    723.42395   -8880.3694   0.16016211 
   10400    318.46446   -1228.1002    26128.818   -8141.1333    758.47637   -8899.6097   0.14124804 
   10600    306.06932   -1812.7149    26270.707   -8141.1292    728.95527   -8870.0845   0.16200407 
   10800    302.90764    -685.2162    26001.021   -8160.1217    721.42519   -8881.5469   0.14569396 
   11000    309.82904   -169.19402    25860.765   -8172.7356    737.90968   -8910.6453   0.14641084 
   11200    300.59884   -1347.2012    26128.973   -8184.2771     715.9264   -8900.2035   0.15166908 
   11400    294.14282   -1746.3783    26217.333   -8193.7109    700.55032   -8894.2612   0.16235645 
   11600    306.42033    -610.4604     25941.13   -8190.0658    729.79125   -8919.8571   0.15180678 
   11800    302.23119   -345.45562     25882.04   -8209.2613    719.81413   -8929.0754   0.14520867 
   12000    291.80403   -1452.4709    26135.236   -8212.6609    694.98011    -8907.641    0.1542577 
   12200    300.53023   -1547.2478    26173.165   -8201.9849      715.763   -8917.7479   0.15808922 
   12400     296.6261   -606.19224    25931.057   -8193.1589    706.46466   -8899.6236   0.14871741 
   12600    305.40798   -482.37653    25904.613   -8198.0652    727.38017   -8925.4454   0.14241613 
   12800    297.31684   -1476.7563    26118.594   -8198.6388    708.10977   -8906.7486   0.16651607 
   13000     299.8863   -1355.6927    26115.731   -8193.0599    714.22937   -8907.2893      0.15676 
   13200      309.709   -563.28776    25928.733   -8193.5339    737.62378   -8931.1577   0.15450972 
   13400    303.37841   -711.67857    25945.888    -8205.869    722.54641   -8928.4154   0.15554085 
   13600    302.43201   -1321.0911    26102.869    -8186.468    720.29242   -8906.7604   0.16583982 
   13800    303.16248   -1212.6461    26099.058   -8171.1421    722.03213   -8893.1742   0.16543843 
   14000    308.81514   -830.39915    25985.215   -8173.7604    735.49491   -8909.2553   0.15017576 
   14200    298.78571   -859.26177    26007.591   -8177.5393    711.60813   -8889.1474    0.1597289 
   14400    307.68297   -1217.6958    26084.354   -8192.4289    732.79845   -8925.2273    0.1485664 
   14600    298.76146   -1027.2669    26047.333   -8196.2918    711.55038   -8907.8422   0.14980842 
   14800    294.87087   -875.99256    25995.054   -8186.3019    702.28429   -8888.5862   0.16103722 
   15000    285.23029    -1005.706     26029.66   -8207.8211    679.32363   -8887.1447   0.15847554 
   15200    293.82356   -1099.1197    26062.061   -8235.8541    699.78995   -8935.6441   0.13982544 
   15400    303.05539   -964.06047    26021.498   -8231.2889     721.7771    -8953.066   0.14727883 
   15600    297.22463   -925.85308    25999.501   -8251.8072    707.89016   -8959.6974   0.14176422 
   15800    306.74457   -1014.3648    26036.071   -8231.1029    730.56349   -8961.6664   0.14717294 
   16000    294.22692   -1035.6277     26061.85   -8227.7344    700.75061    -8928.485    0.1455495 
   16200    289.35537   -1047.8408    26033.934   -8213.8519    689.14821   -8903.0001   0.16038329 
   16400    295.08032   -951.90949    26006.988   -8225.2632    702.78314   -8928.0464   0.15569649 
   16600    297.04272   -1014.9588    26025.556   -8237.8184    707.45692   -8945.2753   0.14748449 
   16800    292.44263   -1072.9634    26042.675   -8220.3441    696.50103   -8916.8452   0.15553077 
   17000    282.90456   -1187.5979    26035.499   -8225.3687    673.78451   -8899.1532   0.17046857 
   17200    300.52743   -936.14097    26010.988   -8216.3312    715.75634   -8932.0875   0.15214907 
   17400    301.69368   -960.02543    26009.278   -8233.8515    718.53395   -8952.3854   0.15629424 
   17600    294.63176   -1035.4409    26028.944   -8248.7613     701.7148   -8950.4761   0.14860359 
   17800    294.24508   -1003.6857    26036.243   -8251.9148    700.79387   -8952.7087    0.1400277 
   18000    272.20879   -1041.1292    26035.977   -8267.7781    648.31077   -8916.0889     0.148558 
   18200    294.45184   -982.31349      26022.1   -8279.5698     701.2863   -8980.8561   0.13685739 
   18400      297.089   -927.16548    26002.933   -8276.3763    707.56714   -8983.9435   0.13693099 
   18600    293.32807   -978.14424     26007.41   -8261.7989    698.60985   -8960.4087   0.14113508 
   18800    293.67373   -976.91672    26033.113   -8228.8423     699.4331   -8928.2754   0.14169817 
   19000    293.22713   -1057.8967    26037.837   -8237.4472    698.36945   -8935.8166   0.15053839 
   19200    304.50487   -867.31733    26011.974   -8237.9137    725.22927   -8963.1429   0.13368966 
   19400    287.51598     -1003.59    26014.828   -8231.8108    684.76738   -8916.5782    0.1507672 
   19600     289.0905   -1095.8127     26038.33    -8240.798    688.51738   -8929.3154   0.15154298 
   19800    285.64163   -1017.1914    26034.583   -8244.8722     680.3033   -8925.1755   0.14406907 
   20000    285.04608   -873.91871    26015.801   -8239.6771     678.8849    -8918.562   0.14468678 
   20200    292.88112   -1100.8637    26027.783    -8248.179    697.54536   -8945.7244    0.1512665 
   20400     291.3736   -958.63407    26029.245   -8247.1328    693.95494   -8941.0877   0.14473375 
   20600    285.56506    -1009.615    26026.741   -8240.4474    680.12095   -8920.5684   0.14802635 
   20800    293.16915   -957.90268    26026.191   -8232.0353    698.23136   -8930.2667   0.14821006 
   21000    294.51799   -1013.1472     26029.39   -8242.0754    701.44385   -8943.5193    0.1399475 
   21200    289.62971    -1043.881    26031.017   -8233.8489    689.80159   -8923.6505   0.14798359 
   21400    291.86425   -958.85682     26024.04   -8231.5473    695.12351   -8926.6708   0.14383749 
   21600    307.93758   -1031.4115    26028.186   -8224.1872    733.40484   -8957.5921   0.14513631 
   21800    297.55461    -1053.696    26044.461   -8213.8837    708.67605   -8922.5598   0.14470057 
   22000    291.04916   -1066.7388    26045.713   -8212.1885    693.18224   -8905.3707    0.1470256 
   22200    288.00368    -898.6146    26027.817   -8197.8214    685.92894   -8883.7504   0.14838274 
   22400    303.34919   -1086.6678    26044.491   -8193.2703    722.47683   -8915.7472   0.14680306 
   22600    311.68551   -1027.1037    26066.422   -8195.7563    742.33118   -8938.0875   0.13550442 
   22800    292.92029   -1042.7912    26058.217   -8200.6387    697.63865   -8898.2774   0.15336564 
   23000    300.63629   -869.08289    26031.088   -8204.1116    716.01561   -8920.1272   0.14698592 
   23200     296.3242   -942.01754    26032.063   -8199.3992    705.74563   -8905.1448    0.1511095 
   23400    297.61116   -1029.1439    26056.597   -8205.8988    708.81074   -8914.7096   0.14330265 
   23600    305.23114   -1136.4374    26047.816   -8212.2625    726.95901   -8939.2215   0.15266414 
   23800    302.69392   -916.35052    26021.079   -8197.0503    720.91619   -8917.9665   0.14538399 
   24000    303.55851   -1007.9241     26042.34   -8214.6035    722.97535   -8937.5788    0.1457186 
   24200    304.21804   -1119.3907    26070.718   -8204.6054    724.54614   -8929.1516   0.15051262 
   24400    288.65767   -1116.6827    26036.545   -8219.1931    687.48652   -8906.6796   0.15295314 
   24600    294.15267    -840.9761    25986.029   -8212.7076    700.57377   -8913.2814   0.14857525 
   24800     309.3377   -1007.6626    26048.525   -8180.9407    736.73946   -8917.6801   0.14813032 
   25000    304.84573   -1293.9758     26125.04    -8185.848    726.04108   -8911.8891   0.14928174 
   25200    306.85803   -953.20644    26039.853   -8198.9418    730.83372   -8929.7756   0.13990137 
   25400    299.53516   -608.25675    25959.527   -8211.3937    713.39308   -8924.7868   0.14584428 
   25600    294.27192   -1170.1585    26067.057   -8245.3151     700.8578   -8946.1729   0.14554089 
   25800    301.74972   -1268.6745    26131.391   -8243.9099    718.66743   -8962.5773   0.12695963 
   26000    286.68116   -893.15766    25997.442   -8247.2211    682.77912   -8930.0002   0.13952717 
   26200    278.33432   -631.02388    25916.799   -8266.3771    662.89974   -8929.2769   0.14658615 
   26400    285.44769   -1211.1003     26059.28   -8270.9767    679.84142   -8950.8181   0.14718291 
   26600    290.08804   -1531.2284     26136.07   -8265.9526    690.89318   -8956.8458   0.14799343 
   26800    290.78806   -811.88374    25970.037   -8272.7697    692.56039   -8965.3301   0.14452959 
   27000     287.7764   -476.45533    25887.451   -8269.4725    685.38763   -8954.8601   0.14155822 
   27200    292.77411   -1262.4466    26081.012   -8254.1617     697.2905   -8951.4522     0.140625 
   27400    290.65045   -1718.6757    26148.951   -8247.4327    692.23266   -8939.6653   0.15484791 
   27600    293.35569   -562.20409    25916.799   -8247.2017    698.67563   -8945.8773     0.144844 
   27800    299.29425   -435.86922    25884.556    -8236.698     712.8193   -8949.5173   0.14106801 
   28000    297.68687   -1573.6676    26146.299   -8227.9114    708.99106   -8936.9025   0.14537384 
   28200    287.73705   -1644.3612    26162.198   -8235.1636    685.29391   -8920.4575   0.15872963 
   28400    300.29608   -298.67476    25886.727   -8226.4234    715.20532   -8941.6288    0.1299003 
   28600    294.40336   -481.65494    25891.774   -8234.8445    701.17082   -8936.0153   0.14417225 
   28800    298.43164    -1566.853    26171.101   -8237.7913    710.76486   -8948.5561   0.14005211 
   29000    290.39748   -1489.0606    26128.753   -8257.9293    691.63016   -8949.5594   0.13884368 
   29200    298.35616   -197.55534    25840.565    -8270.652     710.5851   -8981.2371   0.12918023 
   29400    286.29678   -464.23816    25912.809   -8263.4961    681.86366   -8945.3597   0.13498928 
   29600    284.58977   -1757.9128    26211.717   -8248.4382    677.79812   -8926.2363    0.1455219 
   29800    293.08194   -1451.8537    26110.395   -8225.4538    698.02365   -8923.4774   0.14435782 
   30000    295.21279   -235.17938    25843.996   -8218.4953    703.09864    -8921.594   0.15270737 
   30200    307.10412   -765.69249     25984.56   -8220.3455    731.41982   -8951.7653   0.13949805 
   30400    295.96507   -1839.8103    26220.211   -8237.1443    704.89031   -8942.0346    0.1393282 
   30600    308.53646   -1032.5045    26058.095   -8215.7768    734.83118   -8950.6079   0.13812348 
   30800    302.74903   -204.15229    25868.807    -8196.367    721.04743   -8917.4144   0.14518222 
   31000    306.37919   -1014.6706    26050.883   -8206.1837    729.69328    -8935.877   0.13841823 
   31200    296.80771   -1616.0385    26206.262   -8191.7733    706.89719   -8898.6705   0.14549529 
   31400    311.87472   -1016.8127    26042.005   -8187.7144    742.78181   -8930.4962   0.15012626 
   31600    281.59693   -512.45164    25915.362   -8211.8893    670.67018   -8882.5594   0.14760884 
   31800    296.13866   -1024.0983    26063.323   -8209.0894    705.30373   -8914.3931   0.13621923 
   32000    291.13593   -1467.1996    26158.103   -8198.9492     693.3889   -8892.3381   0.14412273 
   32200    304.44184    -964.8892    26035.279   -8198.6868    725.07916    -8923.766   0.14014274 
   32400    297.28016     -585.084    25958.314   -8202.3722    708.02241   -8910.3946   0.13972037 
   32600    300.97115    -1205.649      26074.8   -8203.2674    716.81313   -8920.0805   0.14901177 
   32800    299.21677   -1298.1952    26129.392   -8197.3003    712.63478   -8909.9351   0.14446399 
   33000    311.41154   -953.78272    26027.473   -8191.5328    741.67866   -8933.2115     0.137541 
   33200    294.53966   -762.59572    25992.838   -8202.4682    701.49546   -8903.9636   0.14697556 
   33400    302.80385   -1030.0426    26078.498   -8181.6277      721.178   -8902.8057   0.14701603 
   33600    323.23192   -1143.2987    26117.193   -8149.7827    769.83087   -8919.6136   0.14156181 
   33800    306.38666   -949.50282    26044.409   -8163.7363    729.71107   -8893.4473   0.14643893 
   34000    302.61698   -675.34975    25993.307   -8180.9203    720.73295   -8901.6532   0.14801661 
   34200    283.71257   -1125.5267    26048.216   -8203.5081    675.70892    -8879.217   0.15244193 
   34400    305.70228   -1116.9183    26076.881   -8221.5161    728.08111   -8949.5973   0.12839597 
   34600    301.15984    -997.5369    26019.186   -8213.6889    717.26253   -8930.9514   0.14698958 
   34800    298.15012   -723.22165    25988.812   -8222.1189    710.09436   -8932.2133   0.14034848 
   35000    297.71381   -1046.9421    26051.747   -8219.9952    709.05523   -8929.0505   0.13507892 
   35200    293.78219   -1143.8603    26077.331   -8227.2235    699.69141   -8926.9149   0.13949452 
   35400    298.59877   -857.95907    26021.877   -8222.1338    711.16291   -8933.2967   0.13375353 
   35600    282.07647   -973.36922    25997.002   -8225.9875    671.81228   -8897.7998   0.15263209 
   35800    297.26602   -964.50725    26023.517   -8220.5009    707.98874   -8928.4897   0.14112142 
   36000    286.97082   -1080.2118    26057.192   -8216.0029    683.46899   -8899.4719   0.14988083 
   36200    296.83825   -1063.1013    26045.467   -8214.5018    706.96993   -8921.4717   0.14380083 
   36400    287.26817   -1026.5745    26011.001    -8227.555     684.1772   -8911.7322   0.16044604 
   36600    303.61225   -1015.9769    26019.999    -8214.783    723.10335   -8937.8863   0.14845548 
   36800    295.10372   -1109.3185    26058.746   -8207.4867    702.83885   -8910.3255   0.14733863 
   37000    312.23021   -975.26928    26044.641   -8216.7683    743.62846   -8960.3967   0.12665068 
   37200    297.14496   -963.95903    26004.102   -8202.1397    707.70041   -8909.8401   0.15321638 
   37400    296.28512   -914.30939    26019.017   -8200.8634    705.65255    -8906.516   0.14316831 
   37600    301.50693   -1145.1932    26074.996   -8197.4018    718.08918    -8915.491   0.14234386 
   37800    308.54048   -1105.1186    26061.035   -8185.2213    734.84074   -8920.0621   0.14842001 
   38000    317.66695   -870.13066    25995.492   -8202.5996    756.57697   -8959.1766   0.14594397 
   38200     303.1433    -950.6746    26004.754   -8204.7236    721.98646   -8926.7101   0.14796565 
   38400    308.27543   -1117.2602    26079.026   -8188.8755     734.2095    -8923.085   0.14045149 
   38600    309.22543   -1122.7747    26072.405   -8188.0963    736.47207   -8924.5684   0.14313678 
   38800    309.91584   -758.78911    25997.627   -8204.4461    738.11639   -8942.5625   0.13700319 
   39000    299.34517   -876.19692    26006.846   -8223.4269    712.94057   -8936.3675   0.13342104 
   39200    293.50632   -1191.9171     26071.37    -8225.674    699.03438   -8924.7084    0.1413797 
   39400    297.21367   -1085.3797    26059.259   -8227.4734    707.86407   -8935.3374   0.14659802 
   39600    293.21639   -737.76451    25987.762   -8252.9897    698.34387   -8951.3336   0.13486476 
   39800    297.41593   -860.16659    26003.106   -8241.7802    708.34577    -8950.126    0.1308433 
   40000    291.13216   -1300.7224    26093.421   -8238.2345    693.37991   -8931.6144   0.14546718 
   40200    286.76657   -1148.8453    26065.506    -8225.941    682.98254   -8908.9236   0.14900731 
   40400    290.61346   -725.57332    25961.288   -8221.2109    692.14455   -8913.3554   0.14257701 
   40600    286.34327   -909.08857    26009.675   -8236.0452    681.97437   -8918.0196   0.14260031 
   40800    289.98119   -1392.4222    26123.583   -8244.5251     690.6387   -8935.1638   0.13390404 
   41000    297.15858   -1029.4364     26057.24   -8247.0592    707.73284    -8954.792   0.13713781 
   41200    289.97345   -599.16763    25951.691   -8263.5457    690.62027    -8954.166   0.12788431 
   41400    298.32653   -923.72113    26034.194   -8256.4468    710.51452   -8966.9613   0.13403137 
   41600    300.95343   -1366.4516    26148.478   -8247.8483    716.77092   -8964.6192   0.13070183 
   41800    306.52555   -906.90564     26048.44   -8242.3771    730.04186   -8972.4189   0.12459001 
   42000    300.30695   -469.51774    25935.485   -8228.7962    715.23122   -8944.0274   0.12927686 
   42200    298.17611   -1151.5736    26059.027    -8241.645    710.15626   -8951.8012   0.13708293 
   42400    294.97935   -1457.3254    26149.275   -8257.8962    702.54264   -8960.4388   0.13286494 
   42600    284.73424    -848.2333     25980.21   -8265.5009    678.14221   -8943.6431   0.14112519 
   42800    287.75546   -501.73571    25891.868   -8283.2171    685.33775   -8968.5549   0.14171632 
   43000    287.84619   -1267.7836    26081.773   -8266.2463    685.55384   -8951.8001   0.13729299 
   43200     283.0955   -1573.6773    26159.488   -8266.9757    674.23928    -8941.215   0.14431494 
   43400    295.97208   -618.80124    25947.328    -8263.899      704.907    -8968.806   0.13273926 
   43600     286.5429   -471.56749    25893.238    -8269.354    682.44983   -8951.8038    0.1430035 
   43800    287.15853   -1520.8547    26118.151   -8259.6268    683.91605   -8943.5428   0.15364315 
   44000    292.15181   -1564.8146    26145.207   -8258.9307    695.80839   -8954.7391    0.1386711 
   44200     285.1526   -575.17442    25899.385   -8281.1316     679.1386   -8960.2702   0.13761445 
   44400    276.39119   -582.03664    25883.922   -8273.6949    658.27185   -8931.9668   0.15457243 
   44600    312.58284   -1360.5501    26129.418   -8239.8272     744.4683   -8984.2955   0.12933393 
   44800     289.2552   -1530.5419    26135.529   -8221.0615    688.90962   -8909.9711   0.15225299 
   45000    291.69267   -439.09104    25893.195   -8221.0629    694.71487   -8915.7777   0.14709533 
   45200    285.40533   -556.42388    25915.282   -8236.8275    679.74051    -8916.568   0.14599566 
   45400    295.66963    -1561.265    26157.508   -8255.0167    704.18668   -8959.2034   0.12630854 
   45600     293.4455    -1284.515    26106.284   -8254.7932    698.88953   -8953.6827   0.13851639 
   45800    299.50478   -277.90642    25866.876   -8245.0282    713.32072   -8958.3489   0.14223293 
   46000    296.13805   -694.10127    25943.499   -8238.4635    705.30229   -8943.7658    0.1445622 
   46200    291.64374   -1634.2053    26163.275   -8242.2243    694.59833   -8936.8226   0.13868666 
   46400    291.89831   -1275.9688    26060.043   -8245.8664    695.20464   -8941.0711   0.15783469 
   46600    290.46318   -402.62255    25873.469   -8250.1738    691.78664   -8941.9605   0.14531812 
   46800    292.76042    -885.2256    25992.729   -8236.0289    697.25791   -8933.2868   0.14133939 
   47000    299.47658   -1502.7894    26160.736   -8224.6298    713.25357   -8937.8833   0.14509788 
   47200    288.15522   -1094.1425    26049.823   -8226.7788    686.28984   -8913.0687   0.14984645 
   47400    295.65802    -544.3178    25924.789   -8198.4776    704.15901   -8902.6366   0.14480348 
   47600    302.96903   -1031.0795    26049.839   -8185.8294    721.57141   -8907.4008   0.14875211 
   47800    311.27914   -1407.3181     26139.65   -8175.2118    741.36333   -8916.5751   0.14709318 
   48000    317.68009   -865.34353    26021.125   -8167.7087    756.60825    -8924.317   0.14317445 
   48200    305.93745   -640.74201    25950.458   -8175.8471     728.6412   -8904.4883   0.14992942 
   48400    305.48953   -1034.9571    26034.825   -8167.4417     727.5744   -8895.0161   0.15788133 
   48600    296.65443   -1340.1444    26091.785   -8196.1045    706.53213   -8902.6367   0.15827873 
   48800    306.82258   -870.97846    26007.518    -8172.594    730.74929   -8903.3433   0.14350698 
   49000    310.25142   -863.39633    25973.703   -8166.5991    738.91564   -8905.5147    0.1585525 
   49200    312.19292    -1134.264    26049.562   -8175.2897    743.53965   -8918.8293   0.15924159 
   49400    301.87193   -1144.4249    26074.136    -8172.056    718.95849   -8891.0145   0.14560277 
   49600     301.7415   -859.33916    26004.518   -8183.7235    718.64785   -8902.3714   0.17105182 
   49800    309.39237   -935.39742     26015.82   -8168.4757    736.86966   -8905.3453   0.16123504 
   50000     307.9731   -1194.9124    26083.896   -8162.6941    733.48944   -8896.1836   0.16043844 
   50200    308.48502   -1156.9621     26054.42   -8204.6024    734.70865   -8939.3111   0.14392352 
   50400    294.87365   -749.06635    25957.956   -8196.3835    702.29091   -8898.6744   0.15211815 
   50600    300.39288   -1010.6646    25989.431   -8205.8564    715.43588   -8921.2923   0.16012898 
   50800    292.86147   -1326.7378    26068.525   -8207.5168    697.49856   -8905.0153   0.15402529 
   51000    301.17309   -1113.2237    26038.895    -8177.165    717.29409   -8894.4591   0.15968855 
   51200    305.04231   -846.67444    26000.056   -8184.1649    726.50926   -8910.6742   0.15152321 
   51400    306.59969   -1031.0114    26048.327   -8173.6328    730.21843   -8903.8513   0.13622909 
   51600     297.9654   -1148.3325    26082.851   -8178.8362    709.65444   -8888.4906   0.15171642 
   51800    306.17167   -953.80701    26024.019   -8165.0092    729.19903   -8894.2082   0.14977494 
   52000    311.18021   -754.99145    26004.453    -8152.358    741.12771   -8893.4857   0.14465313 
   52200    315.67832   -1161.9944    26069.939   -8161.0136     751.8407   -8912.8543   0.14636292 
   52400    294.12461    -1128.102    26060.987   -8163.6448    700.50695   -8864.1517   0.16226191 
   52600    309.20824   -837.80617     25996.31   -8164.9472    736.43114   -8901.3784   0.15369931 
   52800    312.51815   -875.13947    26019.727   -8170.2985    744.31423   -8914.6127   0.14286072 
   53000    290.31443     -1313.41    26081.537   -8168.3709    691.43237   -8859.8033   0.15618525 
   53200    302.14782   -1035.7805    26045.055   -8171.6768    719.61555   -8891.2923   0.15494775 
   53400    303.02438   -755.44988     25978.44   -8196.6115    721.70324   -8918.3148   0.13751137 
   53600    293.68132   -971.62143    26016.313   -8198.0728    699.45118    -8897.524   0.14594917 
   53800    295.78661    -1302.034    26086.577   -8209.2355    704.46528   -8913.7008    0.1522917 
   54000    303.48279   -965.52241    26027.744   -8206.3507    722.79502   -8929.1457   0.14178259 
   54200    302.41011   -710.38234    25954.973   -8209.0192    720.24024   -8929.2595   0.13688761 
   54400    300.10261   -1030.8792     26034.54   -8225.0796    714.74454   -8939.8241   0.13455278 
   54600    305.74674   -1446.3017     26122.68   -8214.5887    728.18698   -8942.7757   0.13864344 
   54800    293.60222   -914.57638    26029.663   -8198.4896    699.26278   -8897.7524    0.1418137 
   55000    304.10316   -601.75331    25937.022   -8198.0173    724.27253   -8922.2898   0.14028023 
   55200    290.93294   -1166.9937    26053.954   -8218.6796    692.90545   -8911.5851   0.14982902 
   55400    298.42408   -1432.3635    26147.914   -8217.5919    710.74685   -8928.3387   0.13057831 
   55600    298.17257   -886.33177     25991.01   -8226.5253    710.14785   -8936.6732   0.14173452 
   55800      298.449   -486.56226    25879.538   -8220.7635    710.80621   -8931.5697   0.14563433 
   56000    295.63511   -1145.9658    26066.986   -8210.1271    704.10445   -8914.2316   0.14123792 
   56200     292.7284   -1691.5923    26188.085   -8217.0328    697.18164   -8914.2144    0.1461935 
   56400    296.39678   -730.20758    25976.585   -8218.2243    705.91849   -8924.1428   0.14567587 
   56600    309.45735   -281.94182    25875.081    -8215.664    737.02442   -8952.6884   0.13488023 
   56800    296.51157   -1383.9076    26121.027   -8193.8333    706.19189   -8900.0252   0.14513162 
   57000    293.07769   -1668.6158    26205.599   -8179.4438    698.01352   -8877.4574   0.15387524 
   57200    294.21083   -662.53933    25940.027   -8203.5258    700.71229   -8904.2381   0.15477644 
   57400    302.63015   -421.18974    25877.302   -8213.6172    720.76432   -8934.3815   0.15130702 
   57600    297.84884     -1412.33    26147.175   -8190.9136    709.37683   -8900.2904   0.14759452 
   57800    295.08524   -1721.3795    26200.222   -8193.1722    702.79484    -8895.967   0.15309567 
   58000      310.461   -458.61172    25933.498   -8193.8849    739.41478   -8933.2996   0.13710131 
   58200    308.59495   -367.16195    25908.618   -8211.9343    734.97048   -8946.9048   0.13588416 
   58400    297.26598    -1586.775    26180.306    -8211.946    707.98864   -8919.9346   0.14689974 
   58600    295.31631   -1489.7664    26177.976   -8199.0325    703.34518   -8902.3777   0.14931194 
   58800    298.44327   -440.26836    25913.684   -8221.9029    710.79255   -8932.6955   0.13604702 
   59000    296.61584   -483.64723    25937.231   -8227.2778    706.44022    -8933.718   0.13224174 
   59200    287.06847   -1559.6393    26180.681   -8231.6034    683.70158    -8915.305   0.14664254 
   59400    288.64313   -1479.6237    26132.849   -8227.4407    687.45188   -8914.8926   0.14903589 
   59600    288.85704   -390.56701    25912.289   -8227.6144    687.96136   -8915.5758   0.13423468 
   59800    297.24375   -682.32467    25983.292   -8216.9519     707.9357   -8924.8876   0.13306543 
   60000    303.22257   -1565.2982    26176.196   -8207.6907    722.17525   -8929.8659   0.14074049 
   60200    312.40801   -1141.8182    26107.274   -8186.8033    744.05192   -8930.8552   0.12934935 
   60400    308.78084   -564.68237    25958.787   -8181.8837    735.41321   -8917.2969   0.14048657 
   60600    305.97795   -888.98188    26038.518   -8197.9008    728.73765   -8926.6385   0.13274552 
   60800    301.02407   -1320.9542    26151.854   -8165.1033    716.93916   -8882.0425   0.14968302 
   61000    309.86919   -1041.9379    26067.337   -8181.9156     738.0053   -8919.9209   0.13615371 
   61200    297.78263   -659.75186    25971.359   -8191.4209    709.21912     -8900.64   0.14425096 
   61400    298.39755   -992.94662    26054.667   -8192.8032    710.68366   -8903.4868   0.13746533 
   61600     300.5246    -1317.718      26139.1   -8180.2055    715.74959   -8895.9551   0.14645048 
   61800    292.83466   -976.39216    26054.062   -8175.5261    697.43471   -8872.9608   0.14760506 
   62000    305.80883   -588.32005     25981.49   -8180.7432    728.33487   -8909.0781   0.14569453 
   62200    305.30509   -1060.6592      26074.5   -8180.1073    727.13513   -8907.2424   0.14112258 
   62400    318.50925   -1242.3953    26144.143   -8164.8483    758.58304   -8923.4313   0.13846748 
   62600    308.88374   -913.14374    26046.112    -8179.035    735.65827   -8914.6932   0.14596297 
   62800    291.06341   -780.38824    25971.774   -8170.9327    693.21618   -8864.1488   0.15901553 
   63000    312.67898   -876.58983    26062.105   -8142.2447    744.69728    -8886.942   0.14030255 
   63200    315.55469   -1283.9599    26144.705   -8151.3145    751.54625   -8902.8608   0.14329582 
   63400     312.7571   -1009.5038    26056.651   -8138.7571    744.88333   -8883.6405   0.15042572 
   63600    295.38205   -695.58203    25985.566   -8128.7482    703.50175   -8832.2499   0.15823601 
   63800    296.88378   -1141.0397    26072.671   -8148.5647    707.07837   -8855.6431   0.15269875 
   64000    307.34841   -1276.5654    26125.907   -8146.2246    732.00163   -8878.2262   0.14685717 
   64200    312.08812   -979.81845    26036.355     -8151.58    743.29005     -8894.87   0.14595011 
   64400    316.49963   -689.13049    25981.035    -8149.568    753.79681   -8903.3648   0.14396482 
   64600    314.61131   -1038.0919    26069.855   -8173.0136    749.29944    -8922.313   0.13847766 
   64800    308.02814   -1308.3896    26114.311   -8177.3372    733.62053   -8910.9577   0.14600564 
   65000    296.09285   -823.33906    26036.082   -8172.9318    705.19464   -8878.1265    0.1390119 
   65200    296.34711   -823.69916    26010.757   -8186.2745    705.80021   -8892.0747   0.15690791 
   65400    309.47086   -978.84542    26069.656   -8190.6481    737.05661   -8927.7048   0.13643777 
   65600    297.61874   -1183.7036    26081.978   -8204.0913    708.82879   -8912.9201   0.14822922 
   65800    303.57137   -972.89684    26010.006   -8206.5404    723.00598   -8929.5464   0.14569191 
   66000    304.88419   -825.43965    26001.674   -8196.3932    726.13268   -8922.5259   0.14926395 
   66200    303.15798   -1093.6285    26086.969   -8213.5515    722.02142   -8935.5729   0.13748126 
   66400    310.85447   -1101.4312    26084.469    -8203.946    740.35191   -8944.2979   0.13809737 
   66600    293.41674   -890.46102    26007.028   -8229.1705    698.82103   -8927.9915    0.1403174 
   66800    289.36917   -837.97992    26010.226    -8219.054    689.18108   -8908.2351   0.15099989 
   67000    290.42738   -1078.4962    26079.498   -8201.2912    691.70137   -8892.9926   0.14757708 
   67200    297.30646   -1216.1948    26088.429   -8214.1304    708.08504   -8922.2154   0.14916505 
   67400    307.55212   -799.99061    26014.074   -8225.1324    732.48679   -8957.6192   0.12852617 
   67600    294.54049    -881.3525    26009.509   -8215.2057    701.49742   -8916.7031     0.152256 
   67800    295.58321   -1045.8969    26076.434   -8201.7652    703.98085   -8905.7461   0.14480685 
   68000    297.69066   -1020.5828    26081.939   -8187.4691    709.00008   -8896.4692   0.14195621 
   68200    297.66285   -874.41875    26037.692   -8201.5546    708.93387   -8910.4885   0.14154365 
   68400    299.40777   -914.76979    26047.838   -8202.4688    713.08968   -8915.5585   0.15434683 
   68600    293.88436    -1091.656    26087.058   -8195.6115    699.93475   -8895.5463   0.14747298 
   68800    301.81997   -1064.7957    26072.455   -8176.9793    718.83473   -8895.8141   0.15826728 
   69000    307.36112   -884.50702    26054.074   -8190.8341     732.0319    -8922.866   0.14317229 
   69200    302.43024    -1112.023    26076.902   -8192.4902     720.2882   -8912.7784   0.15045099 
   69400     291.2824   -1099.8377    26075.967   -8187.3926    693.73775   -8881.1303   0.14781326 
   69600    303.35973   -991.56339    26055.154   -8215.6574    722.50192   -8938.1593   0.13727448 
   69800    304.84449   -929.22289    26048.962   -8192.3081    726.03812   -8918.3462   0.14368839 
   70000     312.9317   -998.32083    26070.923   -8191.7054    745.29916   -8937.0045   0.13897334 
   70200    311.75563   -955.98387     26079.42    -8191.272    742.49816   -8933.7702   0.13205462 
   70400    303.71534   -1031.5413    26060.146   -8192.6132    723.34887    -8915.962   0.14846266 
   70600    306.11824   -722.38885     26031.34   -8193.2819    729.07177   -8922.3537   0.12976711 
   70800    300.10032   -934.07356    26063.106   -8194.6318    714.73909   -8909.3709   0.13986149 
   71000      296.234   -1212.8594    26089.721    -8218.911     705.5308   -8924.4418   0.13804787 
   71200    294.76642    -1023.622     26043.95   -8212.2616    702.03553   -8914.2971   0.14543898 
   71400    298.11321   -821.38169    26014.065   -8198.1246    710.00646   -8908.1311   0.13786391 
   71600    306.41264   -1020.6824     26070.75   -8183.7225    729.77295   -8913.4955   0.13839424 
   71800    299.59915   -1187.8372    26110.336   -8198.5326    713.54548   -8912.0781   0.14074964 
   72000    292.55907   -1010.5499    26048.147   -8204.5572    696.77835   -8901.3356   0.14362588 
   72200    296.58617   -778.56417     25999.38   -8225.3373    706.36957   -8931.7068   0.13074662 
   72400    300.49108   -1026.8212    26060.396   -8227.3637    715.66977   -8943.0335   0.13506822 
   72600    299.42918   -1244.8049    26105.146   -8215.2025    713.14067   -8928.3432   0.14308844 
   72800    296.50266    -992.1897    26020.753   -8249.9403    706.17068    -8956.111   0.13147183 
   73000    279.06899   -671.36603    25952.902   -8242.6888    664.64946   -8907.3382   0.14057532 
   73200    289.02845   -1049.3197    26055.355    -8247.657    688.36959   -8936.0266   0.13399558 
   73400     300.4016   -1369.1138    26128.341   -8247.5692    715.45665   -8963.0259   0.13224024 
   73600    297.82572   -841.03903    26000.103   -8240.3733    709.32176   -8949.6951    0.1349755 
   73800    302.85274   -534.69264    25941.453   -8242.9565    721.29445   -8964.2509   0.12719911 
   74000    284.25564   -1328.5573    26102.826   -8258.3083    677.00233   -8935.3107   0.14076083 
   74200    285.84996   -1422.1311    26142.615   -8265.4783    680.79949   -8946.2778   0.13329589 
   74400    294.63988   -519.82509    25942.569   -8256.0136    701.73416   -8957.7477   0.13187146 
   74600    285.57691   -539.64122    25919.892   -8262.8826    680.14917   -8943.0317   0.13726622 
   74800    287.08385    -1506.502    26154.248   -8256.1771    683.73819   -8939.9153   0.14047015 
   75000    298.40642   -1373.5949     26142.85   -8241.8576     710.7048   -8952.5624   0.13254662 
   75200    303.34477   -454.05912     25909.11   -8223.7011     722.4663   -8946.1674   0.14567343 
   75400    290.33493   -519.28506    25957.149   -8227.9884    691.48118   -8919.4696   0.12771493 
   75600     297.3586   -1688.3597    26214.919   -8207.3423    708.20924   -8915.5516   0.14309177 
   75800    301.18775   -1429.6717     26162.99   -8210.8822      717.329   -8928.2112   0.13177245 
   76000    300.38934   -342.17114    25915.284    -8205.677    715.42744   -8921.1045   0.13237986 
   76200    308.47275   -751.07808    25993.126   -8208.2423    734.67944   -8942.9218    0.1326766 
   76400      303.824    -1605.544    26221.677   -8190.0062    723.60766   -8913.6138   0.14205624 
   76600      288.841   -1248.2737    26108.802   -8192.1652    687.92313   -8880.0883   0.14177135 
   76800    309.91415    -240.8563    25886.387   -8196.6283    738.11238   -8934.7407   0.13629672 
   77000    292.64173   -927.81044    26025.614   -8191.7799    696.97522   -8888.7552   0.14624849 
   77200    295.48577    -1875.458    26229.397   -8205.5891    703.74878   -8909.3379   0.15532527 
   77400    293.71462   -967.67012    26053.228   -8203.6978    699.53048   -8903.2283   0.13588233 
   77600    303.57529   -229.64289    25857.101   -8216.0962    723.01532   -8939.1115   0.13201546 
   77800    299.24948   -977.18152    26043.217   -8218.0298    712.71268   -8930.7425    0.1379226 
   78000    302.50762   -1820.9219    26221.707    -8209.444    720.47247   -8929.9165   0.14855434 
   78200    298.82866   -942.31127    26018.548   -8211.0265    711.71042   -8922.7369   0.13749217 
   78400    291.95951   -368.68729    25863.025   -8224.5733    695.35039   -8919.9237   0.14437065 
   78600    291.58557   -1157.7196    26063.078   -8230.5941     694.4598   -8925.0539   0.14027536 
   78800    295.55594   -1654.7042    26193.875   -8221.3456    703.91591   -8925.2615   0.14036776 
   79000    303.11929   -821.20197    25986.134   -8221.8863    721.92929   -8943.8156   0.13458828 
   79200    298.05003   -530.78335    25891.196   -8227.2933    709.85599   -8937.1493   0.13582823 
   79400    291.27479   -1266.4976    26081.708   -8210.5573    693.71962   -8904.2769    0.1505241 
   79600    297.23358    -1440.391    26152.382   -8194.5828    707.91149   -8902.4943   0.13884004 
   79800    305.11265   -778.52034    25990.964   -8215.5998     726.6768   -8942.2766   0.13130785 
   80000    304.39337   -652.13434    25950.705   -8200.5597    724.96372   -8925.5234   0.14127069 
   80200    300.32818   -1227.1965    26094.211   -8185.1115    715.28179   -8900.3933   0.14750335 
   80400    310.73456   -1356.5063    26126.857   -8174.8521    740.06632   -8914.9184    0.1486432 
   80600     304.3609   -821.54401     26015.21   -8186.4818    724.88638   -8911.3682   0.14357283 
   80800    318.77767   -754.68994    25996.504   -8167.0175    759.22234   -8926.2398   0.13715301 
   81000    296.22436   -1235.0476    26094.379   -8178.0352    705.50784   -8883.5431   0.14861249 
   81200     298.8967    -1192.814    26093.893   -8172.7348    711.87246   -8884.6073   0.14801937 
   81400     308.7864   -763.40896    26010.227   -8163.8329    735.42644   -8899.2593   0.14198965 
   81600    309.95115   -847.83124    26023.513   -8163.9279    738.20049   -8902.1284   0.13727666 
   81800    311.90486   -1131.2419    26094.929   -8165.5798    742.85357   -8908.4334   0.13583151 
   82000     302.8183   -934.45642    26073.051   -8155.2597    721.21243   -8876.4722   0.14622284 
   82200    313.93367   -856.61615    26023.781   -8166.2135    747.68554    -8913.899   0.14067982 
   82400    306.96252   -957.00344     26040.02    -8163.981    731.08258   -8895.0635   0.14270301 
   82600    306.17374    -1086.034    26077.852   -8172.2371    729.20397    -8901.441   0.14276114 
   82800    304.21791   -1047.7652    26049.211   -8189.4352    724.54582    -8913.981    0.1426997 
   83000    292.66802   -852.52596    26004.385   -8190.0847    697.03783   -8887.1226   0.14258816 
   83200    297.62141   -960.09242    26045.212   -8197.9686    708.83517   -8906.8038   0.13304192 
   83400    293.70411   -1243.0632    26087.488   -8216.2373    699.50545   -8915.7427   0.14404902 
   83600    293.51694   -859.20994    26022.115   -8244.6361    699.05968   -8943.6957   0.13379423 
   83800    296.30207   -775.29351    25971.998   -8228.4798    705.69293   -8934.1727   0.13520055 
   84000    286.72313   -1031.1276    26042.398   -8240.1246    682.87909   -8923.0037      0.13969 
   84200    295.02443   -1243.9255    26089.295   -8224.0604    702.65002   -8926.7104   0.14097682 
   84400     290.2494   -962.07545    26006.115   -8234.4172    691.27748   -8925.6946   0.13983477 
   84600    294.49738   -768.10896    25990.498   -8233.2677    701.39476   -8934.6625     0.135104 
   84800    299.32968   -1166.7065    26086.325   -8223.4531    712.90368   -8936.3567   0.13681443 
   85000     298.6674   -1177.8338    26101.417   -8199.0179    711.32636   -8910.3443   0.13858945 
   85200    297.44615   -884.27522    26016.186   -8197.8537    708.41775   -8906.2714   0.13839883 
   85400    308.75579   -717.64797    26010.538   -8187.7119    735.35355   -8923.0655   0.13550776 
   85600    311.84607   -1110.3999    26111.211   -8202.6662    742.71356   -8945.3797   0.13005131 
   85800     308.7162     -1285.77    26113.261   -8209.0278    735.25925   -8944.2871   0.13024913 
   86000    303.62074   -693.14254    26007.347   -8187.1275    723.12357   -8910.2511   0.12883023 
   86200    302.55768    -845.8765    26028.035   -8181.0434    720.59171   -8901.6351   0.14325902 
   86400    307.77324   -1362.8175    26147.121    -8183.573    733.01343   -8916.5865   0.14000658 
   86600     314.1607   -1068.6658    26103.471   -8184.4257    748.22624    -8932.652   0.13317767 
   86800    299.46674   -670.13039    25972.786   -8195.0055    713.23012   -8908.2356   0.14110896 
   87000    294.89341   -866.80149    26013.264   -8219.3949    702.33797   -8921.7329   0.13798826 
   87200     293.3743   -1443.4063    26142.885   -8213.9248    698.71995   -8912.6447   0.14493253 
   87400    289.89862   -1151.2802    26086.715   -8202.9908    690.44205   -8893.4328   0.14319071 
   87600    314.79778    -617.3194    25947.851   -8211.4667    749.74355   -8961.2102   0.13747687 
   87800    300.03295   -847.88322    26030.494   -8211.0204    714.57865   -8925.5991   0.13368451 
   88000    294.07183   -1588.2058    26172.668   -8206.3336    700.38123   -8906.7148   0.14491727 
   88200    292.95934   -1027.6601    26076.174   -8204.9383    697.73167     -8902.67    0.1403523 
   88400    296.37175   -444.50633    25938.384   -8201.2138     705.8589   -8907.0727   0.14080547 
   88600    297.04203   -984.41399     26046.99   -8201.7261    707.45527   -8909.1813   0.14591918 
   88800    296.02363   -1559.2897    26176.919   -8194.6052    705.02978    -8899.635    0.1599559 
   89000    293.60567    -910.9221    26042.982   -8201.9596      699.271   -8901.2306   0.14340341 
   89200    301.94994   -356.99321    25925.599   -8186.6721    719.14428   -8905.8164   0.13550402 
   89400    319.89013    -1083.625    26082.679   -8174.0672    761.87184    -8935.939   0.13660132 
   89600    310.23736   -1515.7809    26177.551   -8166.0632    738.88215   -8904.9454   0.15329772 
   89800    302.20784   -852.38098    25995.976   -8195.0264    719.75851   -8914.7849   0.14045494 
   90000    309.11438   -356.96748    25898.007   -8174.1572    736.20759   -8910.3648   0.14173975 
   90200     296.6231   -1329.6773    26101.236   -8195.0553    706.45752   -8901.5128   0.14901245 
   90400    295.61139   -1513.9018    26175.122   -8203.4398    704.04797   -8907.4878   0.15161502 
   90600    308.58712   -672.89835    25941.958   -8207.4782    734.95182   -8942.4301   0.14433145 
   90800    300.46516   -407.62237    25879.678   -8208.5554    715.60802   -8924.1634   0.14863147 
   91000    296.07749   -1484.1708    26123.009   -8209.1415    705.15805   -8914.2995    0.1541915 
   91200    297.39085   -1545.8312     26169.34   -8203.1753    708.28604   -8911.4613   0.14840148 
   91400    285.29919   -588.34262    25931.096   -8210.2451    679.48773   -8889.7328   0.15037127 
   91600    293.58212   -485.62044    25909.095   -8209.9869     699.2149   -8909.2018   0.14963709 
   91800    306.98623   -1470.1821    26143.509    -8206.534    731.13906    -8937.673   0.13861699 
   92000    297.31802   -1501.0301    26138.726   -8205.2708    708.11258   -8913.3833   0.15466037 
   92200    301.70432   -385.03274    25900.349    -8228.174     718.5593   -8946.7333    0.1400268 
   92400    292.25598   -518.23554    25932.275   -8201.3602    696.05649   -8897.4166   0.14175744 
   92600    291.57994   -1589.3824    26183.695   -8217.9022    694.44639   -8912.3486   0.14721879 
   92800    301.82154   -1381.6739    26113.111   -8201.0568    718.83847   -8919.8953   0.15054357 
   93000    303.79832   -286.12793    25853.159   -8187.2335    723.54651     -8910.78   0.15170298 
   93200    303.74897   -766.59368    25961.689   -8183.3661    723.42896    -8906.795   0.14877908 
   93400    300.33685   -1754.8679    26207.021   -8178.4105    715.30244    -8893.713   0.15494623 
   93600     306.8232   -1207.8825    26092.184    -8170.167    730.75077   -8900.9177   0.15598303 
   93800     317.8364   -446.55936    25900.848    -8165.639    756.98054   -8922.6195   0.14203174 
   94000    299.77973   -903.47708    26025.462   -8167.1841    713.97557   -8881.1597   0.14837341 
   94200    296.89979   -1557.3153    26175.775   -8207.5655     707.1165    -8914.682   0.14908823 
   94400    296.32334   -955.62096    26046.698   -8200.5591    705.74358   -8906.3027   0.14385725 
   94600    300.00626   -572.88076    25941.317   -8227.8832    714.51508   -8942.3983   0.14200864 
   94800    296.40429   -1137.6627    26049.607   -8236.1616    705.93639   -8942.0979   0.14442105 
   95000    281.18417   -1378.1109    26108.982   -8238.5517    669.68712   -8908.2388   0.15011495 
   95200    297.49718    -896.5882    25991.842   -8249.3445    708.53929   -8957.8838   0.14008975 
   95400    282.99123   -720.42826    25935.564   -8264.0479    673.99094   -8938.0388   0.14656404 
   95600    300.74409   -1085.0045    26039.379   -8244.5578    716.27235   -8960.8302   0.14618964 
   95800    296.07788   -1240.7257    26087.119   -8239.9988    705.15899   -8945.1578   0.14282393 
   96000    299.75433   -860.67872    26005.212   -8230.7857    713.91506   -8944.7008   0.13961608 
   96200    306.47529   -777.65887    25979.319   -8230.9294    729.92216   -8960.8516   0.14184355 
   96400    287.12385   -1084.8024    26062.681   -8230.5497    683.83346   -8914.3831   0.14281728 
   96600    303.13765   -1171.8676    26079.928   -8216.5651      721.973   -8938.5381   0.13941174 
   96800    284.22416   -929.56027    26000.359   -8245.0188    676.92736   -8921.9462   0.14959772 
   97000    287.84142    -830.3945    25980.241     -8249.87    685.54249   -8935.4125   0.14180533 
   97200    292.29337   -1086.6786    26059.399   -8240.2455    696.14555   -8936.3911   0.13983486 
   97400     302.8141   -1188.1389    26083.504   -8223.9049    721.20241   -8945.1073   0.14169737 
   97600    309.31505   -972.87144    26010.107   -8205.6493    736.68551   -8942.3348   0.15447287 
   97800    301.61358   -864.67223    26001.865   -8196.2556    718.34318   -8914.5987   0.14775335 
   98000    299.69252   -969.67153    26076.348   -8195.8882    713.76785    -8909.656   0.13576177 
   98200     309.0525   -1227.8721    26086.496   -8201.3885    736.06022   -8937.4487   0.14613276 
   98400    304.45294   -896.88194    26015.343   -8177.8382    725.10559   -8902.9438   0.15255066 
   98600    300.21908   -870.12287    26025.292   -8199.5792    715.02195   -8914.6011   0.13615833 
   98800    312.90692   -1198.5105    26097.447   -8185.0409    745.24015    -8930.281   0.14321472 
   99000    307.56249   -1086.3951    26070.008   -8186.5511    732.51151   -8919.0626   0.14256649 
   99200    301.78916   -810.70768    25992.344   -8209.6349    718.76135   -8928.3962   0.14189523 
   99400    290.20039   -1036.3436    26024.053   -8253.6744    691.16076   -8944.8351   0.14507931 
   99600    291.72674   -1253.5488    26077.058   -8257.5017    694.79602   -8952.2978   0.14254131 
   99800    291.39007   -986.68298    26024.218   -8245.0812    693.99417   -8939.0754   0.13725151 
  100000     296.6664     -710.439    25975.128   -8251.3515    706.56064   -8957.9121   0.13734854 
  100200    290.50429   -1155.4964     26043.83    -8226.361    691.88455   -8918.2456   0.15097677 
  100400     291.9757   -1213.9676    26104.996   -8220.5622    695.38895   -8915.9512    0.1432446 
  100600    306.65964   -976.86305    26038.436   -8205.7378    730.36121    -8936.099   0.13672865 
  100800    302.29512   -697.11194    25973.029    -8215.713    719.96638   -8935.6794   0.13896043 
  101000    305.30906   -981.33941    26047.839   -8205.2448    727.14458   -8932.3894   0.14217095 
  101200     296.8395   -1277.3596    26125.269   -8196.9185    706.97291   -8903.8914   0.14049567 
  101400    303.62222   -952.37122    26040.063   -8208.1182    723.12709   -8931.2453   0.13944925 
  101600    294.57355   -549.02331     25944.22   -8222.5143    701.57616   -8924.0904   0.14327953 
  101800    303.34559   -1001.1031    26054.609   -8210.1704    722.46826   -8932.6386   0.13536075 
  102000    293.59365   -1534.6743     26167.41   -8205.5916    699.24237   -8904.8339   0.14751037 
  102200    299.71248   -930.94295    26028.064   -8203.6784     713.8154   -8917.4938   0.14452435 
  102400    302.53885   -480.32721    25918.444   -8187.5238    720.54687   -8908.0706   0.14600764 
  102600    307.87353   -1201.6312     26081.44    -8190.434    733.25231   -8923.6863   0.14816262 
  102800    293.29969   -1690.6257    26187.033   -8191.7443    698.54227   -8890.2865   0.15609481 
  103000    302.83428   -803.59657    26001.128   -8201.3984    721.25047   -8922.6488   0.13925798 
  103200    299.13564   -398.31348    25903.356   -8193.5084    712.44156     -8905.95   0.13860587 
  103400    301.83313   -1151.8872    26107.008    -8203.918    718.86608    -8922.784   0.13002879 
  103600    300.10596   -1635.5108    26186.804   -8209.8939    714.75253   -8924.6465   0.14485826 
  103800    301.87777   -615.11113    25968.696    -8206.698     718.9724   -8925.6704    0.1327193 
  104000    297.24652   -438.81276    25906.146   -8212.0334    707.94231   -8919.9757   0.13577071 
  104200    297.45248   -1367.5397    26141.584   -8219.5237    708.43283   -8927.9565   0.14207533 
  104400    315.24033   -1496.6029    26177.523    -8221.903    750.79757   -8972.7005   0.13042218 
  104600    298.89361   -494.65018    25941.705    -8226.351    711.86511   -8938.2161   0.12889819 
  104800    290.51668   -552.48829    25933.241   -8214.3256    691.91405   -8906.2397   0.13384393 
  105000     300.2449   -1558.3044    26174.137   -8214.8717    715.08344   -8929.9552   0.13943686 
  105200    308.44756   -1419.3076    26146.798   -8217.3412    734.61945   -8951.9606   0.13117035 
  105400    285.31787   -430.05656    25900.443   -8207.0355    679.53222   -8886.5677   0.13958461 
  105600    289.82546    -621.9781    25948.749   -8210.4346     690.2678   -8900.7024   0.14244506 
  105800    295.35983   -1717.4533    26196.607   -8208.5459    703.44882   -8911.9947   0.14219085 
  106000    306.56559   -1390.0394    26113.741   -8197.6483    730.13721   -8927.7855   0.14186549 
  106200    294.99379   -405.31722    25880.256   -8178.6939    702.57704   -8881.2709   0.15129757 
  106400     307.0003   -843.53904    26002.455   -8197.3295    731.17256    -8928.502   0.13696274 
  106600     289.3486   -1685.2841    26213.066   -8207.4524    689.13207   -8896.5844   0.13897331 
  106800    310.04927   -1046.8594    26072.241   -8215.5392    738.43419   -8953.9733   0.13222117 
  107000    304.07463   -343.43736    25900.753   -8200.2977    724.20458   -8924.5023   0.13583815 
  107200    297.31911   -956.95876    26061.293   -8193.5678    708.11518    -8901.683   0.13130047 
  107400     292.9162   -1594.0689    26204.396   -8197.8348    697.62891   -8895.4637   0.14391772 
  107600    305.16839   -928.43613    26050.796   -8180.5133    726.80956   -8907.3228   0.14268721 
  107800    300.73255   -502.77681    25936.408   -8198.0473    716.24486   -8914.2922   0.14151134 
  108000    299.30722   -1062.6078    26078.172   -8196.3082     712.8502   -8909.1584   0.13487951 
  108200    295.71233   -1530.7375    26167.898   -8210.4151    704.28836   -8914.7034   0.14427169 
  108400    297.82218   -856.38393    26022.647   -8202.3135    709.31332   -8911.6268   0.14127116 
  108600    301.28856   -646.86743    25962.248   -8196.3146    717.56909   -8913.8837   0.14124836 
  108800    302.13089   -1132.0041      26087.5   -8197.6641    719.57524   -8917.2393   0.13791147 
  109000    297.03687   -1301.0545    26110.071   -8214.9903    707.44299   -8922.4333   0.14556223 
  109200    309.55462   -771.52576    25996.605   -8221.9783     737.2561   -8959.2344   0.12703877 
  109400    301.15833   -691.64556    25981.275   -8223.9521    717.25892    -8941.211   0.13162205 
  109600    306.65963   -1140.9048    26095.805   -8199.7409    730.36118   -8930.1021   0.13498125 
  109800    305.64711   -1291.5337     26107.53   -8217.9683     727.9497    -8945.918   0.13898957 
  110000    305.37249    -863.3072    26002.979   -8187.1614    727.29564   -8914.4571   0.14310067 
  110200    308.55416   -781.46787    26013.336   -8182.4074    734.87334   -8917.2807   0.13942953 
  110400    290.34891   -1315.2634    26114.234   -8196.3447    691.51448   -8887.8592   0.14968547 
  110600    291.73537   -1107.6372    26077.194   -8216.2089    694.81657   -8911.0254   0.13632146 
  110800    305.55669   -727.29059    25977.926   -8220.1919    727.73435   -8947.9263   0.13139009 
  111000    282.78306   -1001.9772    26016.914   -8217.2639    673.49515    -8890.759   0.15344415 
  111200    293.86709   -1218.2978    26098.496    -8213.245    699.89363   -8913.1386   0.14999456 
  111400    289.88768   -957.85002    26044.122   -8233.8514      690.416   -8924.2674   0.13791158 
  111600     288.5888   -713.78983    25964.254   -8247.2463    687.32248   -8934.5688   0.13555771 
  111800    294.95718   -949.16032    26003.425   -8250.4189    702.48986   -8952.9087   0.14107122 
  112000    289.96251   -1296.2796    26073.946   -8261.6748    690.59422    -8952.269   0.14237414 
  112200    284.71817        -1099    26018.823   -8253.0634    678.10393   -8931.1674   0.14225167 
  112400    288.81079   -786.71703    25970.398   -8246.3638     687.8512    -8934.215    0.1374754 
  112600    300.94893   -1102.4894    26040.086   -8236.8738    716.76021    -8953.634   0.13735157 
  112800     289.3518   -1279.0979    26077.974   -8241.9283    689.13971    -8931.068    0.1349473 
  113000    281.53953   -991.18329    25995.539   -8234.0434    670.53347   -8904.5769   0.14594983 
  113200    280.56251   -715.53733    25967.229   -8253.0701    668.20653   -8921.2766   0.13469285 
  113400    301.13903   -1098.0533    26061.576   -8230.0656    717.21296   -8947.2786   0.13079651 
  113600    291.79695   -1222.7851    26081.431   -8232.6225    694.96323   -8927.5857   0.14278801 
  113800    304.06501   -817.11097    25998.082   -8222.9305    724.18167   -8947.1122   0.13501307 
  114000     288.9963   -777.43121    25992.286   -8223.4071    688.29302   -8911.7002    0.1370597 
  114200    301.81057   -1121.7649    26083.476   -8231.2154    718.81234   -8950.0278   0.13852427 
  114400    299.20579   -1217.2344    26084.555     -8207.45    712.60862   -8920.0586   0.14825814 
  114600    317.48849   -756.87258    25996.282   -8200.9485    756.15194   -8957.1004   0.13660156 
  114800    304.01428   -920.31027    26016.945   -8192.5428    724.06085   -8916.6036   0.13975688 
  115000     297.8897   -1340.2496    26111.261   -8198.7583    709.47414   -8908.2324    0.1467611 
  115200    302.11059   -1126.3091     26083.88   -8210.0688    719.52688   -8929.5957   0.13785536 
  115400    300.02545   -719.70404    25970.051   -8216.4046    714.56079   -8930.9654   0.13651668 
  115600    308.02912   -810.81636    26003.955   -8202.9843    733.62286   -8936.6071   0.13075417 
  115800    298.49299   -1428.7255    26138.254   -8203.9758    710.91096   -8914.8868   0.14407892 
  116000     304.7123   -1060.7993    26079.507   -8200.8235     725.7233   -8926.5468   0.12934076 
  116200     300.9119   -557.51697    25935.624   -8212.1202      716.672   -8928.7922   0.13536534 
  116400    284.13149   -904.10056    26027.178   -8227.2681    676.70666   -8903.9748   0.13281211 
  116600    296.69931   -1376.4429    26186.007   -8236.6077    706.63901   -8943.2467    0.1276957 
  116800    307.26047   -1029.9757    26059.714   -8221.6593     731.7922   -8953.4515   0.12746483 
  117000    298.14136   -270.92657    25874.011    -8220.047    710.07351   -8930.1205   0.12661042 
  117200    304.00681   -1004.4296    26044.375   -8209.1585    724.04305   -8933.2015   0.13797671 
  117400    278.16379   -1936.9159    26247.884   -8216.1631    662.49357   -8878.6567   0.14977228 
  117600    300.23333   -890.55139    26028.424   -8223.1252    715.05587    -8938.181   0.13345601 
  117800    307.99102   -79.712178    25840.214   -8204.4353    733.53211   -8937.9674   0.13477055 
  118000    303.90713   -1216.9375    26105.325   -8196.8203    723.80566    -8920.626   0.14543866 
  118200    303.73628   -1865.1503    26272.209   -8189.6407    723.39875   -8913.0395   0.14201338 
  118400     304.5396   -673.42778    25979.042   -8221.2389    725.31199   -8946.5509    0.1291055 
  118600    302.51243   -43.252936    25825.596   -8233.4401    720.48393    -8953.924   0.13056508 
  118800    295.49606    -1278.746    26126.976   -8241.7039    703.77328   -8945.4772   0.12430419 
  119000    290.08084   -1810.4591     26241.38   -8235.6615    690.87603   -8926.5375   0.13611748 
  119200    292.18207   -535.88079      25936.8   -8231.2304    695.88047   -8927.1109   0.12771003 
  119400    290.06056   -252.95482    25854.624   -8256.4821    690.82774   -8947.3099   0.13098837 
  119600    294.72003   -1368.5372    26138.776   -8225.8815    701.92505   -8927.8065   0.13293966 
  119800    292.35856   -1617.0254    26199.561   -8218.0107     696.3008   -8914.3115   0.14175271 
  120000    289.73901   -606.69413     25937.35    -8234.423    690.06189   -8924.4849     0.144973 
  120200    300.20899   -366.16246    25910.931   -8231.3455    714.99791   -8946.3434   0.13095395 
  120400    301.58985   -1466.4162    26156.662   -8227.6326    718.28665   -8945.9192   0.13366865 
  120600    295.40643   -1541.3496    26141.337   -8231.4725    703.55981   -8935.0323   0.14182903 
  120800    291.24764   -542.87508    25927.793   -8227.4265    693.65497   -8921.0815   0.13698337 
  121000     293.4082   -789.14014    25970.504   -8220.9079    698.80069   -8919.7085   0.13497742 
  121200    303.84934   -1417.0282    26155.011   -8215.6171    723.66802   -8939.2851   0.13398052 
  121400    298.52672   -1252.8384    26099.294    -8217.928    710.99131   -8928.9193    0.1372537 
  121600     300.9054    -623.0991    25935.021   -8210.0033    716.65652   -8926.6598   0.13573589 
  121800    294.14779   -872.84193    25994.289   -8217.3512    700.56215   -8917.9134   0.14125186 
  122000    295.71899   -1422.7917    26130.713   -8214.4732    704.30422   -8918.7774   0.14985219 
  122200    298.25263   -1108.8728    26073.494   -8208.8828    710.33852   -8919.2213   0.14488974 
  122400    302.44151   -679.18276    25962.673   -8197.6614    720.31503   -8917.9764   0.13557824 
  122600     308.7231   -889.53246     26020.34   -8155.3267    735.27569   -8890.6024   0.15615867 
  122800    315.12655   -1261.8307    26129.044   -8165.3969    750.52657   -8915.9235   0.13487914 
  123000    311.38296     -1117.79    26074.207   -8174.3187    741.61059   -8915.9293   0.13995818 
  123200    297.14873   -772.93384    25974.745   -8201.7471     707.7094   -8909.4565   0.14437497 
  123400      288.848   -992.37635    26008.547   -8223.7709    687.93981   -8911.7107   0.14577528 
  123600    303.42835   -1163.0755    26077.682   -8214.8302    722.66535   -8937.4955   0.13473114 
  123800    317.11648   -1003.0001    26031.588   -8207.6675    755.26592   -8962.9335   0.13292962 
  124000     308.5902   -665.57868    25960.715   -8206.3419    734.95916    -8941.301     0.143434 
  124200    303.75084   -986.42228    26023.487   -8202.9567    723.43342   -8926.3901   0.14265917 
  124400    281.94491   -1291.0755    26088.979   -8208.1702    671.49895   -8879.6692   0.15255391 
  124600    299.31272   -1126.9299    26019.343   -8205.2334    712.86329   -8918.0967   0.15235265 
  124800    301.28759   -874.55796    25965.114   -8213.6087    717.56679   -8931.1755   0.14975562 
  125000    312.45954   -972.01803    26035.528   -8211.9966    744.17464   -8956.1712   0.12905949 
  125200    305.67601     -1153.91    26096.964   -8209.0445    728.01853    -8937.063   0.13120915 
  125400    294.55497   -1066.4622     26037.72   -8232.6938    701.53192   -8934.2258   0.14149819 
  125600    301.78329   -740.03212    25964.869   -8232.6843    718.74737   -8951.4316   0.13622154 
  125800    290.59761   -987.12733    26026.481     -8230.85     692.1068   -8922.9568   0.13644412 
  126000    293.77977   -1323.0277    26089.181   -8221.1701    699.68565   -8920.8557   0.14646711 
  126200     298.4579   -895.06943    26003.196   -8215.5245     710.8274   -8926.3518     0.144405 
  126400    293.91177   -752.93042      25944.4   -8229.3043    700.00002   -8929.3043   0.14493734 
  126600    301.61801   -1065.9941    26040.962   -8227.8496    718.35373   -8946.2033   0.14106445 
  126800    304.93682   -1360.4196    26116.558   -8217.6681    726.25802   -8943.9261   0.13987341 
  127000    293.33968   -926.87873    26008.804   -8233.8469    698.63751   -8932.4844   0.14125034 
  127200    282.50958   -562.76458    25916.432   -8246.9858    672.84381   -8919.8296   0.13575405 
  127400    303.59505   -1177.8667    26068.482   -8246.2348    723.06238   -8969.2972   0.13280197 
  127600    287.79473   -1587.8736    26174.088   -8252.2494    685.43128   -8937.6807   0.12807942 
  127800    292.88571   -782.80773    25984.345   -8238.4466    697.55629   -8936.0029   0.13960749 
  128000    287.81655   -280.22515    25881.223   -8250.8919    685.48325   -8936.3751   0.13076098 
  128200    291.09089   -1364.2949    26122.429   -8233.7241    693.28162   -8927.0058   0.13662894 
  128400    298.18974   -1708.5996    26220.281   -8242.7287    710.18872   -8952.9175   0.12847075 
  128600    285.62856   -548.09431    25946.726   -8250.5405    680.27218   -8930.8127   0.13365412 
  128800    291.53737   -290.35672    25856.689    -8268.676    694.34501    -8963.021   0.13256315 
  129000    285.49149   -1472.3089    26139.409   -8281.7058    679.94572   -8961.6515   0.12771912 
  129200    283.36419   -1712.8819      26198.1    -8267.516    674.87921   -8942.3952   0.13432331 
  129400    290.37673   -550.53069    25904.237   -8274.2359    691.58074   -8965.8166   0.13171838 
  129600    283.33134   -299.82555    25884.035   -8277.0691    674.80098     -8951.87   0.12520286 
  129800      291.248   -1629.0194    26194.498   -8271.8754    693.65583   -8965.5313   0.12559343 
  130000    281.39323   -1609.4491    26178.741   -8286.3596    670.18504   -8956.5446    0.1294673 
  130200    287.58693   -227.04327    25863.042    -8289.629    684.93637   -8974.5653   0.12305448 
  130400    286.91352   -429.32156    25904.588   -8285.0224    683.33252   -8968.3549   0.12581556 
  130600    288.01498   -1698.1885    26200.382    -8259.617    685.95583   -8945.5728   0.13952485 
  130800    294.64357   -1471.9955    26131.561   -8251.1147    701.74292   -8952.8577    0.1332813 
  131000    282.59593   -409.16036    25874.115   -8264.5243    673.04946   -8937.5738   0.13491748 
  131200    298.34447   -619.09976    25963.616   -8250.8504    710.55725   -8961.4077   0.12594584 
  131400    283.38177   -1670.8351    26195.941   -8254.2007    674.92108   -8929.1218   0.13417015 
  131600    293.24272   -1170.2212    26089.169   -8251.3242    698.40658   -8949.7307     0.128716 
  131800    280.22178   -441.32909    25885.407   -8245.7617    667.39503   -8913.1567   0.13848199 
  132000    291.06382   -910.56372    26000.211   -8224.7651    693.21715   -8917.9822   0.14415579 
  132200    306.29165   -1535.5403    26184.463   -8231.3993    729.48478   -8960.8841   0.13030336 
  132400    302.15897   -1077.7344    26072.498   -8230.8909    719.64213    -8950.533   0.13818146 
  132600    299.44002   -358.83681     25917.18   -8212.8785    713.16649    -8926.045   0.13178437 
  132800    292.62335   -1123.4764    26039.392   -8200.7817    696.93144   -8897.7132   0.15266628 
  133000    288.04886   -1520.2444    26177.469   -8195.1878    686.03652   -8881.2243   0.14256954 
  133200    296.16056   -1008.8521    26056.387   -8191.3602     705.3559   -8896.7161   0.14484314 
  133400    304.08864    -557.6108    25934.914   -8178.3194    724.23795   -8902.5573   0.13985547 
  133600    303.52612   -1067.4025    26055.606   -8176.4352    722.89821   -8899.3334   0.14626206 
  133800    292.16945   -1502.7873    26159.373   -8188.3963    695.85041   -8884.2467   0.14866462 
  134000    308.05088   -951.14194    26035.158    -8169.914    733.67469   -8903.5886   0.14692051 
  134200    318.90223   -501.17874    25949.303   -8178.2527    759.51898   -8937.7717   0.13320881 
  134400    308.24652   -1200.5073    26072.523   -8181.4122    734.14063   -8915.5528   0.14659182 
  134600     295.6784   -1379.7337    26113.885   -8195.0953    704.20756   -8899.3029   0.14724805 
  134800    288.42506   -935.40376    25973.178   -8212.9815    686.93251    -8899.914   0.15497157 
  135000    300.18045   -760.49312    25936.289   -8233.8439    714.92995   -8948.7739   0.14064331 
  135200    298.95961   -1244.7497    26065.068   -8225.7714    712.02231   -8937.7937   0.14559316 
  135400     296.4674   -1366.8531    26095.563   -8236.7358    706.08668   -8942.8225   0.14348877 
  135600    311.32251   -736.08023    25978.281   -8223.2179    741.46662   -8964.6845   0.13415481 
  135800    289.57257   -785.59126     25962.15   -8250.2286     689.6655   -8939.8941   0.13734505 
  136000    281.70313   -1199.9598    26083.286   -8259.5058    670.92311   -8930.4289   0.13376135 
  136200    288.69291   -1186.3996    26081.716    -8258.721    687.57045   -8946.2914   0.13454015 
  136400    292.90675   -727.39267    25965.172   -8246.8203    697.60642   -8944.4267   0.13516305 
  136600    302.50277   -901.08071    26003.358    -8228.502    720.46093   -8948.9629   0.13830799 
  136800    302.51297   -1278.7274    26131.241   -8224.9311    720.48523   -8945.4164   0.13196126 
  137000    293.46261   -1285.8286    26075.271   -8231.8388    698.93029   -8930.7691    0.1429026 
  137200    296.84183   -562.89453    25929.493   -8243.8692    706.97847   -8950.8476    0.1337247 
  137400    287.99529   -952.36604    25993.746   -8230.0179    685.90894   -8915.9268   0.14714096 
  137600     290.3804   -1477.0324    26135.419   -8222.1417    691.58948   -8913.7311   0.14339078 
  137800    291.99397   -1127.1243    26055.721   -8204.3249    695.43248   -8899.7574   0.14063384 
  138000    294.31134   -592.55893    25925.767    -8204.431    700.95167   -8905.3827   0.14935052 
  138200    302.67638   -927.47319    26023.087   -8222.2674    720.87442   -8943.1418   0.13692044 
  138400    294.64683   -1503.9476    26155.506   -8209.4076     701.7507   -8911.1583   0.14362672 
  138600    306.15431    -1014.193    26042.497   -8228.3533    729.15768    -8957.511   0.13087495 
  138800    305.83736   -446.55072     25911.85   -8211.1745    728.40282   -8939.5773   0.13712808 
  139000    297.31116   -1006.7106     26072.66   -8218.9277    708.09625   -8927.0239   0.13436648 
  139200    288.85182   -1739.9471    26214.113   -8216.3966    687.94891   -8904.3455   0.14060483 
  139400    284.43559   -862.46872    25994.246   -8216.0097    677.43093   -8893.4406   0.14871209 
  139600    292.79393   -121.38541    25839.856   -8214.2451    697.33772   -8911.5828   0.14388459 
  139800    294.45403   -1415.0006    26124.157   -8205.1635    701.29151    -8906.455   0.14430583 
  140000    296.93562   -2004.5153    26268.428   -8191.0211    707.20183    -8898.223    0.1554902 
  140200    302.62432   -460.45648    25929.573   -8202.5814    720.75042   -8923.3318   0.13778407 
  140400    310.08454    7.3450647    25808.953   -8219.3007    738.51818   -8957.8188    0.1342343 
  140600     286.9484   -1556.8964    26176.843   -8226.5702    683.41559   -8909.9858   0.14420495 
  140800    299.33585   -1900.0605    26263.592    -8206.365    712.91838   -8919.2834   0.15350501 
  141000    304.77814   -311.84623    25887.749    -8223.318    725.88012   -8949.1981    0.1372413 
  141200    303.91953   -138.31635    25848.902    -8219.238    723.83519   -8943.0732   0.14192266 
  141400    300.68793   -1691.8455    26219.273   -8209.1967     716.1386   -8925.3353   0.14352046 
  141600    297.85594   -1750.4337    26217.656   -8197.5269    709.39374   -8906.9206   0.15186913 
  141800    296.41522    -254.2494    25877.103    -8223.612    705.96241   -8929.5744   0.13753004 
  142000    297.86269   -410.41228    25908.231   -8225.3951    709.40981   -8934.8049   0.13714447 
  142200    295.53024   -1739.2316    26196.958    -8217.688    703.85468   -8921.5427   0.14842799 
  142400    302.48198   -1472.0313    26133.434   -8228.6667    720.41143   -8949.0782    0.1455298 
  142600    288.67008   -338.09798    25885.294   -8230.9284    687.51607   -8918.4445   0.14189732 
  142800    288.87603   -755.30832    25973.706    -8233.037    688.00657   -8921.0436   0.14779532 
  143000    287.84024   -1693.3407    26171.863    -8234.669    685.53966   -8920.2087   0.14734922 
  143200    293.27366   -1115.1295     26066.87   -8241.3871    698.48027   -8939.8674    0.1385452 
  143400    292.12359   -442.11737    25904.309   -8231.3123    695.74119   -8927.0535   0.14310706 
  143600    302.72678   -1021.0044    26010.474   -8219.0671    720.99445   -8940.0615   0.14660267 
  143800    297.27447   -1422.9619    26138.364   -8213.2095    708.00886   -8921.2184   0.14291662 
  144000    291.96061   -1000.3718    26039.754   -8224.0333    695.35301   -8919.3863   0.14018492 
  144200    301.78377   -509.57168    25936.985    -8212.764    718.74851   -8931.5125   0.14366483 
  144400    290.31742   -1138.0445    26050.688   -8207.5308    691.43949   -8898.9703   0.15833986 
  144600    301.50679   -1374.5966    26145.619   -8200.1068    718.08884   -8918.1956   0.13827568 
  144800    301.47779   -952.94526    26048.268   -8197.3296    718.01978   -8915.3493   0.14344539 
  145000     295.8848    -546.8935     25964.56   -8223.9057    704.69914   -8928.6049   0.13296689 
  145200    302.89023   -1043.2617    26055.868   -8213.8089    721.38373   -8935.1926   0.13700349 
  145400     301.0957   -1325.5452    26125.752   -8208.7441    717.10976   -8925.8539   0.14249905 
  145600    289.65064   -931.11797    26044.022    -8209.047    689.85144   -8898.8984   0.14747705 
  145800    289.13195   -815.01568     25992.81   -8227.1409    688.61608    -8915.757   0.14476191 
  146000    284.68876   -1055.1232    26062.718   -8217.5902    678.03388   -8895.6241   0.15335733 
  146200    285.65156   -1297.7255    26111.005   -8223.3675    680.32697   -8903.6945   0.14912795 
  146400    298.12336   -917.41059    26040.776   -8229.6156    710.03063   -8939.6462   0.14801912 
  146600    299.83516   -748.70479     25998.31   -8207.5606    714.10758   -8921.6682   0.13925583 
  146800     308.6307   -1106.8224    26088.886   -8180.0102    735.05562   -8915.0659   0.14934186 
  147000    306.74328   -1340.6371    26131.059   -8167.5133    730.56041   -8898.0737   0.14911855 
  147200    308.84412   -926.76103    26037.408    -8172.624    735.56391   -8908.1879   0.14259377 
  147400    302.42977   -765.73686    26003.833   -8197.6654    720.28706   -8917.9525    0.1341365 
  147600    292.66399   -1232.1974    26092.165   -8214.3409    697.02823   -8911.3691   0.15272745 
  147800    294.25252   -1097.8048    26082.096   -8220.5833    700.81159   -8921.3949   0.14133543 
  148000    294.81888   -749.01588    25973.073   -8232.6323    702.16046   -8934.7928   0.14291911 
  148200    305.05353   -834.11434    25993.341   -8227.8505    726.53601   -8954.3865   0.14150573 
  148400       296.14   -1440.6693    26105.157   -8232.4999    705.30694   -8937.8069   0.15947727 
  148600    303.07857   -1153.6898    26049.178   -8239.1343    721.83229   -8960.9666   0.14725604 
  148800    298.29064   -571.19676    25908.765   -8243.3632    710.42905   -8953.7922   0.14060861 
  149000    291.13765   -897.03627    25988.376   -8234.2411      693.393   -8927.6341   0.14875016 
  149200    295.87671   -1568.3023    26165.781   -8236.2493    704.67987   -8940.9292   0.14517566 
  149400    293.02676   -1077.8811    26040.206   -8247.5466    697.89224   -8945.4388   0.13493256 
  149600    296.27095   -236.83055    25821.968   -8246.4998    705.61881   -8952.1186   0.14521333 
  149800    289.47988   -1072.0239    26003.483   -8241.3723    689.44475    -8930.817   0.14577318 
  150000    294.15008   -2069.2162    26252.924   -8225.1559    700.56762   -8925.7235   0.15621341 
  150200    297.45517   -1000.4757    26009.358   -8194.2371    708.43923   -8902.6763   0.15633646 
  150400    296.42361    205.44947    25757.078   -8183.0615     705.9824   -8889.0438   0.15476307 
  150600    307.83123   -1175.8709    26068.026   -8205.1928    733.15156   -8938.3444   0.14886067 
  150800    307.99321   -2264.1189    26319.661   -8197.3619    733.53733   -8930.8992   0.15597409 
  151000     300.4427   -808.70623     25963.73   -8203.8593    715.55453   -8919.4138   0.14511551 
  151200    296.17859    154.96272    25747.165   -8222.4466    705.39884   -8927.8454   0.15188099 
  151400    306.71409   -1285.2209    26113.559   -8180.2592    730.49091   -8910.7501   0.15135109 
  151600    301.57741    -2108.721    26305.422   -8157.1031    718.25704   -8875.3601   0.16707385 
  151800    300.56233   -669.50527    25960.983   -8178.7117    715.83944   -8894.5512   0.15429215 
  152000    316.20534    28.430725    25809.561   -8177.9297    753.09591   -8931.0256   0.14509518 
  152200    296.86134   -1326.2105    26118.278   -8184.3024    707.02493   -8891.3274   0.15909244 
  152400    289.65362   -1747.5231    26224.823   -8188.3535    689.85854    -8878.212   0.15857386 
  152600    302.33421   -623.09808    25948.503   -8201.8043    720.05947   -8921.8637   0.14444934 
  152800    315.88244   -182.80084    25877.485   -8163.2715    752.32685   -8915.5984   0.14779751 
  153000     313.4641    -1336.767    26137.564   -8173.1422    746.56717   -8919.7093   0.14200153 
  153200    302.50572   -1575.4603     26171.75   -8168.5892    720.46796   -8889.0572   0.15961946 
  153400    311.61303   -518.07062    25941.693   -8166.5755    742.15855    -8908.734    0.1392913 
  153600    301.28766   -551.68325    25945.385   -8169.9702    717.56694   -8887.5371   0.14920295 
  153800    316.08923   -1403.6146    26160.073   -8175.6186    752.81937   -8928.4379   0.14239903 
  154000    306.36777   -1353.4822    26139.744   -8182.8141    729.66607   -8912.4802   0.14132647 
  154200    311.74047     -591.525    25953.966   -8191.7256    742.46205   -8934.1876   0.13949141 
  154400    303.82405   -674.16362    25990.876   -8166.0259    723.60779   -8889.6337   0.14960893 
  154600     310.9093   -1494.2473     26174.25   -8175.9196     740.4825   -8916.4021   0.14283055 
  154800    301.27074   -1299.8523    26131.652   -8191.7402    717.52665   -8909.2668   0.14728758 
  155000     303.1852   -495.11335    25948.176   -8188.2392    722.08626   -8910.3255    0.1392591 
[...]
  163200     306.0096   -1202.2637    26096.633   -8216.6788    728.81304   -8945.4918   0.13540312 
  163400    294.95956   -1027.0428     26028.44   -8234.6634    702.49551   -8937.1589   0.14149075 
  163600    297.78713    -741.0621    25968.434   -8236.9258    709.22984   -8946.1556   0.13773201 
  163800    293.50621   -1049.7252    26040.725   -8244.9664    699.03412   -8944.0005   0.13945961 
  164000    291.18085    -1226.051    26093.487   -8250.7946    693.49588   -8944.2904   0.13365331 
  164200    276.59604   -871.70078    26017.059   -8249.7785    658.75971   -8908.5382   0.13866966 
  164400    300.10497   -780.25855    25987.354   -8240.0461    714.75016   -8954.7963   0.13241019 
  164600    281.35224   -1145.4319    26072.165   -8228.3712    670.08742   -8898.4586   0.14383832 
  164800    289.60264   -1263.8487    26095.906    -8237.938    689.73711   -8927.6751   0.14279777 
  165000    293.50183   -908.52368    25995.986   -8238.4918    699.02368   -8937.5155   0.14375379 
  165200    296.48443   -735.09634    25972.672   -8241.6658    706.12726    -8947.793   0.13398948 
  165400    312.76975   -1141.2455    26086.161   -8231.8374    744.91346   -8976.7509   0.13572141 
  165600    299.72803   -1345.8879    26106.586   -8225.3996    713.85242    -8939.252    0.1467469 
  165800    299.27407   -689.30151    25989.259   -8233.4747    712.77125    -8946.246   0.12695522 
  166000    287.40613   -743.09723    25989.567   -8223.8096    684.50575   -8908.3153   0.13595735 
  166200    284.92133   -1358.9719    26128.544   -8238.5916     678.5878   -8917.1794   0.14633568 
  166400     293.8062    -1307.136    26104.242   -8215.0888    699.74861   -8914.8374   0.14730346 
  166600     298.9713   -644.24842    25943.328   -8230.6845    712.05015   -8942.7347   0.13742188 
  166800    294.18703   -654.32833    25972.516   -8262.0313     700.6556   -8962.6869   0.12827115 
  167000    289.50683   -1506.5856    26144.472   -8258.6389    689.50892   -8948.1478    0.1504076 
  167200    288.82196   -1248.4396    26093.401   -8241.0119     687.8778   -8928.8897   0.13820491 
  167400    288.23972   -427.46251     25898.47   -8245.3541    686.49109   -8931.8452   0.14228575 
  167600    299.46432   -816.88606    25969.704   -8236.1471    713.22436   -8949.3715   0.14328892 
  167800    292.79876   -1711.6541    26190.347   -8262.0949    697.34921   -8959.4441   0.13888559 
  168000    294.69975   -1171.1921    26048.133   -8269.4893    701.87674    -8971.366    0.1327018 
  168200    283.61442   -140.93742    25806.981   -8267.5606    675.47518   -8943.0358   0.14394434 
  168400    293.06824   -850.83474    26000.616   -8255.3386    697.99103   -8953.3296   0.13793568 
  168600    297.41898   -2005.8929    26257.811   -8220.4234    708.35304   -8928.7764   0.15033059 
  168800    292.36721   -1045.0124    26022.458   -8256.7512    696.32141   -8953.0726   0.13618068 
  169000    289.61604    55.717512    25761.973   -8253.2424    689.76903   -8943.0114   0.14218924 
  169200     289.6038   -1109.5983    26032.331   -8259.0925    689.73989   -8948.8324   0.13606587 
  169400    291.68964   -2016.6455    26261.859   -8252.0725    694.70766   -8946.7801   0.13939362 
  169600    282.05256   -860.80529     25977.74   -8254.0522    671.75535   -8925.8075   0.14509473 
  169800    291.69542   -34.652183    25808.949    -8256.965    694.72141   -8951.6864   0.13149497 
  170000    290.55946   -1330.0167    26097.815   -8254.6301    692.01596    -8946.646    0.1350723 
  170200    283.24538   -1720.3162    26210.042    -8256.657    674.59625   -8931.2532   0.13963961 
  170400     298.8419   -513.04992    25930.548   -8263.9806    711.74197   -8975.7226   0.12327744 
  170600    295.69772   -260.23995    25870.345     -8261.13    704.25357   -8965.3836   0.12614237 
  170800    272.67816   -1550.6603    26148.872   -8256.4511    649.42863   -8905.8797   0.14425407 
  171000      294.465   -1603.2344    26166.598   -8251.2308    701.31764   -8952.5484   0.13736577 
  171200    296.57024   -393.69745    25906.661   -8259.0441    706.33162   -8965.3758   0.12536732 
  171400    292.70373   -551.52416    25929.631   -8254.0993    697.12289   -8951.2222   0.12990809 
  171600    292.05155   -1509.2602    26155.251    -8253.508     695.5696   -8949.0776    0.1348677 
  171800    290.32139   -1334.2441    26107.583   -8233.7582    691.44894   -8925.2072   0.14362877 
  172000     288.9742   -493.23155    25913.626   -8248.2879    688.24039   -8936.5283   0.13650759 
  172200    283.81255   -827.29164    25969.757   -8270.9198    675.94704   -8946.8668   0.13700061 
  172400    284.48248   -1473.8214    26132.749    -8241.349    677.54261   -8918.8916   0.14211021 
  172600    293.47307   -1238.6298    26071.316    -8234.069    698.95519   -8933.0242   0.14033821 
  172800    306.37177   -477.72257     25917.81   -8229.4823     729.6756   -8959.1579   0.13675708 
  173000    298.19321   -885.78253    25990.039   -8243.5518    710.19699   -8953.7488   0.14269263 
  173200    311.72628   -1375.9921    26118.437   -8240.1298    742.42827   -8982.5581   0.13546098 
  173400    289.92757   -1083.3046    26033.237   -8251.4696    690.51099   -8941.9806   0.14630325 
  173600    300.33912   -517.92868     25916.84   -8231.7149    715.30785   -8947.0227   0.13789711 
  173800    293.89445   -1044.3239     26019.18   -8222.3461    699.95879   -8922.3049   0.14760941 
  174000    300.46949   -1330.4337    26118.336   -8205.7677    715.61835   -8921.3861   0.14562126 
  174200    296.89359   -855.20229    26012.107   -8193.1608    707.10173   -8900.2626   0.14698241 
  174400     312.3667   -574.39013    25938.766   -8196.9548    743.95352   -8940.9083   0.14470453 
  174600    303.68491   -1101.2963    26051.911   -8196.6938    723.27639   -8919.9702   0.14462363 
  174800    299.54647   -1341.9337    26121.407   -8181.3881    713.42001   -8894.8081   0.14681379 
  175000    303.53833   -955.01275    26014.263   -8194.0823    722.92729   -8917.0096    0.1464395 
  175200    300.82496   -562.94557    25953.736   -8208.0637    716.46495   -8924.5286   0.13501706 
  175400    292.37126   -1222.3509     26072.71   -8224.3735    696.33104   -8920.7046   0.14605952 
  175600    295.73892   -1456.9208    26115.374   -8232.1466    704.35169   -8936.4983   0.14447489 
  175800    307.68396   -764.32108    25979.691   -8219.5142    732.80081    -8952.315    0.1368933 
  176000    308.11073   -662.99683    25941.744   -8214.2421    733.81722   -8948.0593   0.14171874 
  176200    311.63498   -1218.9692    26099.748   -8188.4029    742.21082   -8930.6137   0.14982922 
  176400    318.19899   -1468.4472    26146.322   -8196.4285    757.84411   -8954.2726   0.14163039 
  176600    304.75962   -659.75632    25968.472   -8202.2936      725.836   -8928.1296   0.14321705 
  176800    307.07711   -444.86905     25930.91   -8203.1247    731.35548   -8934.4801   0.13978544 
  177000    288.04802   -1397.6619     26135.02   -8198.8816    686.03453   -8884.9161   0.15774849 
  177200    312.59695     -1591.29    26163.333   -8191.1027    744.50191   -8935.6046   0.15048805 
  177400    297.85232   -559.81243    25951.571   -8213.1836    709.38512   -8922.5687   0.14358343 
  177600    303.59375   -441.60039    25944.715   -8205.4275    723.05929   -8928.4868   0.13187516 
  177800    300.90939   -1544.5686    26166.714   -8205.7535    716.66604   -8922.4196   0.14627856 
  178000    295.83707   -1451.4406    26139.316   -8207.5609    704.58546   -8912.1464   0.15025531 
  178200    293.03944   -373.43678    25909.101   -8199.3316    697.92243   -8897.2541   0.13938499 
  178400    286.25154   -709.49328     25955.63   -8214.6932    681.75591   -8896.4491   0.14144139 
  178600    300.81219   -1552.2809    26184.721   -8199.6418    716.43454   -8916.0764   0.15154264 
  178800    295.98438   -1349.9172    26117.066    -8194.623    704.93629   -8899.5593   0.15582992 
  179000     311.5482   -284.67808    25894.907   -8176.6801    742.00415   -8918.6842   0.13891192 
  179200    315.31991   -764.12102    25995.941   -8198.5326     750.9871   -8949.5197     0.136604 
  179400    303.40332   -1606.0281    26211.213   -8205.1542    722.60574   -8927.7599    0.1433529 
  179600     302.8898    -988.9921    26079.002   -8211.1842    721.38271   -8932.5669   0.12943511 
  179800    306.75075   -358.64142    25889.246   -8215.8517    730.57822   -8946.4299    0.1373809 
  180000    294.46587   -999.87068    26044.458   -8209.2272    701.31972   -8910.5469   0.14375307 
  180200    305.79095   -1689.3316    26216.418   -8195.6992    728.29229   -8923.9915   0.14669191 
  180400    304.88192     -1031.37    26036.115   -8189.4452    726.12728   -8915.5725   0.14296556 
  180600    313.81556   -249.68537    25882.942   -8196.1983    747.40424   -8943.6026    0.1394501 
  180800     294.0778   -1190.4806    26072.479   -8210.8279    700.39547   -8911.2233   0.14105718 
  181000    305.79984   -1676.3657    26209.671   -8204.3288    728.31345   -8932.6423   0.14415416 
  181200    298.16627   -938.01226    26021.237   -8214.1706    710.13283   -8924.3035   0.14069531 
  181400    296.85091   -512.93257    25906.249   -8226.0086    707.00008   -8933.0086   0.14375207 
  181600    291.30994   -1094.3742      26081.2   -8224.5967    693.80334      -8918.4     0.135487 
  181800    294.02045   -1603.1261    26166.923   -8223.6058    700.25888   -8923.8647   0.14300545 
  182000     296.8686   -852.78933    25989.303   -8217.5699    707.04222   -8924.6121   0.14472021 
  182200    293.07281   -545.72719    25933.817   -8222.7605    698.00191   -8920.7624    0.1434485 
  182400    303.64421   -1220.8992     26102.41   -8228.4126    723.17947   -8951.5921    0.1322048 
  182600    305.42202   -1359.7766    26124.458   -8215.6945    727.41361   -8943.1081   0.14175862 
  182800    299.22826   -784.95084    25972.729   -8203.1106    712.66215   -8915.7727   0.14520518 
  183000    294.31776   -726.53789     25968.43   -8199.5141    700.96697   -8900.4811   0.14250352 
  183200    302.56181   -1209.5874    26101.322   -8187.3815    720.60155   -8907.9831   0.14075562 
  183400    311.37707   -1278.7337    26096.259   -8195.9701    741.59657   -8937.5667   0.14948952 
  183600    295.94737   -766.97775    25981.587   -8213.4717    704.84814   -8918.3198   0.13576566 
  183800     292.9078   -891.56608     25998.78   -8225.0003    697.60892   -8922.6092   0.14082319 
  184000     291.1647   -1278.7183    26084.017    -8227.692    693.45743   -8921.1494   0.14676762 
  184200    305.94157   -1146.3338    26058.141   -8239.2751    728.65101   -8967.9261   0.13722219 
  184400    296.02434   -782.32385     25976.84   -8234.9141    705.03148   -8939.9455   0.13230195 
  184600    293.18883    -905.8527    26009.311   -8255.5011    698.27823   -8953.7793   0.13230976 
  184800    287.54173   -1189.1044    26077.108   -8238.0015    684.82871   -8922.8302   0.14377322 
  185000    296.54175   -976.12137    26032.687   -8241.5066    706.26378   -8947.7704    0.1271479 
  185200     286.3031   -758.50839    25967.818   -8244.4093    681.87872    -8926.288   0.13651241 
  185400    293.60912   -993.51972    26014.875   -8254.1456    699.27923   -8953.4248   0.13899284 
  185600    283.34949   -1268.8923    26077.981   -8242.0813    674.84419   -8916.9255   0.14312981 
  185800    283.31692   -929.25286    26031.841   -8243.6198    674.76662   -8918.3865   0.13576384 
  186000    295.09705   -822.73242    25990.613   -8231.0027    702.82298   -8933.8257   0.14577663 
  186200    299.69513   -1009.4423    26056.721   -8224.7454    713.77407   -8938.5195   0.13785159 
  186400    299.99544   -1258.9026    26090.295   -8229.3534    714.48932   -8943.8427   0.13640031 
  186600    293.89776   -878.16657    26011.725   -8217.2585    699.96668   -8917.2252   0.14282885 
  186800    299.49485   -772.63649    25981.178   -8229.9796    713.29706   -8943.2766   0.13720852 
  187000    300.73616   -1112.3839    26057.464   -8223.9024    716.25346   -8940.1559    0.1336065 
  187200    293.24471   -1286.8085     26082.31   -8226.9426    698.41132    -8925.354   0.14155549 
  187400     299.2445   -886.05495    26006.722   -8220.8487    712.70082   -8933.5495   0.14578289 
  187600    295.41477   -817.80336    25993.821   -8230.3657    703.57968   -8933.9453   0.13433551 
  187800    294.74986   -1115.5046    26075.878   -8229.0603    701.99608   -8931.0564     0.128994 
  188000    294.68617   -1122.0707    26085.234   -8228.5499    701.84439   -8930.3943   0.13906523 
  188200    286.41196   -879.46628    25989.467   -8220.6505    682.13797   -8902.7884   0.15089468 
  188400    310.77654   -621.90699    25982.026   -8213.4399     740.1663   -8953.6062   0.12233002 
  188600     303.2776   -1258.6098    26111.742   -8216.5861    722.30632   -8938.8925    0.1372114 
  188800    298.58812   -1241.3898    26109.997    -8235.542    711.13753   -8946.6795   0.13555787 
  189000    298.77003   -699.23822    25951.547   -8230.4879     711.5708   -8942.0587    0.1368067 
  189200    297.86067   -694.47343    25959.112    -8221.139      709.405    -8930.544    0.1325009 
  189400    301.43747   -1449.3774    26153.907   -8226.5416    717.92374   -8944.4653   0.14313259 
  189600    288.23188   -1323.7111     26121.47   -8224.4592    686.47243   -8910.9316   0.14248207 
  189800    284.91752   -436.90601    25888.729   -8229.6208    678.57873   -8908.1996   0.14421008 
  190000    299.48925   -660.36459    25956.536   -8240.7382    713.28374   -8954.0219   0.13220239 
  190200    288.69884   -1808.1806      26224.7   -8241.6262    687.58456   -8929.2107    0.1478523 
  190400    293.01756   -1385.4152     26119.16   -8229.3017    697.87032    -8927.172   0.14172616 
  190600    293.38874   -127.01584    25835.754   -8221.9335    698.75435   -8920.6878   0.14556441 
  190800    290.78973     -782.401    25974.118   -8219.4984    692.56438   -8912.0627   0.14418659 
  191000    299.65994   -1894.3436    26265.758   -8215.1824    713.69025   -8928.8726   0.14170117 
  191200    294.35952   -1167.7171    26097.142   -8228.3366    701.06642    -8929.403   0.13323107 
  191400    303.91107   -56.101807    25801.715   -8243.0317    723.81504   -8966.8468   0.14228584 
  191600    288.36102   -871.84636    25992.634   -8228.4309    686.77999   -8915.2109   0.14198781 
  191800    292.40612   -1989.7614    26256.955   -8212.7428    696.41407   -8909.1569   0.15723366 
  192000    289.68704   -1043.2625    26038.156   -8236.9005    689.93814   -8926.8386   0.14550012 
  192200    302.07613   -143.68878    25816.502   -8222.8259    719.44483   -8942.2708   0.15180442 
  192400    300.31892    -1014.442    26042.253   -8220.1051    715.25973   -8935.3648   0.14129526 
  192600    298.22064   -1848.1603    26221.574   -8213.6183    710.26233   -8923.8806   0.15426791 
  192800    296.31668   -898.86664    25983.041   -8224.8873    705.72772    -8930.615   0.14731332 
  193000    304.63236   -205.69154    25853.443   -8210.6279    725.53291   -8936.1608   0.15450197 
  193200    306.78101   -1170.9229    26092.669    -8192.941    730.65027   -8923.5912   0.15243537 
  193400    306.91012   -1652.6134     26199.63   -8176.4307    730.95778   -8907.3885   0.16457332 
  193600    306.00645   -766.53691    25969.299   -8185.8681    728.80552   -8914.6737   0.15076342 
  193800    292.49333   -511.84377    25891.127   -8202.4568    696.62177   -8899.0786   0.15850819 
  194000    291.17393   -1414.9774    26096.742   -8210.6748     693.4794   -8904.1542   0.16096569 
  194200    296.20234    -1436.469    26143.603   -8222.6551     705.4554   -8928.1105   0.15034664 
  194400    299.19588   -807.83046    25952.006   -8228.7319    712.58502   -8941.3169   0.14950692 
  194600    292.18232   -571.85362    25924.564   -8233.1148    695.88105   -8928.9959   0.14786554 
  194800    292.45332   -1284.9781     26110.95   -8230.8578    696.52649   -8927.3843   0.13933978 
  195000    302.34862   -1337.3601     26128.84   -8226.4443     720.0938   -8946.5381   0.14308551 
  195200    296.12314   -557.10907    25962.468   -8218.5478    705.26677   -8923.8145   0.13358911 
  195400    294.59466    -719.4819    25969.403   -8219.1217    701.62646   -8920.7482   0.14596992 
  195600    300.06067   -1373.5406    26121.386   -8211.7426    714.64467   -8926.3872   0.14294395 
  195800    287.51944   -1175.6644    26090.661   -8228.5022    684.77564   -8913.2778    0.1423277 
  196000    310.85353   -582.19158    25931.892   -8238.0511    740.34966   -8978.4007   0.12658335 
  196200     307.6682   -642.20686    25955.402   -8214.0342    732.76327   -8946.7975   0.14356869 
  196400    296.08376   -1441.7774    26112.226   -8218.3648    705.17299   -8923.5378   0.14640988 
  196600    282.56175   -1175.4487    26076.665   -8243.1849    672.96806    -8916.153   0.14720593 
  196800    307.24952   -506.56615    25918.683   -8233.7985    731.76612   -8965.5646   0.13475724 
  197000    291.34595   -737.46262    25965.427   -8238.4905     693.8891   -8932.3796   0.14330737 
  197200    279.71405   -1540.0957    26119.397   -8250.3628    666.18578   -8916.5485   0.15310084 
  197400    284.05315    -1151.243    26051.281   -8258.6782    676.52009   -8935.1983   0.14818765 
  197600    298.25004   -578.51314    25917.364   -8228.2049    710.33235   -8938.5372   0.14235785 
  197800    295.88744   -1036.9031     26030.08   -8203.6077    704.70542   -8908.3131   0.15578651 
  198000    299.52694   -1500.8214    26159.609   -8212.9345    713.37349    -8926.308   0.14030781 
  198200    296.96402   -1151.8862    26027.925   -8225.0372    707.26948   -8932.3066   0.15233082 
  198400    297.66001   -361.78982    25895.163   -8207.1691    708.92708   -8916.0962   0.14219257 
  198600    304.34197   -958.66584    26049.014   -8198.9606     724.8413   -8923.8019   0.14113419 
  198800    296.09087    -1577.546    26169.624   -8206.8357    705.18991   -8912.0256   0.14563043 
  199000    301.96178   -860.73119    25985.936   -8219.3001    719.17248   -8938.4726   0.15161241 
  199200     294.8331    -303.7873    25879.604   -8231.9985    702.19434   -8934.1929   0.13736194 
  199400    299.50891   -1164.7906    26066.793   -8226.2173    713.33056   -8939.5478   0.14641239 
  199600     296.4528   -1464.0884    26149.577   -8218.4342    706.05191   -8924.4861   0.14662118 
  199800    290.12407   -784.44194    25958.752   -8222.1119      690.979   -8913.0909   0.15727645 
  200000    290.03143   -394.32789    25898.711   -8209.9081    690.75835   -8900.6664    0.1472796 
Loop time of 42.1575 on 4 procs for 200000 steps with 800 atoms

Performance: 2049.456 ns/day, 0.012 hours/ns, 4744.111 timesteps/s
99.6% CPU use with 4 MPI tasks x no OpenMP threads

MPI task timing breakdown:
Section |  min time  |  avg time  |  max time  |%varavg| %total
---------------------------------------------------------------
Pair    | 26.654     | 26.992     | 27.383     |   6.1 | 64.03
Neigh   | 3.9645     | 3.9758     | 3.9954     |   0.6 |  9.43
Comm    | 5.333      | 5.7672     | 6.1089     |  14.0 | 13.68
Output  | 1.1679     | 1.1707     | 1.1787     |   0.4 |  2.78
Modify  | 3.4873     | 3.5274     | 3.5698     |   1.6 |  8.37
Other   |            | 0.7243     |            |       |  1.72

Nlocal:        200.000 ave         209 max         196 min
Histogram: 2 1 0 0 0 0 0 0 0 1
Nghost:        650.000 ave         655 max         646 min
Histogram: 1 0 0 1 1 0 0 0 0 1
Neighs:        0.00000 ave           0 max           0 min
Histogram: 4 0 0 0 0 0 0 0 0 0
FullNghs:      5708.50 ave        5992 max        5567 min
Histogram: 1 2 0 0 0 0 0 0 0 1

Total # of neighbors = 22834
Ave neighs/atom = 28.542500
Neighbor list builds = 10589
Dangerous builds = 0
write_data		data.${NAME}
write_data		data.ice_298K_1000atm_ML
System init for write_data ...
Total wall time: 0:01:02
