
# Set production fixes - Nose/Hoover
#
fix                 2 all nph iso ${PRES} ${PRES} ${PCOUPL}
fix                 2 all nph iso -1000 ${PRES} ${PCOUPL}
fix                 2 all nph iso -1000 -1000 ${PCOUPL}
fix                 2 all nph iso -1000 -1000 10000.0
fix                 3 all temp/csvr ${TEMP} ${TEMP} ${TCOUPL} 837492
fix                 3 all temp/csvr 294 ${TEMP} ${TCOUPL} 837492
fix                 3 all temp/csvr 294 294 ${TCOUPL} 837492
fix                 3 all temp/csvr 294 294 5000.0 837492

# Define Order parameter
#
compute             2 all orientorder/atom nnn NULL cutoff 3.5
thermo              200
thermo_style        custom step temp press vol etotal ke pe c_1[4]

# Run 1ns simulation
dump		    1 all custom 400 prod.${NAME}.dump id type x y z vx vy vz c_2[*]
dump		    1 all custom 400 prod.ice_294K_1000atm_ML.dump id type x y z vx vy vz c_2[*]
run                 200000
Neighbor list info ...
  update every 1 steps, delay 0 steps, check yes
  max neighbors/atom: 2000, page size: 100000
  master list distance cutoff = 6.0032907
  ghost atom cutoff = 6.0032907
  binsize = 3.0016454, bins = 9 11 11
  2 neighbor lists, perpetual/occasional/extra = 1 1 0
  (1) pair sw, perpetual
      attributes: full, newton on
      pair build: full/bin/atomonly
      stencil: full/bin/3d
      bin: standard
  (2) compute orientorder/atom, occasional, copy from (1)
      attributes: full, newton on
      pair build: copy
      stencil: none
      bin: none
Per MPI rank memory allocation (min/avg/max) = 5.736 | 5.736 | 5.736 Mbytes
Step Temp Press Volume TotEng KinEng PotEng c_1[4] 
       0    294.81296   -969.12077    26015.289   -8242.6011    702.14636   -8944.7475    0.1392597 
     200     289.3895   -1023.0859    26031.124   -8242.8161     689.2295   -8932.0456    0.1372719 
     400    284.82301   -1073.2169     26054.33    -8240.788    678.35364   -8919.1416   0.14505092 
     600    284.70608   -1081.9579    26031.437   -8254.6986    678.07515   -8932.7738   0.14757266 
     800    289.67654    -835.2511    26002.018   -8262.8418    689.91312    -8952.755   0.12553798 
    1000    286.16135   -912.37033    26013.932   -8264.5487    681.54111   -8946.0898   0.13292224 
    1200    292.02067   -1009.1408    26035.422   -8264.1135    695.49606   -8959.6095   0.13589848 
    1400    286.85658   -1132.1331    26030.453   -8265.0406    683.19692   -8948.2375   0.14580185 
    1600    285.17028   -925.84047    26005.187    -8277.812    679.18072   -8956.9928   0.13168863 
    1800    290.32343   -892.33563    26001.346     -8271.83    691.45381   -8963.2838   0.12940591 
    2000    287.64106   -951.83991    26030.217   -8252.1049     685.0653   -8937.1702   0.13675864 
    2200    297.78482   -1083.5016    26047.688   -8241.5579    709.22435   -8950.7822   0.14186161 
    2400    288.54753   -1064.2775    26026.961   -8245.3202     687.2242   -8932.5444   0.14653554 
    2600    291.14758   -908.90965    25996.795   -8257.7345    693.41666   -8951.1512   0.13919359 
    2800    283.16932   -1001.2934    26002.048   -8261.4835    674.41509   -8935.8986   0.14900209 
    3000    281.58824   -1175.5144    26028.689   -8268.7369    670.64948   -8939.3864   0.14624236 
    3200    291.66301   -942.71776     26017.95   -8237.1882    694.64424   -8931.8324   0.14334723 
    3400    286.22699   -981.49132    26002.602   -8261.6049    681.69744   -8943.3024   0.14738082 
    3600    277.53636   -1072.9583    26018.408    -8282.968    660.99926   -8943.9672    0.1425673 
    3800    289.30728   -1051.7201     26016.99   -8249.9766    689.03368   -8939.0103   0.13973244 
    4000    292.59554   -1046.2286    26005.659   -8242.3752    696.86522   -8939.2404   0.13978224 
    4200    293.79227   -966.79331    26005.969   -8252.5436    699.71543    -8952.259   0.14290481 
    4400    292.93627   -910.99437    26020.774   -8241.9213    697.67672    -8939.598   0.13927752 
    4600    293.64237   -1062.8862    26039.176   -8232.1155     699.3584   -8931.4739   0.14152225 
    4800    292.36213   -973.26488    26017.158    -8219.485     696.3093   -8915.7943   0.14556434 
    5000    296.48293   -890.34033    25991.879   -8222.8594    706.12368   -8928.9831   0.15150404 
    5200     300.1496   -963.60319    26039.059   -8216.1326    714.85646   -8930.9891   0.12794113 
    5400     306.1067   -1108.5124    26077.262   -8200.9026    729.04429   -8929.9469   0.14221651 
    5600    297.71593   -970.06457    26030.075   -8201.9431    709.06029   -8911.0034   0.14659985 
    5800    294.47053   -820.91059    25998.827   -8198.2327    701.33081   -8899.5635   0.14752828 
    6000    298.39741   -1066.1315    26051.381   -8189.3527    710.68334    -8900.036   0.14714793 
    6200    301.75689   -1154.9035    26081.417   -8195.3027    718.68451   -8913.9872   0.15272974 
    6400    303.98345    -911.8733    26031.852   -8180.4851    723.98743   -8904.4726   0.14383292 
    6600    302.76944   -916.99013    26015.241    -8194.669    721.09605    -8915.765    0.1440842 
    6800    309.54266     -1104.55    26067.038   -8215.4578     737.2276   -8952.6854   0.13868392 
    7000    307.57402   -1079.2786    26070.225   -8198.4745    732.53896   -8931.0135    0.1449152 
    7200    316.80945   -808.82485    26036.508   -8172.1588    754.53469   -8926.6935   0.13388982 
    7400    305.97356   -1048.5365    26056.237    -8160.986     728.7272   -8889.7133   0.14918203 
    7600    303.15434   -1119.7333    26088.324   -8169.5001    722.01275   -8891.5128   0.15091822 
    7800    306.83771    -974.1697    26049.935   -8186.9158    730.78532   -8917.7012   0.14655129 
    8000    317.50947   -900.96317    26016.062   -8172.0807     756.2019   -8928.2826    0.1435806 
    8200    295.28898   -1084.6603     26064.82   -8191.1278    703.28009   -8894.4079   0.15295348 
    8400     294.4621   -1208.6005    26093.403   -8196.2421    701.31073   -8897.5528     0.147814 
    8600    296.53229   -907.79459    26036.056   -8176.5263    706.24124   -8882.7676   0.14189429 
    8800     305.0574   -854.35758    26005.075   -8158.2249    726.54522   -8884.7701   0.14395697 
    9000    303.60853   -1052.1834     26063.62   -8160.1578    723.09447   -8883.2523   0.15441892 
    9200    308.82303   -1196.8453    26095.607   -8153.0785     735.5137   -8888.5922   0.14669305 
    9400    311.39471   -861.97449    26021.999    -8164.463    741.63858   -8906.1016   0.14795905 
    9600    310.43392   -774.24981    26003.483   -8162.9157     739.3503    -8902.266   0.15206131 
    9800    309.23641   -1163.0918    26101.434   -8166.1838    736.49823    -8902.682   0.15442502 
   10000    306.17743   -1162.1176    26105.041   -8171.1651    729.21276   -8900.3778   0.13671998 
   10200    295.37334   -719.93137     25987.92   -8178.4466    703.48101   -8881.9276   0.14844624 
   10400    301.50959   -842.24158    26008.545   -8165.2021    718.09551   -8883.2977   0.14668951 
   10600    303.31271   -1339.0875    26138.538   -8166.1137    722.38993   -8888.5036   0.15037953 
   10800    307.20904   -1095.0888    26085.036   -8181.4791     731.6697   -8913.1488    0.1388944 
   11000    298.89572   -659.68813    25957.528    -8193.642    711.87015   -8905.5121   0.15240983 
   11200    300.64674   -808.30219     26026.02   -8207.3486     716.0405   -8923.3891   0.13120151 
   11400    290.66774   -1439.3294    26142.916   -8217.2455    692.27383   -8909.5193   0.14826527 
   11600    303.84184   -1052.8899     26058.43   -8210.5501    723.65014   -8934.2002   0.14134275 
   11800    295.86562   -597.13821    25948.498    -8230.783    704.65345   -8935.4364    0.1448964 
   12000    297.97746   -1032.6564    26049.969   -8236.8178    709.68314    -8946.501   0.12934364 
   12200    298.96954   -1460.0236    26160.266    -8226.012    712.04597   -8938.0579   0.14875986 
   12400    293.84659   -970.30589    26034.181   -8215.5447     699.8448   -8915.3895   0.14675091 
   12600    296.79121    -553.2281    25937.913   -8221.4306    706.85789   -8928.2885   0.13218014 
   12800    289.89987   -1126.3638    26084.767   -8223.3742    690.44501   -8913.8192    0.1434557 
   13000    293.22021    -1482.964    26152.293   -8217.1324    698.35297   -8915.4854   0.15278395 
   13200    308.31731   -684.05242    25977.864    -8217.707    734.30924   -8952.0163   0.13453614 
   13400    286.94858   -565.19218    25931.845   -8230.2634    683.41602   -8913.6794   0.14015468 
   13600    303.93612   -1364.5218    26113.802   -8210.7826    723.87469   -8934.6573   0.15043534 
   13800    303.89463   -1454.9476    26141.214    -8194.979    723.77589   -8918.7549   0.15255143 
   14000    303.23601   -658.42333    25953.094   -8198.3928    722.20726   -8920.6001   0.13377652 
   14200     306.6897   -548.68496    25960.069    -8202.327    730.43282   -8932.7599   0.13576984 
   14400    276.69592   -1560.7895    26142.766   -8215.0123     658.9976   -8874.0099   0.15972991 
   14600    287.03799   -1202.6396    26095.421   -8218.3922    683.62896   -8902.0211   0.14055966 
   14800    292.19039   -507.51954    25916.434    -8210.286    695.90027   -8906.1863   0.14312617 
   15000     288.2761   -762.70073    25997.194   -8231.4649    686.57774   -8918.0427   0.14527322 
   15200    288.17653   -1648.3572    26179.521   -8256.7282    686.34061   -8943.0688   0.13892983 
   15400     286.0374   -1063.9725    26056.619   -8253.8857    681.24591   -8935.1317   0.13413492 
   15600    285.94682   -417.61195    25878.232   -8275.6963    681.03018   -8956.7264   0.14217021 
   15800    291.00128   -981.08248    26032.476   -8254.1749    693.06822   -8947.2431   0.13442782 
   16000    288.52286   -1758.8413    26214.877   -8247.5174    687.16545   -8934.6829   0.13943393 
   16200    297.12056    -879.3302    26024.825   -8237.6427    707.64231    -8945.285   0.13398894 
   16400    293.79752   -259.68041     25867.55   -8249.7084    699.72792   -8949.4364   0.13626659 
   16600    308.90399   -1186.2459    26083.926   -8260.4932     735.7065   -8996.1997   0.11757227 
   16800    299.27184    -1696.692    26210.658    -8240.803    712.76593   -8953.5689    0.1361513 
   17000    300.95645   -691.29909    25978.902   -8250.2011    716.77812   -8966.9792   0.12869891 
   17200    281.18163   -319.25465    25885.937   -8241.4214    669.68108   -8911.1025   0.13478201 
   17400     282.9806    -1403.956    26146.041   -8255.6148    673.96563   -8929.5804   0.12621912 
   17600    283.34331   -1645.0833    26208.065   -8268.6779    674.82947   -8943.5074   0.14102538 
   17800    279.62733   -531.96957    25927.212   -8276.1101    665.97926   -8942.0894   0.12805055 
   18000    288.70259   -446.63101    25887.185   -8293.4442    687.59351   -8981.0377   0.13233275 
   18200     290.4387   -1509.7871    26151.639   -8300.3337    691.72834    -8992.062   0.12770986 
   18400    288.57298     -1376.07    26143.834   -8296.3113    687.28482   -8983.5962   0.12457901 
   18600    291.11745   -387.02322    25892.626   -8285.3759    693.34489   -8978.7207   0.12311837 
   18800    295.27589   -565.04865    25941.741   -8253.4177    703.24891   -8956.6666   0.13604481 
   19000    285.55496   -1630.6444    26179.256   -8257.8573    680.09688   -8937.9542   0.13785974 
   19200    289.11406   -1298.4994      26096.8   -8258.8421    688.57348   -8947.4156   0.13566832 
   19400    299.00596   -410.99254    25897.322   -8256.0891    712.13269   -8968.2218   0.13206653 
   19600    286.99866   -750.14882    26001.736   -8264.1612     683.5353   -8947.6965   0.13252769 
   19800    280.57116   -1583.3394    26150.515   -8265.0751    668.22713   -8933.3022    0.1372352 
   20000    290.50222   -968.49949    26025.923   -8261.7201    691.87962   -8953.5997   0.14555336 
   20200    297.12416     -521.438    25910.803   -8271.5925    707.65086   -8979.2434   0.13473181 
   20400    291.08228   -1005.3405    26024.152   -8269.2342    693.26113   -8962.4953   0.13005378 
   20600    295.27038   -1353.5189    26114.556   -8260.8849    703.23579   -8964.1207   0.13525103 
   20800    296.40126   -962.59273     26019.42   -8253.6732    705.92917   -8959.6024   0.14603837 
   21000    304.70136   -620.75292     25963.42   -8264.4826    725.69725   -8990.1799   0.12460552 
   21200    290.93902   -1024.4881    26044.973    -8254.642    692.91993    -8947.562    0.1288333 
   21400    284.33369   -1277.0727    26076.685   -8251.3725    677.18823   -8928.5607   0.14672895 
   21600    282.16877   -934.32997    25994.582   -8245.4428    672.03211   -8917.4749   0.15266279 
   21800    295.41866   -744.82127    25976.665   -8235.8421    703.58895    -8939.431   0.13143917 
   22000    295.55126   -1179.8519    26051.852   -8233.8352    703.90474   -8937.7399   0.14762096 
   22200    291.25648   -1199.0462    26056.916   -8219.2348    693.67602   -8912.9108   0.15864168 
   22400    294.36243   -948.49032    26000.525   -8215.7008    701.07336   -8916.7742   0.15150578 
   22600     302.0241   -804.33252    26018.836   -8218.1638    719.32089   -8937.4847   0.14081283 
   22800    290.91674   -1244.5009    26079.224   -8222.5953    692.86686   -8915.4621   0.15639692 
   23000    289.79561   -1099.2054    26057.141   -8225.9315     690.1967   -8916.1283   0.14358936 
   23200    286.65933   -761.53907    26001.256   -8221.8988    682.72712   -8904.6259    0.1438284 
   23400    295.23076   -923.97454     26033.35   -8228.9826    703.14141    -8932.124   0.15188205 
   23600    287.53391   -1209.5154    26079.817   -8233.5394    684.81008   -8918.3495   0.15062836 
   23800    301.95401   -928.14984    26033.645   -8219.0642    719.15397   -8938.2182   0.13223764 
   24000    295.30602   -862.75753    26003.879   -8237.3104    703.32066   -8940.6311   0.14786479 
   24200    288.29529   -1041.8822    26054.583   -8226.3498    686.62345   -8912.9732   0.15573202 
   24400    295.13036   -1188.5803    26062.704   -8240.7384    702.90231   -8943.6408   0.13656713 
   24600    304.94413   -826.36893    26012.341   -8234.1478    726.27545   -8960.4232   0.13639501 
   24800    303.00135   -803.90012    26007.606   -8203.3155    721.64839   -8924.9639   0.15339637 
   25000    292.77215   -1162.1877    26067.689   -8208.7287    697.28584   -8906.0146   0.15083697 
   25200    297.65555   -1121.4952    26061.372     -8219.92    708.91646   -8928.8365   0.13717734 
   25400    298.61867   -809.10696    25986.941   -8232.0401     711.2103   -8943.2504   0.15122228 
   25600    284.87747   -859.14425    25989.906   -8266.2502    678.48334   -8944.7336   0.14226693 
   25800    280.61032   -1204.9057    26049.888   -8265.7963    668.32041   -8934.1167   0.14616707 
   26000    283.92774   -1069.7785    26013.958   -8267.1138     676.2214   -8943.3353   0.15126683 
   26200    276.94924   -780.19289    25940.405   -8285.5532    659.60094   -8945.1541   0.14621851 
   26400      287.828   -895.87105    25997.811   -8291.9165    685.51052    -8977.427   0.12979673 
   26600    280.13386   -1381.6459    26096.183   -8286.7275    667.18564   -8953.9131   0.14113428 
   26800    286.74634    -1013.795    26027.944   -8291.5669    682.93436   -8974.5012   0.13903377 
   27000    277.08112   -668.87092    25932.293    -8288.338    659.91503    -8948.253   0.14097023 
   27200    279.84797   -1034.3602    26022.862   -8274.4986    666.50475   -8941.0033   0.14479195 
   27400    293.14659   -1438.9569    26120.322   -8267.3629    698.17762   -8965.5405    0.1414162 
   27600    291.27941   -938.83508      26001.4   -8266.1738    693.73063   -8959.9044   0.13504814 
   27800    289.23702   -490.71045    25922.794   -8255.9427    688.86633    -8944.809   0.14054201 
   28000    299.22522   -1203.6532    26074.303   -8249.9125     712.6549   -8962.5674   0.14376516 
   28200    296.46784   -1454.1165    26134.472   -8256.3372    706.08773    -8962.425   0.14408396 
   28400    291.79869   -754.51295    25959.885   -8246.5582    694.96737   -8941.5256   0.14410369 
   28600    296.05117    -592.9408    25924.636   -8255.2012    705.09537   -8960.2966    0.1488077 
   28800    286.22446   -1405.9225    26107.426   -8259.5743    681.69141   -8941.2657   0.14675629 
   29000    282.73198     -1437.41    26116.024    -8278.867    673.37349   -8952.2405   0.13828379 
   29200    279.99244    -522.6536    25905.132   -8290.2058    666.84882   -8957.0546   0.14106258 
   29400    284.09078   -536.65674    25931.155   -8283.8915    676.60971   -8960.5012   0.13111823 
   29600    274.97768   -1507.0157    26177.339    -8269.844    654.90532   -8924.7493   0.13545154 
   29800    280.30552   -1380.9719    26130.696   -8246.2536    667.59448   -8913.8481   0.15273696 
   30000    293.43846   -393.22733    25892.819   -8239.5883    698.87277    -8938.461   0.14641732 
   30200    297.17101   -627.70507    25967.379   -8242.2536    707.76246   -8950.0161   0.13087197 
   30400    290.82811   -1708.7805    26198.174   -8259.3335    692.65579   -8951.9893   0.15006085 
   30600    291.38451   -1268.1902    26077.294   -8237.5369    693.98093   -8931.5178   0.15771896 
   30800    304.39186   -175.89484    25868.452   -8218.2283    724.96011   -8943.1884   0.13323332 
   31000    299.70071   -1043.9734    26030.422   -8228.2146    713.78736   -8942.0019   0.14502505 
   31200    291.12935    -1725.365    26206.954   -8213.7185    693.37324   -8907.0917   0.15862722 
   31400    295.75061   -908.16073    26033.206   -8209.7079    704.37953   -8914.0875   0.14957398 
   31600    280.28697   -466.74828    25883.626   -8234.1619     667.5503   -8901.7122   0.14332516 
   31800    299.92284   -1063.6284    26061.007   -8230.9144     714.3164   -8945.2308   0.14720872 
   32000    289.14658   -1680.5313    26193.166    -8219.866    688.65094   -8908.5169   0.16704806 
   32200     298.1892   -800.52855    26004.746   -8220.2144    710.18746   -8930.4018   0.13692666 
   32400    289.51285   -374.33646    25882.737    -8224.271    689.52327   -8913.7943   0.14831806 
   32600    286.57306   -1227.3596    26073.317   -8224.2598    682.52168   -8906.7815   0.17003763 
   32800    299.41536   -1426.8245    26165.512   -8217.5421    713.10775   -8930.6498   0.14350538 
   33000    306.47972   -796.25417    25984.486   -8212.9786    729.93271   -8942.9114   0.14265284 
   33200    296.42132   -523.14454    25915.537   -8223.9399    705.97695   -8929.9169   0.15508539 
   33400    288.96685    -1228.027    26094.804    -8202.117    688.22287   -8890.3399   0.15766878 
   33600    298.24185   -1311.1185    26142.083   -8170.2987    710.31285   -8880.6115   0.14895641 
   33800    305.30809   -720.13766    25980.973   -8185.8209    727.14227   -8912.9632   0.15034838 
   34000    288.92938   -645.63777    25934.578   -8202.8534    688.13364    -8890.987   0.16604703 
   34200    299.09373    -1133.156    26064.205   -8224.5937    712.34175   -8936.9354   0.14382943 
   34400     284.1492   -1313.7617    26080.335   -8241.6701    676.74883    -8918.419   0.14343698 
   34600    300.70814   -667.45901    25950.766   -8235.9188    716.18671   -8952.1055   0.15720281 
   34800    300.84937   -713.74142    25952.419   -8243.7734    716.52309   -8960.2965   0.14326963 
   35000    283.57398   -1247.8932    26067.762   -8240.7198    675.37886   -8916.0987   0.15031965 
   35200    281.91753   -1310.8295    26061.909   -8247.8027    671.43373   -8919.2364   0.16932968 
   35400    286.32068    -849.2793    25973.524   -8243.3702    681.92057   -8925.2908   0.15294214 
   35600    292.60715   -848.08743    25991.521   -8247.0665    696.89287   -8943.9594   0.13943191 
   35800    301.86078   -1145.1583    26065.445   -8240.7461    718.93194    -8959.678   0.15773528 
   36000    296.16594   -1081.8316     26046.95   -8237.1767    705.36873   -8942.5454    0.1514532 
   36200    290.49288   -841.52995     25990.67   -8236.3749    691.85737   -8928.2322   0.14591964 
   36400    284.34998   -932.56811    26006.366   -8248.2016    677.22702   -8925.4287   0.14679243 
   36600    297.66892   -1032.4423     26037.63    -8235.297     708.9483   -8944.2453   0.15284648 
   36800    307.84653   -1031.1612    26022.338   -8229.9459      733.188   -8963.1339   0.14502378 
   37000    302.63668   -1004.1445    25997.776   -8238.8814    720.77987   -8959.6613    0.1465328 
   37200    286.33455   -1004.5655    26017.473   -8223.3384    681.95361    -8905.292   0.15907311 
   37400    293.15173   -1107.1222    26043.539   -8221.6831    698.18987   -8919.8729   0.15008272 
   37600    297.05652   -1046.2344      26026.4   -8219.5359    707.48979   -8927.0257   0.14240637 
   37800    304.06512   -1003.9902    26013.823   -8207.6674    724.18193   -8931.8494   0.15526604 
   38000    291.15519   -1057.9382      26024.4   -8222.9637    693.43477   -8916.3985    0.1527296 
   38200    313.36819   -859.03937    26034.407   -8225.5498    746.33876   -8971.8886   0.12857268 
   38400    305.84828   -1031.5247    26038.772   -8210.9957    728.42883   -8939.4245   0.14521423 
   38600    290.97255   -1069.4664    26040.703   -8210.6844    692.99979   -8903.6842   0.15272166 
   38800    297.86227   -1056.0725    26045.685   -8225.3527    709.40881   -8934.7615    0.1480588 
   39000    292.26217   -974.75984    26033.919   -8244.5372    696.07124   -8940.6085   0.14106119 
   39200    287.98232   -965.86155    26032.859    -8248.115    685.87805    -8933.993   0.14386975 
   39400    291.46887   -1084.3062    26043.708   -8249.4004    694.18186   -8943.5823   0.14236141 
   39600    278.88832   -1026.8882     26037.85   -8273.9817    664.21918   -8938.2008   0.14067945 
   39800    293.31698   -954.08205    26022.879   -8262.8144    698.58344   -8961.3978    0.1390055 
   40000    286.82396    -974.8709    26033.481   -8260.5334    683.11923   -8943.6526   0.13751475 
   40200    292.14572   -1046.1698    26053.917   -8248.3753     695.7939   -8944.1692   0.13175225 
   40400    291.48418   -1026.1327    26044.291   -8242.3302    694.21831   -8936.5486    0.1439689 
   40600    286.62284   -1045.3924      26025.1   -8257.6743    682.64023   -8940.3145   0.14469141 
   40800    293.38263   -956.91153    26022.342   -8267.7494     698.7398   -8966.4892   0.12727443 
   41000    288.41445   -1058.4261    26030.835    -8268.571    686.90725   -8955.4783    0.1460932 
   41200    294.85359   -878.38956    26019.831     -8283.71    702.24313   -8985.9531   0.12725404 
   41400    281.34882   -947.48619    26014.977   -8277.1193    670.07925   -8947.1985   0.13115339 
   41600    288.36177   -1104.3836    26060.907   -8270.6283    686.78178   -8957.4101   0.13779042 
   41800    298.72997   -1070.6541    26076.515   -8262.8645    711.47539   -8974.3399   0.13023986 
   42000     286.8777    -857.1949    26018.105   -8248.8747    683.24722   -8932.1219   0.13549235 
   42200    289.11189   -957.68337    26005.366   -8263.5625    688.56831   -8952.1308    0.1458974 
   42400     288.6925   -1067.0611    26059.302   -8280.5327    687.56946   -8968.1021   0.14046469 
   42600    285.58581   -998.48351    26051.291   -8285.5464    680.17037   -8965.7168    0.1260891 
   42800    284.09685   -875.58664    25993.284   -8303.2195    676.62415   -8979.8437   0.13348422 
   43000    285.27741   -906.57577    26006.099   -8288.5134    679.43585   -8967.9492   0.13480583 
   43200    283.77951   -1181.7302    26061.547   -8290.4367    675.86837   -8966.3051   0.13775914 
   43400    289.06458   -1086.6624    26040.556   -8284.0757    688.45564   -8972.5313   0.13355203 
   43600    283.52315    -751.9337    25976.149   -8289.4292     675.2578    -8964.687   0.14018122 
   43800    285.82275   -967.29126    26015.834   -8282.3341    680.73468   -8963.0687   0.14115626 
   44000    284.97094   -1288.2846    26086.963   -8281.4137    678.70595   -8960.1196   0.13223248 
   44200    278.21774    -992.1932     26027.91   -8300.2607    662.62208   -8962.8828   0.13821911 
   44400    276.92791   -669.68523    25954.169   -8293.6919    659.55012    -8953.242   0.14743708 
   44600    296.06002   -1003.3347     26026.08   -8263.2631    705.11645   -8968.3796   0.13523037 
   44800    290.98579   -1294.6958    26106.861   -8243.8757    693.03133   -8936.9071   0.14519928 
   45000    285.09299   -1001.7763    26018.689   -8241.5172    678.99664   -8920.5139   0.15586156 
   45200    298.68191   -552.08103    25924.316   -8258.3102    711.36092   -8969.6711   0.13191885 
   45400    297.76902   -1072.0222    26022.274   -8279.1207    709.18672   -8988.3074   0.13610851 
   45600     290.7514   -1410.1216    26116.849   -8276.0415    692.47309   -8968.5146   0.14451413 
   45800      295.768    -848.0008    25991.666   -8265.0811    704.42095   -8969.5021   0.13053856 
   46000    285.84622   -470.64283    25884.519   -8259.8478    680.79058   -8940.6384   0.14061725 
   46200    281.34316     -1201.13     26051.23   -8266.0827    670.06577   -8936.1485   0.14962934 
   46400    287.85621   -1629.2802    26163.324   -8265.0374    685.57771   -8950.6151   0.14679962 
   46600    289.72936   -773.88324    25964.397   -8270.8469    690.03892   -8960.8858     0.133234 
   46800    297.27474   -391.90144    25873.002   -8259.0813    708.00951   -8967.0909   0.14789093 
   47000    288.81072   -1429.8899    26102.315   -8247.6074    687.85103   -8935.4584   0.15421037 
   47200     296.3457   -1625.3206    26175.598   -8246.0001    705.79685    -8951.797   0.14269228 
   47400    298.89761   -567.51961     25935.85   -8220.0916    711.87465   -8931.9663   0.14159544 
   47600    298.33696   -444.62383    25905.513   -8209.6617    710.53936    -8920.201   0.15282255 
   47800     302.9227   -1570.7978    26181.831    -8196.855    721.46108    -8918.316    0.1424573 
   48000    307.45775   -1391.2899    26175.236   -8187.1982    732.26206   -8919.4602   0.13215323 
   48200    303.82927   -383.18801    25892.979   -8198.8433    723.62021   -8922.4635    0.1497356 
   48400    297.22401   -540.75694    25938.886   -8192.1869    707.88869   -8900.0755   0.14637041 
   48600    288.76494   -1889.9399    26221.485   -8216.6473      687.742   -8904.3893   0.14768967 
   48800    301.44427   -1308.4965    26103.997   -8194.5356    717.93995   -8912.4756   0.15810813 
   49000    304.98572   -70.512536    25830.125   -8190.7128    726.37449   -8917.0873   0.15423902 
   49200    305.43642   -786.43749    25992.004   -8199.2115    727.44792   -8926.6594   0.14860433 
   49400    304.97615   -1918.0344    26245.811    -8192.338     726.3517   -8918.6897   0.16731989 
   49600    299.69518   -1193.9246    26041.673   -8206.7639     713.7742   -8920.5381   0.16570808 
   49800    299.96591    -73.09961    25812.935   -8194.1689    714.41897   -8908.5879   0.14883689 
   50000    312.87877   -961.35718    26030.489   -8188.8981    745.17311   -8934.0713   0.13683999 
   50200    290.42402   -1789.2575    26223.344   -8224.5594    691.69337   -8916.2527   0.15662033 
   50400    306.25365   -789.17036    26015.625   -8219.3716    729.39429   -8948.7659   0.13067359 
   50600    294.17912    -331.7111    25888.974   -8230.3365    700.63676   -8930.9732   0.12836558 
   50800    288.99128   -1200.1901    26088.635   -8230.8195    688.28105   -8919.1006   0.14806522 
   51000    301.77957   -1616.5094    26171.552   -8198.8323    718.73852   -8917.5708    0.1568005 
   51200    310.79622   -699.43962    26002.414   -8208.2511    740.21318   -8948.4643   0.13030162 
   51400    295.73446   -514.33052    25949.337   -8199.0116    704.34107   -8903.3527   0.15034534 
   51600    301.31919   -1289.3541    26097.849   -8203.0708    717.64205   -8920.7128   0.15847899 
   51800     307.2059   -1266.1604        26117   -8187.2284    731.66223   -8918.8906   0.13963061 
   52000    300.51945   -657.12481    25992.339   -8176.6295    715.73733   -8892.3668   0.14410347 
   52200    310.27336   -748.83905      25999.2   -8185.6236    738.96789   -8924.5915   0.14632171 
   52400    308.29873   -1230.5889    26085.218   -8186.9589    734.26499   -8921.2238   0.14670443 
   52600    310.20336   -1046.8606     26075.48   -8186.9377    738.80117   -8925.7389   0.13281665 
   52800    301.06212    -863.3522    26019.543   -8193.2605    717.02979   -8910.2903   0.15169524 
   53000    315.18514   -993.58525     26029.84    -8192.666    750.66612   -8943.3322   0.14750149 
   53200    299.08373   -1058.1368    26057.676   -8194.9176    712.31791   -8907.2355    0.1483045 
   53400    296.25986   -1111.5238    26045.877   -8218.9968    705.59241   -8924.5892   0.15255705 
   53600    295.87059   -1052.7557    26021.801   -8220.8488    704.66529   -8925.5141   0.15644696 
   53800     302.6284   -913.68936    26034.849   -8233.0279    720.76014   -8953.7881   0.13467683 
   54000    291.10722   -1133.9524    26052.628   -8228.9791    693.32054   -8922.2996   0.14914119 
   54200     296.8844   -1003.2837    26019.787   -8231.2012    707.07985   -8938.2811   0.15392451 
   54400    298.46544   -819.42172    25988.576   -8248.0601    710.84536   -8958.9054   0.13267118 
   54600    287.46944   -1063.9988     26026.46   -8238.5015    684.65654   -8923.1581   0.14398658 
   54800     288.3407   -1100.3242    26055.509   -8220.2477    686.73161   -8906.9793   0.15176772 
   55000    303.06926   -1004.2451    26028.691    -8218.702    721.81013   -8940.5122   0.14022465 
   55200    294.24926   -799.34498    25998.692   -8240.5469    700.80382   -8941.3507   0.13809093 
   55400    296.29953   -1060.4775     26045.12   -8241.6242    705.68689   -8947.3111   0.14547981 
   55600    291.50345   -1196.4934    26070.297   -8247.1583    694.26422   -8941.4226   0.15140495 
   55800    295.98385   -896.55329    26018.192   -8241.4928    704.93503   -8946.4279   0.13936808 
   56000    289.73964   -911.34047    26014.379   -8233.1644     690.0634   -8923.2278   0.15068333 
   56200     280.6195   -1245.2215    26075.846   -8242.0559    668.34226   -8910.3982   0.15743005 
   56400    296.36731   -1033.5036    26051.205   -8240.0439    705.84831   -8945.8922   0.13492493 
   56600    303.02569   -751.10953    25991.307   -8237.4541    721.70635   -8959.1605   0.14066259 
   56800    296.20387   -886.69608    26038.421   -8217.8458    705.45906   -8923.3048   0.14018645 
   57000    301.07875   -1199.9102    26098.954   -8205.0294    717.06938   -8922.0988   0.13734418 
   57200    301.20815   -947.68109    26040.372   -8225.1998    717.37757   -8942.5773   0.13852655 
   57400    291.88522   -753.53284    25973.814   -8234.8731    695.17347   -8930.0465   0.16065206 
   57600    292.73025   -1012.1205    26030.627   -8214.7676    697.18605   -8911.9537   0.14571568 
   57800    296.89037   -1284.2527    26085.702   -8217.9925    707.09407   -8925.0866   0.14839925 
   58000    291.92009    -966.4339    26012.207   -8214.9902     695.2565   -8910.2467   0.16301503 
   58200    292.12044   -725.46269    25970.046   -8232.8868    695.73368   -8928.6205   0.15301334 
   58400      303.335   -1081.0278    26066.668   -8236.0417    722.44304   -8958.4847   0.13273856 
   58600    297.61992    -1294.532    26106.984   -8222.7956    708.83161   -8931.6272   0.15172437 
   58800    299.27171   -852.13512    25996.102   -8242.9514    712.76562    -8955.717   0.15128509 
   59000    289.48934   -718.03018    25952.386   -8248.5789    689.46728   -8938.0462   0.13797811 
   59200    285.76768   -1133.3536      26063.6   -8254.3802    680.60352   -8934.9837   0.13642603 
   59400    301.89037   -1201.4793    26077.114    -8249.094    719.00239   -8968.0964   0.15058406 
   59600    301.13928   -729.12814    25948.707   -8247.7084    717.21357    -8964.922   0.14246503 
   59800     292.1356   -739.93403     25948.47    -8237.267    695.76978   -8933.0368   0.14598912 
   60000     286.4086    -1427.344    26100.051   -8228.9345    682.12998   -8911.0645   0.15702596 
   60200    296.73736   -1263.9545    26089.249   -8207.1034    706.72966   -8913.8331   0.15502678 
   60400    295.38348   -509.48135     25947.08   -8201.9562    703.50517   -8905.4614   0.13969324 
   60600    299.15444   -831.45086    25991.953   -8218.1337    712.48633     -8930.62   0.14885226 
   60800    314.69946   -1425.6316    26111.614   -8186.1414     749.5094   -8935.6508    0.1536425 
   61000     299.9335   -1013.4977    26049.964   -8201.2244    714.34179   -8915.5662   0.14252175 
   61200    297.29483   -619.77697    25945.749   -8211.4366    708.05736    -8919.494   0.13983366 
   61400    293.85797   -944.62786    26022.742   -8212.4748    699.87191   -8912.3467   0.14702238 
   61600     301.7744   -1448.3138    26120.954   -8199.6253     718.7262   -8918.3515   0.14553449 
   61800    306.96483   -860.72236     26022.24   -8195.2341    731.08807   -8926.3221   0.13205248 
   62000    291.97606   -747.93409    25942.974   -8200.3603     695.3898   -8895.7501   0.15562377 
   62200    309.29396   -1120.0296    26062.624   -8198.8371     736.6353   -8935.4724   0.14181252 
   62400    302.64227   -1418.3459    26135.926   -8183.9468    720.79318     -8904.74   0.14773996 
   62600    301.84287   -749.64313    25996.583    -8198.567    718.88928   -8917.4563    0.1389976 
   62800    299.66469   -563.43252    25935.167   -8190.9274    713.70157   -8904.6289   0.14677963 
   63000    311.99207   -1188.7124    26098.623    -8161.757    743.06128   -8904.8183   0.14326422 
   63200    290.87864   -1482.3115    26165.667   -8170.3692    692.77613   -8863.1454   0.15087991 
   63400    309.26738   -789.26831    26006.055   -8160.1102    736.57199   -8896.6822   0.15510442 
   63600     305.7645    -665.1993    25959.184   -8149.8371     728.2293   -8878.0664   0.15602514 
   63800    305.55394   -1403.0784    26121.099    -8168.507    727.72781   -8896.2348   0.14958892 
   64000    316.26593   -1354.2162    26135.323   -8167.0531    753.24021   -8920.2933    0.1537311 
   64200    307.63256   -699.66187    25960.461   -8173.1243    732.67839   -8905.8027   0.15352393 
   64400    319.46425   -594.80975    25976.255   -8170.6298    760.85753   -8931.4874   0.13708933 
   64600    297.04771   -1445.2633    26160.655   -8191.8403    707.46879   -8899.3091   0.15158592 
   64800    306.20894   -1315.1048    26123.489   -8197.7672     729.2878    -8927.055   0.14705656 
   65000    313.46069   -442.50572    25936.828   -8195.2845    746.55905   -8941.8436   0.13936127 
   65200    303.42435   -689.20931    25991.847   -8207.6653    722.65583   -8930.3211   0.13529218 
   65400     308.6088   -1592.4435    26171.959   -8210.7601    735.00347   -8945.7635   0.14707813 
   65600    291.64269   -1101.5031    26091.932   -8225.5876    694.59585   -8920.1834   0.14338219 
   65800    294.86596    -361.4181    25911.301   -8229.0132    702.27259   -8931.2858   0.13513718 
   66000    295.36906   -998.15336    26026.106   -8218.8325    703.47081   -8922.3033   0.15048958 
   66200    286.98272   -1609.3312    26193.225   -8233.4401    683.49733   -8916.9374   0.15331509 
   66400    298.63294   -999.83753    26046.013   -8226.3858    711.24429   -8937.6301   0.13324609 
   66600    294.43874   -461.63457    25888.317   -8251.8045    701.25511   -8953.0596   0.14166567 
   66800    294.05683   -1049.6174    26045.506   -8240.9004    700.34552   -8941.2459   0.14692864 
   67000    294.43612   -1579.1798    26177.696   -8221.5623    701.24887   -8922.8111   0.14314371 
   67200     297.4057   -887.52943    26017.692   -8237.2557    708.32141   -8945.5771   0.12631689 
   67400     296.5096   -421.79955    25901.241   -8248.5493    706.18719   -8954.7365    0.1399518 
   67600    292.95612   -1099.4463    26065.532   -8236.6877    697.72398   -8934.4117   0.13573933 
   67800    295.58382   -1517.5205    26170.478   -8221.8809    703.98229   -8925.8632   0.13824032 
   68000    305.58026   -722.30368    26000.393    -8210.764    727.79049   -8938.5545   0.14177086 
   68200     299.3245   -580.68547    25934.496   -8225.4344    712.89136   -8938.3258   0.14783582 
   68400    291.80937   -1259.5887    26113.722   -8224.6988    694.99281   -8919.6916   0.13570016 
   68600    297.76161   -1433.3825    26158.212   -8218.3647    709.16907   -8927.5337   0.14168888 
   68800    294.82809   -652.06784    25979.693   -8203.2264    702.18239   -8905.4088   0.14792756 
   69000    290.24849   -688.52361    25964.057   -8216.8036    691.27531   -8908.0789   0.13661279 
   69200    293.17086    -1365.374     26136.95   -8216.8358    698.23542   -8915.0712   0.13465589 
   69400    292.88658   -1321.4578    26118.916   -8211.3373    697.55838   -8908.8957   0.15341324 
   69600    288.01341   -500.50595    25915.421   -8240.7624    685.95211   -8926.7145   0.14529843 
   69800    299.93646   -578.62729    25959.789   -8217.4858    714.34885   -8931.8346   0.12944319 
   70000    291.63581   -1748.0388     26206.84   -8212.1263    694.57944   -8906.7057   0.15147978 
   70200    309.89468   -1336.2158    26117.738   -8213.0121    738.06601   -8951.0782   0.15458439 
   70400    309.71444   -26.525811    25819.435   -8216.7524    737.63672   -8954.3891    0.1307999 
   70600    299.46468   -688.25641    25988.105   -8216.2909    713.22521   -8929.5161   0.13830143 
   70800    302.82457   -2303.8028    26368.917   -8210.1626    721.22736     -8931.39   0.15486339 
   71000    291.41129   -1231.6195    26114.565   -8239.8733    694.04473    -8933.918   0.13599297 
   71200    309.65382     593.3347    25702.421   -8236.0265    737.49236   -8973.5189   0.12074676 
   71400    299.27436   -906.59831    26052.059   -8221.0018    712.77194   -8933.7737   0.13446009 
   71600    297.45583   -2588.1409    26435.737   -8197.0256    708.44081   -8905.4664   0.16452778 
   71800    292.85275   -807.47719    26016.388   -8222.3141    697.47779   -8919.7919    0.1428501 
   72000    290.45577    456.01138    25709.907   -8228.4124    691.76899   -8920.1814   0.13928613 
   72200    290.89216   -1261.2613    26096.884   -8246.0639    692.80832   -8938.8722   0.14800844 
   72400    298.44685   -2026.6382    26289.581   -8244.0447    710.80108   -8954.8458    0.1436416 
   72600    305.27137   -687.18268     25955.67    -8239.258    727.05483   -8966.3128   0.13829217 
   72800    291.05956   -281.46523     25846.81   -8272.8234    693.20701   -8966.0304   0.14565167 
   73000    282.47303   -1428.8332    26120.296   -8261.4522    672.75676   -8934.2089   0.14422621 
   73200    304.56899   -1525.9894    26171.852   -8266.5379    725.38198   -8991.9199   0.13404403 
   73400    284.47647   -598.81171    25938.866   -8270.9583    677.52828   -8948.4866   0.13923935 
   73600    287.90386   -547.89449    25914.814   -8262.8225    685.69119   -8948.5137   0.13896015 
   73800    309.33847    -1416.662     26127.09   -8262.0226     736.7413   -8998.7639   0.13226688 
   74000    296.91223   -1383.8106    26120.108   -8279.0874    707.14614   -8986.2335   0.12905131 
   74200    284.10543   -553.19166    25919.212   -8290.1618     676.6446   -8966.8064    0.1286245 
   74400    284.39074   -664.67401    25943.299   -8277.6122    677.32411   -8954.9363   0.13791224 
   74600    287.24303    -1496.829    26141.487   -8280.6559     684.1173   -8964.7732   0.13556382 
   74800    278.83095   -1315.6505    26096.076   -8277.2702    664.08255   -8941.3528   0.13888993 
   75000    294.50825   -520.56508    25920.008    -8265.954    701.42064   -8967.3747   0.13516968 
   75200    296.01864   -725.22428     26004.29   -8244.3722    705.01789   -8949.3901   0.12846746 
   75400    285.75906   -1588.7035    26178.873   -8244.6078    680.58299   -8925.1908   0.14340016 
   75600    293.30952   -1038.7803    26069.502   -8230.4642    698.56566   -8929.0299    0.1260284 
   75800    285.10653   -436.38035    25923.046   -8235.3583    679.02887   -8914.3872   0.13281792 
   76000    294.36215   -1002.6685    26056.481    -8225.965    701.07269   -8927.0377   0.13844455 
   76200    295.70782   -1515.1813     26188.23   -8225.6655    704.27763   -8929.9431   0.13325813 
   76400    305.73945   -990.04194    26035.958   -8214.8989    728.16963   -8943.0685   0.13575384 
   76600    292.51641   -550.73815     25924.14   -8216.6097    696.67675   -8913.2865   0.14425088 
   76800    299.76466   -1167.1631    26083.009   -8216.1845    713.93966   -8930.1242   0.14018945 
   77000    296.44313   -1525.9272    26162.557   -8210.4446     706.0289   -8916.4735   0.14232519 
   77200    294.76546   -879.23395     25992.96   -8230.5141    702.03324   -8932.5474   0.14271566 
   77400    308.58176   -504.79667    25919.973   -8227.1699    734.93907   -8962.1089   0.13370159 
   77600    295.67233   -1196.5945    26080.938   -8235.1548    704.19311   -8939.3479   0.14210783 
   77800     284.9739   -1393.7018    26138.656   -8236.6782    678.71301   -8915.3912   0.14108072 
   78000    293.89593   -752.65018    25985.188   -8234.2955     699.9623   -8934.2578   0.14403318 
   78200    280.88036   -665.61838    25962.424   -8232.8022    668.96356   -8901.7657   0.14461134 
   78400    297.58118   -1354.7163     26117.72    -8242.926    708.73935   -8951.6654   0.13455712 
   78600    293.53949   -1330.4509    26110.879   -8250.3366    699.11338     -8949.45    0.1322385 
   78800    289.39053   -679.92337    25955.259   -8246.3128    689.23194   -8935.5447   0.13068837 
   79000    300.00048   -741.74923    25969.357    -8243.846    714.50132   -8958.3474   0.12874906 
   79200    296.99846   -1376.1986    26110.619   -8246.2123     707.3515   -8953.5638   0.14048195 
   79400    296.97674   -1217.5603    26084.344   -8231.6271    707.29977   -8938.9269   0.14310125 
   79600    304.11654   -622.79866    25958.889   -8219.6381    724.30439   -8943.9424   0.13502818 
   79800    294.83058   -912.39127    26010.605   -8237.6507    702.18833   -8939.8391   0.14206202 
   80000    298.81097   -1345.4641    26130.746   -8220.3928     711.6683   -8932.0611   0.14337351 
   80200    294.10665   -1139.9362    26065.586   -8207.3174    700.46417   -8907.7815   0.14116015 
   80400    305.52296     -578.842    25941.377   -8199.6579    727.65401   -8927.3119   0.13671203 
   80600    301.50746   -987.71804     26016.39   -8208.3844    718.09044   -8926.4749   0.14742372 
   80800    292.46368    -1398.623    26126.857   -8186.1564    696.55116   -8882.7076   0.15358302 
   81000    303.94951   -1061.5546    26049.887   -8199.7053    723.90659   -8923.6119   0.13810783 
   81200    301.48706   -669.20107    25969.235   -8195.8259    718.04185   -8913.8678   0.14577162 
   81400    297.71601   -1038.1234    26056.003   -8185.1567    709.06047   -8894.2171   0.15395232 
   81600    308.92931   -1383.7861     26132.67   -8184.5585    735.76682   -8920.3253   0.14189814 
   81800    293.81172     -990.421    26045.313   -8188.6187    699.76174   -8888.3804   0.14345897 
   82000     305.0091   -735.20719    25981.445   -8179.3223    726.43017   -8905.7525    0.1481547 
   82200    318.02884   -999.33075    26064.447   -8187.6688    757.43887   -8945.1077   0.13936313 
   82400    294.49193   -1248.3317    26117.892   -8184.9808    701.38178   -8886.3626   0.13743845 
   82600    302.06063   -845.47663    26039.691   -8195.0704    719.40791   -8914.4784   0.13103935 
   82800    305.87721   -933.86634    26019.824   -8212.7534    728.49773   -8941.2511   0.14867842 
   83000    309.95988    -1007.244    26083.282   -8211.6794    738.22129   -8949.9007   0.13090316 
   83200     277.4295    -1142.584    26084.594   -8218.8597    660.74474   -8879.6045   0.14684641 
   83400    300.68119   -949.59484    26028.814   -8239.4536    716.12254   -8955.5761   0.13581476 
   83600    289.40837   -980.04841    26024.048   -8266.0619    689.27444   -8955.3363   0.13517536 
   83800    289.88411   -1040.5448    26056.632    -8248.718    690.40748   -8939.1255    0.1341268 
   84000    285.56867   -1038.8027    26062.634   -8261.4464    680.12955    -8941.576   0.13739659 
   84200    289.44342   -919.57556    26034.244    -8246.617    689.35791    -8935.975   0.13533934 
   84400    284.59789   -918.27235    26039.423   -8256.0295    677.81747    -8933.847   0.13098579 
   84600     287.1499   -1085.2572    26064.091   -8254.2197     683.8955   -8938.1152   0.13238462 
   84800     294.4094   -1064.6765    26049.891   -8245.9214    701.18522   -8947.1066   0.13989648 
   85000    287.38846    -922.5515    26030.682    -8222.766    684.46367   -8907.2296   0.13240886 
   85200    295.22253   -1017.3659     26048.52   -8220.1158    703.12182   -8923.2376   0.14549941 
   85400    304.67745   -967.00783    26058.323    -8209.234    725.64029   -8934.8743   0.14258595 
   85600    302.03183   -898.34947    26034.844   -8225.9097    719.33932    -8945.249   0.12963743 
   85800    284.13774   -936.28228    26038.068   -8232.0828    676.72155   -8908.8044   0.13764001 
   86000    298.52932   -1098.9831     26056.57   -8209.3218    710.99749   -8920.3193   0.15997288 
   86200    309.74099   -1061.5117    26061.086   -8203.0356    737.69997   -8940.7356    0.1470549 
   86400    296.22127   -928.39911    26041.665   -8207.2668     705.5005   -8912.7673    0.1423374 
   86600    297.08825   -1009.4597     26034.09    -8207.515    707.56536   -8915.0804   0.15033938 
   86800    307.25377   -973.62814    26038.764   -8216.3405    731.77624   -8948.1167   0.14430754 
   87000    289.67357   -1058.5884    26033.243   -8240.5547    689.90605   -8930.4608   0.13944782 
   87200    298.30393   -967.70402    26011.541   -8237.4486     710.4607   -8947.9093   0.14020103 
   87400    284.63677   -970.72662    26018.493   -8224.9421    677.91006   -8902.8522   0.15335302 
   87600    295.60362   -1082.3141    26036.716   -8230.6544    704.02945   -8934.6838    0.1517745 
   87800    306.96884    -908.0789    26026.045   -8230.8825    731.09764   -8961.9801   0.13912002 
   88000    283.57126    -1046.988    26008.708   -8228.8848    675.37238   -8904.2572   0.15916098 
   88200    300.75408   -962.61249    26035.075   -8225.4712    716.29613   -8941.7673   0.14045202 
   88400    302.40573   -1156.3517    26074.929   -8219.9312    720.22982   -8940.1611   0.14797672 
   88600    306.25998   -958.41504     26044.31   -8221.6818    729.40936   -8951.0911   0.14386429 
   88800    301.11317   -704.64157    25988.209   -8218.1601    717.15136   -8935.3115   0.14183563 
   89000    284.59365   -916.36716    26032.887   -8222.1746    677.80737    -8899.982   0.14227845 
   89200    303.26108   -1304.0405    26100.468    -8204.896    722.26697    -8927.163   0.15896997 
   89400    304.08812   -936.03247    26040.871   -8194.1839    724.23671   -8918.4206   0.14238996 
   89600    300.66473   -694.00486    25985.145   -8189.7241    716.08333   -8905.8074   0.15005341 
   89800    298.64107    -1110.443    26051.224   -8215.1172    711.26364   -8926.3808   0.14805914 
   90000    306.19632   -1246.1602    26089.053   -8193.2767    729.25775   -8922.5345   0.15754712 
   90200    305.91144   -908.33987      26005.3   -8217.6648    728.57925    -8946.244   0.14717134 
   90400     298.8034   -608.16143    25955.188   -8228.4972    711.65028   -8940.1475   0.14079357 
   90600    298.55363   -1120.6205    26054.335   -8227.1279     711.0554   -8938.1833    0.1519773 
   90800    294.49924   -1364.6001    26113.307   -8226.7956    701.39918   -8928.1948   0.15195964 
   91000    287.07038   -781.98739    25983.917   -8232.3576    683.70612   -8916.0637   0.14657686 
   91200    293.01384   -557.49283    25938.514   -8228.8377    697.86146   -8926.6991   0.14365786 
   91400    295.69303   -1278.8444    26100.621   -8230.2606    704.24239    -8934.503   0.14328683 
   91600    290.65284   -1435.2941    26121.571   -8228.5233    692.23834   -8920.7616   0.15640606 
   91800    302.49587   -545.05166    25937.679   -8231.0944     720.4445   -8951.5389   0.14117875 
   92000    294.08236   -607.87736    25956.258   -8229.9399    700.40632   -8930.3463   0.13867861 
   92200    290.30081   -1511.4132     26153.33   -8246.2407    691.39993   -8937.6406   0.14165255 
   92400    295.19766    -1277.004    26094.945   -8220.9485    703.06259   -8924.0111    0.1560613 
   92600    288.97317   -373.89771    25890.572   -8243.9323    688.23794   -8932.1703   0.13972147 
   92800    303.36662    -744.9782    25986.863   -8225.3158    722.51833   -8947.8341   0.14298918 
   93000    293.99364   -1697.4722    26201.027   -8203.9566    700.19502   -8904.1516    0.1558768 
   93200    287.83047   -1096.3295     26081.53   -8202.4016    685.51639    -8887.918   0.15919324 
   93400    303.72989   -301.32536    25881.502   -8204.6398    723.38354   -8928.0234   0.14050164 
   93600    297.55337   -1003.7177    26026.259   -8193.2419    708.67311    -8901.915   0.16013688 
   93800    297.76687    -1874.325    26229.588   -8181.9523    709.18159   -8891.1339   0.16161118 
   94000    311.67915   -1182.5145    26070.402   -8187.7594    742.31601   -8930.0754   0.15295768 
   94200    288.79854   -359.24475    25863.767   -8232.3394    687.82202   -8920.1614   0.14407516 
   94400    296.87299   -991.61651    26032.169   -8222.6248    707.05266   -8929.6774   0.14690317 
   94600    291.52952   -1819.9108    26213.702   -8244.0196     694.3263   -8938.3459    0.1450159 
   94800    290.91171    -922.5348    25993.966   -8257.1691    692.85488    -8950.024   0.14043159 
   95000    278.25276   -268.76962    25827.234   -8262.6682    662.70548   -8925.3737     0.150156 
   95200     280.8108   -1286.3865    26064.084   -8269.8497    668.79788   -8938.6476   0.15749732 
   95400    284.26361   -1788.9057    26205.166   -8279.4521    677.02134   -8956.4734   0.14658654 
   95600    281.01991   -674.80969    25954.564    -8264.962    669.29592    -8934.258   0.14499985 
   95800    293.79161   -333.73643    25855.832   -8262.3004    699.71386   -8962.0143   0.15017686 
   96000    285.28552   -1452.4971    26122.388   -8247.7326    679.45516   -8927.1877   0.16096723 
   96200    292.58206   -1705.3214    26206.696   -8244.2856    696.83311   -8941.1187   0.14548989 
   96400    289.77689   -519.79926    25934.621   -8248.7286    690.15212   -8938.8808   0.13938687 
   96600    293.17256     -431.857        25903   -8235.0985    698.23949    -8933.338   0.13994227 
   96800    286.36266   -1459.4807     26141.55   -8258.4416    682.02056   -8940.4622   0.13836248 
   97000    290.63048   -1379.5163    26129.372   -8262.0671    692.18508   -8954.2522   0.14045201 
   97200     292.2984    -566.6758    25912.707   -8256.3371    696.15752   -8952.4947   0.14652794 
   97400      287.014   -629.17373    25945.507   -8239.5313    683.57183   -8923.1032   0.13938353 
   97600    292.66363   -1353.1384    26128.412   -8217.3514    697.02738   -8914.3788   0.14002152 
   97800    295.49197    -1192.756    26087.603   -8210.0871    703.76353   -8913.8507   0.15092928 
   98000    300.89857   -689.10632    25963.498   -8213.1049    716.64026   -8929.7452   0.14286992 
   98200    300.30155   -916.93401     26025.11   -8218.3784    715.21836   -8933.5968   0.13764921 
   98400     308.6489     -1301.72     26118.41   -8192.8007    735.09897   -8927.8996   0.14071734 
   98600    297.82491   -1106.2198    26058.783   -8215.4528    709.31983   -8924.7726   0.14317406 
   98800    302.89547    -878.2669    25985.548   -8203.4881    721.39622   -8924.8843   0.14218634 
   99000    296.95813   -1013.4817    26045.436   -8204.6833    707.25544   -8911.9388   0.14270479 
   99200    297.27193   -1208.5941    26096.911   -8225.3643     708.0028   -8933.3671   0.14330418 
   99400    289.79975   -1052.6846    26026.124   -8270.5519    690.20656   -8960.7585   0.12868526 
   99600    287.14205   -740.87914    25960.735   -8276.2153    683.87681   -8960.0921   0.12676513 
   99800    281.82152   -1023.0198    26034.519   -8262.6255    671.20508   -8933.8305   0.14352971 
  100000    289.89093   -1320.2938    26098.375    -8267.358    690.42373   -8957.7817   0.13853924 
  100200    290.24752   -972.03251    26019.861     -8244.82    691.27301    -8936.093   0.13550044 
  100400    294.08547   -744.83167     25972.21    -8241.429    700.41373   -8941.8427    0.1419879 
  100600    306.98529   -1133.6409    26056.416   -8224.8165     731.1368   -8955.9533   0.14953532 
  100800    287.92729   -1360.7571    26105.255   -8233.1252    685.74698   -8918.8722   0.15298098 
  101000    288.19427   -966.82835    26012.268   -8224.7825    686.38285   -8911.1654   0.14888621 
  101200     294.8167   -750.88568    25969.759   -8219.1057    702.15528    -8921.261   0.15298348 
  101400    304.68105   -1170.1805    26081.185   -8227.7004    725.64888   -8953.3493    0.1489319 
  101600    299.13352   -1262.8024    26110.852   -8240.3435    712.43649     -8952.78   0.13520898 
  101800    293.73654    -720.6506    25992.339   -8230.8665     699.5827   -8930.4492   0.14382062 
  102000    299.73474   -742.99114    25983.584   -8229.2826    713.86841    -8943.151   0.13812722 
  102200    299.67669    -1249.683    26098.837   -8223.8052    713.73016   -8937.5354   0.13963473 
  102400    307.36532   -1164.0852    26093.006   -8206.5357    732.04191   -8938.5776   0.14410003 
  102600    297.01696   -712.35562    25982.876   -8212.4519    707.39556   -8919.8475   0.14690153 
  102800    304.31315   -720.60458    26008.834   -8216.4978    724.77267   -8941.2705   0.13165828 
  103000    295.12656    -1387.372    26128.726   -8220.9472    702.89325   -8923.8404   0.14281317 
  103200    297.40091   -1116.4309    26074.392   -8213.0638       708.31   -8921.3738   0.14338899 
  103400    298.55095   -643.40416    25952.519   -8227.7104    711.04902   -8938.7594   0.13846106 
  103600    295.85257   -895.29127    26022.746   -8234.6076    704.62238     -8939.23   0.13429258 
  103800    299.96563   -1385.5283    26149.531   -8225.8901    714.41831   -8940.3085    0.1407814 
  104000    294.81713   -1019.1846    26055.639   -8231.5062     702.1563   -8933.6625   0.13757323 
  104200    292.74892   -574.58833    25916.472   -8243.7068    697.23051   -8940.9373   0.14430211 
  104400    283.21996   -958.80242    26019.334   -8245.7467     674.5357   -8920.2824   0.14144006 
  104600    291.98153   -1644.9144    26167.894   -8244.1989    695.40284   -8939.6018   0.14214161 
  104800    296.25955   -957.54426    26033.662   -8234.4827    705.59167   -8940.0744   0.13174465 
  105000    293.58987   -422.79778    25886.934   -8239.9861    699.23336   -8939.2195   0.13846075 
  105200    293.36252    -1045.868    26068.906   -8240.1761    698.69189    -8938.868   0.12868925 
  105400    290.93716   -1788.5069    26237.049   -8223.1667    692.91549   -8916.0821    0.1394373 
  105600    295.25796    -846.7825    25993.862   -8231.1361     703.2062   -8934.3423    0.1411023 
  105800    291.51338   -26.284431    25824.284   -8234.3518    694.28787   -8928.6397   0.13751105 
  106000    302.81997     -1344.19    26148.346   -8218.4969    721.21639   -8939.7133   0.12685234 
  106200     295.0452    -2098.285    26307.735   -8192.7881     702.6995   -8895.4876   0.15707884 
  106400    294.14063   -346.16259    25895.946   -8219.2389     700.5451    -8919.784   0.13663082 
  106600    294.23277    296.78197    25760.328   -8234.2654    700.76455   -8935.0299   0.12891627 
  106800     292.2941   -1876.8308    26236.776   -8233.8536    696.14728   -8930.0009   0.14030137 
  107000    291.94186   -2061.5164    26313.364   -8213.7755    695.30837   -8909.0839   0.15147699 
  107200    302.12758    16.460937    25818.165   -8216.2887    719.56736   -8935.8561   0.13513416 
  107400    300.49999    7.6229916    25815.697    -8224.452    715.69097    -8940.143   0.13596046 
  107600    306.39821     -2018.17    26281.944   -8198.4442    729.73857   -8928.1828   0.14504246 
  107800    300.98221   -1764.2608     26231.48   -8214.5345    716.83947   -8931.3739   0.14696523 
  108000    300.32291   -11.849598    25843.995   -8219.6925    715.26924   -8934.9618   0.12500832 
  108200    298.27965   -484.28054     25943.25   -8235.6001    710.40287   -8946.0029   0.12945917 
  108400    300.81751   -1808.6864    26240.995   -8220.3469     716.4472   -8936.7941   0.13784556 
  108600    296.84141   -1272.7637    26119.799   -8215.5768    706.97746   -8922.5543   0.13263768 
  108800    298.30373   -363.14575    25878.159   -8221.6839    710.46023   -8932.1441   0.13323305 
  109000    290.27219   -792.27788    25995.554   -8238.1986    691.33176   -8929.5304   0.13755254 
  109200    302.61795   -1518.4478    26186.157   -8240.2097    720.73526    -8960.945   0.12971886 
  109400    303.20049   -1009.7705    26071.075   -8243.8522    722.12267   -8965.9748   0.12487203 
  109600    309.14884    -306.2776    25924.526   -8223.7918    736.28966   -8960.0814   0.11822988 
  109800    294.72431   -1135.7562    26066.831   -8240.9941    701.93522   -8942.9293   0.13662688 
  110000    303.06431   -1538.7211    26176.215   -8206.6713    721.79834   -8928.4697   0.13523421 
  110200    299.83557   -879.95382    26019.844    -8204.113    714.10855   -8918.2216   0.13575255 
  110400    291.17025   -512.52328    25926.282   -8221.1074    693.47063   -8914.5781   0.13923274 
  110600    283.23098   -1149.6099    26086.856   -8238.1165    674.56195   -8912.6784    0.1406325 
  110800    288.34726   -1458.2545    26159.186   -8239.0734    686.74723   -8925.8207   0.13236659 
  111000    299.55772   -888.71516    25991.694   -8240.1105     713.4468   -8953.5573   0.13674275 
  111200    293.97052   -560.13199    25933.067   -8238.2721    700.13995   -8938.4121   0.13384272 
  111400    291.40423   -1284.4493    26105.484   -8255.4864    694.02791   -8949.5143   0.13574247 
  111600    291.94911   -1479.3151    26137.633   -8266.9858    695.32564   -8962.3115   0.13468647 
  111800    292.67614   -649.89731    25937.416   -8273.1209    697.05717    -8970.178   0.12763578 
  112000    280.23627   -654.89339    25923.701   -8285.7681    667.42955   -8953.1976   0.13763562 
  112200    280.49122   -1412.3119    26126.975   -8273.4514    668.03675   -8941.4881   0.13596777 
  112400    284.71544   -1438.4593    26115.201   -8264.9895    678.09743   -8943.0869   0.13712933 
  112600    288.44615   -592.49267    25918.833   -8258.4642    686.98275    -8945.447   0.13570372 
  112800    284.60332   -835.97189     25959.33   -8264.3487    677.83039   -8942.1791   0.13970034 
  113000     284.1333   -1482.4703     26140.14     -8252.56    676.71096   -8929.2709   0.13620159 
  113200    293.03775   -1228.0321    26082.227   -8272.5056    697.91842    -8970.424   0.13090987 
  113400    298.56316   -434.83257    25909.128   -8252.5682    711.07809   -8963.6463   0.13331936 
  113600     284.3029   -863.00673    25984.797   -8254.6031     677.1149    -8931.718   0.13811301 
  113800    290.44609   -1449.1863    26147.093   -8240.5596    691.74594   -8932.3055   0.13652029 
  114000    286.98666   -1183.5735    26055.381   -8242.4041    683.50672   -8925.9108   0.14863868 
  114200    292.31552   -378.53316    25896.605   -8252.9826    696.19828   -8949.1809   0.13055905 
  114400    301.61887   -762.33252    25996.443   -8229.1623    718.35577    -8947.518   0.13005824 
  114600    294.03613   -1529.6899    26164.304   -8218.1417    700.29622   -8918.4379   0.14196972 
  114800      291.648   -1149.5412    26058.382   -8211.9539    694.60849   -8906.5624   0.15601156 
  115000    295.21437   -388.60832    25893.737   -8221.7876     703.1024     -8924.89   0.13306944 
  115200    305.70311    -920.3633     26024.53   -8232.1627    728.08308   -8960.2458   0.13488673 
  115400    289.29462    -1676.062    26180.065   -8233.2976    689.00352   -8922.3011   0.15775397 
  115600    293.34135   -911.88344     26014.11   -8222.7646    698.64149   -8921.4061   0.14042411 
  115800    295.74261    -287.2887    25874.597   -8227.7333    704.36047   -8932.0938   0.13521814 
  116000    292.21385   -1106.1677    26049.727   -8221.3162    695.95616   -8917.2724   0.14808546 
  116200    292.71702    -1771.843    26182.977   -8228.2446    697.15454   -8925.3992   0.15565791 
  116400    286.84832   -776.55638      25983.7   -8247.1126    683.17725   -8930.2898   0.13617786 
  116600    286.46674   -419.12856    25884.205   -8260.5589    682.26844   -8942.8273   0.13415806 
  116800    298.13822   -1239.6075    26101.087   -8241.1248    710.06604   -8951.1908   0.13171758 
  117000    295.14544   -1590.9762    26180.268   -8235.8994    702.93822   -8938.8376   0.13968702 
  117200    296.86036   -592.17366    25963.019   -8229.8255    707.02259   -8936.8481    0.1334524 
  117400    292.22374   -422.14508    25913.513   -8242.1698    695.97969   -8938.1495   0.13396826 
  117600    280.17596   -1473.5798    26129.256   -8241.7987     667.2859   -8909.0846   0.14220506 
  117800    304.89736   -1477.6301    26154.015   -8220.4272    726.16405   -8946.5912   0.13693178 
  118000    292.30257   -669.63454    25946.634   -8218.0126    696.16745     -8914.18   0.14304015 
  118200    289.54644   -561.70657    25940.815   -8215.7196    689.60327   -8905.3228     0.133911 
  118400    293.72718    -1379.213    26137.806   -8239.3325     699.5604   -8938.8929   0.13424012 
  118600    284.68005   -1326.1405     26099.25   -8250.4345    678.01314   -8928.4476    0.1388769 
  118800    281.15795   -567.09064    25913.381   -8264.0667    669.62467   -8933.6914   0.13605196 
  119000    290.67927    -719.7547    25967.657   -8260.9201    692.30129   -8953.2214   0.13224775 
  119200    295.96813   -1448.3439    26143.475   -8248.7261     704.8976   -8953.6237   0.13314131 
  119400    283.07965   -1235.5389    26065.788   -8273.9328    674.20153   -8948.1344   0.14011896 
  119600    297.13185    -524.2377    25913.641   -8249.0173    707.66918   -8956.6865   0.13732024 
  119800    283.28131   -1000.6575    26000.561   -8242.4739     674.6818   -8917.1557   0.14668016 
  120000    289.97194   -1376.4705    26125.098     -8251.83    690.61667   -8942.4466   0.13741777 
  120200    290.67324   -1178.5663    26044.196   -8249.1344    692.28693   -8941.4213   0.15177096 
  120400    286.13832   -636.15949    25949.888   -8249.5257    681.48625    -8931.012   0.13821151 
  120600    298.78167   -966.32441    26031.097   -8252.6745     711.5985    -8964.273   0.13422294 
  120800    297.56885   -1312.7007    26101.345   -8244.2651    708.70997   -8952.9751   0.14138055 
  121000    290.14538   -835.39336    26017.688   -8239.1275    691.02975   -8930.1573   0.14029235 
  121200    294.32299   -689.41458    25979.925   -8237.5974    700.97942   -8938.5768   0.13405092 
  121400    301.57872    -1089.905    26066.226   -8238.7059    718.26016    -8956.966   0.12903627 
  121600    302.42734   -1130.6264    26090.577   -8227.9247    720.28129    -8948.206   0.13180411 
  121800    298.34015   -832.90672    26017.242    -8237.101    710.54696    -8947.648   0.13227509 
  122000    295.94148    -851.6954    26007.428   -8236.9814    704.83412   -8941.8155   0.13289977 
  122200    294.27685   -1160.0433    26080.284   -8229.9251    700.86953   -8930.7946    0.1402993 
  122400    301.93018   -1040.8302    26084.115   -8217.3357    719.09723    -8936.433   0.13713762 
  122600    306.75893   -938.15553    26047.655   -8176.9117    730.59768   -8907.5094   0.14666484 
  122800    293.45728   -1131.8086    26058.831   -8188.7426    698.91759   -8887.6602   0.15069222 
  123000    307.40353   -1074.4329    26073.116   -8196.7222    732.13291   -8928.8551   0.13870487 
  123200    293.66666   -1044.2943    26053.079   -8222.8239    699.41625   -8922.2402   0.13775457 
  123400    290.38833   -1030.6756    26031.663   -8245.6885    691.60837   -8937.2969   0.13869196 
  123600    295.04353   -935.65216    26031.459   -8238.7305    702.69552   -8941.4261   0.13301881 
  123800    296.27506   -1028.4514    26042.353   -8230.6942    705.62859   -8936.3228   0.14509204 
  124000    298.16982   -962.78914    26037.274   -8228.6394    710.14129   -8938.7807   0.13521507 
  124200     296.8639   -987.52972    26027.531   -8226.2139    707.03102   -8933.2449   0.14154246 
  124400    291.26647   -1097.2614    26027.136   -8232.3195    693.69982   -8926.0193   0.15161559 
  124600    287.47691   -1052.0944    26045.859   -8227.5299    684.67434   -8912.2043   0.14581878 
  124800    294.74412   -1001.2701    26052.512    -8235.413    701.98242   -8937.3954    0.1372407 
  125000    288.49654   -1040.4604    26033.729   -8234.9352    687.10275   -8922.0379   0.14420336 
  125200    296.84088   -993.39533    26026.737   -8233.6459     706.9762   -8940.6221   0.13943724 
  125400    278.08215   -1091.7339    26033.698   -8256.0265    662.29915   -8918.3257   0.14319938 
  125600    291.59181   -1003.4889     26034.68    -8254.974    694.47467   -8949.4487   0.13714013 
  125800    287.73647   -985.83958    26031.195   -8253.7733    685.29252   -8939.0658   0.13990117 
  126000    292.03184   -960.83346     26030.42   -8245.3915    695.52267   -8940.9142   0.13833159 
  126200    292.45335   -982.01895     26029.44    -8238.542    696.52655   -8935.0685   0.13034518 
  126400    293.81876   -931.94645    26012.099   -8251.5026    699.77851   -8951.2811   0.13441431 
  126600    297.62285   -931.30542    26010.836   -8251.4302    708.83858   -8960.2688   0.12961148 
  126800    296.29161   -1039.5619    26037.282   -8242.0001    705.66802   -8947.6681   0.13654947 
  127000    283.54281   -1013.7104     26032.07   -8256.4474    675.30461    -8931.752   0.13880268 
  127200    286.20672   -932.55167    26005.259   -8268.5459    681.64916    -8950.195   0.13417554 
  127400    284.88755    -999.4635      26013.2   -8269.1908    678.50735   -8947.6981   0.13654866 
  127600    277.46192   -1091.5615    26030.094   -8277.2441    660.82197    -8938.066   0.14481645 
  127800    292.82176   -952.75221    26014.917   -8260.3543      697.404   -8957.7583     0.128776 
  128000    287.34391   -904.37215    26013.243   -8271.3163    684.35757   -8955.6739   0.13145651 
  128200    281.91989   -1087.6354    26032.552   -8257.1236    671.43935   -8928.5629   0.13937523 
  128400    292.19773   -1045.3086    26045.645   -8267.2878    695.91777   -8963.2056   0.13161808 
  128600    296.99892   -966.82365    26020.148   -8271.0731    707.35259   -8978.4257   0.12579397 
  128800    297.98581   -855.34909    25984.882     -8288.12    709.70304   -8997.8231   0.13008042 
  129000    265.49414   -1063.1478    25998.958   -8303.9237    632.31868   -8936.2423   0.14153948 
  129200    290.81936   -1098.5459    26032.793   -8290.8873    692.63493   -8983.5222   0.12490717 
  129400    293.89328   -970.71625    26013.598   -8293.3428    699.95599   -8993.2988   0.12193261 
  129600    288.72675   -832.41376    25974.184   -8295.9377    687.65104   -8983.5888   0.13339605 
  129800     290.3713   -995.01132    26001.577   -8294.6112    691.56782    -8986.179   0.12799738 
  130000    274.80346   -1111.9988    26032.608   -8307.8031     654.4904   -8962.2935   0.12898831 
  130200    277.45137   -1022.1148    25995.031   -8307.2961    660.79683   -8968.0929   0.14388995 
  130400      270.029   -846.89291    25961.404   -8301.9939    643.11923   -8945.1131   0.13636006 
  130600    282.68993   -1008.2621    26011.993   -8281.1141    673.27335   -8954.3874   0.13001598 
  130800    275.85923   -1150.2974    26055.671   -8270.6804    657.00488   -8927.6852   0.14786323 
  131000     296.2842   -889.22312    26010.209   -8281.9649    705.65038   -8987.6153   0.12648021 
  131200    283.79012   -755.96066     25972.66    -8269.297    675.89364   -8945.1906   0.12978059 
  131400    273.81486    -1108.575    26042.546   -8275.9812    652.13589    -8928.117   0.13230863 
  131600     287.3408    -1222.578    26087.126   -8270.7507    684.35018   -8955.1008   0.14140442 
  131800    290.53118   -940.02029    26011.376   -8263.8657    691.94859   -8955.8142   0.13073682 
  132000    292.90602   -661.25081     25965.25   -8244.3503    697.60468    -8941.955    0.1334356 
  132200    301.68503   -1060.0759    26066.686   -8253.3695    718.51336   -8971.8828   0.12825016 
  132400    294.00237   -1395.5978    26111.631   -8249.9769    700.21582   -8950.1928   0.13951118 
  132600    298.65116   -724.62308    25975.623   -8232.4871    711.28768   -8943.7748   0.12581547 
  132800    289.81022   -681.89275    25952.815   -8221.7233     690.2315   -8911.9548    0.1477256 
  133000    294.49804   -1359.7917    26127.749   -8217.1011    701.39633   -8918.4974   0.13969122 
  133200    299.81976   -1426.3856    26124.324   -8210.6018     714.0709   -8924.6727   0.13510353 
  133400    303.57479   -519.72996    25934.521   -8198.1776    723.01414   -8921.1918   0.14406683 
  133600    296.43694   -767.52633    25987.358   -8196.0355    706.01415   -8902.0497   0.14513566 
  133800    288.93834   -1662.1386    26187.232   -8206.1402    688.15497   -8894.2951   0.15168333 
  134000    310.99834   -1177.0404    26097.384   -8186.8087    740.69455   -8927.5033   0.14741796 
  134200    297.05772   -464.56917    25894.319   -8195.7556    707.49264   -8903.2482   0.14988899 
  134400    305.58403   -881.64569    26017.577    -8199.723    727.79948   -8927.5225   0.14071881 
  134600    294.79811     -1762.73    26228.137   -8210.4833      702.111   -8912.5943   0.13944373 
  134800    301.57793   -1003.3435    26061.371   -8229.3428    718.25826   -8947.6011   0.12951035 
  135000    289.78591   -215.35806    25859.755   -8251.9198    690.17361   -8942.0934    0.1323145 
  135200    295.76644   -1009.1623    26050.411   -8244.5233    704.41725   -8948.9406   0.13535591 
  135400      297.599   -1784.4704    26221.708   -8252.3698    708.78178   -8961.1516   0.13742758 
  135600      292.767   -855.94729    25997.902   -8241.2157    697.27357   -8938.4892   0.14097808 
  135800    288.39667   -260.00441    25851.387   -8269.8916    686.86489   -8956.7565   0.12546314 
  136000      300.163   -1220.9947    26088.797   -8278.4823    714.88837   -8993.3706   0.13536318 
  136200    285.07365   -1668.8938    26193.033   -8275.3436    678.95058   -8954.2941   0.13674356 
  136400    297.32859   -625.81785    25944.041   -8265.6785    708.13777   -8973.8162   0.12905646 
  136600    291.38241   -330.72218    25884.408   -8248.1655    693.97593   -8942.1415   0.13608299 
  136800    297.56656   -1386.8081    26130.581   -8243.7666    708.70453   -8952.4712   0.14292371 
  137000    288.48842   -1573.6745     26163.38   -8249.2212    687.08341   -8936.3046     0.136671 
  137200    294.41825   -597.30125    25929.804   -8263.1261    701.20629   -8964.3324   0.13383012 
  137400    292.51813    -484.9289     25913.73    -8250.644    696.68086   -8947.3249   0.13980697 
  137600    299.84178   -1426.3867    26137.729   -8242.5853    714.12334   -8956.7087   0.13758542 
  137800    296.82631   -1434.2058    26121.973   -8224.0769     706.9415   -8931.0184   0.13799127 
  138000    288.60757   -597.20974    25931.399    -8225.042    687.36718   -8912.4092   0.14491405 
  138200    289.24877   -830.58077     25981.01   -8243.7401    688.89431   -8932.6344   0.14629591 
  138400    300.92576   -1355.1092    26127.216   -8230.5498    716.70503   -8947.2549    0.1304323 
  138600    290.78347    -1145.064    26055.386   -8248.8424    692.54946   -8941.3918   0.14115276 
  138800     287.6558   -645.97211    25939.433   -8231.8906     685.1004    -8916.991   0.14173362 
  139000    287.15521   -985.33144    26034.195   -8240.4685    683.90815   -8924.3767    0.1366831 
  139200    293.36367   -1357.1595    26128.602   -8239.3659    698.69465   -8938.0606   0.13522912 
  139400    299.19604   -1024.1123    26027.419   -8237.6073    712.58539   -8950.1927   0.14298611 
  139600    304.03546   -651.60137    25971.156   -8235.9607    724.11128   -8960.0719   0.13177193 
  139800    295.02285    -1242.578    26059.804   -8228.4497    702.64626   -8931.0959   0.14541271 
  140000    287.29221   -1225.0709    26076.618   -8217.5304    684.23445   -8901.7649   0.15645206 
  140200    291.14874   -890.46833     25991.02   -8224.1502    693.41942   -8917.5696   0.14207107 
  140400    290.34614   -879.69797    25984.049   -8239.4674    691.50789   -8930.9753    0.1371331 
  140600    298.55244   -1163.5698    26053.692   -8249.7726    711.05257   -8960.8252   0.14071908 
  140800    295.23976   -1083.5524    26038.148   -8232.3343    703.16286   -8935.4972   0.14827037 
  141000    302.50624   -896.98224    25971.295    -8243.927     720.4692   -8964.3962    0.1321731 
  141200    300.67814   -798.00924    25980.144   -8238.1715    716.11527   -8954.2868   0.13586389 
  141400     285.5382    -1171.289    26054.815   -8231.8158    680.05697   -8911.8728   0.15284384 
  141600    286.99179   -1160.7329    26042.758   -8220.6934    683.51893   -8904.2123   0.15244783 
  141800    298.35908   -760.93816    25979.165   -8242.9935    710.59205   -8953.5856    0.1328972 
  142000    277.38379   -979.64286    25999.988   -8243.4905    660.63588   -8904.1264   0.15486057 
  142200    284.46126    -1201.518    26063.289   -8239.6316    677.49205   -8917.1236   0.14943534 
  142400    281.74221   -1134.6619     26049.88    -8249.866     671.0162   -8920.8822   0.14620784 
  142600    283.00109   -879.15266    25996.531   -8249.8753    674.01443   -8923.8898   0.13835193 
  142800    287.51143   -984.19107    26013.021   -8252.2386    684.75656   -8936.9952   0.14421321 
  143000    293.82864   -1127.9992    26064.012   -8256.6246    699.80205   -8956.4266   0.13462315 
  143200    283.98751   -1203.2325    26045.347   -8261.8776    676.36374   -8938.2414    0.1458502 
  143400     284.0445   -756.12108     25983.46   -8250.7673    676.49947   -8927.2668   0.13756386 
  143600    299.40791   -853.94347    26021.808   -8239.1034       713.09   -8952.1934   0.13108044 
  143800    287.27756   -1224.1332    26097.835   -8235.1243    684.19954   -8919.3239   0.13793128 
  144000    300.99466   -978.63309    26041.918   -8245.3835    716.86911   -8962.2526   0.13517329 
  144200     299.9832   -675.37302    25966.913   -8233.5986    714.46016   -8948.0588   0.13131616 
  144400    297.97341   -1061.7136    26039.653   -8228.9477    709.67351   -8938.6212   0.14131446 
  144600    302.50652   -1193.8812    26094.522   -8222.7863    720.46987   -8943.2562   0.13988186 
  144800     302.9006   -901.07347    26009.821    -8219.917    721.40844   -8941.3254   0.14537194 
  145000    288.15542   -711.47862    25963.308   -8245.2287    686.29032   -8931.5191   0.13186633 
  145200    298.09625   -1108.5047    26053.275   -8235.0577    709.96607   -8945.0238   0.14746145 
  145400    283.42522   -1304.2198    26098.992   -8229.2561    675.02456   -8904.2807   0.14681816 
  145600    305.44096   -825.31481    26001.551   -8231.0743    727.45873    -8958.533   0.13492696 
  145800     291.6004   -774.79345    25966.769    -8247.823    694.49511   -8942.3181    0.1334248 
  146000    293.46228   -1205.7352    26067.159   -8238.3331    698.92949   -8937.2626     0.147889 
  146200    285.27641   -1292.3922    26080.568   -8244.1453    679.43348   -8923.5788   0.13987322 
  146400    287.89647   -786.57943    25957.896   -8250.4569    685.67358   -8936.1304   0.14544802 
  146600    297.88715   -662.42353    25957.006    -8228.144    709.46807   -8937.6121   0.14174811 
  146800    296.26343   -1306.1302    26115.349   -8199.5859    705.60091   -8905.1868    0.1554262 
  147000    297.89276   -1377.7931    26116.903   -8187.9618    709.48143   -8897.4432   0.14858815 
  147200    288.84799   -569.73097    25939.893    -8193.382    687.93979   -8881.3217   0.15406862 
  147400    296.24518   -702.81918    25961.366   -8217.8899    705.55743   -8923.4474   0.14401277 
  147600    295.38214   -1481.4739    26130.184   -8232.8543    703.50197   -8936.3563   0.14524935 
  147800     299.0396   -1245.2197    26083.588   -8239.6983    712.21282   -8951.9112   0.13759939 
  148000    287.46217   -531.37133    25926.385   -8252.3073    684.63924   -8936.9466   0.14185401 
  148200    296.36358   -892.61039    25998.096   -8247.5531    705.83942   -8953.3925   0.13227645 
  148400    292.70285    -1470.813    26144.815   -8251.6934     697.1208   -8948.8142   0.14128132 
  148600     284.4097   -1095.7976    26041.624   -8259.5203    677.36927   -8936.8896   0.14517444 
  148800    284.92312   -464.47872    25904.479   -8263.8181    678.59205   -8942.4102   0.13540559 
  149000    286.24768   -1029.9158    26029.328   -8254.0658    681.74672   -8935.8125   0.14113073 
  149200     274.0612   -1560.2883    26155.156   -8256.6219    652.72259   -8909.3445    0.1531397 
  149400    287.92419   -947.39763    26007.497    -8268.689     685.7396   -8954.4286   0.13572818 
  149600    277.43553   -452.21174    25896.453   -8266.8684     660.7591   -8927.6275   0.13605533 
  149800     284.1325   -1188.0747    26052.725   -8261.6092    676.70906   -8938.3182   0.14477768 
  150000    297.48014   -1525.1811    26146.447   -8249.7247    708.49871   -8958.2234   0.14591769 
  150200    296.68482   -850.74714    25986.912   -8216.5969    706.60452   -8923.2014   0.14060679 
  150400    301.73565   -385.25932    25911.088   -8204.9273    718.63391   -8923.5612   0.13626114 
  150600    288.60117   -1267.6475    26092.285   -8225.8659    687.35196   -8913.2178   0.14431386 
  150800    306.51974   -1360.4834    26152.371   -8223.7937    730.02802   -8953.8217   0.13600332 
  151000    289.15512   -805.91936    25972.486    -8225.363    688.67127   -8914.0343   0.14175516 
  151200     294.7455   -561.03015    25923.798   -8243.1536    701.98571   -8945.1393   0.14920861 
  151400    306.37909   -1299.0035    26120.844   -8201.3743    729.69303   -8931.0673   0.14172301 
  151600     306.2672    -1528.197     26159.73    -8183.339    729.42655   -8912.7656   0.15074743 
  151800    296.77018   -704.70861    25948.996   -8201.1653    706.80782   -8907.9731   0.15824301 
  152000    296.21022   -529.61129    25929.661   -8199.1142    705.47417   -8904.5884   0.15202276 
  152200    296.97502   -1492.6229    26156.887   -8205.7272    707.29568   -8913.0229   0.14231866 
  152400    288.54507   -1445.9443    26145.513   -8212.7037    687.21834    -8899.922   0.15673171 
  152600    312.31991   -475.58984    25917.608   -8224.7029     743.8421    -8968.545   0.13847564 
  152800    305.40561   -663.28038    25959.175   -8185.9083    727.37453   -8913.2829   0.14707569 
  153000    300.13836   -1730.9774    26210.425   -8194.1159     714.8297   -8908.9456   0.14410268 
  153200    301.77225   -1246.0596    26134.245    -8191.425    718.72109    -8910.146   0.15766716 
  153400    306.65328   -299.52385    25890.917   -8189.4295    730.34606   -8919.7755   0.14353071 
  153600    301.59122   -699.68166    25978.828   -8192.6643    718.28992   -8910.9542   0.14053024 
  153800    306.55602   -1744.7015     26217.55   -8196.8477    730.11443   -8926.9622   0.15849683 
  154000    296.82053   -1152.1251    26097.764   -8205.4833    706.92772    -8912.411    0.1470691 
  154200    296.65322   -251.49629    25872.257   -8214.5276    706.52926   -8921.0568   0.13376917 
  154400     322.6057   -850.38238    26021.513   -8189.0345    768.33943   -8957.3739   0.14055896 
  154600    303.78489   -1846.4884    26247.286    -8195.971    723.51453   -8919.4855   0.15266318 
  154800     286.5626   -891.45487    26056.094   -8214.7128    682.49676   -8897.2096   0.13968875 
  155000    309.12774   -219.21353    25864.725    -8211.089    736.23941   -8947.3284   0.13166815 
[...]
  163200     297.5248   -1180.0527    26061.249   -8235.9498    708.60506   -8944.5549    0.1547874 
  163400    300.36307    -754.7656     25946.24   -8254.7902    715.36488   -8970.1551   0.15112419 
  163600    290.71019   -857.33437     25954.49   -8256.0351    692.37493     -8948.41   0.15318539 
  163800    280.16425   -1342.9691    26077.953   -8262.7188    667.25801   -8929.9768   0.16566324 
  164000     290.9211   -1166.9184     26053.06   -8269.7523    692.87724   -8962.6295   0.13440496 
  164200    286.36046   -678.67068    25913.768    -8269.953    682.01533   -8951.9683   0.15118164 
  164400    289.61798   -714.81104    25951.542   -8258.6326    689.77366   -8948.4063   0.15448262 
  164600    286.61268   -1402.8334    26109.975   -8246.0662    682.61603   -8928.6823   0.15956176 
  164800    288.33708   -1147.1446    26064.352   -8256.3606    686.72298   -8943.0836   0.13543205 
  165000    294.47134   -366.48769    25871.204   -8258.0775    701.33273   -8959.4102   0.15825914 
  165200    286.23517   -793.94396    25947.665   -8260.1185    681.71692   -8941.8354   0.15965091 
  165400      303.158   -1701.4117    26175.539   -8248.0258    722.02148   -8970.0472   0.14042427 
  165600    287.50803   -1179.9475    26060.771   -8244.5954    684.74846   -8929.3438   0.15317135 
  165800    284.66181   -168.34101    25825.118    -8252.631     677.9697   -8930.6007   0.16125923 
  166000    293.25919   -844.16397    26000.169   -8242.3512     698.4458    -8940.797   0.13742194 
  166200    282.92799   -1997.8316    26253.536   -8253.1284    673.84033   -8926.9687   0.15337826 
  166400     302.0433   -936.29945    26013.522   -8234.5516    719.36664   -8953.9183   0.15623027 
  166600    289.01695    11.615412    25786.653   -8249.6211     688.3422   -8937.9633   0.15169041 
  166800    288.39098    -1211.679     26082.14   -8278.9047    686.85135   -8965.7561   0.13667602 
  167000    283.83479   -1974.6254     26261.31   -8273.7718    676.00001   -8949.7718   0.15698195 
  167200    295.09265   -651.69717    25926.085    -8261.987    702.81249   -8964.7995   0.14776679 
  167400    282.46999   -154.67937    25802.032   -8265.1796    672.74952   -8937.9291   0.14765111 
  167600     276.8433    -1547.691    26136.521   -8251.2518    659.34862   -8910.6004   0.16251784 
  167800    294.90619   -1775.7763    26199.347   -8278.8551     702.3684   -8981.2235   0.15270567 
  168000    294.98171   -284.65927    25859.689   -8289.2923    702.54828   -8991.8406   0.12240142 
  168200     284.4795   -248.10276    25856.026   -8285.9075    677.53551    -8963.443   0.13537761 
  168400     283.7644   -1645.4007    26161.341   -8270.5042    675.83237   -8946.3365   0.14836344 
  168600    291.72729   -1470.0172     26132.26   -8241.9145    694.79732   -8936.7118     0.145721 
  168800    295.35188   -431.58075    25869.982   -8277.5803     703.4299   -8981.0102   0.13392094 
  169000    282.79029   -676.34092    25912.959   -8271.3345    673.51237   -8944.8468   0.15735089 
  169200    290.55175   -1509.6604     26132.25    -8275.071    691.99759   -8967.0686    0.1390238 
  169400    289.16328   -1233.6826    26070.717    -8274.879     688.6907   -8963.5697   0.14516737 
  169600    286.60431   -494.73589    25892.691    -8273.529     682.5961   -8956.1251   0.14706321 
  169800    289.23789   -842.17839    25971.607   -8274.2373    688.86839   -8963.1057   0.14967525 
  170000    295.49427   -1418.1299    26119.449   -8272.5622    703.76903   -8976.3312   0.13459218 
  170200    292.48435   -1034.3708    26014.664   -8279.5507    696.60039   -8976.1511   0.15039278 
  170400    287.13552   -471.11129    25894.118   -8283.4148    683.86125    -8967.276   0.13761446 
  170600    279.72757   -1008.4765    26007.105   -8278.9482    666.21799   -8945.1662   0.14397691 
  170800    285.76881   -1456.5702    26109.705   -8276.4833     680.6062   -8957.0895   0.14246077 
  171000    287.20111   -1010.5779     25997.48   -8273.5947    684.01747   -8957.6121    0.1557877 
  171200    295.31763   -584.04923    25916.656   -8278.6137    703.34832   -8981.9621   0.12992949 
  171400    294.47242   -1080.5671    26032.907   -8272.0221    701.33532   -8973.3574   0.13849136 
  171600    290.74148   -1272.6166    26086.712   -8274.6891    692.44946   -8967.1385   0.14392417 
  171800    295.04161   -863.97542    25976.684   -8256.0321    702.69094    -8958.723   0.14235809 
  172000    296.11123   -651.07831    25947.604   -8267.8886    705.23841    -8973.127   0.12843487 
  172200    275.40897   -1253.8322    26051.661   -8288.9768    655.93251   -8944.9093   0.15936004 
  172400    280.57738   -1204.4981    26061.746   -8262.5141    668.24196    -8930.756   0.15135104 
  172600    291.06118   -834.89061    25964.408   -8255.8181    693.21087    -8949.029   0.14264636 
  172800    291.91876   -766.59959    25974.652   -8248.7522    695.25333   -8944.0056   0.14185688 
  173000    288.53474   -1285.2835    26074.176   -8261.5786    687.19373   -8948.7723   0.15442574 
  173200    290.80525   -1032.9763    26045.447   -8260.8952    692.60132   -8953.4966   0.13491436 
  173400    286.60792    -785.4549    25959.818   -8272.2321     682.6047   -8954.8368   0.13712394 
  173600    280.46359     -928.061    26003.418   -8251.0506    667.97094   -8919.0216   0.15195276 
  173800    286.08264   -1330.1097    26102.118   -8240.8997    681.35366   -8922.2534   0.14732535 
  174000      307.862   -987.39118    26052.035   -8228.3523    733.22484   -8961.5771   0.12257925 
  174200    298.47382   -657.68865    25959.265    -8215.517    710.86533   -8926.3824   0.14065895 
  174400    292.81253   -1049.0294    26030.656   -8217.5066      697.382   -8914.8886   0.15206807 
  174600    293.48973   -1199.0578    26114.369   -8217.1263    698.99488   -8916.1212   0.13839453 
  174800    307.46525   -938.64236    26036.255   -8204.9794    732.27991   -8937.2593   0.13567032 
  175000    290.03401   -673.35018    25961.623   -8216.5378    690.76451   -8907.3023   0.15233137 
  175200     299.3974   -1072.0627    26053.232   -8227.9931    713.06498    -8941.058   0.14063517 
  175400    281.04353   -1367.0121    26113.743   -8244.1327    669.35217   -8913.4848    0.1489313 
  175600    283.33557   -857.49758     26002.38   -8254.3898    674.81104   -8929.2008   0.14123224 
  175800    292.37749   -607.80216    25947.872   -8240.8949    696.34589   -8937.2408   0.14588196 
  176000    290.29387   -1097.7382    26084.252    -8232.968     691.3834   -8924.3514   0.13283244 
  176200    289.72121   -1335.4247     26125.04   -8208.9943    690.01951   -8899.0138   0.15263115 
  176400    304.71276   -680.75228    25967.294   -8220.5314    725.72439   -8946.2558   0.14805119 
  176600    298.99135   -657.27024    25947.754    -8224.273     712.0979   -8936.3709   0.14728658 
  176800    291.52948   -1361.4574    26114.747   -8222.0486    694.32621   -8916.3748   0.14828381 
  177000    289.47364   -1387.5276     26117.51   -8220.4909    689.42988   -8909.9208   0.15927372 
  177200    308.44195   -495.17942    25958.147    -8216.179    734.60609   -8950.7851   0.12579054 
  177400    298.57204   -654.13465    25978.967   -8234.7144    711.09925   -8945.8137   0.12655071 
  177600    294.57108    -1409.647    26145.221   -8224.2418    701.57028   -8925.8121   0.14019044 
  177800    280.79158   -1156.4302    26108.734   -8227.8322    668.75212   -8896.5843   0.14411914 
  178000    303.18442    -527.5229     25955.97   -8232.6221     722.0844   -8954.7065   0.13194287 
  178200    289.24409   -912.98075    26026.392   -8220.5238    688.88317   -8909.4069   0.13914637 
  178400     284.6902   -1469.0659    26176.016   -8232.7575    678.03732   -8910.7948    0.1489505 
  178600    304.24785   -1080.4999     26073.22   -8223.5513    724.61712   -8948.1684   0.13650575 
  178800    296.27193   -375.78557    25927.617   -8219.4182    705.62114   -8925.0393   0.13037542 
  179000    295.18385   -921.74068    26051.585    -8197.543     703.0297   -8900.5727   0.14557731 
  179200    298.96998    -1577.737    26188.805   -8216.6603    712.04701   -8928.7073   0.15000176 
  179400    297.55345   -834.01353    26033.141   -8229.9752    708.67329   -8938.6485   0.13083453 
  179600    302.65227    -401.2452    25918.922   -8235.2545      720.817   -8956.0715   0.13755255 
  179800    298.40221   -1175.9438    26088.297   -8235.3623    710.69477   -8946.0571   0.13406581 
  180000    291.10489   -1624.9651    26172.309   -8227.9779    693.31498   -8921.2929   0.14297335 
  180200    308.97848   -697.06442    25976.839   -8221.4092    735.88392   -8957.2931   0.13752159 
  180400    297.59821    -442.1171    25939.332   -8212.2311    708.77991    -8921.011   0.13792484 
  180600    291.65146   -1352.1406    26153.659   -8214.8738    694.61673   -8909.4905   0.13052804 
  180800     292.1697   -1390.7366    26158.998    -8231.562    695.85101    -8927.413   0.13416137 
  181000    293.15098   -456.20006    25934.009   -8230.4189    698.18808    -8928.607   0.13344142 
  181200    290.10787   -615.49023    25943.918   -8237.3432    690.94042   -8928.2836   0.13806678 
  181400    291.95011   -1524.1845    26155.978   -8244.3058    695.32801   -8939.6338   0.13954493 
  181600    284.28648   -1320.7248    26115.173   -8244.6371    677.07578   -8921.7128   0.14642653 
  181800    287.83626   -433.37231    25911.692    -8247.998    685.53018   -8933.5282   0.13547766 
  182000    292.79709   -699.69303    25993.983   -8239.1087    697.34524    -8936.454   0.13663005 
  182200    286.65101   -1710.1886    26201.277   -8239.8055    682.70732   -8922.5128   0.13979844 
  182400    304.72754   -1167.1443    26081.103   -8250.0621    725.75959   -8975.8217   0.13685148 
  182600    296.64344   -281.28794    25881.335    -8240.583    706.50597   -8947.0889   0.13048976 
  182800    298.75652    -979.8151     26029.16   -8225.3676    711.53861   -8936.9063   0.15468996 
  183000    293.31912   -1670.5168    26215.086   -8218.1493    698.58853   -8916.7379   0.13957383 
  183200     297.7798   -1004.5477    26052.538   -8210.6855    709.21238   -8919.8979   0.14906432 
  183400    292.61475   -250.93449    25897.447   -8220.8111    696.91095   -8917.7221   0.13549049 
  183600    272.17163   -1196.1006    26076.647   -8234.6345    648.22226   -8882.8568   0.14965498 
  183800    301.40539   -1591.7643     26205.05   -8243.3041    717.84733   -8961.1514   0.12835604 
  184000    292.22719   -839.35609     25999.07    -8251.042    695.98791     -8947.03   0.14192557 
  184200    288.63929   -400.15551    25890.564   -8263.2866    687.44274   -8950.7293   0.13679218 
  184400     293.1905   -1238.2421    26095.695    -8256.079    698.28221   -8954.3612   0.14051793 
  184600    282.30479    -1568.244    26160.581   -8274.5476    672.35606   -8946.9037   0.13630926 
  184800    286.99795   -601.44458    25945.123   -8261.6921    683.53361   -8945.2257   0.15091369 
  185000     301.1128    -497.4804    25912.604   -8265.7303    717.15049   -8982.8808   0.13053923 
  185200    294.47809   -1335.7279    26111.653   -8264.4744    701.34882   -8965.8232   0.13188004 
  185400    287.41501   -1541.5894    26107.454   -8274.4013    684.52692   -8958.9283   0.15284714 
  185600    284.69686   -444.86646    25887.478   -8265.8484    678.05319   -8943.9016    0.1448868 
  185800    291.14896   -612.95975    25912.136   -8267.5085    693.41993   -8960.9284   0.13893042 
  186000    298.97465   -1502.5736    26134.602    -8250.174    712.05813   -8962.2322   0.14607822 
  186200    289.01622   -1306.9735    26099.153   -8244.7608    688.34045   -8933.1012   0.15067715 
  186400    292.09628   -487.76531    25899.311   -8252.2733    695.67613   -8947.9494   0.13580624 
  186600    304.86261   -772.99293    25960.871   -8239.3144    726.08129   -8965.3957   0.13947648 
  186800    291.65622   -1461.0848    26151.439   -8247.2883    694.62806   -8941.9164   0.14467053 
  187000    285.86371   -1213.2262    26065.494   -8243.7479    680.83223   -8924.5802   0.14346732 
  187200    305.74168   -346.10847    25898.905   -8250.0055    728.17494   -8978.1805   0.12911317 
  187400    294.78726   -934.36457    26006.961   -8242.1197    702.08516   -8944.2049   0.15166563 
  187600    293.99914   -1582.2881    26161.868   -8248.7097    700.20811   -8948.9178   0.14929977 
  187800    285.35214   -969.15282    26017.468    -8251.078    679.61383   -8930.6918   0.13725227 
  188000    299.14734   -346.67017    25866.826   -8252.7595    712.46942   -8965.2289   0.14418734 
  188200    293.87651   -1132.5234    26037.867   -8242.0196    699.91605   -8941.9356   0.15704964 
  188400     299.8257     -1558.49    26179.642    -8231.217    714.08504    -8945.302   0.13004602 
  188600    289.66276   -962.94103    26004.538   -8239.1088    689.88031   -8928.9891   0.13842563 
  188800     293.2078   -414.28583     25885.48   -8259.5908    698.32341   -8957.9142   0.14392706 
  189000    287.27994    -1219.949    26074.106   -8250.6741    684.20521   -8934.8793   0.14471077 
  189200    294.69456   -1474.4407    26175.214   -8238.7596    701.86439    -8940.624   0.13927658 
  189400    301.17538   -718.03449     25993.64   -8250.6494    717.29953   -8967.9489   0.13531268 
  189600    302.04644   -437.54728    25924.009   -8249.1154     719.3741   -8968.4895    0.1293126 
  189800    288.09281   -1286.7979    26112.832   -8249.2931     686.1412   -8935.4343   0.12988069 
  190000    292.23684   -1489.0119     26157.73    -8258.973     696.0109   -8954.9839   0.13426937 
  190200    290.86259   -619.58588    25944.766   -8268.1746    692.73791   -8960.9125   0.13764079 
  190400    292.65238   -481.85144    25917.526   -8254.7169    697.00058   -8951.7175   0.12734862 
  190600    295.90386   -1399.8569    26147.329   -8241.3734    704.74452   -8946.1179   0.13964161 
  190800    291.14984   -1477.6295    26148.728   -8238.7949    693.42204    -8932.217   0.13909135 
  191000    297.42067   -546.55538    25925.433   -8243.5425    708.35706   -8951.8995    0.1390266 
  191200    292.12627   -658.78447    25957.038   -8253.3162    695.74756   -8949.0638   0.13058818 
  191400     294.8272   -1603.5376    26166.635   -8260.7198    702.18027   -8962.9001   0.15339562 
  191600    289.98121   -1268.9888     26100.91    -8247.947    690.63875   -8938.5858   0.13770097 
  191800    293.83006   -431.92344    25909.017   -8241.1019    699.80542   -8940.9073   0.14017342 
  192000    289.10558   -858.09178    26006.708   -8259.9259    688.55329   -8948.4792   0.13790375 
  192200    305.25221   -1496.6546     26170.15   -8240.7422    727.00919   -8967.7514   0.14603249 
  192400    282.24254   -1080.5633    26049.067   -8241.8287     672.2078   -8914.0365   0.14683524 
  192600    288.34421   -410.76129    25899.993   -8241.1824    686.73995   -8927.9223   0.14799317 
  192800    288.35196   -885.09797    26036.389   -8246.5897    686.75842   -8933.3481   0.14396175 
  193000    293.10221   -1582.4326    26175.039   -8228.3089    698.07192   -8926.3808   0.15090239 
  193200    290.77039   -952.06815    26031.499    -8215.745    692.51832   -8908.2633   0.14935095 
  193400     307.2214   -545.17169    25919.233   -8204.1068    731.69915   -8935.8059   0.14983239 
  193600    298.33788   -1194.4629    26068.087   -8208.0482    710.54154   -8918.5897   0.14681384 
  193800    296.61059   -1482.7543     26144.52   -8221.2747    706.42771   -8927.7024   0.15109229 
  194000    288.84085   -811.01154    25969.822   -8234.4331    687.92279   -8922.3559   0.15357208 
  194200     296.1152   -492.99768    25907.378    -8248.704    705.24786   -8953.9519   0.14450256 
  194400    292.28093   -1251.4231     26073.53   -8249.6925    696.11591   -8945.8084    0.1455194 
  194600    279.78949   -1388.9637    26119.779   -8252.2807    666.36547   -8918.6462   0.15637778 
  194800     281.0675   -857.45953    25971.209   -8254.3235    669.40925   -8923.7327   0.15210814 
  195000     305.5225   -619.87182    25939.443   -8251.4654    727.65293   -8979.1183   0.13461871 
  195200    287.45711   -1126.5144    26069.146   -8238.8103    684.62719   -8923.4375   0.14827482 
  195400    288.82572   -1306.3047    26084.531   -8238.5534    687.88675   -8926.4401   0.15968378 
  195600    288.48668   -808.48616     25967.75   -8235.0248    687.07926   -8922.1041     0.147607 
  195800    293.05521   -803.13201    25975.284   -8251.9433       697.96   -8949.9033   0.14097498 
  196000    290.53642   -1298.6974    26071.068   -8257.4557    691.96106   -8949.4168   0.15459052 
  196200    292.26917   -997.10678     26041.42   -8234.1286     696.0879   -8930.2165   0.14495818 
  196400    295.13217   -759.73777    25977.332   -8242.0518    702.90662   -8944.9584   0.13522383 
  196600    299.06988   -961.31849    26019.031   -8266.7065    712.28492   -8978.9914   0.14227594 
  196800    281.42696   -1265.8254    26061.969   -8253.6328    670.26537   -8923.8982   0.15327674 
  197000    286.40472   -1040.2606    26014.277   -8259.1858    682.12073   -8941.3065   0.14548368 
  197200    286.65306   -895.85841    25974.496    -8273.055    682.71221   -8955.7672   0.14154293 
  197400    288.36025   -1101.0895     26011.07   -8279.7363    686.77815   -8966.5144   0.14706957 
  197600    291.72291   -1137.6286    26052.123   -8247.3504     694.7869   -8942.1373   0.13859819 
  197800    296.82646   -993.43701    26036.927   -8224.2182    706.94186     -8931.16   0.14357845 
  198000    304.23578   -930.69985    26010.133   -8236.9067    724.58839   -8961.4951   0.14432261 
  198200    293.00851   -940.81977    26031.003   -8246.6443    697.84876   -8944.4931   0.13949348 
  198400     309.1089   -1069.4117     26065.01   -8227.4893    736.19453   -8963.6838   0.13465726 
  198600    300.35899   -985.09862    26049.464   -8220.9031    715.35516   -8936.2583   0.14941369 
  198800    296.61263   -933.78255    26023.857   -8231.6375    706.43258   -8938.0701   0.14567171 
  199000    287.49546   -1057.2125    26042.219   -8239.8296    684.71852   -8924.5482   0.14637472 
  199200    283.56376   -1095.6091    26061.914   -8251.7138    675.35452   -8927.0683   0.14705774 
  199400    290.40061   -1001.5642    26034.155   -8248.3986    691.63762   -8940.0363   0.15134546 
  199600    291.52688   -938.38894     26012.98   -8243.2283    694.32002   -8937.5483   0.13910399 
  199800    282.25641    -946.4545    26044.363   -8243.3373    672.24084   -8915.5781   0.14596475 
  200000    295.41361   -1094.8517    26057.698   -8231.0201    703.57692   -8934.5971   0.15482775 
Loop time of 38.607 on 4 procs for 200000 steps with 800 atoms

Performance: 2237.938 ns/day, 0.011 hours/ns, 5180.411 timesteps/s
99.5% CPU use with 4 MPI tasks x no OpenMP threads

MPI task timing breakdown:
Section |  min time  |  avg time  |  max time  |%varavg| %total
---------------------------------------------------------------
Pair    | 25.582     | 25.651     | 25.695     |   0.9 | 66.44
Neigh   | 3.7291     | 3.7413     | 3.7545     |   0.6 |  9.69
Comm    | 4.3891     | 4.4482     | 4.5115     |   2.1 | 11.52
Output  | 1.0596     | 1.0619     | 1.0684     |   0.4 |  2.75
Modify  | 3.0732     | 3.1221     | 3.1658     |   1.9 |  8.09
Other   |            | 0.5825     |            |       |  1.51

Nlocal:        200.000 ave         205 max         197 min
Histogram: 1 1 0 1 0 0 0 0 0 1
Nghost:        650.750 ave         653 max         647 min
Histogram: 1 0 0 0 0 0 1 0 1 1
Neighs:        0.00000 ave           0 max           0 min
Histogram: 4 0 0 0 0 0 0 0 0 0
FullNghs:      5689.00 ave        5813 max        5622 min
Histogram: 2 0 0 1 0 0 0 0 0 1

Total # of neighbors = 22756
Ave neighs/atom = 28.445000
Neighbor list builds = 10311
Dangerous builds = 0
write_data		data.${NAME}
write_data		data.ice_294K_1000atm_ML
System init for write_data ...
Total wall time: 0:00:57
