
# Create simulation box of size ~50 x 30 x 30 Angstrom
#
#variable	    lattice_constant equal 6.36339
#lattice		    diamond ${lattice_constant}
region all block 0 ${LEN} 0 ${WIDTH} 0 ${WIDTH} units box
region all block 0 51.0977766438042 0 ${WIDTH} 0 ${WIDTH} units box
region all block 0 51.0977766438042 0 31.9361104023641 0 ${WIDTH} units box
region all block 0 51.0977766438042 0 31.9361104023641 0 31.9361104023641 units box
create_box 1 all
Created orthogonal box = (0.0000000 0.0000000 0.0000000) to (51.097777 31.936110 31.936110)
  2 by 1 by 2 MPI processor grid

# fill box with randomly distributed atoms
#
create_atoms 1 random 1565 63782 all
Created 1565 atoms
  create_atoms CPU = 0.000 seconds
mass 1 18.015
group water region all
1565 atoms in group water

# Define potential
#
pair_style sw
pair_coeff * * ML.sw mW
Reading sw potential file ML.sw with DATE: 2019-02-27

# Run minimization
#
minimize 1.0e-8 1.0e-8 10000 1000
WARNING: Using 'neigh_modify every 1 delay 0 check yes' setting during minimization (../min.cpp:187)
Neighbor list info ...
  update every 1 steps, delay 0 steps, check yes
  max neighbors/atom: 2000, page size: 100000
  master list distance cutoff = 6.0032907
  ghost atom cutoff = 6.0032907
  binsize = 3.0016454, bins = 18 11 11
  1 neighbor lists, perpetual/occasional/extra = 1 0 0
  (1) pair sw, perpetual
      attributes: full, newton on
      pair build: full/bin/atomonly
      stencil: full/bin/3d
      bin: standard
Per MPI rank memory allocation (min/avg/max) = 4.226 | 4.227 | 4.228 Mbytes
Step Temp E_pair E_mol TotEng Press 
       0            0     10534159            0     10534159     18710148 
     619            0   -16623.166            0   -16623.166   -1046.3297 
Loop time of 0.672762 on 4 procs for 619 steps with 1565 atoms

99.3% CPU use with 4 MPI tasks x no OpenMP threads

Minimization stats:
  Stopping criterion = max force evaluations
  Energy initial, next-to-last, final = 
      10534158.9101972   -16622.972089799  -16623.1656498654
  Force two-norm initial, final = 5.6030724e+08 3.7252138
  Force max component initial, final = 3.1532938e+08 0.66917902
  Final line search alpha, max atom move = 0.054959811 0.036777952
  Iterations, force evaluations = 619 1001

MPI task timing breakdown:
Section |  min time  |  avg time  |  max time  |%varavg| %total
---------------------------------------------------------------
Pair    | 0.50308    | 0.55756    | 0.62355    |   6.3 | 82.88
Neigh   | 0.014793   | 0.015533   | 0.016194   |   0.5 |  2.31
Comm    | 0.018173   | 0.084784   | 0.14032    |  16.5 | 12.60
Output  | 0          | 0          | 0          |   0.0 |  0.00
Modify  | 0          | 0          | 0          |   0.0 |  0.00
Other   |            | 0.01489    |            |       |  2.21

Nlocal:        391.250 ave         410 max         370 min
Histogram: 1 1 0 0 0 0 0 0 0 2
Nghost:        1004.25 ave        1007 max        1000 min
Histogram: 1 0 0 0 1 0 0 0 0 2
Neighs:        0.00000 ave           0 max           0 min
Histogram: 4 0 0 0 0 0 0 0 0 0
FullNghs:      10253.0 ave       11042 max        9473 min
Histogram: 2 0 0 0 0 0 0 0 0 2

Total # of neighbors = 41012
Ave neighs/atom = 26.205751
Neighbor list builds = 22
Dangerous builds = 0

# Add velocity/set timestep
#
velocity all create ${TEMP} 120598 rot yes dist gaussian
velocity all create 294 120598 rot yes dist gaussian
timestep 10.0

# Define output
#
compute 1 all msd
thermo 50
thermo_style custom step temp press vol etotal ke pe c_1[4]

# Neighbor lists
#
neigh_modify delay 0 every 1 check yes

# Set fixes
#
fix 1 all momentum 10 linear 1 1 1 rescale
fix 2 all nve
fix 3 all temp/csvr ${TEMP} ${TEMP} 500.0 928347
fix 3 all temp/csvr 294 ${TEMP} 500.0 928347
fix 3 all temp/csvr 294 294 500.0 928347
fix 4 all press/berendsen iso ${PRES} ${PRES} 1000.0 modulus 20000
fix 4 all press/berendsen iso -1000 ${PRES} 1000.0 modulus 20000
fix 4 all press/berendsen iso -1000 -1000 1000.0 modulus 20000

# Run 1 ns equilibration
#
dump 1 all atom 1000 eq.water.${NAME}.dump
dump 1 all atom 1000 eq.water.icewater_294K_1000atm_ML.dump
run 100000
Per MPI rank memory allocation (min/avg/max) = 3.477 | 3.477 | 3.478 Mbytes
Step Temp Press Volume TotEng KinEng PotEng c_1[4] 
     619          294    155.89372    52115.396   -15252.541    1370.6242   -16623.166 1.7135239e-33 
     650    186.03504   -1036.3306    52082.211   -14813.826    867.29293   -15681.119   0.34148586 
     700    231.16826   -1307.4464    52119.937    -14432.26    1077.7034   -15509.964   0.87800172 
     750    251.13433   -1402.4102    51926.644    -14188.25     1170.785   -15359.035    1.5694127 
     800    266.44642   -1144.8541    51852.823   -14088.936    1242.1697   -15331.105    2.1688025 
     850    270.60345   -1079.3453    51597.226   -14021.352    1261.5497   -15282.901    2.9303662 
     900    286.29979   -1352.6485    51439.382   -13951.596    1334.7259   -15286.322    3.6169315 
     950    284.29093   -1111.5085    51298.982   -13833.721    1325.3606   -15159.082    4.2052058 
    1000    285.02493   -1098.3918    51044.105   -13824.551    1328.7825   -15153.334    5.1145314 
    1050    288.46845     -997.381    50896.985   -13786.676    1344.8362   -15131.513    6.0965774 
    1100    292.48093   -931.89928    50566.399   -13782.741    1363.5423   -15146.283    7.0466912 
    1150    286.24622   -1146.9572    50400.429   -13859.198    1334.4761   -15193.675    8.0451566 
    1200     280.0381   -1280.0706    50166.863   -13908.424    1305.5339   -15213.958    9.0161087 
    1250    278.59002    -1030.483    50104.472   -13892.283     1298.783   -15191.066    10.096479 
    1300    280.87343   -1224.0623    49824.306   -13887.571    1309.4282   -15196.999     11.09501 
    1350    280.39751   -1390.2364     49609.92   -13901.883    1307.2095   -15209.093    11.927755 
    1400    285.87724   -1159.7738    49392.169    -13972.27    1332.7559   -15305.026    12.958945 
    1450    286.20852   -1406.8683    49212.691   -13947.908    1334.3004   -15282.208    13.757917 
    1500    289.06968   -1055.1766    49079.359   -13896.707    1347.6391   -15244.346    14.489905 
    1550    293.01975   -1236.1314    49220.073   -13842.835    1366.0542   -15208.889    15.186255 
    1600    291.32187   -763.50002    49027.336   -13826.148    1358.1387   -15184.286     16.06411 
    1650     292.3339   -907.53893    49113.541   -13800.812    1362.8568   -15163.669    17.295407 
    1700    287.38584   -1130.5874    49230.752    -13870.23     1339.789   -15210.019     18.71466 
    1750     285.2701   -862.59549    49269.607   -13885.283    1329.9255   -15215.208     19.63798 
    1800     290.0541    -971.1796     49269.52   -13918.285    1352.2284   -15270.514    20.525166 
    1850    302.14199   -1250.4164    49208.415   -13881.433     1408.582   -15290.015     21.64309 
    1900    300.93069   -1273.8263    49072.439   -13866.007    1402.9349   -15268.942    22.497072 
    1950     283.9717    -938.2787     48779.75   -13879.054    1323.8723   -15202.926    23.819168 
    2000    295.63706   -1357.4093    48678.625    -13841.45    1378.2561   -15219.706    24.924127 
    2050    296.06834   -1475.9955    48555.316   -13773.562    1380.2667   -15153.828    25.854024 
    2100    295.11851   -1346.6987    48336.041   -13836.368    1375.8386   -15212.206    26.910709 
    2150    305.95245   -864.24277    48272.457   -13835.703    1426.3463    -15262.05    28.229936 
    2200    299.99992   -846.75997    48263.814   -13843.641    1398.5957   -15242.237    29.768126 
    2250    294.49603   -899.33855    48300.223   -13844.367    1372.9366   -15217.304    30.524411 
    2300     294.0744   -486.28605    48119.073   -13856.704     1370.971   -15227.675     31.54302 
    2350    296.70265   -1061.9494    48378.557    -13832.98    1383.2239   -15216.204    32.990285 
    2400    291.14574   -917.33146    48533.207   -13850.415    1357.3176   -15207.732    34.611047 
    2450    299.99996   -1039.6497    48547.034   -13779.361    1398.5959   -15177.957    36.127408 
    2500    302.60611   -1516.4562    48506.217   -13804.835    1410.7457   -15215.581    36.721704 
    2550    304.82894   -1086.7953    48533.111   -13758.428    1421.1085   -15179.536    38.005874 
    2600    307.05087   -1426.1898    48387.293   -13734.389    1431.4671   -15165.856    39.523507 
    2650    299.65683   -1190.8041    48231.579   -13742.152    1396.9962   -15139.148    40.670246 
    2700    298.49075   -869.96072    48157.734   -13728.914    1391.5599   -15120.474    41.308887 
    2750    297.99001   -706.67233     48318.95   -13759.747    1389.2255   -15148.972    42.310363 
    2800    299.42682   -1632.7838    48332.046   -13732.168    1395.9239   -15128.092    43.951833 
    2850    303.87583   -906.10114    48311.453    -13785.69    1416.6652   -15202.355    44.545475 
    2900    296.38428   -1428.5544    48303.982   -13805.316    1381.7397   -15187.056    45.639496 
    2950    285.46555   -667.94422    48305.826   -13863.881    1330.8367   -15194.718    46.696856 
    3000    290.79694   -1191.2657    48445.601   -13831.129    1355.6915   -15186.821    48.210262 
    3050    294.30085    -1402.221    48461.331   -13802.754    1372.0267    -15174.78    49.985778 
    3100    297.15671   -1173.9425    48446.414   -13803.237    1385.3407   -15188.577     51.02105 
    3150    298.93951   -609.80183    48401.124   -13830.887    1393.6521   -15224.539    51.910028 
    3200    291.78716   -941.24951    48233.211   -13863.955    1360.3079   -15224.263    52.468348 
    3250    306.75645   -883.64198    48138.904   -13818.176    1430.0946    -15248.27    52.755067 
    3300    295.81942   -880.79535     48029.91    -13824.86    1379.1062   -15203.967    53.028308 
    3350    299.57419   -1195.0968    48086.554    -13853.44    1396.6109   -15250.051    54.261051 
    3400    291.61471   -818.48782    48129.786   -13894.346     1359.504    -15253.85    55.520922 
    3450    288.14142   -660.73889    48227.775   -13898.607    1343.3115   -15241.919    56.928956 
    3500    292.06602   -574.90302    48123.451   -13972.522     1361.608    -15334.13    57.942576 
    3550    289.51561    -1023.884    48383.387   -13941.141     1349.718   -15290.859    58.812301 
    3600    282.01862   -913.74884    48388.609   -13966.789    1314.7671   -15281.556    59.755329 
    3650    295.88599   -1386.6117    48254.994   -13964.788    1379.4166   -15344.205    59.886926 
    3700    294.14536   -607.22437    48230.772   -13946.601    1371.3018   -15317.903    60.696009 
    3750    286.40688    -885.6716    48136.192   -13977.037    1335.2251   -15312.262    61.470383 
    3800    286.56141   -1099.5833    48174.042   -13924.969    1335.9455   -15260.915    62.051626 
    3850    284.35588   -1305.9059    48200.207   -13921.559    1325.6634   -15247.222    62.823453 
    3900    302.24911   -1022.0122    48256.901   -13840.765    1409.0814   -15249.846    63.530849 
    3950    298.37316   -924.29505     48496.78   -13815.838    1391.0118    -15206.85     65.38515 
    4000    288.99771   -1135.9365    48483.836   -13885.205    1347.3036   -15232.509    66.176383 
    4050    288.28632   -1205.7849    48365.249   -13886.775    1343.9871   -15230.762    66.933871 
    4100    296.03971   -973.13783    48288.355   -13842.391    1380.1333   -15222.524    67.610059 
    4150    297.09937   -963.17732    48328.227   -13878.731    1385.0734   -15263.804    68.562315 
    4200    291.70293   -465.75526    48510.138   -13840.479    1359.9152   -15200.394    69.073844 
    4250    297.72819   -966.69711    48661.242   -13899.055    1388.0049    -15287.06    70.593682 
    4300    290.31633   -1137.1912    48502.356   -13926.563    1353.4509   -15280.014    71.836783 
    4350    295.72213   -704.97024    48468.602   -13934.151    1378.6527   -15312.804    72.630155 
    4400    290.02946   -978.58481    48496.867    -13889.73    1352.1136   -15241.844     73.57701 
    4450    292.65132     -1108.05     48354.08   -13868.006    1364.3366   -15232.342     74.95732 
    4500    292.59175   -1188.2769    48261.432   -13887.453    1364.0589   -15251.512    75.813402 
    4550    294.02833   -667.39153    48212.839   -13913.838    1370.7562   -15284.595    76.968944 
    4600    296.49892    -431.3899    48489.076   -13902.345    1382.2741   -15284.619    78.098342 
    4650    292.93182   -939.61848    48703.258   -13864.884    1365.6443   -15230.529    79.400432 
    4700    293.79072   -612.01148    48837.319   -13840.322    1369.6485    -15209.97    81.201115 
    4750    283.16746   -862.43833    48812.718   -13903.524     1320.123   -15223.647    82.390701 
    4800    294.52179   -833.79332    48855.214   -13844.172    1373.0567   -15217.229    83.183765 
    4850    299.63199   -1284.2496    48675.261   -13781.361    1396.8804   -15178.241    84.003808 
    4900    294.83344    -903.1288    48549.331   -13777.124    1374.5096   -15151.634    84.665131 
    4950    307.45604    -957.1233    48502.828   -13729.276     1433.356   -15162.632    85.355008 
    5000    296.91596   -997.77885    48699.552   -13770.333    1384.2183   -15154.551    87.136077 
    5050    304.57678   -1285.6802    48525.405   -13843.581     1419.933   -15263.514    87.324434 
    5100    301.99333    -1227.026    48398.775   -13835.445    1407.8889   -15243.334    89.113435 
    5150    285.23606   -1021.7333    48359.284   -13866.426    1329.7668   -15196.192    90.791014 
    5200    287.97386   -898.36704    48286.801   -13888.747    1342.5304   -15231.277    91.770997 
    5250    296.34061   -1168.8995    48303.176   -13838.907    1381.5361   -15220.443    92.705418 
    5300    286.63469   -648.66429    48555.286    -13905.18    1336.2872   -15241.467     93.99379 
    5350    286.30918    -880.1258    48651.813    -13889.64    1334.7697    -15224.41     94.85094 
    5400    290.51714   -1200.7978     48723.31   -13858.793    1354.3871    -15213.18    96.547601 
    5450      296.979   -1152.2402    48886.122    -13860.72    1384.5122   -15245.232    98.781579 
    5500    292.64549   -1445.0711    48800.321   -13862.562    1364.3094   -15226.871    99.661004 
    5550    290.28975   -1072.2341    48639.086   -13854.689     1353.327   -15208.016     99.98128 
    5600    296.21328   -1080.2149    48452.495   -13882.944    1380.9425   -15263.886    100.91734 
    5650     286.6754   -682.08854    48503.649   -13860.278    1336.4769   -15196.755    101.79331 
    5700    287.82599   -952.03381    48432.642   -13886.868     1341.841   -15228.709    103.18029 
    5750    284.58139   -966.37546    48296.863   -13859.307    1326.7147   -15186.022    103.25867 
    5800    286.11095   -505.66618    48373.996   -13834.798    1333.8455   -15168.644    103.93858 
    5850    288.02169   -962.89025     48417.62     -13868.3    1342.7533   -15211.053    104.93394 
    5900    296.13655   -1085.2893     48437.36   -13914.979    1380.5847   -15295.563    106.31929 
    5950    290.52974   -923.25761    48578.342   -13919.439    1354.4458   -15273.885    107.31486 
    6000    285.38229   -1439.3549    48463.821   -13910.614    1330.4485   -15241.063    108.15858 
    6050    303.98806   -935.09584    48357.015    -13885.46    1417.1883   -15302.648    109.05474 
    6100    296.16184   -1071.4483    48490.228   -13891.372    1380.7026   -15272.074    110.34382 
    6150    283.63348   -1103.1047    48337.801   -13909.625    1322.2956    -15231.92    111.24289 
    6200    294.93403   -660.13525     48176.58   -13919.079    1374.9786   -15294.057    112.33747 
    6250    294.22386   -1342.5471    48320.941   -13901.325    1371.6678   -15272.993    113.67951 
    6300    287.16689    -908.0962    48510.456   -13854.824    1338.7683   -15193.592    114.96069 
    6350    292.66133   -946.03266    48708.346   -13834.494    1364.3833   -15198.877    116.38153 
    6400    294.06971   -1267.9722    48637.947   -13772.086    1370.9492   -15143.036    117.53358 
    6450    305.15824   -674.84935    48808.482   -13747.794    1422.6437   -15170.438    118.67494 
    6500    292.25935    -1277.877    48709.664    -13804.59    1362.5093   -15167.099    119.27274 
    6550    294.65063   -1216.3953     48884.14   -13840.503    1373.6574    -15214.16    119.92384 
    6600    286.62205   -872.69432    48665.381   -13898.118    1336.2283   -15234.346    120.23154 
    6650    290.81158   -1012.3727    48559.044   -13894.814    1355.7598   -15250.574     121.3558 
    6700    294.15755   -600.98309    48542.721    -13912.57    1371.3587   -15283.929    121.99017 
    6750    293.69464   -632.71446    48673.106   -13840.162    1369.2006   -15209.363    122.71708 
    6800    293.36968   -788.05473    48733.447   -13840.087    1367.6856   -15207.773    123.94854 
    6850     297.5349   -1154.2154    48765.523   -13826.936    1387.1038    -15214.04    125.02364 
    6900    301.99635   -934.82977    48795.296   -13813.173     1407.903   -15221.076    125.94042 
    6950      297.618   -1069.5468    49006.973   -13829.223    1387.4912   -15216.714    127.37499 
    7000    290.67578   -790.25494    48829.176   -13799.001    1355.1267   -15154.128       128.05 
    7050    303.55087   -1239.3487    48662.089   -13846.681    1415.1502   -15261.831    128.35795 
    7100    288.72564   -671.87738    48555.161   -13867.072    1346.0352   -15213.107    128.74921 
    7150    294.54799   -1271.8485    48433.142   -13878.537    1373.1789   -15251.716    129.09005 
    7200    291.19207   -1469.1853    48247.611   -13940.946    1357.5336    -15298.48    129.64621 
    7250     291.4769   -896.63818     48270.64   -13951.101    1358.8615   -15309.963    130.96178 
    7300    287.59412    -727.6551     48456.89   -13944.751      1340.76   -15285.511    132.19984 
    7350     287.7169   -741.91892    48546.389   -13919.966    1341.3324   -15261.299    133.07614 
    7400    295.06231   -734.77961    48401.339   -13913.201    1375.5766   -15288.777    134.27255 
    7450    290.58209   -851.56192    48359.366   -13925.972    1354.6899   -15280.662    135.03196 
    7500    293.60908   -1361.5896    48290.296   -13969.529    1368.8017    -15338.33    135.63846 
    7550    294.08231   -816.01647    48422.306   -13943.947    1371.0079   -15314.955     135.7093 
    7600    288.98305   -1213.1133    48600.998   -13942.538    1347.2352   -15289.773    136.98148 
    7650    296.78905   -875.83994    48513.782   -13900.467    1383.6267   -15284.093    137.47332 
    7700     299.6964   -1543.4308    48512.121   -13837.982    1397.1807   -15235.163    138.83307 
    7750    299.49028   -951.12869    48546.734   -13824.539    1396.2198   -15220.759    139.39349 
    7800     299.3644   -1096.6863    48406.231   -13853.569    1395.6329   -15249.202    140.16459 
    7850    292.22908   -1223.8915    48437.818   -13916.596    1362.3681   -15278.964    141.29204 
    7900    292.08091   -955.01684    48441.049   -13937.846    1361.6774   -15299.523    142.35389 
    7950     288.8132   -1098.1578    48437.008   -13950.277    1346.4434    -15296.72    144.01133 
    8000    292.10243   -905.19195    48584.523   -13901.182    1361.7777    -15262.96    145.51159 
    8050    300.34616   -837.78891    48576.524    -13961.12    1400.2099    -15361.33     146.9172 
    8100    288.91003   -1173.1826    48548.246   -13978.849    1346.8948   -15325.744    147.52211 
    8150     281.8672   -713.76666    48520.086   -13980.131    1314.0612   -15294.193    147.91499 
    8200    292.62281   -362.19985    48756.806   -13966.007    1364.2037   -15330.211    149.65449 
    8250    287.54262   -1207.6394    48883.329   -13974.404      1340.52   -15314.923    150.76346 
    8300    279.30889   -836.81044    48818.257   -13945.475    1302.1344   -15247.609    151.76849 
    8350    287.19336   -1132.3608    48582.618   -13935.109    1338.8917   -15274.001    152.61556 
    8400    302.98519   -1488.6259     48558.41   -13880.571     1412.513   -15293.084     153.0918 
    8450     286.8024   -1251.2613    48482.683   -13876.928     1337.069   -15213.998    154.31524 
    8500    295.02676   -252.92137    48621.764   -13878.666    1375.4109   -15254.077    154.75563 
    8550    289.01389    -1064.667    48632.626   -13887.586     1347.379   -15234.965    155.88203 
    8600    293.18734   -1165.6049    48647.328   -13805.056    1366.8355   -15171.891    156.84628 
    8650    298.89617   -1269.4051    48588.871   -13815.334      1393.45   -15208.784    157.85953 
    8700    290.72532   -866.14202     48394.64   -13849.971    1355.3576   -15205.328    159.78372 
    8750    293.29426   -706.70588    48521.033   -13858.018     1367.334   -15225.352    161.00758 
    8800     294.9489   -815.60597    48475.235   -13886.592    1375.0479    -15261.64    161.73496 
    8850    285.27849   -1135.3162    48465.039    -13908.76    1329.9646   -15238.724    162.12208 
    8900    289.84788   -722.57516    48692.041   -13882.371     1351.267   -15233.638    162.80312 
    8950    292.97914   -1676.9955    48867.753    -13847.02    1365.8649   -15212.885    164.39969 
    9000    299.49989   -1075.0928    48762.186   -13861.232    1396.2646   -15257.497    164.85182 
    9050     285.1325   -1130.4428    48444.326   -13983.939     1329.284   -15313.223    164.76425 
    9100    280.57476   -1527.8213    48256.961   -13944.549    1308.0359   -15252.585    165.71662 
    9150    298.14047   -997.91846    48239.216   -13849.665     1389.927   -15239.592    167.62728 
    9200    294.40148   -1212.2088    48252.544   -13856.829    1372.4958   -15229.325     168.1221 
    9250    290.16541   -996.52274    48109.468   -13888.231    1352.7473   -15240.979    169.33103 
    9300    289.29996   -831.42842    48189.327   -13933.848    1348.7126    -15282.56    170.28264 
    9350    298.39844    -734.9679    48265.317   -13905.351    1391.1296   -15296.481    171.74333 
    9400    305.24247   -873.58988    48584.024   -13831.745    1423.0364   -15254.782    173.24173 
    9450      289.051   -905.98653    48553.252   -13830.481     1347.552   -15178.033    174.43028 
    9500    297.91931   -1038.4074    48519.233   -13869.703    1388.8959   -15258.599    175.15128 
    9550    292.67064   -571.61354    48581.068   -13876.419    1364.4267   -15240.845    176.63742 
    9600    300.57715   -1185.2768    48534.966   -13840.273    1401.2867    -15241.56    177.48145 
    9650    293.80886   -1314.8629    48619.537   -13859.981     1369.733   -15229.714    178.80545 
    9700    294.55154   -790.48529    48819.996   -13842.931    1373.1954   -15216.126    180.52766 
    9750    298.78846   -726.99055    48918.656   -13854.947    1392.9479   -15247.895     181.4522 
    9800    291.01861   -979.47202    48874.652   -13902.503    1356.7249   -15259.228    182.28264 
    9850     291.1841   -1325.7805    48891.743   -13902.038    1357.4965   -15259.534    182.94258 
    9900    286.91809    -1203.487    48873.528   -13956.754    1337.6084   -15294.363      184.202 
    9950    288.39414   -1160.1834    48795.681   -13955.035    1344.4897   -15299.524    185.55388 
   10000    285.67834   -971.82511    48909.073   -13957.113    1331.8287   -15288.942     187.1406 
   10050    288.51971    -738.2083    48928.447    -13903.94    1345.0751   -15249.016     188.8488 
   10100    287.07263   -992.76739    48620.795   -13914.251    1338.3288    -15252.58    188.23366 
   10150    286.98691   -747.72909    48614.891   -13920.774    1337.9292   -15258.703    190.11285 
   10200    290.82411   -1172.3806    48579.017   -13957.728    1355.8182   -15313.546    190.19222 
   10250    278.48031   -487.18355    48720.093   -14016.293    1298.2715   -15314.565    191.16851 
   10300    299.79451   -1034.7249    48550.309   -13873.481    1397.6381   -15271.119    190.97283 
   10350    291.51632   -1185.1622    48392.256   -13933.499    1359.0453   -15292.544    191.26248 
   10400    291.88761   -462.68305    48412.504   -13906.535    1360.7762   -15267.311    192.29702 
   10450    292.61815   -994.17979    48636.152    -13897.38     1364.182   -15261.562    193.44383 
   10500    296.78661   -1101.9705    48494.513   -13849.382    1383.6153   -15232.997    194.95675 
   10550    308.42111   -801.26481    48479.231   -13843.184    1437.8552   -15281.039    195.34679 
   10600    303.49627   -1208.6094    48362.467   -13824.283    1414.8956   -15239.179     196.0368 
   10650     297.2917   -549.38334    48385.634   -13817.427      1385.97   -15203.397    196.19635 
   10700    294.67028   -901.51699    48473.918   -13825.572     1373.749   -15199.321    197.40908 
   10750    293.31683   -1737.3318    48599.345   -13807.839    1367.4392   -15175.278     198.7136 
   10800    286.52556   -1166.5973    48609.715    -13825.45    1335.7784   -15161.228    199.64311 
   10850    298.96315   -865.32447    48609.008   -13813.782    1393.7623   -15207.544    200.73956 
   10900    292.94004   -981.16597    48797.865   -13793.842    1365.6826   -15159.525    202.55255 
   10950    293.01242   -1087.9643    48708.581   -13825.728    1366.0201   -15191.748    203.06829 
   11000    293.74488    -1226.947     48754.34   -13804.403    1369.4348   -15173.838    204.98075 
   11050    294.72997   -1070.0465    48629.848   -13851.139    1374.0272   -15225.167    205.54555 
   11100     292.5849   -1327.4583    48504.455    -13894.24     1364.027   -15258.267    205.32282 
   11150    296.41763   -537.29082    48637.056   -13897.047    1381.8951   -15278.942    206.80483 
   11200    290.54162   -902.16778    48672.607   -13828.252    1354.5012   -15182.753     208.4928 
   11250     292.1556   -866.49745    48734.325   -13841.693    1362.0256   -15203.718     210.3055 
   11300    309.10936   -822.48283    48721.218   -13865.731    1441.0638   -15306.795    211.25453 
   11350    300.38769   -1125.7759    48602.096    -13855.31    1400.4035   -15255.714     212.5771 
   11400    291.41593   -1557.3785    48561.205   -13873.822    1358.5773   -15232.399    213.87453 
   11450      290.907   -1213.1175    48480.821   -13906.773    1356.2047   -15262.977    214.58094 
   11500    282.32964   -1022.0619    48377.801   -13922.518    1316.2171   -15238.735    214.68969 
   11550    284.95069   -1219.8021    48548.504   -13895.808    1328.4364   -15224.244    215.23321 
   11600    287.83166    -1329.243    48426.899   -13881.085    1341.8675   -15222.952    216.36694 
   11650    297.50929   -1222.0101    48393.695   -13847.508    1386.9844   -15234.493    217.05298 
   11700     306.0382   -821.51579    48388.774   -13770.621    1426.7461   -15197.368    218.16948 
   11750    292.01308   -1244.3754    48456.772   -13815.373    1361.3612   -15176.734    219.66192 
   11800    294.25138   -961.72878    48342.051   -13842.545    1371.7961   -15214.341     221.1103 
   11850    291.86443   -456.02284    48455.388    -13799.56    1360.6682   -15160.228    222.92588 
   11900    294.66687   -1058.2909    48504.629   -13861.168    1373.7331   -15234.901    224.44429 
   11950    288.46508   -815.23812    48510.074   -13871.404    1344.8204   -15216.225    225.34147 
   12000    296.61623   -959.04691    48342.132   -13865.147     1382.821   -15247.968    226.11695 
   12050    293.22856   -685.79562    48185.233   -13870.847    1367.0277   -15237.874    227.37331 
   12100    306.45703   -530.32184    48403.041   -13817.209    1428.6987   -15245.907    228.49448 
   12150    300.52337   -898.86516    48531.733   -13825.736     1401.036   -15226.773    229.89187 
   12200    298.21569   -1262.7269    48521.186   -13841.774    1390.2777   -15232.051    233.03199 
   12250    295.17084   -499.20656    48310.433   -13875.923    1376.0826   -15252.005    232.70058 
   12300    289.02042   -955.15151    48335.673   -13876.767    1347.4094   -15224.176    234.16685 
   12350    289.95531   -803.64793    48340.859   -13876.339    1351.7679   -15228.106    235.05151 
   12400    301.66941   -770.48568    48283.041   -13844.625    1406.3789   -15251.004    235.92501 
   12450      289.169   -672.69962    48199.176   -13937.917    1348.1021   -15286.019    236.28061 
   12500    288.14779   -816.63538    48275.037   -13900.119    1343.3412   -15243.461    237.47071 
   12550    294.50341   -1452.3682    48265.397   -13880.644     1372.971   -15253.615    238.93426 
   12600    294.71016   -905.55609    48488.499   -13827.179    1373.9349   -15201.113    241.12676 
   12650    292.11072   -916.28535    48494.856    -13841.78    1361.8163   -15203.596     241.8891 
   12700    298.97637   -1253.8462    48497.986   -13772.285    1393.8239   -15166.109    243.43729 
   12750    291.69739   -1142.7363    48386.609   -13797.943    1359.8894   -15157.832    243.67951 
   12800     288.0438   -1193.4753    48404.914   -13821.154    1342.8564   -15164.011    245.58795 
   12850    296.66808   -903.82466    48324.316   -13872.259    1383.0627   -15255.321    245.66755 
   12900    284.78371   -994.65761    48545.445   -13893.875    1327.6579   -15221.533    247.75936 
   12950     295.7577   -450.56031    48863.685   -13852.885    1378.8185   -15231.704    249.67918 
   13000      299.259   -1228.5844    48427.799   -13820.333    1395.1416   -15215.475    249.03375 
   13050    297.53853    -610.1037    48665.868   -13822.019    1387.1207    -15209.14    250.42977 
   13100    300.78897   -887.53125    48624.185   -13789.008    1402.2743   -15191.282    252.14298 
   13150    303.59029   -979.09966    48530.526   -13819.546    1415.3339    -15234.88    253.38973 
   13200    308.35665   -873.66535    48665.749    -13781.01    1437.5547   -15218.565    255.06575 
   13250    294.89412   -533.69884    48700.884   -13813.298    1374.7926   -15188.091    256.74948 
   13300    289.56123   -857.33422    48574.703   -13828.828    1349.9307   -15178.759    257.94133 
   13350    300.06752   -1031.3365    48627.841   -13889.234    1398.9109   -15288.145    259.62875 
   13400    287.62229   -1380.2322    48599.411   -13923.971    1340.8914   -15264.863    260.20695 
   13450    289.33851   -1197.7295    48539.397   -13933.497    1348.8923   -15282.389    260.92613 
   13500    287.77957   -1366.7773    48481.734   -13922.158    1341.6246   -15263.783    261.34233 
   13550    286.49837   -1324.9672    48556.419   -13951.722    1335.6516   -15287.373    262.87608 
   13600    280.68246   -1251.0108    48560.726    -13928.03     1308.538   -15236.568    263.78787 
   13650    298.49308   -1466.9873    48396.374   -13875.648    1391.5708   -15267.219    263.99568 
   13700    295.21693   -1335.4988    48163.324   -13898.417    1376.2974   -15274.715    264.52095 
   13750    300.15618   -866.49065    47965.392   -13885.943    1399.3242   -15285.267    265.82017 
   13800    292.25936   -864.47984    48199.527   -13878.581    1362.5093   -15241.091    267.84249 
   13850    294.02643   -1497.8922    48271.329   -13910.471    1370.7474   -15281.218    268.28969 
   13900    291.09646    -1117.242     48255.05   -13836.851    1357.0879   -15193.939    268.84984 
   13950     284.0762   -769.78479    48232.313   -13852.899    1324.3595   -15177.259      270.274 
   14000    290.69553   -919.43714    48242.599   -13793.299    1355.2187   -15148.518    271.89521 
   14050     291.7877   -1216.7572    48639.341   -13787.113    1360.3104   -15147.423    273.93994 
   14100    297.53724   -214.12642    48781.779   -13771.191    1387.1147   -15158.306    276.27679 
   14150    294.65629   -794.38715    48920.021    -13777.48    1373.6838   -15151.164    278.04357 
   14200    299.19469   -1146.8803    48847.941   -13789.762    1394.8417   -15184.604    278.25067 
   14250    292.10697   -1511.1291    48905.404   -13847.778    1361.7989   -15209.576    280.35048 
   14300    289.06515   -1685.8562    48735.268    -13896.13     1347.618   -15243.748    282.22985 
   14350    293.76913   -1334.4578    48543.317   -13844.677    1369.5478   -15214.225    283.34361 
   14400    290.68363   -977.85364    48307.442   -13871.663    1355.1633   -15226.827    283.42638 
   14450    292.61546   -754.01589    48282.676   -13816.264    1364.1695   -15180.433    284.53385 
   14500    288.43286   -993.33546    48277.811   -13852.285    1344.6702   -15196.956    285.75581 
   14550    296.26374   -478.05211    48721.082   -13804.724    1381.1777   -15185.901    288.77549 
   14600    304.26349    -1175.331     48622.88   -13825.644    1418.4724   -15244.117    289.63024 
   14650    291.79254   -962.92057    48580.576   -13842.028     1360.333   -15202.361    290.59241 
   14700    290.58954   -1084.1694    48658.308   -13871.843    1354.7246   -15226.568    291.54992 
   14750    290.02268   -959.02117    48548.678   -13894.488    1352.0819    -15246.57     291.7894 
   14800    276.31466   -921.80987     48494.02   -13935.645    1288.1753    -15223.82     292.1072 
   14850    284.67399     -979.335    48493.159   -13928.487    1327.1464   -15255.633    293.58393 
   14900    289.07134   -933.85841    48470.988   -13893.697    1347.6468   -15241.344    294.11777 
   14950    283.89217   -976.59524    48507.511   -13918.005    1323.5016   -15241.507    295.35413 
   15000    284.93897   -1036.9325    48492.528   -13947.521    1328.3818   -15275.903    295.11454 
   15050    284.08278   -923.58766    48562.632   -13952.046    1324.3902   -15276.437    296.03465 
   15100    290.45792   -559.31417    48730.335   -13921.631     1354.111   -15275.743    297.48328 
   15150     289.7584   -1282.6416    48671.831   -13918.606    1350.8499   -15269.456    298.49003 
   15200    283.23357   -883.57593    48667.858   -13925.063    1320.4312   -15245.494     298.7595 
   15250    283.05611   -660.06771    48682.313   -13919.754    1319.6039   -15239.358    299.83144 
   15300    294.91303   -904.40744    48602.052   -13906.155    1374.8807   -15281.035    302.54509 
   15350    289.16499   -1040.3151    48371.714   -13899.636    1348.0834    -15247.72    304.15287 
   15400    284.78301   -1289.0106     48448.91   -13884.388    1327.6547   -15212.042    305.64745 
   15450    288.36987   -1082.3613    48575.226   -13882.054    1344.3766    -15226.43    306.05756 
   15500    293.35467   -783.57148    48744.586   -13882.488    1367.6156   -15250.104    307.87834 
   15550    296.41276   -1026.9454    48723.116   -13836.201    1381.8724   -15218.074    309.20808 
   15600    295.13995   -999.73431    48656.067   -13840.953    1375.9386   -15216.892    309.33194 
   15650    291.73901   -1296.7941    48400.937   -13910.245    1360.0835   -15270.328    309.54736 
   15700    288.07572   -1288.0533    48444.153     -13919.2    1343.0052   -15262.205     311.4734 
   15750    291.65966   -841.39812    48467.553   -13903.398    1359.7135   -15263.112    313.33445 
   15800    291.46759   -783.44209     48499.72   -13950.992    1358.8181    -15309.81    314.10681 
   15850    285.65483   -773.63343    48455.507   -13949.987    1331.7191   -15281.706    315.07309 
   15900    282.97225   -912.02028     48504.36   -13985.945    1319.2129   -15305.158    317.06967 
   15950    297.42122   -1519.1941    48443.718    -13913.94    1386.5739   -15300.514    318.28726 
   16000    287.12301   -1078.3327     48384.64   -13887.462    1338.5637   -15226.025    319.31548 
   16050    290.60013    -1419.278    48361.494   -13821.693     1354.774   -15176.467    320.61145 
   16100    299.73469   -788.44226     48589.94   -13867.954    1397.3592   -15265.313    322.24906 
   16150    290.21557    -1088.713    48684.735   -13857.878    1352.9812   -15210.859    325.05654 
   16200    298.84991   -1281.5412    48704.865   -13880.647    1393.2344   -15273.882    326.98145 
   16250    295.88898   -822.38132    48740.769   -13838.081    1379.4306   -15217.511    328.50051 
   16300    295.09744   -966.68533    48860.945   -13878.228    1375.7404   -15253.969     330.1147 
   16350    303.76303    -1163.377    48856.181   -13801.965    1416.1393   -15218.104     331.0995 
   16400     301.9294   -685.61319    48733.266   -13802.888    1407.5909   -15210.479    331.74867 
   16450    293.98429   -705.40469    48601.029   -13819.518    1370.5509   -15190.069     331.7106 
   16500    291.77006   -623.96382    48644.554   -13801.224    1360.2282   -15161.452    332.43999 
   16550    292.51081   -869.81622    48682.122   -13784.522    1363.6816   -15148.204    334.29147 
   16600    294.94688   -963.77933    48781.966   -13820.445    1375.0385   -15195.484    337.56892 
   16650    297.88541   -660.98427    48903.605   -13790.224    1388.7379   -15178.962    338.65398 
   16700    291.68194   -1152.5672    48679.233   -13813.143    1359.8174    -15172.96    338.10151 
   16750    296.54067   -734.24406    48670.403   -13828.744    1382.4687   -15211.212    337.81012 
   16800    300.01358    -1015.149    48725.054   -13810.194    1398.6594   -15208.853    337.92736 
   16850    296.63261   -992.16722    48830.714    -13751.07    1382.8974   -15133.968    338.71455 
   16900    290.06824   -1272.8625    48720.968   -13825.577    1352.2943   -15177.871    340.50221 
   16950    296.64195   -1008.1446    48815.272   -13790.372    1382.9409   -15173.312    342.33647 
   17000    295.67561   -1185.9954    48577.505   -13782.621    1378.4358   -15161.057    343.16463 
   17050    311.63119   -1333.2997    48703.713   -13695.715    1452.8205   -15148.535    344.88569 
   17100     308.6563   -1093.5621    48597.272   -13716.465    1438.9516   -15155.417    343.93789 
   17150    296.88575   -1082.1989    48504.951   -13745.939    1384.0775   -15130.016    343.59144 
   17200    299.17619    -532.8609    48688.109   -13806.135    1394.7555   -15200.891    344.95005 
   17250    286.32898   -996.59492    48895.407   -13851.875    1334.8619   -15186.737    347.40219 
   17300     297.6311    -1244.456    48963.947   -13828.789    1387.5523   -15216.342    348.56804 
   17350    298.33546   -851.58693    48761.104   -13839.605     1390.836   -15230.441    348.43193 
   17400    293.81877   -1076.3702    48528.706   -13799.959    1369.7792   -15169.738    347.80959 
   17450    296.34658   -907.41877     48679.22   -13819.546    1381.5639    -15201.11    351.30477 
   17500    292.61445   -1296.3644     48672.29   -13862.486    1364.1647   -15226.651      352.857 
   17550    286.97311   -1174.4025    48736.537   -13806.554    1337.8649   -15144.419    354.81771 
   17600    292.94603   -1454.2285      48630.5   -13790.646    1365.7106   -15156.357      354.989 
   17650    299.52818   -814.96384     48543.21   -13797.428    1396.3965   -15193.825    355.24924 
   17700     288.2513    -406.2166    48488.894   -13838.063    1343.8238   -15181.887    357.27378 
   17750    298.49433   -565.95881    48519.818   -13789.009    1391.5767   -15180.586    357.71351 
   17800    293.75984   -1062.4535    48496.068   -13822.128    1369.5045   -15191.633     359.3745 
   17850    289.52378   -1201.9151    48460.871   -13873.936    1349.7561   -15223.692    360.11817 
   17900    297.80734   -1142.5785    48435.846   -13820.082    1388.3739   -15208.456    360.87433 
   17950    301.72441    -1309.642     48481.72     -13805.9    1406.6353   -15212.535     363.0323 
   18000    293.02874   -757.53955     48470.88    -13800.73    1366.0961   -15166.826    363.98211 
   18050    295.33859   -1041.2738    48454.957   -13864.529    1376.8647   -15241.394    364.19355 
   18100    292.07579   -1015.2062    48328.938   -13885.704    1361.6535   -15247.357    365.13792 
   18150    289.76133   -1045.1472    48342.592   -13881.608    1350.8635   -15232.472      366.682 
   18200    297.90325   -796.26098    48527.913   -13792.025    1388.8211   -15180.846    369.11938 
   18250    298.02201   -991.35334    48556.189   -13818.997    1389.3747   -15208.372     370.0289 
   18300    308.27706   -441.67686    48628.535   -13781.981    1437.1836   -15219.165    371.78538 
   18350    290.73943   -1477.1219    48568.831   -13830.877    1355.4234   -15186.301     374.8884 
   18400    294.72054   -1561.7658    48483.357   -13787.844    1373.9833   -15161.827     376.0761 
   18450    302.22848   -1156.4773    48429.667   -13844.463    1408.9852   -15253.449    376.81311 
   18500    295.49149   -1202.9164    48277.427   -13879.739    1377.5775   -15257.316    377.28244 
   18550     301.0039   -676.14332    48463.586   -13856.015    1403.2762   -15259.291    379.72329 
   18600     292.8497   -1056.8545     48466.96     -13870.4    1365.2615   -15235.662    380.77448 
   18650    288.91147   -803.54555    48529.421   -13850.513    1346.9015   -15197.415    381.80911 
   18700     300.4531    -1321.445    48297.933   -13841.279    1400.7084   -15241.987    381.06291 
   18750    297.06657   -1082.2453    48278.512    -13808.22    1384.9205    -15193.14    382.23933 
   18800    301.10327   -593.71042    48298.825   -13861.446    1403.7395   -15265.185    382.77725 
   18850    310.23973   -1159.8541    48301.558   -13817.279    1446.3336   -15263.612    382.93826 
   18900    284.30896   -1205.5871     48337.24   -13859.498    1325.4446   -15184.942    384.38621 
   18950     295.9967   -1175.1062    48284.976   -13817.856    1379.9328   -15197.789    385.26854 
   19000    288.79323   -920.09573    48019.667   -13881.804    1346.3502   -15228.154    385.68272 
   19050    283.60693   -1163.5062    48078.142   -13861.115    1322.1718   -15183.287    386.79989 
   19100    289.93455   -1287.6936    48068.167   -13869.303    1351.6711   -15220.974    389.69334 
   19150    291.49938   -649.19314    48137.457   -13850.784    1358.9663   -15209.751    390.86801 
   19200    294.72928   -904.98999    48226.116   -13785.272     1374.024   -15159.296    393.23007 
   19250    296.65758   -1032.8281    48287.991   -13753.901    1383.0137   -15136.914    395.89913 
   19300    303.45412   -661.26605    48347.114   -13762.496    1414.6991   -15177.195    398.79406 
   19350    298.90914   -803.73967      48374.9   -13742.534    1393.5105   -15136.044    400.59047 
   19400    298.67237   -757.46517    48524.129   -13776.626    1392.4067   -15169.033    403.09116 
   19450    299.61924   -1388.4214    48548.883   -13737.514     1396.821   -15134.335    404.95353 
   19500    300.34989    -1565.011    48155.487   -13799.106    1400.2273   -15199.333    404.64399 
   19550    296.94103   -1029.6861    48048.501   -13814.601    1384.3352   -15198.936    405.57879 
   19600    294.52048   -555.76803    48171.609    -13822.07    1373.0506   -15195.121    408.91984 
   19650     297.7393   -1107.9232    48260.613   -13802.411    1388.0567   -15190.467    411.18064 
   19700    300.18564   -1142.5914    48123.762   -13775.732    1399.4615   -15175.194    412.28095 
   19750    298.76282   -1057.4508    48300.062   -13778.338    1392.8284   -15171.166    414.50292 
   19800      292.412   -1403.2732    48168.536   -13776.934    1363.2209   -15140.155    415.35388 
   19850    300.13065   -1058.5646    48351.157    -13797.38    1399.2052   -15196.585    418.60283 
   19900    292.99727   -847.94605    48396.312   -13819.785    1365.9494   -15185.735    422.03423 
   19950    298.22012   -808.73722    48363.144   -13848.932    1390.2983   -15239.231    423.08901 
   20000    304.59991   -619.49913    48476.521   -13782.712    1420.0408   -15202.753     423.5773 
   20050    299.57527   -902.05696    48546.169    -13822.23     1396.616   -15218.846     425.2185 
   20100    291.80787   -1240.4608    48361.419   -13862.589    1360.4045   -15222.994    425.44737 
   20150    291.24532   -1006.4115    48230.779   -13865.718    1357.7819     -15223.5    425.02488 
   20200     292.9408   -1147.1816    48236.705   -13849.034    1365.6862    -15214.72    425.70982 
   20250     292.5394   -886.57513    48410.414   -13856.692    1363.8149   -15220.507    428.83955 
   20300    290.47977      -1569.5    48500.715   -13854.012    1354.2129   -15208.225    431.36078 
   20350    297.73427   -768.06263     48503.72   -13843.081    1388.0333   -15231.114    434.00715 
   20400    300.01289   -851.96047    48590.078   -13838.397    1398.6562   -15237.053    436.77786 
   20450    293.15007   -887.52302    48548.705   -13853.144    1366.6618   -15219.806    437.33173 
   20500    293.52498    -1179.493     48497.23   -13866.003    1368.4096   -15234.413    438.82716 
   20550    285.28504   -1146.1291     48593.12   -13882.705    1329.9951     -15212.7    440.42935 
   20600    289.00075   -1188.1181    48638.619   -13895.245    1347.3177   -15242.563    440.20383 
   20650    295.55644   -1074.9664    48471.115   -13854.064    1377.8802   -15231.945     440.6455 
   20700    298.42986   -1155.0369    48725.001   -13816.159    1391.2761   -15207.435    443.53674 
   20750    294.36549     -1057.91    48650.075   -13826.644     1372.328   -15198.972    444.33063 
   20800    290.51041   -709.45913    48531.919   -13831.708    1354.3557   -15186.064    445.53202 
   20850    291.34284   -977.59941    48715.518   -13889.745    1358.2365   -15247.981    448.28106 
   20900    291.70944   -703.70015    48672.758    -13884.34    1359.9456   -15244.286    448.81147 
   20950    278.72519   -1224.7815    48347.908   -13969.228    1299.4132   -15268.642    446.50653 
   21000    286.58637   -1068.3686    48309.894   -13987.239    1336.0619   -15323.301     445.7923 
   21050    293.89831   -672.42062    48406.768   -13959.932    1370.1501   -15330.082     445.5696 
   21100    286.73746   -1235.2372    48426.127   -13941.685    1336.7663   -15278.452    447.05446 
   21150    286.29131   -631.21121    48412.039   -13930.598    1334.6864   -15265.284    446.99695 
   21200    294.00949   -1288.7011    48493.798   -13890.257    1370.6684   -15260.926    449.06083 
   21250    287.40707   -965.88776    48490.144   -13927.508     1339.888   -15267.396    450.58191 
   21300    292.75428   -822.65543    48535.943    -13931.13    1364.8166   -15295.947    451.37233 
   21350    288.63511   -1178.0184    48512.349    -13889.97    1345.6131   -15235.583    451.91763 
   21400    285.70489   -524.35881    48431.675   -13914.217    1331.9524   -15246.169    450.58935 
   21450    294.67288   -792.54919    48583.448   -13924.151    1373.7611   -15297.912    452.10138 
   21500    287.23057   -875.25217    48655.959   -13919.029    1339.0652   -15258.094    452.76977 
   21550    291.39225   -1279.5075     48717.47   -13879.753    1358.4669   -15238.219    454.96983 
   21600    293.69175   -519.88132    48780.568    -13841.69    1369.1871   -15210.877      456.511 
   21650    294.69407   -1296.3581    48940.051   -13806.751    1373.8599   -15180.611    458.35588 
   21700    301.54399   -773.71931    48811.707   -13803.061    1405.7942   -15208.855    458.95718 
   21750    292.84307   -995.74276    48679.907   -13808.835    1365.2305   -15174.066    460.13198 
   21800    290.09967   -834.91822    48678.054    -13807.83    1352.4409   -15160.271      461.605 
   21850    299.36757   -977.76879    48738.456   -13821.606    1395.6477   -15217.254     462.9683 
   21900    308.41557   -1629.9033    48632.718   -13831.371    1437.8294   -15269.201    462.80664 
   21950     292.9663   -821.18464    48497.507   -13884.272     1365.805   -15250.077    462.71654 
   22000    294.95192   -641.07133    48472.131   -13912.736     1375.062   -15287.798    465.28764 
   22050    290.13693   -881.74545    48614.252   -13859.339    1352.6146   -15211.954     468.0143 
   22100    287.16104   -1148.9272    48660.698   -13894.413     1338.741   -15233.154    469.61303 
   22150    291.81396   -1192.8413    48680.449   -13854.942    1360.4329   -15215.375    471.01642 
   22200    289.19355   -1469.7637    48659.297   -13821.492    1348.2166   -15169.709    472.35289 
   22250    298.74849   -681.73212    48641.451   -13841.341    1392.7615   -15234.102    473.97387 
   22300     293.0924   -1073.0898    48558.452   -13863.565    1366.3929   -15229.958    473.25082 
   22350    302.65716   -1109.6068    48765.331   -13776.186    1410.9837    -15187.17    476.43887 
   22400    305.60223   -1080.5672    48853.375   -13794.325    1424.7136   -15219.039    477.69719 
   22450      293.281   -1006.4644    49005.326   -13838.507    1367.2722   -15205.779    480.36967 
   22500      306.001    -606.1991    48910.409   -13747.078    1426.5727   -15173.651    483.78614 
   22550    307.73421   -1206.0885    48731.169   -13778.889    1434.6529   -15213.542    484.65944 
   22600    293.86843   -1153.7333    48663.696   -13863.281    1370.0108   -15233.292    483.86752 
   22650    298.68739   -908.18486    48421.699   -13804.938    1392.4767   -15197.414    482.97593 
   22700    290.90301   -437.07968    48326.497   -13830.597     1356.186   -15186.784    482.48904 
   22750    295.19507   -1138.3155    48458.412    -13781.12    1376.1955   -15157.316    484.82858 
   22800    292.23958   -960.57574     48370.76   -13833.394    1362.4171   -15195.811    484.80993 
   22850    295.32972   -969.00734     48633.83    -13823.19    1376.8233   -15200.014    487.56125 
   22900    288.52667   -1317.2459    48629.278    -13801.66    1345.1076   -15146.768    487.06561 
   22950    293.23483   -638.20964    48631.682   -13775.336    1367.0569   -15142.393     487.3404 
   23000    287.86091   -1053.1929    48514.326   -13853.866    1342.0038    -15195.87    485.59336 
   23050    290.81515   -872.00804    48305.784   -13895.221    1355.7764   -15250.998    485.09652 
   23100    295.90612   -1203.6808    48429.789   -13843.386    1379.5104   -15222.897    487.74945 
   23150    290.53673   -1591.7261    48526.092   -13828.184    1354.4784   -15182.662     488.8429 
   23200    288.99689   -1156.0326    48316.899   -13844.122    1347.2997   -15191.422    488.08904 
   23250    290.78537   -859.36141    48378.795    -13872.28    1355.6376   -15227.917    489.78622 
   23300    292.17042   -1218.2935    48363.829   -13857.626    1362.0947    -15219.72    490.01101 
   23350    302.28175   -1233.8591     48339.04   -13814.962    1409.2336   -15224.195    490.88478 
   23400    287.02961   -635.24319    48310.767   -13835.725    1338.1283   -15173.853    494.26363 
   23450    297.23902   -738.09379     48458.28   -13824.438    1385.7244   -15210.163    498.33745 
   23500    294.50682   -656.25128    48311.353   -13846.584    1372.9869   -15219.571    497.60623 
   23550    294.01536   -904.06257    48656.895   -13826.244    1370.6957    -15196.94    500.88749 
   23600    291.26507   -866.13669    48552.057   -13900.229     1357.874   -15258.103    501.92038 
   23650    293.45867   -868.76174    48592.384   -13876.435    1368.1005   -15244.535    502.40849 
   23700    290.52726   -810.51782    48563.572   -13939.825    1354.4343   -15294.259    503.14225 
   23750    287.92941   -979.92095    48475.993   -13930.556    1342.3232   -15272.879    503.62589 
   23800    291.95823   -1446.1618    48416.189   -13913.929    1361.1055   -15275.035    505.10962 
   23850    293.53639   -1275.9824    48390.558   -13928.145    1368.4628   -15296.608    505.64473 
   23900    295.35515   -879.41538    48454.687   -13908.447    1376.9419   -15285.389    506.30415 
   23950    296.63039   -951.56206     48548.92   -13856.599     1382.887   -15239.486    508.34515 
   24000    294.73914    -842.4917    48482.491   -13833.042      1374.07   -15207.112    508.65913 
   24050    293.82039   -708.30892    48375.478   -13857.502    1369.7868   -15227.289    509.16915 
   24100    297.25723   -1272.9577    48377.377   -13882.351    1385.8093    -15268.16    509.84702 
   24150     291.6427   -712.73969    48416.626   -13911.505    1359.6345   -15271.139    511.09516 
   24200    283.14264    -1107.422     48325.98   -13942.581    1320.0073   -15262.589    513.20143 
   24250    299.44493   -1169.4396    48127.408   -13887.903    1396.0084   -15283.911    512.96572 
   24300    289.99839   -761.52061     48220.34   -13910.676    1351.9687   -15262.645    514.76762 
   24350    294.08742   -897.65554    48370.582   -13904.358    1371.0317    -15275.39     516.5405 
   24400    286.78468    -1096.798    48467.616   -13950.554    1336.9864   -15287.541    516.61312 
   24450    293.10054   -1162.4911    48416.222   -13901.491    1366.4309   -15267.921    515.91994 
   24500    290.87567   -1326.4307    48597.721   -13929.246    1356.0586   -15285.305    516.75963 
   24550    303.72403   -901.09359    48683.598   -13863.538    1415.9574   -15279.496    519.35513 
   24600    293.71153   -1047.4047    48502.393   -13881.057    1369.2793   -15250.337    517.46757 
   24650    294.20199   -1254.0195    48681.241   -13882.248    1371.5658   -15253.814    518.88631 
   24700    296.11306   -1148.3109    48541.983   -13862.024    1380.4752     -15242.5    518.00125 
   24750    283.75628   -1137.9178    48631.345   -13929.643     1322.868   -15252.511    520.08404 
   24800    285.53688   -1090.7834    48486.542   -13913.032    1331.1692   -15244.201    520.15766 
   24850    285.64949   -1281.7441    48619.205   -13885.748    1331.6942   -15217.442     522.0523 
   24900    296.03844   -1167.0804    48597.143   -13823.422    1380.1273   -15203.549    522.75905 
   24950    292.99368   -1473.8469    48670.702   -13829.103    1365.9327   -15195.035    524.02882 
   25000    292.66703   -990.48806    48614.214   -13822.256    1364.4098   -15186.666    525.37486 
   25050    291.25031   -1266.8468    48764.903   -13826.272    1357.8051   -15184.077    526.99762 
   25100    287.59083   -905.55651    48677.368   -13855.267    1340.7447   -15196.011     527.7388 
   25150    293.91215   -839.61372    48595.506   -13831.874    1370.2146   -15202.089    528.67146 
   25200    289.72776   -1356.3585    48464.532    -13881.96     1350.707   -15232.667    527.86973 
   25250    287.87274   -878.84899     48443.23   -13872.976    1342.0589   -15215.035    527.28592 
   25300     300.4966   -1178.7692    48249.083   -13870.891    1400.9112   -15271.802    526.35999 
   25350    299.56698   -1281.8351    48253.753   -13881.462    1396.5774   -15278.039    528.10487 
   25400    298.83776   -631.64687    48362.343   -13870.039    1393.1777   -15263.217    529.69863 
   25450    304.35801   -729.13401    48483.067   -13855.236    1418.9131   -15274.149    532.31546 
   25500    292.21492   -1151.2835    48430.104   -13856.021    1362.3022   -15218.323    534.50828 
   25550    299.33363   -1206.1635    48509.566   -13911.748    1395.4895   -15307.238    536.17427 
   25600    299.59795   -1395.3062    48398.211   -13835.902    1396.7217   -15232.624    535.96506 
   25650    283.20338   -1116.4039    48308.645   -13930.149    1320.2905    -15250.44    535.88996 
   25700    295.11711   -655.95508    48316.229   -13879.227    1375.8321   -15255.059    535.78492 
   25750    288.01745   -758.43855     48405.52   -13881.393    1342.7336   -15224.126    536.41382 
   25800    295.44191   -1584.7823    48337.475   -13864.108    1377.3463   -15241.454     537.4085 
   25850    289.56557   -1250.3734    48254.823   -13857.193    1349.9509   -15207.144    538.87266 
   25900    297.00324   -806.61877    48177.881    -13842.19    1384.6252   -15226.815    538.28075 
   25950    303.83867   -1471.3341     48245.92   -13798.237    1416.4919   -15214.729    538.80499 
   26000    295.16612   -646.84519    48200.228   -13886.628    1376.0606   -15262.688    537.41503 
   26050    299.45458   -1488.9175    48346.754   -13896.087    1396.0533    -15292.14    538.02535 
   26100    295.35295   -1162.5965    48216.284   -13885.746    1376.9316   -15262.677     537.1259 
   26150    297.02594   -850.02626     48370.83   -13899.169     1384.731     -15283.9    540.39345 
   26200    295.63149   -1074.5309    48447.969   -13866.728    1378.2301   -15244.958    542.58726 
   26250    292.34477   -938.14594    48557.233   -13850.454    1362.9075   -15213.362    543.65081 
   26300     294.0189   -928.85507    48457.949   -13900.613    1370.7123   -15271.326    544.45998 
   26350    305.01616   -1406.8741    48271.115   -13879.936    1421.9814   -15301.917    543.27681 
   26400    292.29488   -933.80969    48403.631   -13900.213    1362.6749   -15262.888    544.82547 
   26450    294.80561   -669.02318    48449.208   -13901.603    1374.3799   -15275.983    546.27317 
   26500    281.08168   -1418.1867    48539.743   -13921.879    1310.3991   -15232.278    546.70214 
   26550    289.65318    -1054.604    48417.362   -13914.614    1350.3593   -15264.973    546.25165 
   26600     290.6685   -1034.3696    48305.657   -13934.255    1355.0927   -15289.347    547.83704 
   26650    276.68694   -652.46984    48344.181    -13920.18    1289.9109   -15210.091     551.4829 
   26700    288.92406   -1032.3965    48515.218   -13859.356    1346.9602   -15206.316    553.72623 
   26750     293.2468   -1073.4423    48567.151    -13829.61    1367.1128   -15196.722     556.0008 
   26800    298.48843   -1167.0328    48619.261   -13838.821    1391.5492   -15230.371    556.78792 
   26850     293.0394   -1033.0072    48524.434   -13899.535    1366.1458   -15265.681    557.03435 
   26900    298.55084   -1262.0042    48422.766   -13928.967    1391.8401   -15320.808     557.8134 
   26950    281.35975   -792.92511    48367.453   -13936.035    1311.6955    -15247.73    559.75369 
   27000    296.97594   -903.01891    48424.337   -13933.128    1384.4979   -15317.626    560.29854 
   27050    280.46878   -1384.8762    48518.631     -13903.8    1307.5418   -15211.341    561.46504 
   27100    290.88467   -1331.9199    48398.286   -13915.895    1356.1005   -15271.995    561.95641 
   27150    290.12992   -1305.3401    48263.752   -13931.365    1352.5819   -15283.947    562.46336 
   27200    289.84294   -873.06092    48275.998   -13933.304     1351.244   -15284.548    561.68473 
   27250    286.39526   -1050.1807    48238.553   -13942.771     1335.171   -15277.942    562.65702 
   27300    293.29327    -1022.351    48429.156    -13937.46    1367.3294   -15304.789    564.70496 
   27350    292.60209    -1155.651    48475.223   -13891.726    1364.1071   -15255.833    565.85291 
   27400    294.44192   -1247.2747    48559.848   -13841.311    1372.6844   -15213.995    568.07641 
   27450    298.61875   -671.38347    48803.124   -13824.671    1392.1567   -15216.827     569.5588 
   27500     295.3745    -1457.775    48851.989   -13832.885     1377.032   -15209.917    570.50597 
   27550    295.19719    -1217.674    48811.143    -13860.41    1376.2055   -15236.615    572.35779 
   27600     289.7406   -1115.0419    48587.329   -13833.434    1350.7669   -15184.201    571.85532 
   27650    293.79734    -865.6256    48385.458   -13854.329    1369.6794   -15224.008    572.73994 
   27700    297.10858   -741.90305    48329.369   -13789.475    1385.1163   -15174.591    572.51546 
   27750    304.78376   -1106.2155    48371.738   -13793.399    1420.8979   -15214.297    574.02474 
   27800    298.48944   -1039.5347    48587.417   -13752.398    1391.5539   -15143.952    576.04618 
   27850     296.0883   -1938.6246    48554.148   -13823.699    1380.3598   -15204.059    577.73103 
   27900    297.01628   -660.02261    48483.155   -13881.513     1384.686   -15266.199     578.9984 
   27950    287.15202   -959.08438    48425.309    -13881.14     1338.699   -15219.839    581.78494 
   28000    302.47511   -899.96968    48248.656   -13837.308     1410.135   -15247.443    581.16817 
   28050    298.90505   -1503.6829    48293.274   -13810.235    1393.4914   -15203.726    582.21507 
   28100    301.76944   -1187.4057    48328.663   -13843.245    1406.8452    -15250.09    584.25816 
   28150    291.08441    -628.8762    48439.881   -13895.882    1357.0317   -15252.913    585.48955 
   28200    292.85294   -564.40757    48525.163   -13871.137    1365.2766   -15236.413    586.92925 
   28250    300.55398   -1052.6921    48433.004   -13859.513    1401.1787   -15260.692    587.40851 
   28300    294.88182   -1260.4701    48361.505   -13898.947    1374.7352   -15273.683    586.43769 
   28350    292.03687   -946.26269    48211.404   -13941.542    1361.4721   -15303.014    586.68789 
   28400    274.63444    -1196.492    48154.038   -13993.731    1280.3422   -15274.073    586.44315 
   28450    284.49161    -855.9555    48289.696   -13922.147    1326.2962   -15248.443     589.6397 
   28500    302.54533   -1007.7782    48308.623   -13874.454    1410.4624   -15284.917    590.56834 
   28550    287.95268   -1054.3568    48345.499   -13856.654    1342.4316   -15199.086    593.08663 
   28600    294.75254   -667.27357    48569.366   -13857.349    1374.1325   -15231.482     596.6908 
   28650    288.86868   -1568.8484    48439.324   -13863.158     1346.702    -15209.86    596.97747 
   28700    293.34605   -1155.0561    48498.789    -13833.47    1367.5754   -15201.046     599.0913 
   28750    296.49371    -1392.288    48570.586   -13839.498    1382.2498   -15221.748    601.95431 
   28800    295.59363    -792.4416    48361.706   -13816.948    1378.0536   -15195.002    602.02234 
   28850    306.39183   -1009.1523    48570.541   -13784.904    1428.3947   -15213.299    604.92048 
   28900    289.59131   -857.97533    48655.786    -13837.77    1350.0709    -15187.84    606.43498 
   28950    296.66587   -1182.1283    48484.377     -13861.8    1383.0524   -15244.852    605.27739 
   29000    303.44409   -1042.5296    48494.528   -13796.007    1414.6524   -15210.659    607.65205 
   29050    299.92683   -1009.6998    48420.336   -13823.235    1398.2549    -15221.49    608.31679 
   29100    296.27519   -735.58876    48298.676   -13773.536     1381.231   -15154.767    608.69625 
   29150    299.93826   -1393.7432    48303.538   -13800.402    1398.3082   -15198.711    609.18936 
   29200    293.02827   -1079.0699     48140.75   -13864.982     1366.094   -15231.076    607.25045 
   29250    290.10522   -1203.2887    48279.492    -13859.22    1352.4667   -15211.686    609.91911 
   29300    298.79558   -876.19807    48209.466   -13866.169    1392.9811   -15259.151    610.91499 
   29350    283.87249     -1376.51    48252.666   -13914.389    1323.4098   -15237.799    612.14817 
   29400    290.93546   -1073.0194    48361.881    -13902.77    1356.3373   -15259.107     613.1677 
   29450    289.46502   -887.02073    48295.293   -13929.157    1349.4821   -15278.639    612.84877 
   29500    286.11925   -1002.3759    48294.189    -13904.64    1333.8842   -15238.524    613.76901 
   29550     289.7946   -882.83928    48225.323   -13842.726    1351.0186   -15193.745    612.86127 
   29600    295.69512   -747.52252    48166.709   -13836.637    1378.5268   -15215.164    614.45771 
   29650    286.40721   -1202.4127     48060.25   -13887.695    1335.2267   -15222.921    615.42407 
   29700    287.88357   -1037.0185    48213.816   -13896.286    1342.1094   -15238.395    616.08007 
   29750    292.16353   -711.91843    48239.086   -13888.104    1362.0626   -15250.166    617.16085 
   29800    290.51971    -950.8677    48365.439   -13894.494    1354.3991   -15248.893    620.37901 
   29850    286.68442   -626.86343    48361.738   -13898.059     1336.519   -15234.578    621.60769 
   29900    288.45443   -1587.8844    48515.191   -13830.713    1344.7708   -15175.484    623.55343 
   29950    294.68879    -346.6806    48472.813   -13841.122    1373.8353   -15214.957    624.35086 
   30000    301.40068   -1107.2865    48591.359   -13832.366     1405.126   -15237.492    625.41349 
   30050    298.32508   -1241.7275    48618.157   -13833.503    1390.7876    -15224.29    626.17445 
   30100    288.13452   -1382.8386    48530.871   -13860.027    1343.2794   -15203.307     626.4091 
   30150    291.58726   -819.88018     48537.56   -13865.506     1359.376   -15224.882    627.48765 
   30200    290.01325    -1348.135    48426.412   -13843.071     1352.038   -15195.109    627.13302 
   30250     295.8107   -493.24819    48425.374   -13814.656    1379.0656   -15193.722    628.69257 
   30300    298.80271   -936.73305    48488.276   -13779.171    1393.0143   -15172.185    629.13188 
   30350    298.73506   -1184.0291    48757.302   -13783.196    1392.6989   -15175.895    631.44267 
   30400    290.49567   -1299.9212    48507.777   -13840.044     1354.287   -15194.331    631.46427 
   30450     296.3628    -845.9879    48479.698   -13822.202    1381.6395   -15203.841    631.67334 
   30500    295.61168   -1008.7979    48535.028   -13858.686    1378.1378   -15236.824    633.05252 
   30550    296.59961   -1188.5524    48600.197   -13829.322    1382.7435   -15212.065    635.23643 
   30600    288.93856    -1207.034    48268.839   -13872.031    1347.0278   -15219.059    634.07168 
   30650    286.47859   -1283.4335     48305.61   -13870.999    1335.5594   -15206.558    636.39923 
   30700    297.00119   -820.76538    48367.926   -13868.001    1384.6157   -15252.617       637.51 
   30750    290.86274   -652.28862    48430.115   -13807.113    1355.9983   -15163.112    639.04019 
   30800    291.08341   -840.49042    48474.259   -13849.654    1357.0271   -15206.681    640.89436 
   30850    291.13025   -1096.4273    48622.198   -13917.737    1357.2454   -15274.982    642.04528 
   30900     290.4921     -634.094    48606.215   -13907.119    1354.2704   -15261.389    643.10373 
   30950    285.19953   -1095.8328    48642.857   -13934.445    1329.5965   -15264.041    642.58803 
   31000    275.44704    -941.0567    48632.644   -13899.869    1284.1305   -15183.999    644.10934 
   31050    287.72729   -1220.1774    48369.351   -13931.329    1341.3809    -15272.71    643.67523 
   31100    292.09092   -1090.4122    48599.766   -13911.154     1361.724   -15272.878    645.87178 
   31150    289.30623   -800.73053    48329.675   -13944.752    1348.7419   -15293.494    643.17977 
   31200    285.21682   -1082.9372    48359.956   -13980.502    1329.6771    -15310.18    643.41285 
   31250    292.91776   -724.18963     48250.38   -13850.546    1365.5788   -15216.125    645.17819 
   31300    298.03378   -829.26286    48429.329   -13820.173    1389.4296   -15209.603    647.48264 
   31350     294.7368   -639.88707    48324.511   -13837.791    1374.0591    -15211.85    646.91632 
   31400    293.89276   -1066.2895    48255.831   -13905.375    1370.1242   -15275.499    647.12023 
   31450    292.62689   -964.21428    48380.148   -13884.122    1364.2227   -15248.344    649.59989 
   31500    299.10084   -1364.0481    48397.617   -13769.964    1394.4042   -15164.368    651.99472 
   31550    292.06692   -1133.5571    48584.097   -13813.567    1361.6122   -15175.179    653.66705 
   31600    289.57471   -925.32334    48562.022   -13840.078    1349.9935   -15190.072    653.63494 
   31650    294.44561   -779.91156     48410.82   -13853.065    1372.7016   -15225.767    653.58079 
   31700    302.93166   -519.10456    48530.061   -13826.533    1412.2634   -15238.796    654.38381 
   31750    289.93933   -1080.7753    48429.812   -13808.127    1351.6933    -15159.82    653.88852 
   31800    303.60108   -921.36569    48536.519   -13788.988    1415.3843   -15204.372    656.13486 
   31850    301.80644    -1117.587    48394.021   -13798.758    1407.0177   -15205.776    655.75939 
   31900    294.14412   -1225.8063    48332.926   -13795.455    1371.2961   -15166.751    657.27619 
   31950    294.27648   -1006.8107    48289.284   -13800.458    1371.9131   -15172.371     659.5842 
   32000     294.7468   -928.68186    48267.152   -13819.284    1374.1057    -15193.39    660.29618 
   32050    297.88379   -1272.8797     48267.11   -13839.824    1388.7303   -15228.555    661.90275 
   32100    296.88645   -957.82751    47993.805   -13847.546    1384.0808   -15231.627    660.07682 
   32150    288.72205   -1092.1049    48079.586   -13854.569    1346.0184   -15200.587    662.48674 
   32200    297.78528   -921.39188    48027.102   -13825.731    1388.2711   -15214.002    662.98694 
   32250    289.51172   -652.12755    48190.579   -13821.206    1349.6998   -15170.906    664.23802 
   32300    302.91226   -752.55031    48132.643   -13786.796     1412.173   -15198.969    665.29643 
   32350    292.22447   -768.41611    48247.876   -13907.883    1362.3466    -15270.23    666.84987 
   32400    291.50861   -1585.1393    48327.024   -13867.952    1359.0093   -15226.961    668.72768 
   32450    297.17505   -865.79028    48231.837   -13869.485    1385.4262   -15254.912    667.88967 
   32500    295.35303    -979.8129    48465.268   -13818.986     1376.932   -15195.917    670.98473 
   32550    301.41361   -1028.3089    48455.417   -13816.697    1405.1863   -15221.883    671.74897 
   32600    291.78325   -1255.8047     48528.46   -13848.408    1360.2897   -15208.697    674.79679 
   32650    286.67749   -1204.5367    48279.332   -13899.549    1336.4867   -15236.036    674.47788 
   32700    287.89782   -987.70527     48160.84   -13893.465    1342.1759   -15235.641    674.79309 
   32750    283.65325   -1122.0162    48284.223   -13896.568    1322.3877   -15218.956    677.31731 
   32800    290.69259   -1266.1102    48309.907   -13921.093     1355.205   -15276.298    677.63886 
   32850    294.51035   -1096.9036    48255.229   -13892.276    1373.0034   -15265.279    678.90696 
   32900    287.25972   -1202.5535    48031.456   -13946.219     1339.201    -15285.42    677.29378 
   32950    294.83419   -698.19728     48241.45    -13984.46    1374.5132   -15358.973    680.60911 
   33000    289.87366   -486.06315    48479.307   -13925.404    1351.3872   -15276.792     683.3692 
   33050    295.86912   -616.73681    48614.045   -13884.435     1379.338   -15263.773    684.92724 
   33100    296.63693   -1431.8906    48568.822   -13866.881    1382.9175   -15249.798    685.08238 
   33150     292.6989   -994.40367    48606.071   -13921.143    1364.5584   -15285.702     687.3895 
   33200    298.59113   -1321.0125    48833.288   -13913.593    1392.0279   -15305.621    690.63845 
   33250    295.10626   -1039.6889     48769.41   -13858.333    1375.7815   -15234.114    690.48471 
   33300    293.48207   -1087.4732    48806.859    -13916.01    1368.2096   -15284.219    691.51675 
   33350    289.29999   -671.23526    48776.716   -13942.905    1348.7128   -15291.617    690.62393 
   33400    291.12016   -779.87933    48865.416     -13900.5    1357.1984   -15257.698    692.16505 
   33450     293.9557   -1498.1297    48786.141   -13926.677    1370.4176   -15297.094    690.71777 
   33500    292.89499   -1092.3771    48768.871   -13951.925    1365.4726   -15317.397    690.90332 
   33550    288.03511   -1100.7394    48647.181   -13910.044    1342.8159    -15252.86    690.21595 
   33600    291.90263   -976.92849    48594.659   -13882.671    1360.8462   -15243.518    690.04059 
   33650    294.87729   -620.14361    48686.909   -13891.396    1374.7141    -15266.11    691.14235 
   33700     291.8579   -851.92619    48573.245   -13899.693    1360.6377   -15260.331    691.90447 
   33750    298.27635   -670.14915    48658.166   -13891.877    1390.5604   -15282.437    692.60686 
   33800    284.33854   -711.26581    48519.164   -13897.323    1325.5826   -15222.906    692.08097 
   33850    298.16277   -1385.4753    48600.546    -13895.76    1390.0309   -15285.791    693.40877 
   33900    293.12696   -1262.4057    48443.975   -13893.648     1366.554   -15260.202    694.52883 
   33950     290.5364    -895.2759    48517.841   -13861.005    1354.4769   -15215.482    695.00761 
   34000    285.96001   -949.12001    48581.514    -13861.27    1333.1418   -15194.412    696.80609 
   34050    299.05831   -802.33295    48543.894    -13864.16    1394.2059   -15258.366    697.69906 
   34100    294.14986   -1084.8349    48597.854   -13859.682    1371.3228   -15231.005    699.54836 
   34150    295.10619   -1243.8271    48668.041   -13843.372    1375.7812   -15219.153    702.07786 
   34200     286.7503   -1040.3665    48543.188    -13901.69    1336.8262   -15238.516    701.20713 
   34250    293.27951   -784.60855    48627.129   -13848.447    1367.2652   -15215.712     704.4268 
   34300    290.34471   -645.52597    48636.702    -13792.29    1353.5832   -15145.873    706.10789 
   34350    296.23631   -661.44997    48548.304   -13782.057    1381.0498   -15163.107    705.26851 
   34400    286.80434   -1067.6313    48438.332   -13792.705    1337.0781   -15129.783    702.42329 
   34450    291.36086   -911.72932    48386.083   -13812.092    1358.3205   -15170.412    701.63219 
   34500    300.53054    -874.7429    48520.887   -13766.311    1401.0695    -15167.38    705.04234 
   34550    296.76293   -859.46588    48320.525   -13815.103    1383.5049   -15198.608    704.80623 
   34600    295.28869   -967.59214    48194.826   -13861.291     1376.632   -15237.923    705.93714 
   34650    288.60946   -1000.7958    48175.606   -13906.027    1345.4935    -15251.52    706.34728 
   34700    292.72771   -975.48027    48111.163   -13889.358    1364.6927   -15254.051    706.32025 
   34750     287.2276   -951.50884    48227.599   -13906.222    1339.0513   -15245.274    709.57041 
   34800    289.35893   -793.02613    48349.395   -13888.097    1348.9876   -15237.084    710.81856 
   34850     289.3376   -1078.8796     48503.84   -13875.128    1348.8881   -15224.016    713.99943 
   34900    283.04776   -563.81837    48313.932   -13883.704     1319.565   -15203.269    714.14189 
   34950    288.83502   -918.08955     48430.61   -13950.078    1346.5451   -15296.623    715.63113 
   35000    285.75278   -1279.7274    48358.129   -13934.187    1332.1757   -15266.363     714.6714 
   35050    296.12697   -796.84871    48166.544   -13901.537      1380.54   -15282.077    714.33338 
   35100    295.05071   -487.00598    48275.751   -13851.345    1375.5225   -15226.868    715.96122 
   35150    294.82528    -675.6647    48381.001   -13919.463    1374.4716   -15293.934    718.04569 
   35200    298.68756   -1177.3362    48600.756   -13879.221    1392.4775   -15271.698    722.39831 
   35250    298.01794   -1013.1702    48373.793   -13909.119    1389.3557   -15298.475    722.83785 
   35300    291.99106   -1047.8831    48299.984   -13899.157    1361.2585   -15260.415     722.8341 
   35350    287.79462   -1219.6646    48341.545   -13902.064    1341.6948   -15243.759    724.35438 
   35400    294.99004    -1204.683     48408.27   -13832.086    1375.2397   -15207.326    725.56262 
   35450    302.38868   -1234.1501    48316.021   -13808.178    1409.7321    -15217.91    726.24637 
   35500    293.90088   -1123.7677     48406.75   -13831.135    1370.1621   -15201.297    728.53398 
   35550    289.91916   -629.86237    48418.405   -13830.999    1351.5993   -15182.599    730.61633 
   35600    296.80784   -1209.3142     48342.93   -13770.251    1383.7143   -15153.965    730.86379 
   35650    301.35865   -1214.1367    48248.363   -13780.568    1404.9301   -15185.498     732.1447 
   35700    286.20225   -797.82291    48274.499     -13836.4    1334.2711   -15170.671    733.57412 
   35750    299.27099   -1035.5463    48098.874   -13805.449    1395.1974   -15200.646    732.52207 
   35800      297.752   -916.72491    48195.289   -13815.141    1388.1159   -15203.257    734.45801 
   35850    290.30931   -543.12376     48288.02    -13773.13    1353.4182   -15126.548    737.86607 
   35900    305.46412   -1237.9779    48399.861   -13737.448    1424.0697   -15161.518    740.29743 
   35950    292.90876   -1070.2658    48250.697   -13777.048    1365.5368   -15142.585    737.73534 
   36000     295.5335   -1373.9241    48358.348   -13749.597    1377.7733    -15127.37    739.90415 
   36050    296.72778   -1603.2467    48329.103   -13813.167     1383.341   -15196.508    740.74905 
   36100    298.13992   -1185.7788    48129.427   -13819.036    1389.9244    -15208.96    739.92222 
   36150    291.78483   -1005.7435     48422.27   -13846.769     1360.297   -15207.066     744.9568 
   36200    283.80866   -1006.9458    48375.462   -13862.145    1323.1122   -15185.257    747.04699 
   36250    290.66972   -1118.2339    48333.099   -13902.054    1355.0984   -15257.153    747.60184 
   36300    298.94202   -1430.7765     48142.86   -13914.356    1393.6638   -15308.019    747.24065 
   36350    300.45402   -599.30689    48288.803   -13835.755    1400.7127   -15236.468    750.91101 
   36400    298.46851   -1458.7104    48403.209    -13825.45    1391.4563   -15216.907    753.15072 
   36450    295.99148   -1101.7999     48516.79   -13825.196    1379.9084   -15205.104    755.25033 
   36500    292.28723   -1372.8027    48568.571    -13870.53    1362.6392    -15233.17    756.01434 
   36550    281.25757   -781.62168    48379.737   -13990.301    1311.2191   -15301.521    756.46432 
   36600    287.23363   -781.63262    48410.134   -13937.118    1339.0794   -15276.197    758.12067 
   36650    299.51428    -704.3306    48287.465   -13894.109    1396.3316    -15290.44    758.42501 
   36700    286.00046   -931.38397    48284.754   -13916.886    1333.3304   -15250.217    760.14298 
   36750    289.52027   -1121.1721    48523.982   -13882.452    1349.7397   -15232.191    763.44167 
   36800     282.9134   -1038.9148    48542.322   -13942.409    1318.9386   -15261.347    762.62319 
   36850     288.4589   -1212.8901    48422.079   -13887.602    1344.7916   -15232.394    764.00022 
   36900    297.64935   -1033.6945    48176.546   -13856.327    1387.6374   -15243.965    760.55706 
   36950    297.67685   -1360.5303    48092.344   -13826.627    1387.7656   -15214.392    758.93115 
   37000    290.12535   -1252.7425    47990.394   -13864.725    1352.5606   -15217.286    761.08766 
   37050     292.5364     -1308.72     48043.42   -13859.634    1363.8008   -15223.435    761.52217 
   37100    297.47695   -960.99342    48123.895   -13860.735    1386.8336   -15247.568     765.0446 
   37150    287.40353   -625.20453    48104.396   -13871.269    1339.8715   -15211.141    764.66803 
   37200    291.37513   -948.92861     48147.85   -13914.361     1358.387   -15272.748    766.63924 
   37250    287.89352   -972.64224    48217.169    -13888.26    1342.1558   -15230.416    768.89757 
   37300    291.67869   -1283.0498    48115.202   -13921.455    1359.8023   -15281.257    769.41157 
   37350    285.71556   -865.43584    48080.338   -13897.505    1332.0022   -15229.507    769.31528 
   37400    289.21848   -657.37031    48172.331    -13892.99    1348.3328   -15241.323    771.63612 
   37450    280.31748   -626.37185    48421.499   -13904.092    1306.8364   -15210.928     774.6408 
   37500    287.24083   -811.06113    48755.132   -13881.884     1339.113   -15220.997    777.67337 
   37550    291.72232   -950.91703    48549.692   -13864.238    1360.0057   -15224.244     775.8211 
   37600    294.48997   -997.17197    48609.754    -13847.79    1372.9084   -15220.699    777.50115 
   37650    289.01674   -665.07993    48713.377   -13903.406    1347.3923   -15250.798     779.8974 
   37700    290.44224   -856.82653    48484.874   -13973.958    1354.0379   -15327.996    778.24385 
   37750    279.06445   -822.02313    48569.048   -13990.833    1300.9948   -15291.827    780.77407 
   37800    291.05666   -1414.3826    48425.749    -13973.73    1356.9023   -15330.632    778.31526 
   37850      294.306   -832.00605     48470.15   -13922.275    1372.0507   -15294.325    778.94686 
   37900    288.88306   -1515.3729     48429.55   -13932.526    1346.7691   -15279.296    780.47457 
   37950    297.38477   -1362.2337     48558.76   -13877.777    1386.4039   -15264.181    782.29277 
   38000    290.42381   -1353.0046    48630.803   -13910.483     1353.952   -15264.435    784.40528 
   38050    300.85565   -1182.4242    48563.649   -13855.917    1402.5851   -15258.502     782.7533 
[...]
   91550    297.85915   -970.54165    48482.306   -13831.403    1388.6155   -15220.019    2012.8846 
   91600    293.47781   -1100.6609    48297.554   -13859.856    1368.1897   -15228.046    2008.4339 
   91650    288.29075   -978.03319    48295.452   -13887.047    1344.0077   -15231.054     2010.176 
   91700    292.43119   -938.45533    48203.702   -13924.329    1363.3104    -15287.64    2010.1226 
   91750    290.20781   -1000.9692    48347.334   -13880.341     1352.945   -15233.286    2014.9537 
   91800    284.73774   -1077.5509    48198.282   -13894.069    1327.4436   -15221.512    2013.9535 
   91850    298.69188   -919.01225     48284.37   -13837.738    1392.4976   -15230.236    2017.8446 
   91900    295.28752   -773.46242    48548.071   -13876.553    1376.6266    -15253.18    2025.6026 
   91950    282.55471   -1103.7491    48414.349    -13895.57    1317.2664   -15212.837     2021.853 
   92000     288.7413   -1062.4655    48292.411   -13893.791    1346.1082   -15239.899    2019.4586 
   92050    290.11111   -875.20174     48312.69   -13931.489    1352.4942   -15283.983    2021.0815 
   92100     285.2366   -700.38403    48431.299   -13970.184    1329.7693   -15299.953    2025.8117 
   92150    287.09213     -845.566    48435.144   -13893.946    1338.4198   -15232.366    2027.8008 
   92200    295.08723   -1298.4375    48451.398   -13837.789    1375.6928   -15213.482    2027.7866 
   92250    297.65007   -1064.8427    48457.262   -13767.146    1387.6408   -15154.787    2030.5036 
   92300    297.85722   -1032.4252    48239.255   -13731.546    1388.6065   -15120.152    2024.1513 
   92350    297.23669   -1070.6979    48209.264   -13732.505    1385.7136   -15118.219    2027.8022 
   92400    306.24915   -830.61299    48325.827   -13776.322    1427.7295   -15204.052    2033.2626 
   92450    295.36357   -1237.3372    48260.279   -13791.303    1376.9811   -15168.284     2031.003 
   92500    294.16421   -820.51878     48273.27    -13809.53    1371.3897    -15180.92    2031.4776 
   92550    295.93121   -1197.8026    48242.982   -13815.398    1379.6274   -15195.025    2033.7033 
   92600    308.80511   -1160.2419    48235.697   -13789.603    1439.6454   -15229.248    2035.2142 
   92650    304.27743   -914.16695    48253.388   -13806.949    1418.5374   -15225.486    2036.3242 
   92700    300.89742    -771.0507     48295.79   -13844.471    1402.7798   -15247.251    2038.1557 
   92750    291.65819   -795.85696    48368.796   -13851.755    1359.7067   -15211.462    2040.8463 
   92800    289.20757   -812.34636    48512.105   -13833.783    1348.2819   -15182.065    2045.0815 
   92850    297.73307   -810.17981    48483.984   -13802.395    1388.0277   -15190.423    2049.2968 
   92900    288.41147   -768.74762    48684.448   -13826.792    1344.5705   -15171.363    2057.0366 
   92950    298.27705   -834.90757    48717.243   -13838.139    1390.5637   -15228.703    2061.2604 
   93000    302.39963   -1259.1301    48750.824   -13775.963    1409.7831   -15185.746    2063.4818 
   93050     291.4699   -767.22722    48635.334   -13757.127    1358.8289   -15115.956    2059.4995 
   93100    304.41406   -1263.4612    48563.461    -13768.26    1419.1744   -15187.434    2061.0284 
   93150    300.68099   -832.36341    48574.819   -13813.261    1401.7708   -15215.032     2063.776 
   93200    293.14022   -994.11858    48606.959   -13828.506    1366.6159   -15195.122    2067.7717 
   93250    287.88597   -471.54077    48553.342   -13813.955    1342.1206   -15156.075    2066.8974 
   93300    290.34496   -1222.4288    48668.879   -13789.019    1353.5844   -15142.603    2069.8246 
   93350    298.26893   -729.55316    48529.694   -13857.933    1390.5259   -15248.459     2066.836 
   93400    284.85564   -1026.4918    48454.948   -13890.871    1327.9933   -15218.865    2064.5334 
   93450    294.37162   -1235.2118    48441.726   -13875.262    1372.3566   -15247.619    2063.8668 
   93500    282.09122   -653.30548    48627.945   -13960.333    1315.1056   -15275.439    2069.7905 
   93550    285.85765   -1079.3009    48723.882   -13952.102    1332.6646   -15284.766    2072.6333 
   93600    284.45211   -954.09319    48769.673   -13941.952     1326.112   -15268.064    2072.6444 
   93650     293.4575   -1274.2217    48616.037    -13911.12     1368.095   -15279.215    2069.0761 
   93700    296.01084   -1115.6189    48367.948   -13916.573    1379.9986   -15296.571    2060.5833 
   93750    295.80453   -790.47657     48433.88   -13851.229    1379.0369   -15230.265    2060.6959 
   93800    299.70847   -882.57017    48661.962   -13863.489     1397.237   -15260.726    2069.4406 
   93850    291.43651   -515.92978    48725.776   -13924.461    1358.6732   -15283.134    2073.6259 
   93900    293.97107   -1787.5327    48561.352   -13945.968    1370.4893   -15316.457    2071.0342 
   93950    290.96541   -1040.6792    48399.555   -13945.488    1356.4769   -15301.965    2065.9266 
   94000    298.43491   -1652.0732     48597.79   -13953.917    1391.2997   -15345.216     2072.996 
   94050    294.07755   -1310.0144     48402.33   -13939.124    1370.9857   -15310.109    2070.7083 
   94100    298.57907   -810.86141    48329.572   -13940.628    1391.9717     -15332.6    2072.3665 
   94150    285.12518   -682.50297     48277.68   -13937.351    1329.2499   -15266.601    2071.9813 
   94200     279.6731   -916.77147    48430.683   -13920.755    1303.8323   -15224.587     2077.891 
   94250    294.19356   -691.42201    48555.484    -13845.15    1371.5265   -15216.677      2082.42 
   94300    288.77791   -792.64046    48572.105   -13817.674    1346.2788   -15163.953     2083.936 
   94350    298.96459   -1085.2996    48578.194   -13801.796     1393.769   -15195.565      2086.86 
   94400    301.49945   -921.50918    48434.689    -13803.25    1405.5865   -15208.837    2085.2412 
   94450    294.87466   -1112.7514    48296.611   -13800.891    1374.7018   -15175.593    2081.7117 
   94500    290.82089   -820.99218    48273.576   -13806.682    1355.8032   -15162.486     2082.902 
   94550    292.75045   -1143.2254    48265.462   -13842.556    1364.7988   -15207.355    2083.8154 
   94600    293.05206   -1003.5304    48320.123   -13846.028    1366.2049   -15212.233     2087.398 
   94650    293.77844   -1210.2978    48324.443   -13857.623    1369.5912   -15227.214    2088.7379 
   94700    286.10435   -585.39772    48380.438   -13845.632    1333.8148   -15179.447    2093.2456 
   94750    290.77549   -1036.7456     48697.01   -13804.258    1355.5915    -15159.85    2102.6816 
   94800    291.08295   -920.43552    48659.086   -13809.176    1357.0249   -15166.201    2104.0118 
   94850    299.93058   -945.00104    48595.896    -13760.38    1398.2725   -15158.653    2104.7173 
   94900    295.14096   -1316.8008    48523.887   -13815.941    1375.9433   -15191.884    2103.6712 
   94950    299.73889   -544.32209    48591.385   -13798.617    1397.3788   -15195.996    2106.1189 
   95000    304.07675   -1524.4443    48664.944   -13749.536    1417.6019   -15167.137    2109.4531 
   95050    294.54853   -904.47896    48682.193   -13797.832    1373.1814   -15171.014    2110.0005 
   95100    307.27776   -977.59555    48593.128   -13836.295    1432.5249    -15268.82    2107.4932 
   95150     286.6648   -1050.0533    48406.956   -13826.061    1336.4276   -15162.489    2106.5544 
   95200    292.26654   -766.38113    48477.279   -13823.089    1362.5428   -15185.632    2110.3829 
   95250    303.72018   -732.34862    48564.605   -13715.146    1415.9395   -15131.085    2113.7558 
   95300    298.98527   -815.35025    48419.676   -13771.838    1393.8654   -15165.703    2108.6978 
   95350     302.1681   -851.23206    48363.922   -13759.772    1408.7037   -15168.476     2108.494 
   95400    293.74493   -1232.2994    48293.482   -13797.839     1369.435   -15167.274    2108.9732 
   95450    296.64077   -1062.8082    48317.328     -13790.5    1382.9354   -15173.436    2111.1547 
   95500     294.5645   -876.93342    48538.949       -13830    1373.2558   -15203.256    2118.2466 
   95550     295.0058   -1196.9765    48538.343   -13832.307    1375.3132    -15207.62    2121.8886 
   95600    295.05844   -1184.0608    48826.622   -13817.718    1375.5586   -15193.276    2130.4528 
   95650    284.24475   -655.86415     48769.64    -13867.13    1325.1453   -15192.275    2129.9396 
   95700    290.99223   -1062.3511    48937.303   -13867.225     1356.602   -15223.827    2134.3857 
   95750    282.42526   -957.36018    48801.103   -13885.286    1316.6629   -15201.949    2132.4393 
   95800    288.42517   -569.83885    48914.805   -13868.696    1344.6344    -15213.33    2136.9832 
   95850    289.69592   -976.02337    48941.789   -13861.289    1350.5586   -15211.847    2138.2101 
   95900    297.49981   -433.37237    48969.927   -13879.193    1386.9402   -15266.134    2139.4062 
   95950    286.68015   -733.20223    48924.506     -13969.3    1336.4991   -15305.799     2139.752 
   96000    286.68323   -1311.9255    48822.383   -13929.825    1336.5135   -15266.339    2136.0674 
   96050    294.09454   -966.91248    48772.583   -13894.247    1371.0649   -15265.312    2132.9372 
   96100    290.94691   -1591.3721    48652.131   -13912.605    1356.3907   -15268.996    2129.8819 
   96150    283.45491   -806.54812    48528.363   -13912.108    1321.4631   -15233.571    2127.0642 
   96200    289.96094   -907.05838    48496.989   -13882.125    1351.7941   -15233.919     2128.656 
   96250    294.01262   -1069.1396    48423.582   -13819.556     1370.683   -15190.239    2124.5623 
   96300    300.15457   -1045.3509     48355.78   -13849.442    1399.3167   -15248.759     2125.447 
   96350    296.00328   -988.98842    48518.986   -13830.579    1379.9634   -15210.543    2131.6454 
   96400    303.16648    -696.2499    48647.233   -13830.149    1413.3581   -15243.507    2135.5537 
   96450    302.29262   -1038.9388    48708.343   -13894.906    1409.2842    -15304.19     2137.108 
   96500    291.86753   -861.23992    48622.547   -13887.005    1360.6826   -15247.687    2136.6029 
   96550    297.48772   -1211.3833    48588.101   -13892.103    1386.8838   -15278.987    2136.5659 
   96600    293.23593   -723.20821    48303.836    -13921.53    1367.0621   -15288.592    2128.5054 
   96650    290.18115   -1182.8382    48330.208   -13983.295    1352.8207   -15336.115    2128.8499 
   96700    279.20179   -746.46046    48334.708   -14022.489    1301.6351   -15324.125    2133.0673 
   96750    282.87835   -791.70578    48469.632   -14005.905    1318.7752    -15324.68    2137.2892 
   96800    282.21117   -756.69747    48324.415   -13970.753    1315.6648   -15286.418    2132.6372 
   96850     299.7405   -639.58134    48343.885   -13915.003    1397.3863   -15312.389    2132.8767 
   96900     297.8048   -1075.8247    48819.108   -13916.627    1388.3621   -15304.989    2147.9546 
   96950    282.82982   -1205.6492    48434.073   -13917.747    1318.5489   -15236.296    2137.3072 
   97000    286.46834   -957.47072     48418.02   -13877.388    1335.5117     -15212.9    2140.4481 
   97050    288.43634   -1106.8367    48706.264   -13899.445    1344.6864   -15244.132    2151.7395 
   97100    299.92693   -1091.6272     48645.54   -13910.459    1398.2554   -15308.714     2149.836 
   97150    297.58973    -992.5861     48304.83   -13944.108    1387.3594   -15331.468    2141.0487 
   97200    280.15332   -822.94047    48216.621   -13988.786    1306.0711   -15294.857    2139.5149 
   97250    288.61146   -959.89036     48565.22   -13910.554    1345.5028   -15256.057     2149.156 
   97300    280.18206   -1175.8688    48458.149   -13963.267    1306.2051   -15269.472    2150.1474 
   97350    292.45447   -990.50777    48553.029   -13927.698    1363.4189   -15291.117    2152.7609 
   97400    291.64432    -751.1659    48501.479   -13952.475     1359.642   -15312.117    2152.8683 
   97450     300.0283   -1245.1277     48386.55   -13846.816     1398.728   -15245.544    2147.5707 
   97500    291.98141   -1115.4999    48441.527   -13855.065    1361.2135   -15216.279     2151.645 
   97550    290.86832   -593.68528    48579.695   -13898.215    1356.0243   -15254.239     2154.902 
   97600    291.77495   -739.34289    48731.369   -13906.731     1360.251   -15266.982    2162.4022 
   97650    296.62054   -782.02477    48655.104   -13833.186    1382.8411   -15216.028    2160.5831 
   97700    302.49584    -753.3378    48455.647   -13824.311    1410.2317   -15234.542    2155.2843 
   97750    296.55196   -1211.7828    48553.673    -13824.64    1382.5214   -15207.161    2160.2935 
   97800    296.56229   -944.20443    48518.477   -13795.949    1382.5695   -15178.518    2162.0806 
   97850    302.73609   -519.54087    48648.249   -13776.527    1411.3517   -15187.879    2167.7243 
   97900    295.18217   -815.55825    48661.331    -13791.11    1376.1354   -15167.245    2172.7751 
   97950    297.89522   -1047.0968    48675.377   -13813.489    1388.7836   -15202.272    2172.9302 
   98000     303.6359   -1134.3083    48699.157   -13815.733    1415.5466   -15231.279    2174.0092 
   98050    289.77524   -1293.0471    48745.386   -13906.169    1350.9284   -15257.098    2175.7981 
   98100    288.88617   -1258.5882    48634.999   -13897.771    1346.7835   -15244.554    2172.7315 
   98150    294.28326   -980.31127    48640.818   -13892.312    1371.9447   -15264.256    2174.4511 
   98200    294.95187   -1040.8624    48660.878   -13884.076    1375.0618   -15259.138    2175.4585 
   98250    288.76457   -1092.6659    48702.195   -13924.666    1346.2167   -15270.883    2179.3428 
   98300     289.5455   -911.61395    48737.002    -13907.77    1349.8574   -15257.627    2182.0914 
   98350    287.81235   -1080.2227    48595.396   -13926.259    1341.7774   -15268.036    2180.6587 
   98400    284.95702   -856.87559     48666.85   -13943.753    1328.4659   -15272.219    2181.6731 
   98450    283.24494   -818.21742    48556.928   -13899.394    1320.4842   -15219.878    2179.2233 
   98500    299.73337   -787.77252    48600.953   -13885.702    1397.3531   -15283.055    2179.3544 
   98550    289.77217    -980.8106    48657.684   -13926.874    1350.9141   -15277.789    2181.1905 
   98600    289.54094   -1179.7584    48574.728   -13985.573    1349.8361   -15335.409    2180.6979 
   98650    285.96497   -1026.3152    48624.729   -13935.035     1333.165     -15268.2    2180.8224 
   98700    286.46972   -1065.6386    48494.063   -13931.394    1335.5181   -15266.912     2175.801 
   98750    287.32824   -1059.6329    48467.898   -13910.189    1339.5205    -15249.71    2177.6881 
   98800    282.84382   -836.73107    48496.397   -13985.392    1318.6142   -15304.006     2175.521 
   98850    291.98396    -858.2063    48520.429   -13891.874    1361.2254   -15253.099    2175.3936 
   98900    286.12891   -936.89145    48633.646   -13907.331    1333.9293   -15241.261    2178.7844 
   98950    280.96615   -1084.6626    48601.274   -13936.355    1309.8605   -15246.215    2179.1568 
   99000    289.72795   -921.54231     48658.98   -13906.583    1350.7079   -15257.291    2181.4259 
   99050    293.29001   -1015.4233    48802.323     -13873.2    1367.3142   -15240.515    2186.1768 
   99100    298.88157   -873.86038     48902.44    -13815.43     1393.382   -15208.812    2191.2907 
   99150    290.16579   -1227.4489    48908.009   -13867.338    1352.7491   -15220.088    2192.3543 
   99200    279.70498   -798.29803    48936.456   -13854.905     1303.981   -15158.886    2194.4745 
   99250    298.08908   -806.30143    48808.404   -13843.309    1389.6874   -15232.997    2189.2209 
   99300     291.5176   -1311.0676     48867.47   -13862.209    1359.0512   -15221.261    2191.7694 
   99350    307.11261   -880.42435    48708.922   -13808.113     1431.755   -15239.868    2188.8379 
   99400    304.76889   -1019.8641    48550.011   -13730.656    1420.8286   -15151.485    2182.9801 
   99450    307.40609   -1394.3083    48367.846   -13707.137    1433.1232    -15140.26    2182.4654 
   99500    295.23625   -1117.8391    48478.502   -13769.607    1376.3876   -15145.995    2188.0487 
   99550    301.85675   -445.97294    48609.249   -13748.766    1407.2522   -15156.019    2193.0317 
   99600    297.79882   -1359.1488    48542.244     -13742.3    1388.3342   -15130.634    2193.3597 
   99650    294.15229   -868.87257    48599.187   -13757.256    1371.3341    -15128.59    2195.5045 
   99700    304.73878   -1190.9775    48697.633   -13742.047    1420.6882   -15162.735     2198.677 
   99750    301.32295   -1522.1876    48594.472   -13765.771    1404.7637   -15170.535     2196.683 
   99800    300.66613   -1097.9913    48598.825   -13786.342    1401.7016   -15188.044    2200.2897 
   99850    298.05268   -901.56226    48415.031   -13832.787    1389.5177   -15222.305    2196.9594 
   99900     297.3237   -1141.3373    48386.627    -13793.17    1386.1192    -15179.29    2197.8716 
   99950    298.93374    -1125.044     48363.32   -13828.294    1393.6252    -15221.92    2200.1291 
  100000    292.99108   -546.25411    48540.777   -13840.905    1365.9206   -15206.826    2205.4218 
  100050    303.71881   -1161.2906    48652.917   -13773.594    1415.9331   -15189.527    2209.1685 
  100100     300.8075   -1155.4234    48497.896    -13762.55    1402.3606   -15164.911    2207.0874 
  100150    301.17479   -726.15509    48607.276   -13775.119    1404.0729   -15179.192    2215.1636 
  100200    298.10493   -874.92075    48611.517   -13797.534    1389.7613   -15187.296    2216.5213 
  100250    298.25297   -810.11546    48521.652   -13795.725    1390.4514   -15186.176    2212.8446 
  100300    293.35357   -1354.8353    48637.134   -13807.874    1367.6105   -15175.484    2219.6664 
  100350    292.33767   -1299.1893      48537.3   -13816.958    1362.8744   -15179.833    2214.6335 
  100400    307.53033   -1118.9178    48412.145   -13778.845    1433.7024   -15212.548    2213.2682 
  100450    301.47326   -1315.0982    48372.504   -13769.205    1405.4644   -15174.669    2213.4914 
  100500    298.53584    -979.1015    48467.072   -13792.482    1391.7702   -15184.252    2220.2126 
  100550    301.08275   -952.35505    48350.952    -13849.36    1403.6438   -15253.003     2216.869 
  100600    291.55498   -808.17598    48581.124    -13849.26    1359.2255   -15208.485    2222.1003 
  100619    286.22019   -895.89341    48577.734   -13884.599    1334.3548   -15218.953    2223.0478 
Loop time of 81.2202 on 4 procs for 100000 steps with 1565 atoms

Performance: 1063.775 ns/day, 0.023 hours/ns, 1231.221 timesteps/s
99.7% CPU use with 4 MPI tasks x no OpenMP threads

MPI task timing breakdown:
Section |  min time  |  avg time  |  max time  |%varavg| %total
---------------------------------------------------------------
Pair    | 61.916     | 62.489     | 63.175     |   5.8 | 76.94
Neigh   | 9.1103     | 9.1321     | 9.155      |   0.5 | 11.24
Comm    | 6.7407     | 7.4038     | 7.9672     |  16.6 |  9.12
Output  | 0.08154    | 0.086326   | 0.10004    |   2.7 |  0.11
Modify  | 1.5991     | 1.6129     | 1.6243     |   0.7 |  1.99
Other   |            | 0.4956     |            |       |  0.61

Nlocal:        391.250 ave         403 max         383 min
Histogram: 1 1 0 0 0 1 0 0 0 1
Nghost:        1023.00 ave        1034 max        1013 min
Histogram: 1 1 0 0 0 0 0 1 0 1
Neighs:        0.00000 ave           0 max           0 min
Histogram: 4 0 0 0 0 0 0 0 0 0
FullNghs:      10972.0 ave       11369 max       10580 min
Histogram: 1 1 0 0 0 0 0 0 1 1

Total # of neighbors = 43888
Ave neighs/atom = 28.043450
Neighbor list builds = 12854
Dangerous builds = 0
undump 1
reset_timestep 0
#unfix 2
#unfix 3
#unfix 4

################################################
####### Insert Ice #########
################################################

log log.${NAME}.eq_all
log log.icewater_294K_1000atm_ML.eq_all
