LAMMPS data file via write_data, version 29 Oct 2020, timestep = 200000

4608 atoms
1 atom types

-0.1880909340217407 53.58809093401765 xlo xhi
-0.2914883344174619 51.19860833441834 ylo yhi
-0.2914883344174619 51.19860833441834 zlo zhi

Masses

1 18.015

Atoms # atomic

3987 1 11.830883776185292 0.20533920999730365 24.4526243038248 1 1 -1
4579 1 0.415477568819587 50.379552618561675 18.319841339681485 1 0 0
2440 1 6.452401604959398 0.9377900318335293 3.373992603403906 1 1 1
1127 1 9.793007998112964 50.452760208043955 2.406833661817878 0 0 1
3986 1 12.422904001066586 2.184027459449165 5.056977488186006 0 0 0
296 1 13.493497147406671 45.23541995076542 1.0867639323895886 0 0 0
711 1 4.888306639882502 2.3414502556144012 1.747375381787454 -1 -1 1
3164 1 12.83088192610361 25.62428462296246 2.0789924723218247 1 -1 -1
2284 1 10.258752454006698 2.013299941146888 1.6326713453811592 -1 0 0
2969 1 1.2894320354676774 12.596558147866274 19.87339441327041 1 0 1
58 1 10.042437625773927 1.290965112541009 4.3104004358052315 0 -1 0
3256 1 -0.03017282225604409 14.66701856513678 10.099537377076745 1 0 0
2321 1 7.591360759844928 2.5411964006687477 0.5795851367677012 0 1 0
2648 1 7.184788585118002 12.187968388995683 1.0927236684831292 1 1 1
162 1 12.050912180653308 4.535073960431278 1.1703906490445322 1 1 0
2340 1 1.2716179992114374 31.632042213437217 21.867150378250994 0 1 0
1457 1 1.3546049444629886 11.045870633970711 2.62447093709161 0 -1 1
2466 1 -0.1772328964164188 46.519687825130006 10.725542434874303 1 -1 0
1187 1 3.04831849233674 7.583460830797216 3.6342973782847348 0 1 0
3316 1 9.36938431773391 3.2806295410455677 24.767949001395955 0 0 -1
1645 1 7.612757883532036 44.65048616886287 0.6233859774274338 0 0 0
3450 1 13.358079009454682 10.470319784698317 2.378501280787024 0 0 0
2281 1 17.330570355637008 22.05957696219304 21.38965832982871 0 0 1
4223 1 14.033426779445174 7.805641165897514 2.4812279409370723 1 1 1
457 1 0.37160238374730115 34.61477062238053 22.39670852039649 0 1 1
4373 1 4.6853300848004364 12.833095456017162 2.2786011592926343 1 0 1
4239 1 0.41167478600518237 41.617663031288615 17.86876090832455 0 0 1
3416 1 10.746090230562235 12.270647680743267 0.8267026892579643 0 0 0
1269 1 8.342971378268496 40.14168427384418 0.5771390105006712 0 0 0
3769 1 1.910479349580883 15.393135407325863 2.5631724772575306 1 1 1
3609 1 3.721703387589965 14.447588154119117 0.6219114106756684 0 0 1
411 1 5.707888189676264 16.284281475666262 0.6994368414201514 -1 1 1
4291 1 17.5167121720761 1.6639620145320282 25.211739375082214 1 1 0
445 1 13.256988875449586 15.793085268852277 0.8582283220499891 0 0 0
3368 1 14.774276518569422 13.852528346923442 -0.05177875853581371 1 -1 1
528 1 0.8019486402838244 16.504126216070382 6.785978011799878 0 0 -1
3354 1 6.3329582592691205 19.158920875405496 4.610132309264663 0 0 -1
738 1 3.5193394167635588 25.52051468431973 18.788969925868646 -1 1 0
4063 1 13.727232432993652 16.392607677627108 3.6099273539138874 0 1 0
1774 1 8.61967761569607 47.15750484212545 -0.1504337507336533 0 0 0
1083 1 11.37710388747727 23.360546108984888 2.7117676398300756 1 0 1
348 1 1.3592619052856616 49.21510618226492 4.549599716437695 1 -1 0
1600 1 0.76902029505116 12.42053559255699 6.681470725480863 1 0 1
2084 1 5.974147385499546 27.76363403677775 3.3501475566315775 1 1 0
1950 1 5.812656288758971 20.380068954862438 2.236909327869441 1 0 -1
3247 1 7.05746516562434 22.952869331989117 2.3231829449474044 1 0 1
3152 1 9.987455333825586 19.239214274245725 2.3407733086986284 1 1 1
3937 1 9.458229808548444 23.250045070175723 0.04174662155678377 0 -1 0
4515 1 16.334271597437077 23.505715752203507 2.972384414003081 1 1 0
1802 1 0.6741823121146011 28.64644784703364 18.402595837155552 1 1 1
3147 1 5.805696594681102 7.449806818924354 23.669465730770803 0 1 0
2179 1 1.3400080094908238 26.492630747598756 0.8160151599082235 2 0 1
3328 1 8.177968819630388 29.94794162031287 3.7417327828418436 1 0 1
3897 1 10.314596843916746 27.9983836339354 3.377496679902529 1 1 0
2140 1 15.675981369770106 41.99029549515751 15.03196801698202 1 -1 0
1884 1 15.346569561758411 3.4749967119650105 23.821765179758607 0 1 0
1820 1 1.3525214563692998 13.637643026228696 12.084666500540687 0 1 1
2958 1 2.1239093395836997 28.612458804674567 5.501084229698626 0 1 1
2 1 0.30618563050533465 7.96961299755643 9.306763136303038 0 1 -1
4244 1 7.551930725904338 30.603955277179818 1.0517618113796507 0 -1 1
2239 1 1.520199429040227 13.852742655340993 17.31985308967742 0 -1 -1
2676 1 15.606947719396622 -0.13241988985268882 25.325739143861746 1 1 0
3577 1 6.035681102664627 35.52131020830005 3.294139754780177 1 1 0
924 1 3.212450217216368 27.401357059311017 3.236295135706987 1 0 1
261 1 4.835306118381824 31.38061761546664 1.4549237485273385 0 1 0
30 1 14.444737533329402 34.094212100408654 0.9569865215171978 0 1 0
1828 1 4.785717483552213 10.052520078071902 0.5381759794680475 0 1 1
4000 1 0.06564654575737433 42.20614103846708 8.788984851213465 1 0 0
1011 1 3.37719497285458 29.066015318709777 1.0355487085992046 0 0 1
3261 1 5.3417271200392396 37.087736937100715 0.929281900196472 0 -1 1
501 1 15.123980756228534 7.341059652188077 11.01728633976074 0 1 0
3255 1 11.892062331420034 31.46695263859913 0.9536756543037288 0 -1 0
3841 1 15.687418002698678 36.5350884932527 2.0342346529316417 1 0 0
4484 1 1.7612862826119084 35.20725809218551 1.6966576535617122 0 -2 2
4052 1 3.9693020975502007 39.19046746059658 0.8363210002171666 1 -1 2
1699 1 17.734484922208463 5.007348898402005 10.998526065920029 -1 -1 1
790 1 -0.04785227781996293 14.951377687667733 23.6422403536405 0 0 1
14 1 12.725437970331516 37.20062627260761 1.3913159019076002 -1 0 0
1045 1 16.453450875502494 40.2522595349874 19.59019467047032 0 0 0
2039 1 15.191131410372735 40.28200271152849 2.940976819395111 -1 0 1
759 1 1.0869037951038976 40.51456439840065 1.0290102724745105 0 0 0
4314 1 14.842534196390929 21.083880930571897 2.166109601397372 1 1 0
1686 1 10.10458727720699 41.2137852796682 2.5268165352782033 1 1 -1
1389 1 15.698262276297859 26.19551088043882 6.823201582467325 -1 0 0
2402 1 12.45406325688303 39.80870618591943 2.1625460878031197 0 -1 0
3581 1 1.3658192173157147 12.191230101934588 25.060816615054126 0 0 -1
1255 1 -0.046780849884582976 23.740964901440943 21.42235508133174 1 1 0
386 1 0.832599618612641 33.78654409926054 8.666809384483434 1 -1 0
4473 1 1.115465202951515 44.512849521250416 1.932568002308308 0 -1 1
3286 1 4.180502120219695 42.58326401673358 4.644576568861109 1 1 -1
2272 1 0.8412932740656234 19.977132722503935 3.1978284432736546 1 1 0
1412 1 15.033867986961711 46.829453986151194 3.2593766369811394 1 -1 1
795 1 13.576377951824913 48.79584819581325 1.7457850799195427 0 1 1
3521 1 1.5874249626870325 24.628581550768917 23.96808225940552 1 0 0
587 1 17.39043986237047 2.950786642139711 8.93210041586148 -1 0 0
2121 1 4.65800847730322 44.54692659912412 1.0855169305357242 0 -1 0
1812 1 9.08678552558434 46.17455822526448 3.015463261271918 0 -2 0
2812 1 4.488633825603741 49.41695818475938 1.4374162544334987 0 -1 0
471 1 7.098098359265648 49.834564935430066 2.6465020801421235 1 -1 0
1920 1 11.654851804692267 46.80257643944336 3.468012475720451 0 -1 1
3713 1 16.987194852991667 27.00282735828317 9.962425566772087 1 0 0
1874 1 8.525954077252065 3.162769860962865 5.910034555288323 1 0 0
402 1 1.410575756466475 5.130267755062665 3.550920243552476 0 1 -1
2095 1 2.2754449344567873 2.454544081337132 3.838926778486454 0 1 1
1582 1 9.125387036334864 50.00013581422162 7.693817098388531 0 0 1
1611 1 13.067239051740046 2.440067232006341 7.74622012055702 0 0 -1
1885 1 7.66206313898626 5.67249305427017 4.543655520967252 -1 2 1
4306 1 10.358576759600071 7.3169865184673215 6.991011054521446 0 0 0
1574 1 16.529375069861697 31.895967112252013 0.42940983655402476 -1 0 0
3176 1 5.72028190603139 6.713852575281989 2.704861320418233 1 1 0
466 1 6.136790737520532 2.2954246641280496 5.649521938986063 0 -1 0
3241 1 9.156753946640714 5.04006106104009 1.8707034840112966 1 0 0
902 1 13.263943290030252 4.134528112288836 3.27151718431303 0 1 1
1960 1 15.677913461580102 2.7892544402969444 2.869724376081715 0 1 0
2196 1 1.9764899034889485 8.536418511053718 1.188462692379664 0 0 0
1237 1 5.309724294868898 6.475201226586059 6.218845614026547 0 0 0
3723 1 16.072750409977047 7.8634591943439816 7.85341140657432 0 0 1
2389 1 16.03788798846639 7.0890652053977155 4.72518320397922 0 0 1
4042 1 17.1562654847962 49.10000440794447 24.718258282058233 0 -1 0
1781 1 3.354617439760434 11.978623517116759 4.486433272782174 1 0 0
448 1 5.0531887351663665 9.76158038884734 3.837083955893747 0 1 0
2813 1 8.69668192475806 9.797941117743981 1.6057257401210696 1 1 0
226 1 6.706161147710464 9.248153152096846 5.861687418193908 0 1 -1
1066 1 16.999049829002523 9.702283090988196 5.756598268272559 0 1 1
2784 1 9.866846817257649 10.288003454123174 7.499078486049362 0 0 1
140 1 11.079654058533023 15.194543852268884 3.599007795774957 0 1 1
4045 1 9.379308776263162 10.098232179475927 4.352594029210358 1 0 0
1078 1 15.845633247005274 7.524520357632218 21.107892239302387 -1 0 1
2937 1 15.819087480973863 12.325713335450256 6.738473752645541 1 -1 1
4127 1 0.3490449344069291 17.609975806121255 1.6413453177358361 1 1 1
524 1 2.2537013598107976 14.790880084546343 5.354573785016121 0 0 1
3568 1 6.844358693312734 16.933966481983575 3.1084579035916717 1 -1 0
1001 1 4.463703273294134 14.87537716228697 6.950645148971483 1 1 2
2055 1 0.5231497932850208 50.21573708171711 24.97546804806313 0 -1 0
227 1 13.825057024246048 12.966722216316455 4.7040424848563775 -1 1 1
764 1 -0.1376910702252406 50.41249961975174 2.054423202934451 0 0 0
298 1 15.921041707030138 14.75535680594063 4.317894486981087 0 -1 0
2083 1 5.469292698196689 17.44394198424394 7.055030959670687 1 1 0
3709 1 9.254776246242113 16.570776866636557 1.8334718032942243 0 1 1
3279 1 8.778079874250041 20.24245793346295 5.556344379443458 1 -1 -1
1169 1 3.3466430227143005 21.064489473660164 1.8882285247909838 0 0 1
857 1 4.572661879942181 23.585802073760103 5.810687291899901 0 1 1
3017 1 6.488973505730492 21.512027404855854 7.037033971690073 0 -1 2
4496 1 9.196872896136043 22.728949503188645 4.128801245576953 1 1 0
145 1 10.132778507924794 26.28063764983569 5.591909090712287 -1 0 1
3419 1 12.114425377117072 24.26357252154478 5.163540601890002 1 0 0
685 1 10.466171824375971 29.24755517252067 -0.10817097838641893 1 -1 0
3678 1 4.596623056076648 11.730240222823232 25.14878024803205 1 1 0
3683 1 3.0136907231436556 24.020581846316272 2.353399775289133 0 0 0
1546 1 7.2358742189606975 26.380741314736948 5.8709055166767445 0 0 0
3011 1 8.37153349474824 28.958421967240955 6.885090286658571 1 -1 1
681 1 10.942280305096256 27.827427472664652 7.996548888532898 0 -2 0
4436 1 0.4450283042287131 2.8141152287829265 1.6639760831934074 0 2 0
2591 1 0.0865697399424501 29.905400422679374 14.803507293106652 1 -1 2
3681 1 8.462229737093232 31.898106612086405 5.842106791840044 1 0 0
4308 1 12.6900419211697 30.182910329318116 8.646591661871913 1 0 1
3082 1 1.4348740278178735 37.9412546828807 25.341447810545382 1 0 -1
2087 1 0.6189899799032093 42.28767481987836 22.248784135663907 2 0 1
3264 1 1.535059548821621 32.62927858443521 3.270651040235752 1 -1 1
3879 1 9.794323925379913 30.75682298854347 10.946495989934014 1 0 1
2734 1 10.848946443168273 36.25217286922211 3.611548568639466 1 -1 0
221 1 12.833780274990312 29.375050401038994 3.1890615643249878 0 0 0
1062 1 13.301743569555784 32.48505067689011 3.137097078834576 1 0 0
4003 1 10.896773932942502 33.48000521885959 4.755176249184893 0 -1 2
3676 1 5.915499210882279 33.600059926079865 6.486496291275465 0 -1 -1
1906 1 9.98220615027106 33.68053371474596 2.0020579895424984 -1 0 0
4023 1 15.067661592882173 39.76396863389691 16.876367136541365 0 -1 -1
291 1 8.452126873411268 35.27433345863628 5.7541819367990055 -1 0 0
4233 1 5.1746295464374725 18.7815238374813 -0.14910047053862435 1 0 1
2008 1 12.207566787300687 38.183618169063195 5.2347665018324365 0 1 0
4205 1 14.076383900483293 40.49923314327265 5.6530517324814165 1 -1 0
2605 1 15.589656928216408 14.646339568522619 24.452860342962726 0 0 1
97 1 2.856503299666799 36.66841613119284 3.850708927409343 -1 0 -1
4591 1 4.801698500282508 38.77681465446656 4.047610699265789 1 -1 1
1633 1 4.006795234191605 40.4359304528882 5.979100695598992 0 0 0
4407 1 10.126049126285489 40.4064744768901 5.56985514589867 0 0 1
4307 1 12.527392876799341 42.371015593373144 4.1201793622718945 2 -1 0
4041 1 11.122461488383811 43.23665756124264 9.541989955897291 1 1 -1
1257 1 14.4584771453793 44.23359416443948 4.628331770651771 -1 -1 1
3142 1 0.38215703546149404 42.12882139741828 4.932489738756646 0 1 0
3157 1 1.2024976456207406 40.182943884469225 6.606111846055154 2 -1 0
914 1 5.993323145325646 44.633239100996875 5.654371866857885 1 -1 0
793 1 4.27008558924538 46.883107774198265 2.598415846375025 0 0 -1
405 1 6.090870143103052 41.557205473410065 3.1137837954660617 0 -1 0
2107 1 8.43522611367303 43.25774922688376 3.5535283971309974 0 0 0
3900 1 2.1624277128284572 42.27692192076228 2.8619645151118016 0 1 2
505 1 11.604123853569936 49.57390669783226 4.313500646536004 -1 0 -1
4179 1 12.464978544309961 45.89115588670575 6.213665866248257 1 -1 0
213 1 15.18311718439641 44.10398862134572 7.500543886339432 0 0 0
4456 1 16.83301682307635 8.699689206068848 1.7904831779036723 1 0 0
3353 1 3.5942919560986386 50.83186316756745 3.941296278837573 1 1 1
2103 1 6.703254850836704 48.24496677646249 6.740416267929536 0 -1 0
73 1 6.689784722533272 47.31503766785893 4.14591892387169 0 -1 1
1572 1 11.783111149630885 48.605150928516835 7.183623968870615 1 0 1
2323 1 17.102125364307597 50.316231936243184 1.5563649079370283 0 -1 1
1758 1 13.551483006665054 -0.23795226384982815 4.2617183562088075 0 -1 0
1294 1 2.4192309727199173 50.74614883308553 8.585445305373714 0 -1 1
503 1 11.964865516917522 22.716932261992394 24.98725709277201 0 1 0
994 1 5.66330745542987 0.8909261870691365 7.74119737976541 0 2 0
2979 1 14.779674370963958 4.5821791594104555 8.105579538190204 0 0 0
950 1 4.29515950471173 4.180188552777458 5.003946912581162 1 0 1
3105 1 1.918359125461969 9.535842180521136 5.61159763616292 1 0 -1
1822 1 4.999285039247607 2.554528961670479 9.66902188576787 1 0 1
415 1 8.26987370005439 0.7426491141301854 12.22622783390879 0 -1 0
3334 1 13.138526899522654 6.665159513622609 7.322725723545993 1 0 0
791 1 8.94825234651582 5.152776871162046 7.743466542270603 1 0 0
224 1 12.818755567800665 6.6520751108614125 4.253423124179558 1 1 1
4256 1 9.727062537424283 7.74971045254968 9.847216577555391 0 -1 1
4525 1 16.513356283486043 4.514439991033239 5.879795592279806 1 1 1
1490 1 8.382067905825723 7.257583923950933 0.013360897998957622 0 0 0
2864 1 1.243493814853872 7.754452225065339 14.221141091809352 0 0 0
1689 1 1.808460957711878 10.359408868238312 9.338556319618105 1 1 1
1506 1 3.6799923645668207 8.324530724761686 8.132399542229336 -1 0 0
1203 1 10.114658857697416 7.335924833993472 4.1572902735054384 -1 0 0
4093 1 7.192332729703747 9.48245853655935 8.80962127189828 1 -1 2
926 1 12.605015358392935 11.35755855829496 7.935278714473572 0 1 2
1665 1 15.424882882940611 10.470873339821 8.979099333124367 0 0 1
3483 1 1.024637229808885 44.89107003218294 24.390251158057012 1 0 -1
2028 1 1.9179628450644324 34.52325383360598 24.872387071453286 0 0 0
1603 1 2.3844751163422955 13.2860951352278 8.921389314971572 0 0 0
2750 1 5.874328922611475 11.931791890477694 6.502024336828056 -1 0 1
4601 1 10.845585819048914 12.437949634549037 3.6953453454890837 0 1 0
2745 1 6.171397094897859 14.735271154209897 4.600923192498111 1 0 0
2116 1 12.486528173427889 14.011755818416697 7.0533121681261735 0 0 0
1659 1 8.00901999963558 12.778749291503582 24.76386748780597 1 0 1
2943 1 6.623327418170638 16.273764048608953 9.506773767165111 0 1 0
3806 1 13.087101654982277 19.098573028631286 3.2080838315885503 0 1 -1
307 1 1.7374500654548246 25.15648176075766 5.041383033818868 1 0 0
2672 1 0.828861105579282 19.125865538221966 6.022656289951718 1 0 1
744 1 8.173489730512593 15.888893420314005 6.820978189484809 -1 0 0
393 1 10.034927189165185 17.37626310967777 5.249961499805495 0 -1 0
4478 1 15.30379218610242 18.900109560735977 6.166378181626366 0 1 1
473 1 5.0865173891211874 19.719927531424197 8.777565629116573 0 0 0
4280 1 0.7654024134299939 25.348274315894763 8.207667639826266 1 -1 1
2088 1 5.5342118269868275 24.659857323117485 3.5480173064897804 1 -1 1
3983 1 10.757995099910136 20.329622151915146 7.767904754829974 1 -1 0
1710 1 14.023921492798486 20.419257615982275 8.17358260639467 1 0 0
143 1 0.5917149468774655 4.0702442765637254 22.017385915190893 1 1 0
2990 1 2.40147318156861 22.78311559726504 10.893145637483997 1 -1 2
2011 1 3.501503722352906 25.32275509324381 7.742101834813333 1 0 1
1185 1 11.17107262242876 25.47686172729677 10.303369541438432 1 0 2
3679 1 8.358580502921358 23.935199748147518 6.667324094453656 0 1 0
4565 1 14.025934680928469 26.853339080067077 9.566064521877376 0 0 1
2487 1 16.864420392440966 5.095330388089821 22.22289885655504 0 1 0
1443 1 4.4473226542527575 27.929355769952352 7.434798153744952 0 0 1
272 1 6.3549150163351324 29.681179532252177 8.569306565511067 0 0 0
3728 1 13.831990291347001 29.810383685386434 11.072875507908742 0 0 1
4594 1 15.185319058966693 28.187923093245633 4.124355083442842 0 0 1
3192 1 16.832388349794627 30.002270583744252 2.6390291525324012 1 0 -1
2238 1 2.044885735497207 31.282819803259336 5.743564501393366 0 0 1
3390 1 0.6580814885593922 26.690287170307 10.471523648629331 1 0 0
636 1 9.393288122651708 28.104744349602832 10.400618809560513 0 -1 0
104 1 3.6270564378255865 4.858976982750997 24.444078092358392 -1 0 0
794 1 17.41650737751229 47.77471180114219 6.216078602313154 -1 0 1
1539 1 4.620786106725694 36.13080038573489 6.227362874949847 1 1 0
1913 1 5.86035360391619 41.41201434110529 0.16207089073803105 0 0 -1
1095 1 2.573993889130992 36.44701380004501 7.928219072052812 -1 0 0
1746 1 6.853886614218017 37.72807685681809 6.401110312566542 1 -1 0
4476 1 12.00537198104355 32.74336904143405 9.413179082663994 2 0 1
3358 1 15.509682339525597 37.130819889789606 8.066275989052436 0 -1 0
889 1 16.402873119055204 39.31830536288447 6.9830522637951375 -1 0 1
3643 1 15.55247429406161 34.187681196727624 4.223620478054859 0 -1 0
2858 1 0.4417981393885504 38.06036868407163 4.823247467701632 1 0 0
2635 1 8.704990712885074 32.340426621018565 8.881225634435346 1 0 1
4541 1 12.88953012922226 36.8711286553164 7.456587443924154 0 0 1
2482 1 2.6873802352784937 39.16315715588982 9.958284271838405 0 0 1
271 1 8.392062220641401 37.05172356787358 2.6074264739374065 -1 -1 0
3487 1 7.893701601312689 39.207966521268176 4.2318383181151775 1 1 0
383 1 9.841008985892044 39.29216472360123 8.21529637501047 -1 0 -1
2159 1 13.630723687224377 41.737531002729 8.76864707659952 0 0 -1
623 1 2.065301288528386 44.072534807212165 10.198572714714336 0 -1 0
4069 1 0.3850714547735322 2.6080438725955526 24.290382717656968 1 2 0
4124 1 5.4193879629602675 39.118421007693684 8.445381836428147 1 -1 1
295 1 8.367973334427377 42.898221273394626 6.650890023138317 1 0 0
1895 1 15.31603438139173 43.51109780224189 10.784321633107812 -1 -1 0
3569 1 17.141495185707875 29.796444559938788 8.962605598086547 0 1 0
4219 1 1.8640064258577933 46.18086866366741 3.743476260876795 1 0 0
3337 1 5.284622037366951 46.38856586638897 8.049181576658716 1 -1 0
440 1 9.875474880535371 42.34869592345511 11.991367495948028 0 -1 0
1827 1 14.340982873910336 50.38338417442007 7.096648110273078 0 -1 0
2427 1 2.1222550230608115 46.10735122462556 19.135937188279446 1 -1 1
2701 1 1.4574333724458743 44.474012034853516 5.946410332606505 -1 0 1
1749 1 4.540393835806932 50.23818196971847 6.637830590376314 0 -1 0
425 1 2.4917507873492917 46.88700586069321 9.332318375891084 1 -1 1
4465 1 12.306275828871165 45.332925518698744 10.660999342864702 1 0 2
661 1 10.361381465137178 2.5554813708730624 8.628511998481594 0 2 0
2545 1 17.01034604249426 50.497868657612926 5.7871410242842884 1 -1 0
3188 1 -0.011811744969240201 5.296497465202448 15.94814864346716 1 0 0
2031 1 8.110180414663324 0.6131508454267843 9.174402718982003 0 0 0
3374 1 2.714259081829558 51.19576367803612 12.59784109794057 0 -1 0
4001 1 11.44735364759835 0.02257956693376878 10.799765676201165 0 0 0
2233 1 13.819181829336197 0.3625092844784039 9.52649465088958 1 1 0
1299 1 13.010253458907588 0.09234777047458004 14.104354919278817 -1 1 0
553 1 0.7597750342511992 29.964963068300047 1.9717989730352596 1 0 0
816 1 1.6125545301252084 1.9518452812147382 8.580859100449347 0 0 1
2199 1 7.022582044803384 3.039556257424195 11.47713822510391 1 -1 1
178 1 9.115911439031919 5.033147126396679 10.690748636171625 -1 0 -1
4368 1 2.561556608194104 6.62733176141337 9.934681547218508 1 1 1
3093 1 3.725266018870451 6.104788627848634 12.582953314062769 0 1 -1
708 1 7.139652082793606 9.592364044867395 13.18869384406775 0 0 1
773 1 6.281216614636301 5.317180582921544 8.620962953495344 1 0 1
3631 1 5.57514857020357 7.340665911410095 10.21751327148614 1 0 0
4276 1 13.92815425011133 3.921692779880834 10.74392551235744 1 0 1
336 1 12.62448903265676 6.591010262725219 10.380761643004611 0 2 -1
3688 1 5.337816531367358 12.167474885308366 9.225663740620773 1 0 0
2897 1 9.508610211046928 9.992034199707284 11.473362896764595 0 0 1
494 1 8.262443768594405 12.86523784125521 5.763021014621655 1 1 0
2727 1 8.403763919551768 12.234416791942992 9.997527451439382 1 1 -1
431 1 11.764512617024396 11.68149262789708 10.484983621064686 1 0 -1
1436 1 8.572460233034883 5.4716067450274615 13.8455626770986 1 -1 2
3758 1 17.425258318254308 38.338451216249126 3.485110517823044 -1 -1 0
1425 1 4.519879690031367 10.12873713329897 10.83770493775972 0 0 1
4248 1 2.1528853393934972 16.354110447674817 8.948605801289235 1 0 0
500 1 9.95798071747798 13.598444308820211 8.23267483342506 0 0 0
449 1 17.689499462334627 13.501668632098959 11.39979617355617 0 0 0
3605 1 15.96947054418122 14.333242992088282 14.821698676907287 1 0 0
4018 1 4.721979466259778 14.91945209382835 10.263888411461226 1 1 0
40 1 10.039724265236327 15.938364594024204 9.247305248044496 0 1 1
1684 1 13.649401907571 19.24379953309756 10.912348729527139 0 0 0
4455 1 14.606843941012057 14.196565736106363 9.317603221293938 0 0 1
3291 1 14.526083983531468 16.13233781969362 6.683923656948077 0 1 0
1316 1 11.752551783604435 6.155519339416091 23.983561542088008 1 0 0
2687 1 2.1465006343582833 19.270745696263052 8.836700004758884 1 0 1
2262 1 8.117031569883173 18.07486699337401 11.157338983780235 1 0 1
893 1 10.899873334086644 18.773201874100895 10.107668821452599 0 -1 0
3703 1 11.968854955512812 17.32769146652048 7.585121276211505 1 -1 1
222 1 6.529074880069218 4.817746086377979 25.430416017418267 0 0 -1
662 1 5.716491778781412 19.846618638151572 11.66600294356467 0 1 -1
3163 1 10.05080417531356 22.947313193304343 8.911394136688779 1 1 1
974 1 9.485529887861567 22.08519196397456 11.526267757158347 0 -1 1
975 1 10.756878994654775 24.413837655394428 12.824222811410586 0 0 1
4512 1 12.630186946512632 22.964933795400846 7.7472822282041385 1 -1 0
4172 1 1.9273980114214675 25.12832616976778 12.581961320797353 1 0 1
163 1 6.659623625207099 22.387086883973833 12.462440597076071 0 1 0
3543 1 4.846905567904684 23.86297436062675 10.466784164957499 1 0 0
468 1 10.948774681561778 28.268858933609344 12.965431511060844 0 0 0
331 1 13.882479174927983 27.113079331544373 12.318820696310526 0 -1 -1
1112 1 2.6542969795283975 26.178878797394596 14.996330465147128 0 0 1
2804 1 -0.10866659265634 46.2035572099025 7.574115288902077 1 0 0
3004 1 2.9294122577293713 27.876375543251093 10.434061969728909 0 0 -1
23 1 4.680220342883 26.311902619256685 11.899498225342594 0 0 0
1461 1 5.867668963201136 29.77976027445169 12.911834194822198 0 0 2
601 1 15.122437550070362 29.569998560412337 6.925883398485368 0 0 0
1610 1 15.792193673560144 11.328959176587244 1.4560037139687478 0 0 1
4472 1 1.5512277560908059 10.552606631086826 12.5220776641062 2 0 1
2553 1 1.1856642881278365 9.825601555875794 23.42819290506509 0 0 1
1134 1 7.206747295177515 27.821527970440375 14.651061392314913 -1 0 0
8 1 12.483836414151032 31.130321220304555 13.300635621873417 0 0 0
718 1 16.027237655995467 32.04697677831152 6.022322426018053 1 0 1
1289 1 14.684292565316305 33.563104460846176 9.914119807240764 0 0 0
493 1 3.213120008783886 32.55706418446866 9.789438988334492 0 -1 0
2490 1 4.095682862621035 31.78938559273995 7.393612845249196 1 -1 0
181 1 4.414820519414369 34.23056440782656 11.842157030194166 0 1 1
909 1 8.092553314362117 31.489664164308557 13.033969194913846 -1 0 0
4067 1 10.889709110930346 34.794519389990796 7.719811787041216 1 0 1
3971 1 15.734961758742516 34.67253926247456 15.412086870065744 1 -1 0
2164 1 16.62887453724605 36.077247420053425 10.495163668930614 0 0 -1
2358 1 7.3760372475072735 33.95700097361585 11.049861074699818 0 1 1
114 1 4.798486521764988 36.535773132600326 10.214947399379938 -1 0 0
3430 1 6.714166673227091 35.03638837359773 8.678862834099837 1 -1 1
3862 1 10.309354600453682 35.39285559957524 11.040583859336452 0 -1 0
2197 1 14.575492930044394 39.339121233349815 9.71709743975479 1 0 0
3080 1 8.672222560664821 36.732738762316785 8.725352503223718 1 0 0
1947 1 0.9188705266336017 44.543297490720946 13.03701898021504 0 0 0
4178 1 0.25374626090113184 38.51061861427772 11.18962228241944 1 0 2
1889 1 7.203577281186072 41.31315920242791 11.952096251151998 1 0 2
373 1 10.02064480214807 44.96275604994467 7.424495293051286 -1 0 0
3535 1 8.19936269047774 41.34616378909051 9.209991656276326 1 0 -1
583 1 11.690140423752757 40.78820032325878 13.186339123942119 -1 0 0
3544 1 4.490314624651129 32.450618171518144 24.257664577513925 1 -1 -1
242 1 13.683506015062045 37.964685671516506 12.849948138597853 0 0 -1
2049 1 5.397961111327821 42.046241184446075 8.19313223875459 0 0 1
937 1 6.830528252782478 46.27378003722451 10.298120138186054 0 -1 2
928 1 8.731315201381912 44.72579751173913 13.74825048067245 0 -1 1
1475 1 11.502113318807329 39.64095813294102 15.914095496693317 1 2 0
127 1 13.671446792051455 42.90589888014756 12.878468307455 -1 0 -1
940 1 11.275887405291538 -0.17061670571573323 20.353562423835104 0 1 0
433 1 3.505606369849187 44.09666252107877 7.6695999931161385 0 -1 0
2575 1 13.077503365914854 48.08349880233315 10.247831682297466 0 -1 -1
2994 1 6.881106652521929 44.1286445871755 11.776833292313453 0 0 0
3639 1 10.647813691623222 47.937297411633864 13.09987905480135 0 -1 1
762 1 2.1920852146409566 5.781161583402483 0.6055008495404454 0 0 0
3814 1 15.773988491989558 46.388695104593694 11.043234151529498 0 0 0
4343 1 3.910291262678383 49.247353704580746 10.368240703137749 0 -1 0
597 1 6.627728523662089 49.5997885999857 10.34198754200431 0 -1 0
378 1 10.484166658652288 48.98885002108763 9.840423062768398 1 -1 0
2190 1 9.5792494297556 46.58308113857714 9.719109838000195 0 0 1
2176 1 13.52047597012986 49.12099791096277 12.998358422872169 0 1 0
498 1 16.467121362942677 0.7544950500551164 10.440566732868147 -1 1 -1
1733 1 6.608077285504592 50.214548037519805 13.197812001569945 1 0 0
2434 1 4.085302907032949 50.47324018189828 15.163095756709605 -1 0 0
312 1 -0.09693113585181184 31.310244426720516 12.077752832278383 0 0 0
3818 1 15.100830663503691 1.9931578131603098 12.845496539533794 0 1 -1
1351 1 0.7791484207181759 4.869807679817328 12.99238503969127 0 2 1
1902 1 5.908852582514959 4.52365611869868 13.705435426863016 0 1 0
4542 1 11.15838691401085 3.4684571998415707 11.475501273273569 1 0 1
4316 1 8.200426133085152 -0.09040098964775761 15.7980685371937 1 1 1
855 1 11.364500357594086 6.000500736402983 13.274351880991375 0 -1 0
353 1 14.32212879047349 3.1042568812271294 15.441168225535877 -1 0 0
2203 1 1.8136808190736344 6.732231028644215 17.21487213287167 1 -1 0
1200 1 5.3555796376975575 3.534896747881269 15.906379720720977 0 0 1
4493 1 10.604757396786429 1.057485528415832 13.907667423751754 1 1 1
1496 1 6.481228300591699 7.3530467695156405 17.216144165663344 -1 0 1
2346 1 12.318509836333124 9.131303325070292 12.000586737598567 0 1 0
3146 1 3.9503268467590544 9.15394547277511 13.546674895006522 1 1 0
2326 1 3.56966267447261 11.550303008903844 19.256315106368586 1 0 0
4116 1 6.207176427712654 14.285030415944712 14.78586038865324 0 1 1
2540 1 10.637082708618594 11.63509894694989 14.417019732169502 1 0 0
1835 1 15.102990050606017 9.793302193765289 12.415682474638906 0 1 1
3365 1 6.232750743088305 11.349890160416848 15.199002711732977 1 0 1
2096 1 10.624328617312235 13.533525936222983 12.218514281014537 0 1 0
1027 1 8.97977088833149 13.29952467781411 15.873842553301369 1 0 1
2236 1 14.545807966189162 12.130873004361524 11.254676118241509 1 0 0
1428 1 13.287413837439178 12.603482254974276 14.19575271847476 1 0 0
4202 1 9.009674630857248 26.55010021552716 1.1972048540314182 1 0 0
1585 1 4.108499677849922 14.522501536203087 12.948236628548067 1 0 1
2730 1 5.749698980891513 18.349290882269344 14.056173694731335 1 1 1
2350 1 14.268431458640002 16.51481954813303 11.233783739495074 1 0 1
2850 1 13.675987419543096 15.040433599925244 16.251917265856488 0 0 0
2483 1 17.2155564224607 13.61019566158585 17.069595251067597 0 1 0
890 1 3.231678413204509 17.17029602620208 13.902704896107629 0 -1 0
66 1 2.947177507215497 20.302238922597333 12.263203572769427 0 0 1
1544 1 5.2566850339136035 23.030319524134296 14.988031228849218 1 0 0
206 1 7.794237953006887 16.718253260697015 13.580824909018519 0 -1 0
4155 1 9.932469128542815 19.70131529347829 12.940789302458645 1 0 0
3461 1 12.81294852741365 20.993967179077167 13.158847282381252 1 -1 0
1584 1 16.791703754321997 16.299309280949934 12.850307539192142 1 0 0
2012 1 13.846913197914759 24.26684998164194 10.067602708389055 1 -1 0
655 1 15.329028688103223 21.519595837548692 12.865440606652827 0 1 0
3624 1 16.361784656084243 22.96653532938093 15.107096331853477 -1 -1 1
3280 1 2.3240789674074973 22.562235063543348 14.113723540749042 1 0 0
71 1 3.64600533484144 21.812461316644068 17.32695669328929 0 0 1
1591 1 6.6624502572305895 24.14307140757979 17.50324446840418 1 0 0