LAMMPS data file via write_data, version 29 Oct 2020, timestep = 200000

4608 atoms
1 atom types

-0.1133000108309794 57.38381001083028 xlo xhi
-0.10071112073956812 51.00783112073968 ylo yhi
-0.10071112073956812 51.00783112073968 zlo zhi

Masses

1 18.015

Atoms # atomic

5 1 1.744338790384011 1.783365983344705 1.390347472352578 0 0 0
188 1 15.64099900293843 47.9801013574283 -0.08376990543979444 0 0 0
595 1 15.71992999202484 50.705131018221365 22.219308645364706 0 -1 0
13 1 7.805753297824951 1.5861682534539892 1.3549050304151222 0 0 0
21 1 14.081406325038499 1.4809353919786306 1.7306827048787594 0 0 0
650 1 -0.01594969690853726 22.49257493445985 22.333672668897794 0 0 0
8 1 4.80109026871867 4.5623689329956685 1.5373642800235023 0 0 0
10 1 6.251298021757278 2.8150121237787538 3.1800767592980246 0 0 0
2305 1 19.015434885102508 0.14265704342635624 25.27631339691572 0 0 0
16 1 11.313247593165311 4.790103179030695 1.682433364375062 0 0 0
24 1 17.48989071039088 4.7650111283728345 1.490404760977027 0 0 0
17 1 12.514885021369068 0.3771485926065756 -0.05238089553151479 0 0 0
29 1 1.5696788727306947 7.706146776563215 1.4029552520525064 0 0 0
193 1 0.13670600669257177 0.274584034332964 6.604703166217158 0 0 0
37 1 8.028247244469544 7.544163688190311 1.1375641925272983 0 0 0
35 1 9.526819660707098 6.242884274446309 3.086819798758838 0 0 0
45 1 14.041178678893404 7.705764244155514 1.6564693292912274 0 0 0
140 1 15.790172563608193 34.944379415709726 -0.06970640905128415 0 0 0
32 1 4.983510696101312 11.458565833808446 1.4142032597413672 0 0 0
40 1 11.113064957734966 10.91712188917667 1.791584364663396 0 0 0
48 1 17.811380526465403 10.985502094562397 1.3085846040113431 0 0 0
53 1 1.2492298748671802 14.457387939354636 1.970363965643728 0 0 0
61 1 7.754662854936213 14.342626353312728 1.4029762557898022 0 0 0
59 1 9.336330164811033 12.862985466257 3.148426468132139 0 0 0
69 1 14.07327830477069 14.222532206567987 1.0668674803759643 0 0 0
337 1 0.06975781463628156 38.60535751174141 6.506071909434902 0 0 0
881 1 12.844375107776019 25.07707953040149 25.37238494447343 0 0 0
56 1 4.530596862003113 17.60336938852473 1.6125154199546885 0 0 0
241 1 0.06219029976432516 12.53050718642913 6.419960051391561 0 0 0
58 1 6.256182017299625 16.03867284276703 3.1034702616833405 0 0 0
64 1 11.408699747054028 17.63886559412426 1.6686662553565261 0 0 0
66 1 12.798141227892081 15.809242889496499 3.19524548586041 0 0 0
72 1 17.19015706128756 17.150310806319215 1.4663827300709935 0 0 0
1681 1 18.39957813556794 38.51127589305726 0.10405542346321728 0 0 0
75 1 3.0497387607288085 19.358712506151164 2.9100933172486245 0 0 0
85 1 7.869952303179336 20.562133595561857 1.442463006658606 0 0 0
83 1 9.425573501506266 18.63232691118162 3.263782866172631 0 0 0
93 1 14.270030300860228 20.314519693863943 1.574667945227761 0 0 0
91 1 15.961372505882846 18.785240755774662 3.096232918760139 0 0 0
77 1 1.4359266983662322 20.828555414718533 1.0903533232654135 0 0 0
80 1 4.761955162364939 23.878049105075746 1.6481215785340853 0 0 0
88 1 11.522209644261098 23.645864704784426 1.3947582971284365 0 0 0
90 1 12.901559139728587 22.03952751186651 3.0620915620813696 0 0 0
96 1 17.36266043917479 23.728468691058627 1.609761186944159 0 0 0
101 1 1.8414439696241431 27.004309838096514 1.3072227458048167 0 0 0
99 1 3.6272839418689853 25.838573783884904 3.162721184735158 0 0 0
107 1 9.723745969308075 25.37133390691249 2.9477793680026387 0 0 0
28 1 3.2635621915104664 9.666500148723019 0.08938126616383757 0 0 0
115 1 15.568614457335125 25.285208941008346 2.772793117958485 0 0 0
457 1 0.22399291565610213 19.181302433015418 12.531268916121155 0 0 0
106 1 6.6846013993730935 28.292142152403898 3.205626222672749 0 0 0
109 1 8.440212841621735 26.85605361231251 1.0542353406992593 0 0 0
553 1 -0.033733953570068934 44.7275986460558 12.683998112448316 0 0 0
117 1 14.142751909013988 27.308464910315653 1.391760927590062 0 0 0
74 1 0.25886227525203115 22.479547227867627 2.7908789935066447 0 0 0
766 1 14.142003026285389 49.40481969589681 23.870512377819143 0 0 0
123 1 3.7419235988795987 31.513010545929202 2.9504814280701432 0 0 0
104 1 5.2421196424018035 29.641499776442306 1.3653762343036444 0 0 0
112 1 11.15922660353271 30.105152698603405 1.486360382688559 0 0 0
98 1 0.21988872134490278 28.509166121896712 2.8315824124495257 0 0 0
139 1 15.83073530908907 31.764581455640563 3.3708744521160354 0 0 0
120 1 17.36559670915874 30.105989287964057 1.631162248964452 0 0 0
697 1 0.14327221443116578 31.946402054413923 18.791284287429715 0 0 0
125 1 1.7784587696059522 33.58977044403305 1.6328072199760983 0 0 0
828 1 9.262342204691672 15.642652909171868 25.18485208460356 0 0 0
133 1 7.826626034442762 33.44194576727712 1.17658621908282 0 0 0
141 1 14.569204625632212 33.08452145400525 1.19130186032085 0 0 0
60 1 9.668366013519654 16.134140321901278 0.04560380721358129 0 0 0
128 1 4.374915466623726 36.908333756466675 1.3424402275580474 0 0 0
458 1 0.23759419132639753 22.346482160418944 16.015431944644977 0 0 0
136 1 11.48046602705867 36.90078999299134 1.6039071006097605 0 0 0
289 1 -0.01802615142215784 25.681177046353657 6.4124865655000525 0 0 0
144 1 17.517143798661994 36.68017508603298 1.7583594963424642 0 0 0
338 1 0.0818124845068755 41.477414171792724 9.719368071873149 0 0 0
149 1 1.166718784676719 39.78221452466146 1.667851728532851 0 0 0
157 1 7.915066033404507 39.8237216266341 1.321268468170387 0 0 0
154 1 6.463035112783811 41.65611975965235 2.987089669388942 0 0 0
385 1 0.20141758810948956 50.77121921448662 12.724504175676655 0 -1 0
165 1 14.17517538432467 40.20470594386378 1.4961068322394957 0 0 0
26 1 0.15050021628677068 9.108004776564123 3.2286762956964568 0 0 0
152 1 4.534352737075221 43.05424806111187 1.7669942497334037 0 0 0
160 1 10.708430951534224 43.33479291423476 1.1389361068809296 0 0 0
905 1 12.965732522797328 31.868006829933947 25.18751352732103 0 0 0
168 1 16.732530588798735 43.70082496335174 1.5888630764709792 0 0 0
187 1 15.363072294992694 45.07854188697195 3.259002148536338 0 0 0
44 1 15.799148137437738 9.562742780847959 0.17947343842705787 0 0 0
173 1 1.3659643508165789 46.25190401501359 1.7569022346416552 0 0 0
122 1 0.03440831583838158 35.124776012294845 3.219548452091596 0 0 0
181 1 7.809721362023256 46.600148382834384 1.6240392899776608 0 0 0
52 1 2.793501476160069 16.254948899667756 0.032991224241153166 0 0 0
189 1 13.845286330543084 46.19878396624277 1.3531169829958276 0 0 0
362 1 0.03254621315964212 47.91237012053791 9.834209748397447 0 0 0
176 1 4.8987471972772365 49.54327988916807 1.3144711217980034 0 0 0
1610 1 18.57570631142739 21.870572804841228 3.4074355530420917 0 0 0
184 1 11.163909895555935 49.6058913169431 1.7610789814620555 0 0 0
192 1 17.08939052566992 49.467848415107476 1.650297201141818 0 0 0
146 1 -0.06865041353093913 41.75277916998261 3.115752286599847 0 0 0
7 1 4.494311221339424 1.5804043210451213 5.014779729141637 0 0 0
11 1 9.280981367857505 0.07600913780869381 2.8708440013247367 0 0 0
15 1 10.682866518632647 1.6960811690922624 4.81824795736299 0 0 0
23 1 17.336130317346658 1.641379837259264 5.051924233953736 0 0 0
6 1 1.3120589654611559 5.0382707859338645 5.0436372172345125 0 0 0
14 1 7.60335304690571 4.663844914497498 4.779857511304758 0 0 0
204 1 8.969571250664414 2.916847357115607 6.4518717004060635 0 0 0
18 1 12.699780895064842 3.170403980400576 3.246317192774394 0 0 0
22 1 14.074446644244892 4.737338342575134 4.978237178929936 0 0 0
27 1 3.283689028369982 6.205557946933559 3.315607957311628 0 0 0
31 1 5.093739223496213 7.978140257616294 4.428984758912596 0 0 0
225 1 6.095015069759424 6.367646528979167 6.339940306387057 0 0 0
39 1 10.903202512739709 7.654267289728765 5.090649941350787 0 0 0
233 1 12.638121504564424 6.223810634984422 6.843992670026984 0 0 0
43 1 15.781774596464297 6.12073596164668 3.026660369370544 0 0 0
47 1 17.4998125090677 7.8890575559446985 4.225998676767903 0 0 0
30 1 1.808726683738532 10.730219773990578 4.789170483831116 0 0 0
34 1 6.601878007567072 9.546648414241947 2.825712967933094 0 0 0
38 1 8.001440038123043 11.086191802465631 4.779783684419714 0 0 0
42 1 12.518259599716446 9.244758589084082 3.500715911850219 0 0 0
46 1 14.344582241594239 11.12808100147965 4.200140705865538 0 0 0
51 1 3.071885556295752 12.61867731214407 3.2396627176815707 0 0 0
55 1 4.975078923130863 14.134945838470786 4.798622512197352 0 0 0
249 1 6.559779417249393 12.57193636375117 6.651624888458754 0 0 0
63 1 11.192854576514826 14.228447991635516 4.927851440934052 0 0 0
257 1 12.940295380635717 12.748992965124744 6.430552220296375 0 0 0
67 1 15.797792337611693 12.945699051102025 2.8160606006891564 0 0 0
71 1 17.512772020841126 14.151271806322953 4.473525025975331 0 0 0
54 1 1.8378402363892943 17.74814719664266 4.861702225014851 0 0 0
244 1 3.4240025085306507 15.692461851494473 6.506998454818386 0 0 0
62 1 7.699619343798547 17.536060605724817 5.036118967673999 0 0 0
252 1 9.471634479277846 15.933804527062787 6.487659499570791 0 0 0
70 1 14.184600075268653 17.102105078344582 4.9319941434963575 0 0 0
172 1 2.877986974622073 47.6764457252327 0.1275989197402634 0 0 0
79 1 4.7203110721290615 20.814243336756707 4.797323231982724 0 0 0
273 1 6.27724494901888 18.993310142769516 6.697072322755827 0 0 0
281 1 12.286666772231596 18.91872875186309 6.23507641190119 0 0 0
95 1 17.12905992422435 20.106976834717166 5.077449118641143 0 0 0
153 1 6.167074051490217 38.32483985269422 -0.0007315528727247084 0 0 0
78 1 1.7588074306511434 24.213184532870358 4.362055970369181 0 0 0
82 1 6.28516998641624 22.261856662466712 2.9839610336928644 0 0 0
86 1 7.786866592989677 23.96950126444306 4.849752060373342 0 0 0
276 1 9.366609093404456 22.10028321865426 6.0906979782499056 0 0 0
87 1 11.141151690155647 20.63797096347087 4.513774326526577 0 0 0
94 1 14.2703663212043 23.782389748859643 4.690839400921435 0 0 0
284 1 15.584627256290235 22.1102730229811 6.24064899847086 0 0 0
758 1 7.632509076067385 49.296298374144584 24.165822207979417 0 0 0
297 1 6.0389358342688135 25.139637657146473 6.676038626744754 0 0 0
305 1 12.722791583297163 25.22543086380205 6.292472215167043 0 0 0
750 1 1.545850098700207 49.36724845817489 24.052429208630894 0 0 0
292 1 3.27600374064963 28.850247055724722 5.940950953803783 0 0 0
103 1 5.275275972879882 27.185204308979642 4.951095024569497 0 0 0
111 1 11.24796056510205 26.95655566712128 4.6739333703686095 0 0 0
114 1 12.837753991274829 28.655398577595165 3.2161412619899443 0 0 0
308 1 15.69778577522956 28.683592502550816 6.25539944177339 0 0 0
119 1 16.98775159442599 27.06865916778569 4.503083301676817 0 0 0
102 1 1.5916165752894458 30.391619241711116 4.620778310642409 0 0 0
12 1 9.132224815251275 3.630236484832282 0.4227229181414385 0 0 0
321 1 6.778110818402968 32.215157726802346 5.9967693929634684 0 0 0
110 1 7.931573928352872 30.15206582316216 4.5132067241924405 0 0 0
131 1 9.356793159701057 31.655319615449176 2.7249467022742184 0 0 0
118 1 14.157304598943643 30.204817649817503 4.910497541901654 0 0 0
127 1 4.752169923998639 33.64903206092428 4.657274504681323 0 0 0
130 1 6.04556168578262 35.08567671335568 2.6654413209649173 0 0 0
138 1 13.051242225481733 34.72422130988118 2.8374860438841494 0 0 0
135 1 11.125187080311953 33.18455483587802 4.389668169517663 0 0 0
143 1 17.528002408070233 33.308556639687154 4.419544396199787 0 0 0
126 1 1.6268829769469517 36.70387758211239 4.9651645999572676 0 0 0
147 1 2.9762167047301618 38.4308113327859 3.3920162490842287 0 0 0
134 1 7.367450744065949 36.65340150828185 4.354968961259972 0 0 0
155 1 9.432403283217328 38.00045825033613 3.006718455719255 0 0 0
163 1 15.427267247809706 38.154490294070165 3.039638863463785 0 0 0
142 1 14.3664116638852 36.372586158408865 4.546318044151074 0 0 0
353 1 12.316749895369076 38.30812955843207 5.7770824298770265 0 0 0
151 1 4.652981591389852 40.27538973418373 4.914967328799167 0 0 0
340 1 2.98409570972229 41.603755660329455 6.45372870623643 0 0 0
159 1 10.72672536399897 40.0413995580324 4.391151889177146 0 0 0
162 1 12.24686478550856 41.64829230946802 2.7060980952882736 0 0 0
167 1 17.246669991664216 40.0039509004977 4.366895536219099 0 0 0
356 1 15.605248318398585 41.404672895867456 6.116650558243641 0 0 0
150 1 1.4052296154663517 43.30986315898849 5.00152500626177 0 0 0
171 1 3.215359345423202 44.683070442667876 3.371827826473538 0 0 0
369 1 6.459893188448933 44.95150771122299 6.543282906412678 0 0 0
158 1 7.8202660683625504 43.35888043432265 4.691938358955974 0 0 0
179 1 9.68057738854874 44.97418484177875 3.0676671160880127 0 0 0
166 1 13.69870872244206 42.97056128486885 4.673838690861529 0 0 0
175 1 4.820534150336189 46.41736612492058 4.979620448659077 0 0 0
178 1 6.3024483247321195 48.04082938519825 3.436271861208758 0 0 0
183 1 11.318123059607315 46.647237198285545 4.658627321531379 0 0 0
186 1 12.871655176309977 47.99457000988408 3.0508839579571507 0 0 0
191 1 17.29922680120937 46.4741951167512 4.67565292904818 0 0 0
174 1 1.400893056166298 49.79004913890058 4.8888076249037375 0 0 0
3 1 3.179618575372849 -0.08783344593469793 3.074832730822636 0 0 0
182 1 8.147699276985545 49.82477285140372 4.760964605967024 0 0 0
190 1 14.14604708191312 49.68428836923262 4.891763019039513 0 0 0
19 1 15.921048734231455 0.06107174351929626 3.2961485686171113 0 0 0
197 1 1.600065425837221 1.7339994443128934 8.621108561240256 0 0 0
201 1 6.0519297036631965 0.06299753187428792 6.443465080696142 0 0 0
205 1 7.563971281331636 1.2052912556805113 8.364027805780621 0 0 0
209 1 12.360938631062844 0.2973325293971861 6.450806896094547 0 0 0
213 1 14.010974055712142 1.6240818527136378 8.306412947031731 0 0 0
767 1 17.71429351785753 46.612198225145754 23.906378652452652 0 0 0
211 1 15.731261515179098 0.1912991201960869 9.796536403362659 0 0 0
196 1 2.725110658346401 3.1481790217682786 6.665913255260473 0 0 0
200 1 4.592494514836653 4.653039287104805 7.965493021924326 0 0 0
208 1 10.779294056491626 4.769280246195967 7.895470940241428 0 0 0
212 1 15.821602733754775 3.1571082547777496 6.471755740279241 0 0 0
216 1 17.64575950222373 4.761654857076498 7.570913150625424 0 0 0
221 1 1.4972944910949553 8.349849702106162 7.963137488447776 0 0 0
229 1 7.999048407872154 7.887123733648589 8.036794211712674 0 0 0
227 1 9.355792143135105 6.153611262613784 9.747675149363126 0 0 0
237 1 14.575905697236799 8.041589064355554 7.546259231033626 0 0 0
220 1 3.4665265437893273 9.273266754304396 6.437878850181421 0 0 0
224 1 4.6829530252585005 11.168052908404974 7.957961448155228 0 0 0
226 1 6.249037572043982 9.450220921201568 9.755155016523414 0 0 0
228 1 9.553655368263659 9.703739336130386 6.622496562838799 0 0 0
232 1 11.125075891037975 11.240834548571526 7.964732084888125 0 0 0
234 1 12.67322228882905 9.39322206809797 9.41991633297375 0 0 0
236 1 16.19043166080153 9.495053981376982 5.989617803272841 0 0 0
240 1 17.72531172767804 10.768778585568239 7.885712705298291 0 0 0
245 1 1.4582454436833865 14.327141146585744 7.773845913183138 0 0 0
796 1 2.9754234845600984 9.701436746104317 25.269453931021875 0 0 0
253 1 8.233754601626178 14.412161616420242 8.190829956423475 0 0 0
251 1 9.31935055978713 12.47600063624734 9.849904238548081 0 0 0
261 1 14.40569245301651 14.138647009883405 8.17163403569165 0 0 0
259 1 15.93104622148709 12.083356311451285 9.4292227961364 0 0 0
248 1 4.77096560917084 17.310022066625223 8.164693771275093 0 0 0
250 1 6.7854559847777765 15.911605924588937 9.956499209453526 0 0 0
256 1 11.130913809922472 17.776784957107655 8.229772250303045 0 0 0
258 1 12.472149777228788 15.674209894906229 9.880938302751435 0 0 0
260 1 15.954545297705252 15.49281737392986 6.340501686917272 0 0 0
264 1 17.397565773320604 17.431096978807428 7.811990116199178 0 0 0
269 1 1.4305027788290443 20.82366390940544 7.654876246337967 0 0 0
277 1 7.4662650255782195 21.03869420941512 8.071714750417133 0 0 0
275 1 9.24508852104512 19.44248614186972 9.621195898590031 0 0 0
285 1 13.850674752494093 20.531479559520317 7.8075104482818345 0 0 0
283 1 15.332301745779208 18.74705784841692 9.35102732661844 0 0 0
268 1 2.9255373658480486 22.463868169464074 6.136846515484302 0 0 0
274 1 5.982325452463114 22.392941865428583 9.686128793878728 0 0 0
280 1 11.165327513170489 23.806684693043216 7.90561409897256 0 0 0
282 1 12.410510262615112 21.84638951954993 9.42309873433397 0 0 0
288 1 17.19078066837001 23.62922149263851 7.800590740404368 0 0 0
272 1 4.3070463187459636 23.826743570312782 8.110560519230667 0 0 0
291 1 2.7420518309580393 25.77760182749638 9.695159550572342 0 0 0
299 1 9.567232464454642 25.132261601850747 9.589936397557778 0 0 0
307 1 15.664208430036076 25.473446404584212 9.33441603949288 0 0 0
293 1 1.4393101708068359 27.416904842958004 7.741354478178038 0 0 0
298 1 6.257064750678367 28.26754287135145 9.123437249112953 0 0 0
300 1 9.334024193004783 28.429767031179875 6.218020156658048 0 0 0
301 1 8.065764684877445 26.537734815506727 7.740109846154022 0 0 0
304 1 11.158311263646013 30.0205124839074 7.680763745629293 0 0 0
306 1 12.841392483406263 28.487834665316683 9.378261862318144 0 0 0
309 1 14.200411920516338 27.054898474272093 7.545212080918076 0 0 0
315 1 3.257864883958904 31.862740007407183 8.979427513956885 0 0 0
296 1 4.932481349132859 30.393934313818313 7.526334777531666 0 0 0
325 1 8.136839099052779 33.63657962728218 7.585194479334258 0 0 0
329 1 12.483734539622944 31.872533664094554 6.18827908485456 0 0 0
312 1 17.457513301521033 30.14201134592847 7.857400727820069 0 0 0
331 1 15.864335376182348 31.895181433611704 9.329202017891594 0 0 0
317 1 1.5493237782252618 33.48903729861915 7.553146142414174 0 0 0
873 1 6.0624785002555495 25.342065784538377 25.218687224958735 0 0 0
316 1 3.1361692434640265 35.18915018935305 6.321699626063078 0 0 0
324 1 9.58398463096573 35.088279387112586 5.571730190073226 0 0 0
333 1 14.00124521633159 33.377571943667945 7.67110287596479 0 0 0
332 1 16.17174985556443 34.792043249532426 6.382505163579576 0 0 0
320 1 4.625249105418579 36.50641316504945 8.07917974009863 0 0 0
345 1 6.249474422723233 38.32741395670011 6.34238048423865 0 0 0
328 1 10.792477631220862 36.65128270549474 7.350272914090368 0 0 0
347 1 9.419850454924195 38.49079559577455 9.474782173659083 0 0 0
336 1 17.619425479371078 36.91581180166524 7.554757297350992 0 0 0
341 1 1.816136611136991 40.01861669347349 8.065757604608194 0 0 0
346 1 6.0475671278135 41.644362898613934 9.452222039068639 0 0 0
349 1 7.536518615269591 40.03893637991058 8.03867107317382 0 0 0
348 1 9.166842085287938 41.61297695340157 6.369908031486538 0 0 0
357 1 13.64108032325995 39.820569196878594 7.605775515162431 0 0 0
354 1 12.700276808926757 41.7393311519696 9.500644928192239 0 0 0
344 1 4.7327149177395285 43.13662101050088 7.569581991656387 0 0 0
371 1 9.605565755576214 44.70925750388936 9.485895894945182 0 0 0
352 1 11.050841840700429 43.04618293413068 7.853519198402001 0 0 0
377 1 12.526485021653508 44.91392348957802 6.3666220341821855 0 0 0
360 1 17.17405404876825 43.06908240333572 7.910450478844265 0 0 0
365 1 1.7724008746764048 46.50396203944001 8.14590039638118 0 0 0
364 1 3.2632723830709747 48.048110971671704 6.31231138572876 0 0 0
373 1 8.03285952223682 46.64974960571445 7.773710778708147 0 0 0
370 1 6.440366614499348 47.938910296246895 9.681393159601342 0 0 0
381 1 14.086197489057042 46.552274611282186 8.080265151169826 0 0 0
380 1 15.543472653254128 47.85447571582834 6.12368335349715 0 0 0
368 1 4.910097016100915 49.50831775231433 8.328922610069116 0 0 0
372 1 9.503080219019022 48.212543016602105 6.298353098636666 0 0 0
376 1 10.91490540274573 49.67074311050485 8.003576638766164 0 0 0
384 1 16.852825262997577 49.50625404317266 7.701890687179969 0 0 0
649 1 0.041316374846857684 19.42580906328728 19.163076072666478 0 0 0
195 1 3.4709550714413777 0.06281682451886894 10.041677309974258 0 0 0
199 1 4.756481011403047 1.6593490963116257 11.54114592876027 0 0 0
202 1 6.26248003139773 3.285442637863135 10.043323361467397 0 0 0
207 1 10.902388293512892 1.876054736994771 10.99388695257291 0 0 0
215 1 17.455023146620935 1.8619975838041682 11.082824678016301 0 0 0
198 1 1.4501166968733399 5.0181728633732 11.43246317961559 0 0 0
388 1 3.04910079502316 3.0550780493123773 13.241793524831303 0 0 0
206 1 8.295742035549537 4.539544193681805 11.673249229924647 0 0 0
210 1 12.693296700230608 3.4761072979715344 9.421403149028366 0 0 0
214 1 14.282322237655551 4.869340451334466 11.362270988678073 0 0 0
849 1 6.326085406335975 19.002215470894427 25.30889258684176 0 0 0
219 1 2.7106588538884306 6.446477509190363 9.52030925282122 0 0 0
223 1 4.39388426503856 8.09418253472461 11.208548593577305 0 0 0
231 1 11.097319103372238 7.710256296319902 11.407952528437187 0 0 0
235 1 15.948030777497014 6.322958901821637 9.05741923841378 0 0 0
239 1 17.56619347311118 7.700543601531429 10.801885800309904 0 0 0
222 1 1.4984232387397796 11.106404984682529 11.421558678162056 0 0 0
230 1 7.8337304307901725 10.839083197892679 11.370245871767537 0 0 0
420 1 9.41197675328698 9.232877064773684 13.068668919370245 0 0 0
238 1 14.290151659350135 10.81838938865173 10.874953567690591 0 0 0
428 1 15.865602035013062 9.264328537411453 12.784824939822771 0 0 0
243 1 3.120557487142669 12.91882502912199 9.407842545573775 0 0 0
247 1 4.741539546842207 14.456234586011819 11.116721002493742 0 0 0
255 1 10.890933194305592 14.03660181328332 11.531036371930814 0 0 0
449 1 12.818941096438902 12.307404306685388 12.787224402194715 0 0 0
263 1 17.510810684680497 14.038979762139471 11.027742904390143 0 0 0
246 1 1.3511737574812535 17.374408497417672 10.878531867964133 0 0 0
436 1 2.62930725761059 15.930289455659658 12.777913811360868 0 0 0
254 1 8.029223364651966 17.6182440614616 11.247132386855819 0 0 0
444 1 9.33436376689296 15.6503931634349 12.721745325416805 0 0 0
262 1 14.152856890227975 17.412629206280755 11.261501247169232 0 0 0
452 1 16.04974048278747 15.639452802228154 12.714730784935922 0 0 0
267 1 2.9945254244967856 18.89463919858694 9.08521196152496 0 0 0
271 1 4.412192330030701 20.586434673093656 10.949171040670464 0 0 0
465 1 6.078918920186313 19.07989019409568 12.559122567766726 0 0 0
279 1 10.917530469083339 20.63578682682793 11.187435504280735 0 0 0
473 1 12.394601443120061 18.881886597571278 12.822993843650215 0 0 0
287 1 17.32184730394103 20.46614798708513 10.725396893891286 0 0 0
468 1 9.191447267578093 22.063341094401185 12.827824487369377 0 0 0
476 1 15.635613630371143 22.01849932152311 12.686478231806186 0 0 0
270 1 1.2398247189011533 24.05303215556941 11.266735541625499 0 0 0
278 1 7.8529367186231775 23.83685801250747 11.179752583129767 0 0 0
489 1 6.140644864708003 25.631984970673354 12.574606292084004 0 0 0
497 1 12.655484849653135 25.211160741455053 12.407517147534486 0 0 0
286 1 14.072273345328707 23.477249169048253 10.891103118446527 0 0 0
484 1 2.8079386677978984 29.039473028176975 12.518428259669243 0 0 0
295 1 4.653650215472463 27.229485699780298 10.997840535948798 0 0 0
492 1 9.523303995983863 28.725337197987695 12.514706431893899 0 0 0
303 1 11.171193709846149 26.9050856919994 10.985855775579946 0 0 0
500 1 16.022814910747922 28.904907769925977 12.689210053633268 0 0 0
311 1 17.54205325693174 27.312578569920177 10.963744269380662 0 0 0
956 1 15.8404832798908 47.6715133569133 25.334541063020513 0 0 0
294 1 1.5217735564935753 30.52082193255543 10.623290012839092 0 0 0
302 1 7.886661604374819 30.01051816909756 10.769434456200942 0 0 0
323 1 9.722573113832068 31.804763679278285 9.390642165445735 0 0 0
310 1 14.560078425566324 30.191369298079202 11.064737772958832 0 0 0
319 1 4.623275259145528 33.29335395300853 11.014096305321935 0 0 0
322 1 6.508717620504732 34.962822898269685 9.47488744538082 0 0 0
330 1 12.512353821839662 35.14961639451588 9.205759599184583 0 0 0
327 1 11.083381443231305 33.48914072380877 10.952173371943632 0 0 0
524 1 15.825361263518475 35.307631928689 12.15973324458961 0 0 0
335 1 17.709163216430333 33.56325968228565 10.750017606641944 0 0 0
50 1 -0.07845840818976058 16.480404446560392 3.266396789670223 0 0 0
318 1 1.3858610657122787 36.77445313244752 11.027804798436497 0 0 0
339 1 3.072245606116546 38.13988961209061 9.62530405853467 0 0 0
326 1 7.959757885085706 36.55524189032842 10.888945388679117 0 0 0
355 1 15.959176335521853 38.459580775249385 8.9639113445728 0 0 0
334 1 14.14208610856771 37.04905747452068 10.609529872104462 0 0 0
343 1 4.750080357702398 39.510012343253926 11.109378457694206 0 0 0
540 1 9.0401977298338 41.66203102883166 12.343217749043829 0 0 0
351 1 11.279033285384426 40.432727701045 11.404080895330388 0 0 0
359 1 16.991523480728993 39.91315913863142 11.153046696439503 0 0 0
361 1 -0.012253569953617871 45.05685503260627 6.608576422828834 0 0 0
342 1 1.7101764541111566 43.11964659550708 11.149458273222372 0 0 0
363 1 3.2648773850847377 44.67350377432439 9.335867027133574 0 0 0
350 1 7.787934677819059 43.26290354842197 10.765091958627485 0 0 0
358 1 14.002464703853862 43.379444834335665 11.299872870991658 0 0 0
569 1 12.547575000333635 44.788475378943296 13.172238809713432 0 0 0
379 1 15.753423693558025 44.854526005648076 9.563844820773436 0 0 0
367 1 4.585602566974981 46.35897497512901 11.094012092669947 0 0 0
556 1 3.140330048818722 47.537838813028934 12.915932821230069 0 0 0
375 1 11.25130199226221 46.26320188007882 11.161722435489606 0 0 0
383 1 17.50063109177971 46.43537629110645 11.14746185621173 0 0 0
844 1 3.3691880466327326 22.158299318481376 25.304218039657552 0 0 0
366 1 1.687043549498883 49.38727329785658 11.301876624718478 0 0 0
203 1 9.4512446630765 50.90440208760031 9.720851630306134 0 -1 0
374 1 8.023125490600716 49.204703029059054 11.538337193909326 0 0 0
378 1 12.451984047190022 48.04972530247319 9.493619866692258 0 0 0
382 1 13.972088770071739 49.62315356014741 11.315410139479438 0 0 0
389 1 1.5104961818971707 1.204684918623557 14.467237663898043 0 0 0
387 1 3.1662979621546232 50.85974773637489 16.078781054588806 0 -1 0
397 1 7.717830943610238 1.56393064562122 14.82195659621865 0 0 0
395 1 9.411576185462602 50.849996803720416 16.08266108170734 0 -1 0
405 1 14.131145266257805 1.7931812795462996 14.501387335323713 0 0 0
392 1 4.715426086431044 4.775738597444808 14.9163344188207 0 0 0
394 1 5.971865131064742 2.6891721194245615 16.489148527176194 0 0 0
396 1 9.915524348027287 3.0679837735689626 13.221664373028942 0 0 0
400 1 11.075035539589114 5.11286245700969 14.67504310097376 0 0 0
404 1 15.715280304703816 3.062361202171262 12.728382028212115 0 0 0
408 1 17.296016936486645 4.9366472665655845 14.059988569776435 0 0 0
413 1 1.2207004033216826 7.830581917606543 14.53736427608517 0 0 0
417 1 5.945163157216934 6.139335311100358 12.788864686327479 0 0 0
421 1 7.364812902869649 7.881274751905005 14.29577856862848 0 0 0
425 1 12.698723034285027 6.327866646646366 13.025123919190284 0 0 0
429 1 14.51840872110221 7.883806482600856 14.648995137281464 0 0 0
105 1 6.712948405530418 24.875555986973254 -0.05680844433453939 0 0 0
412 1 3.0725173454872743 9.554366810475443 13.079170508261935 0 0 0
416 1 4.609247718073125 11.621465908510102 14.22022630367348 0 0 0
418 1 6.338308637161128 9.748155262056653 15.801114237668777 0 0 0
424 1 11.013046139448077 10.92902688724656 14.166480276920028 0 0 0
426 1 12.557367792878319 9.300200939933285 15.823407429675415 0 0 0
432 1 17.451179289927648 10.962079564740886 14.281053099636207 0 0 0
437 1 0.8347324697389427 14.368589782502255 14.170076684962632 0 0 0
441 1 6.478456317952356 13.010525515459399 12.711928101276774 0 0 0
445 1 7.872021853102363 14.403015320212173 14.472863022749797 0 0 0
443 1 9.804112852699085 12.606481535938624 15.759435477028601 0 0 0
453 1 14.44671870306484 13.881430481949039 14.432751657123655 0 0 0
762 1 12.527065966815591 48.020279203110995 22.22194536189518 0 0 0
440 1 4.469998815600459 17.338212309119143 14.403771890417776 0 0 0
442 1 6.214382034386307 16.011954446031474 15.873786605486433 0 0 0
448 1 10.922974192033227 17.045145946644908 14.493831538702194 0 0 0
450 1 12.611196478079513 15.40179109606004 15.617720179959425 0 0 0
456 1 17.226456124408926 17.286665022231944 14.427435236399008 0 0 0
461 1 1.763917629663208 20.84254013852711 14.424046014894921 0 0 0
469 1 7.389149593069759 20.680789026426204 14.355816147631977 0 0 0
467 1 9.130139416451314 19.291125609753195 15.733974131384622 0 0 0
475 1 15.709576244228927 18.880048223124057 16.194374206061916 0 0 0
868 1 3.0924619778677265 28.724696048418878 25.352532192240563 0 0 0
897 1 6.112120780068971 31.59885035124112 25.118315331950527 0 0 0
460 1 3.4520858797157343 22.5102140868435 12.580614741275795 0 0 0
466 1 6.190177753448468 22.485438515833117 15.755516369345061 0 0 0
472 1 10.804286962646437 23.841757488798336 14.155820390289104 0 0 0
477 1 13.944098786687304 20.591938775098374 14.57774558340279 0 0 0
474 1 12.039027294002997 22.235304200739602 15.965724270013983 0 0 0
464 1 4.617870613760808 24.306311781956317 14.088470005250782 0 0 0
491 1 9.519038854147087 25.75052364036513 15.396170117498821 0 0 0
480 1 17.032040554878062 23.722043628398357 13.839585891670856 0 0 0
386 1 -0.08383879805022332 2.8665808894991898 15.908306989559474 0 0 0
485 1 1.4580958032793094 27.43950109306382 13.819367486181449 0 0 0
488 1 4.372367202350148 30.33952857209228 14.075926305578077 0 0 0
493 1 7.569844059049254 27.127555728048613 14.24213724806471 0 0 0
498 1 12.731709354516646 28.80457357187999 15.542445805105467 0 0 0
501 1 14.524156199621189 27.315996464173008 14.076580790519527 0 0 0
507 1 2.876039325060822 31.949009649852854 15.850345524422163 0 0 0
513 1 6.219740470475451 31.690392630769605 12.561823857958776 0 0 0
496 1 11.234946353255454 30.33388819381563 13.948843455576803 0 0 0
521 1 12.806359580052275 32.05590998580672 12.33169243990747 0 0 0
504 1 17.263985429768265 30.522574443355257 14.215088745616303 0 0 0
481 1 -0.07528239393508329 25.478627045574143 12.846983080434041 0 0 0
509 1 1.3084592794376146 33.61553661180504 14.232152628684064 0 0 0
508 1 2.9533777165536996 35.02792885667136 12.603461244343482 0 0 0
517 1 7.635037465133131 33.31910482077441 14.047773273201534 0 0 0
516 1 9.502693551389438 34.949727142722764 12.706405700733427 0 0 0