LAMMPS data file via write_data, version 29 Oct 2020, timestep = 100000

8537 atoms
1 atom types

-0.25366366877013036 104.73628571269768 xlo xhi
-0.2598001533347727 51.36834239481381 ylo yhi
-0.2598001533347727 51.36834239481381 zlo zhi

Masses

1 18.015

Atoms # atomic

2062 1 2.630006394285693 1.2896208532570583 3.338410108054253 0 0 1
1795 1 0.016860220058258768 1.153382193753636 0.16714520518527098 0 0 1
2056 1 4.615224989541722 0.18675959214187854 1.7439962991520268 0 1 1
2057 1 6.317815093453799 2.2229976663053295 0.338367609638657 0 0 1
2058 1 10.947461186514447 0.044485666589199835 1.8267995372063477 0 1 1
2065 1 15.452503518650499 1.729856391034361 3.1604637617834124 0 0 1
2060 1 17.04244470710544 -0.08539981866652899 1.679529023615763 0 1 1
2341 1 21.79259708129384 1.9263347682872878 3.3727361198855785 0 0 1
2719 1 23.465731852592764 0.20165095503164776 1.5527761405229632 0 1 1
2720 1 28.097682088144467 0.7947147950087956 3.0415068259138183 0 0 1
2641 1 31.63923903870643 0.9230892884074007 0.2562137099265357 0 0 1
1966 1 1.2853726194377917 3.3713793243618526 1.8713850427534258 0 0 1
1874 1 3.0237654315875773 4.962986581252936 0.4335333885825915 0 0 1
1967 1 7.680741246256799 3.8388462242031576 1.901163537479627 0 0 1
1968 1 14.0235288472252 3.619562595105734 1.6494863838206886 0 0 1
1878 1 15.748234082446697 4.926878927201306 0.24063714510906364 0 0 1
2637 1 20.053890803705954 3.739442798691539 1.8525431498933114 0 0 1
2638 1 26.874556908239377 3.084500785890641 1.5491640149328016 0 0 1
2727 1 25.374984360291652 4.6861889437869415 3.092831576669784 0 0 1
2639 1 31.294063783195302 4.777521170220907 3.2892861214194284 0 0 1
2640 1 32.942264793601936 3.038854286306148 1.9448182730917964 0 0 1
2568 1 34.5507947977423 4.86110485068766 0.8872199287596423 0 0 1
2073 1 2.874792704259295 8.448205387189107 3.3664818789326185 0 0 1
1969 1 4.718823446772718 6.802928526498303 1.7832526846099443 0 0 1
2076 1 8.841781743945196 8.122833440154206 3.2652319358460207 0 0 1
1970 1 10.66250313380387 6.765800728281244 1.5673971960699982 0 0 1
1972 1 17.03636011646353 6.728249951110215 1.8027812147947349 0 0 1
2647 1 22.021041295133408 8.11845480145891 3.3393041099220064 0 0 1
2643 1 23.549288739985464 6.32665729241891 1.6861450475899864 0 0 1
2649 1 28.171263559965382 7.973708848686547 3.1641269881531517 0 0 1
2645 1 29.875496489102833 6.38824003305687 1.6039812860202738 0 0 1
1973 1 1.0376170467397718 9.909270099343024 1.7586189382941648 0 0 1
1978 1 2.8042435270200925 11.328632899361073 0.4198277886374985 0 0 1
1975 1 7.212199535750722 9.828767223714769 1.7334860765207127 0 0 1
1981 1 9.0972506245316 11.339857534002475 0.34572869596003486 0 0 1
2083 1 12.353732419658614 10.956198226941165 3.2581627067447974 0 0 1
1977 1 14.096139830846967 9.618771009107771 1.6211703300095215 0 0 1
2140 1 18.488664116686333 11.3114704201082 3.2653187625084046 0 0 1
2646 1 20.216673131487862 9.698423881807129 1.6198560229402272 0 0 1
2653 1 25.081806662179822 11.33377757117591 3.2586465117451238 0 0 1
2651 1 22.19521577945194 11.2220246384953 0.1926092177611487 0 0 1
2648 1 26.439355390771592 9.569331711960745 1.7661703328893212 0 0 1
2654 1 28.26266163372454 10.835428964261885 0.3033412212119837 0 0 1
2650 1 33.3715451287758 9.528914563073538 2.193614801398189 0 0 1
1979 1 4.4333547884599 13.233905914620024 1.9118188475928086 0 0 1
1982 1 10.651084630835694 13.090416419905008 1.930004547597846 0 0 1
1984 1 17.037755545969585 13.123196441040909 1.8701530802561068 0 0 1
2657 1 22.036846902855956 14.376290787133758 3.2867507497747996 0 0 1
2652 1 23.748634755061698 12.981299748556678 1.670443220458833 0 0 1
2655 1 29.824207588465 12.640711767365856 2.046493320442053 0 0 1
2660 1 31.621040531007505 14.29427977260654 0.39626450819981685 0 0 1
1985 1 0.7359796322852519 16.236564987575285 1.8190137694310184 0 0 1
1986 1 5.608228081376513 14.906718288084372 0.29132532964326574 0 0 1
1987 1 7.428329611260836 16.22509870353457 1.6164976083053584 0 0 1
1995 1 12.454258669520256 17.342786962070733 2.9578416294099967 0 0 1
1990 1 14.003390326080686 15.842201187642104 1.4003565578105583 0 0 1
1906 1 15.727481416710924 17.71183778731634 0.3320140665326756 0 0 1
2291 1 18.90495131279694 17.539054145010937 3.0371228033418696 0 0 1
2656 1 20.65905989930143 16.077491096232407 1.4145108361464465 0 0 1
2663 1 25.52280580947211 17.54018439872816 3.22804325875014 0 0 1
2658 1 26.74201714408626 15.94750270721902 1.3732734908922326 0 0 1
2586 1 28.43984362660473 17.617642423404934 0.18845487668153932 0 0 1
2661 1 33.0853291350132 16.02432528752781 1.7770408989626647 0 0 1
1901 1 2.742139349076497 18.081454975417152 0.3272632210510109 0 0 1
1993 1 4.3631926983585565 19.45714016528249 2.176234654258983 0 0 1
2000 1 9.13615496842445 20.723460811695112 2.9780673539821296 0 0 1
1994 1 10.950120497224601 19.17693717052429 1.7490124260852227 0 0 1
2002 1 16.027673191172685 20.77952604196727 2.9477863491124165 0 0 1
1996 1 17.86220903423004 19.373274372900852 1.6548637604384906 0 0 1
2662 1 23.82587348734618 19.22597303787802 1.7563108732880273 0 0 1
2664 1 30.051333682078848 19.30987650766186 1.8991908493994103 0 0 1
2594 1 31.8568196634804 20.48270767256367 0.25735881526088145 0 0 1
1997 1 0.9582865523165978 22.261184868529046 1.7952811034029157 0 0 1
1999 1 7.640416854644417 22.49465228689957 1.7610487210478967 0 0 1
1910 1 12.366289800152337 21.018210743115127 0.17222775439044424 0 0 1
2001 1 14.126613558991552 22.38184569228714 1.824366309470982 0 0 1
2108 1 12.519007403835035 23.961624781412706 3.2611245477210695 0 0 1
2504 1 18.890452779577743 23.86672395208947 3.221303604588056 0 0 1
2670 1 20.724773740595992 22.298097434060637 1.8009274805372164 0 0 1
2667 1 26.84171178379488 22.610385511409454 1.7948329764030948 0 0 1
2591 1 25.352112032014603 20.996507465196594 0.20684036561017227 0 0 1
2668 1 28.659733096796064 21.000788380372047 3.2629250199816924 0 0 1
2673 1 28.85824560658222 23.943405198924836 0.2568458177189502 0 0 1
2669 1 33.40737870467115 22.105886330991222 1.649023913929846 0 0 1
2007 1 4.490311498317748 25.480841475773634 1.7310140015063669 0 0 1
2005 1 10.763599970099316 25.625907340074512 1.933079984954241 0 0 1
2011 1 17.36410963126426 25.59719126329593 1.4386655557033359 0 0 1
2671 1 23.496073422382224 25.81063271643472 1.7132627854090445 0 0 1
2758 1 28.411349101951945 26.97042511152276 3.2826501888107105 0 0 1
2676 1 30.409810250295696 25.53561217279994 2.089666001529305 0 0 1
2012 1 1.4419188550703674 28.58274887938983 1.8441974777725738 0 0 1
2013 1 7.436536887440309 28.578487559899905 1.7926516960521708 0 0 1
2015 1 13.908758686783209 28.707824861011566 1.701090231038829 0 0 1
2010 1 15.647586326270083 27.209115412019017 3.067638245882008 0 0 1
2678 1 20.601810894900446 28.75034072939821 1.669880356673365 0 0 1
2680 1 26.798215636683953 28.690515235899714 1.9177762140922434 0 0 1
2675 1 25.26944673797074 27.375234779922714 0.39173598656201614 0 0 1
2600 1 31.881979536869245 27.074270565038088 0.5583721033279547 0 0 1
2677 1 33.42356327978006 28.669430483510997 2.1381473010884027 0 0 1
1923 1 2.814594333602081 30.37737962689825 0.28619493959477604 0 0 1
1419 1 -0.20863899332611038 30.411790839422896 3.3535105893749564 0 0 1
2019 1 4.563779898866098 32.0977083050632 1.5202628026844889 0 0 1
2117 1 6.004120112394197 30.595778106052872 3.241205998665326 0 0 1
2014 1 9.019164423781172 30.35023598287458 0.38542404395203356 0 0 1
2021 1 10.770052758591406 32.09572372579726 1.6432175001842928 0 0 1
2016 1 12.595297053971112 30.700175511930613 3.180820968907024 0 0 1
2023 1 17.40696492150652 31.85416205514484 1.7258832133989142 0 0 1
2017 1 15.937843794697542 30.24012572346078 0.2817206258681053 0 0 1
2228 1 19.08975903159777 30.201294148997125 3.238696030871613 0 0 1
2685 1 23.72584195190604 31.850054126977774 1.862017819592873 0 0 1
2679 1 22.398216050989156 30.371620663566674 0.26203900241738043 0 0 1
2686 1 29.71324551108598 31.678430013402537 1.9445429993919023 0 0 1
2681 1 28.408851539397677 30.120916984513293 0.19783554106789575 0 0 1
2682 1 31.730884624638446 30.678536576841196 3.3035263615673367 0 0 1
2024 1 1.074929913034668 35.48640704533407 1.8197751729305214 0 0 1
2006 1 -0.21385635880124798 33.68406947823647 0.2336058316657706 0 0 1
2026 1 7.6554603484083055 35.55789675772088 1.7651487026312607 0 0 1
2124 1 9.634580458298863 34.17129205416302 3.03128609238884 0 0 1
2028 1 14.044286865064018 35.02562145373188 1.5668896181841663 0 0 1
2022 1 15.68248154394023 33.40178850259746 3.303911245212307 0 0 1
2688 1 20.35149937076004 35.23651810331474 1.9540482187090813 0 0 1
2691 1 26.834299014622793 34.99985599816428 2.1377129032197066 0 0 1
2608 1 25.610657233601955 33.213998761285644 0.32149308723057357 0 0 1
2692 1 33.32110507749691 34.9899949108281 1.8724324818528801 0 0 1
2609 1 31.645259709474534 33.18680109577417 0.39523412313939754 0 0 1
2032 1 4.170594106668965 38.736177969373465 1.7189748962498168 0 0 1
2033 1 10.929557540212537 38.366308205317814 1.539945202173081 0 0 1
2128 1 12.817710005232776 36.99565056860187 3.102557668118527 0 0 1
2034 1 17.406580292958786 38.50636105161756 1.8932107576084682 0 0 1
2690 1 25.043718144767176 36.851909841107535 3.338898006770099 0 0 1
2695 1 23.543161235982332 38.06922753708072 1.591639430103608 0 0 1
2613 1 28.07295017924707 36.71761156490814 0.25149214519863783 0 0 1
2697 1 30.283476897416847 38.34343845524512 1.3953008634099704 0 0 1
2748 1 32.0531378509642 37.20025157072329 3.1498398028332613 0 0 1
2038 1 1.0644455469869027 41.77538884741302 1.7311911691845778 0 0 1
2039 1 7.331796715717385 41.58032056212478 1.5674999039265667 0 0 1
2107 1 8.96580905036053 40.03379295707063 3.2725324721036007 0 0 1
2041 1 13.868768985074505 41.60237717593 1.4943049243029312 0 0 1
2035 1 15.616961765741761 40.15239085779817 2.9984359782476213 0 0 1
2694 1 21.859872301781245 39.34578275833885 3.2485485995486343 0 0 1
2700 1 20.534066024102977 41.64603769841842 1.6123334239527518 0 0 1
2145 1 18.819272718439137 40.01020886118378 0.1967640454508474 0 0 1
2701 1 26.883909723092362 41.2713339375338 1.9270182060018102 0 0 1
2693 1 25.18454345983299 39.90243051377923 0.4935437360826771 0 0 1
2704 1 33.299807774188025 41.823558699366735 1.8671507174887823 0 0 1
1417 1 -0.23130201663080913 43.53514470679506 3.1971703834321574 0 0 1
2044 1 4.43260083879457 45.12523373925556 1.6654863151605148 0 0 1
2037 1 2.9044991436744425 43.24218696668069 0.2984671051149883 0 0 1
2109 1 6.111810805307068 43.54079972108841 3.3402504642086885 0 0 1
2105 1 12.368647141675469 43.4663329851828 3.0357901928715183 0 0 1
2040 1 9.204701734323123 43.46073129092213 0.34623086025056915 0 0 1
2048 1 17.248760597511183 44.68147033371873 1.587277953461689 0 0 1
1640 1 18.85580453406404 43.293220282109715 3.1102196113332936 0 0 1
2706 1 24.103368033036556 44.75635107677978 1.980453804267237 0 0 1
2709 1 29.80649177459374 45.12406622789881 1.8798664315032938 0 0 1
2702 1 28.377360404363944 43.411784792922276 0.19018895548912346 0 0 1
2049 1 1.675208893909419 47.902259814802875 1.957271004693368 0 0 1
2045 1 6.216273558440023 46.762679960982545 0.32910305666145756 0 0 1
2046 1 10.696566732243712 45.30926454299029 1.8342487198058919 0 0 1
2052 1 13.900864762305485 48.22505707820809 1.7450422826853553 0 0 1
1955 1 12.381081946967493 46.84386346793897 0.18432296944131848 0 0 1
1731 1 15.603590485235808 46.698384931315644 3.191213963062056 0 0 1
2712 1 20.468289452810996 48.25316127543865 1.922482714405775 0 0 1
2205 1 19.09898298422286 46.76661443048219 0.16392604237115882 0 0 1
2557 1 21.937157361460436 46.37677656333387 3.2008462702081806 0 0 1
2707 1 27.994534254597678 46.56891641376776 3.221805963203464 0 0 1
2713 1 26.544974405915085 47.95594304195188 1.3236771833724283 0 0 1
2708 1 31.232332705316285 46.73876958615928 0.42222176438085657 0 0 1
2716 1 33.30007059643094 48.0590502349966 1.9133664275103666 0 0 1
2132 1 18.70549456478947 1.8301082155791444 0.06801878026283598 0 0 1
1539 1 5.8721272504306485 49.56624635936026 3.0416491655603926 0 0 1
2055 1 3.4116812421422456 49.52970939942701 0.4786818318905125 0 0 1
2050 1 7.93489984834947 48.36500503251968 1.7536278674768364 0 0 1
2051 1 9.18904692551177 50.09751301981148 0.2765298403807961 0 0 1
1477 1 12.270246497926083 49.89881437805114 3.377081373292638 0 0 1
2053 1 15.385995188054256 49.94929058610352 0.3134843616167864 0 0 1
2150 1 18.712440718945025 50.00198122124596 3.2412863779318553 0 0 1
2711 1 21.780475963829403 50.08022734272487 0.42022644702483114 0 0 1
2434 1 24.97638526230812 49.69175648975392 3.1792217903228126 0 0 1
2721 1 30.025370100511843 50.932365367524525 1.472671919969984 0 0 1
2715 1 31.510340273895828 49.70101335115504 3.137345126279742 0 0 1
2136 1 5.8606719192387535 1.6860494392403778 6.1977861544000605 0 0 0
1415 1 9.27735783173055 2.076911183668021 3.5677403686974376 0 0 1
1410 1 14.197918572366785 -0.2032190187595857 5.05992279275733 0 1 1
2143 1 18.683917897015984 1.2502045835078102 6.5285566296996445 0 0 0
2242 1 25.199558881895896 1.8001764885421743 6.4166180424374115 0 0 0
2376 1 31.49461800398085 1.0100440329757459 6.183877184453108 0 0 0
2070 1 5.773959819305467 5.110083103961591 3.46725360566197 0 0 1
2063 1 4.260660412302058 3.1402990122835535 4.756545782718491 0 0 1
1836 1 3.1848938665934985 4.791099867968955 6.404722011141189 0 0 0
2064 1 10.357021675420746 4.075727619229945 5.156502703757217 0 0 1
2066 1 12.400998813223726 5.348961163940734 3.392548478568432 0 0 1
2123 1 18.367256787442415 5.24377858902433 3.603160902788716 0 0 1
2067 1 16.96552468693126 3.1478233130813065 4.949263781288783 0 0 1
2723 1 23.549587663535636 3.3564994602478078 5.024672829801758 0 0 1
2724 1 29.96846053586847 2.77494445702285 4.567816813043348 0 0 1
2736 1 28.61742935682954 4.562635452521125 6.399636598192126 0 0 0
2069 1 1.5866335678210557 6.266783892989916 4.790893978639582 0 0 1
2115 1 18.625759172600702 21.2099934648209 0.04400539731227204 0 0 1
2071 1 7.43533892273141 6.52221866640596 4.896264851597397 0 0 1
2078 1 15.32274192946795 8.25174483694328 3.5917122330128812 0 0 1
1899 1 12.401968447352978 8.12417702719323 6.45953616079229 0 0 0
2072 1 14.091665787513758 6.58599323440384 5.287473922163796 0 0 1
2726 1 20.366809402340657 6.465353147073635 4.952843236525904 0 0 1
2610 1 18.901961977378058 8.07940736689591 6.173288238020928 0 0 0
2728 1 26.758789600198664 6.083886341381652 4.8995724828974785 0 0 1
2729 1 33.046029980864596 6.400961899314112 5.058136286624902 0 0 1
1980 1 5.864714179075764 11.785204456330518 3.5665664267242168 0 0 1
2074 1 4.312122588607675 10.010345098467829 5.061029849620363 0 0 1
2077 1 10.617852785073248 9.681748090775109 4.741906470077797 0 0 1
2156 1 9.341097252171595 11.182715520685447 6.384178614504809 0 0 0
2079 1 16.923228381709354 9.723742068366764 4.944377144405033 0 0 1
2730 1 23.92276941588082 9.22695802861718 4.891407363605414 0 0 1
2768 1 22.1664104783542 10.971810311100388 6.357922313730203 0 0 0
2737 1 31.394830205991024 10.896406772281672 3.6272887985586353 0 0 1
2732 1 29.8380749617877 9.531816608114097 5.197812218104707 0 0 1
2087 1 2.4829695086823125 14.8718447774418 3.6476768356347526 0 0 1
2080 1 1.19204042149272 13.117508801570278 5.306441284770239 0 0 1
1988 1 9.081542332392733 14.835468925584028 3.43305177570347 0 0 1
2082 1 7.98930508024119 12.838705742598387 4.950795199053304 0 0 1
1470 1 6.128387323284428 14.74278382041877 6.228038489694321 0 0 0
1672 1 12.062815467900164 14.499305261718035 6.566260129431944 0 0 0
1991 1 14.98690138407923 14.123133942916322 3.4190721984685544 0 0 1
2085 1 13.681768533838346 12.68736599122175 5.128023062805251 0 0 1
2734 1 20.803195805000755 12.481644408725469 4.645707566410057 0 0 1
2471 1 19.170468391514202 14.093885296459142 6.385169546510795 0 0 0
2659 1 28.159738457806377 14.59968294965017 3.4383420476456696 0 0 1
2735 1 26.814681834344018 12.736912920406459 4.943503457082717 0 0 1
2770 1 25.361542705911816 14.314723764250983 6.522410238645716 0 0 0
2738 1 33.31674748678542 12.525617170813415 4.910250254642149 0 0 1
2095 1 5.990125300752684 17.677378737423503 3.5649767640653933 0 0 1
2089 1 4.29532543088811 16.4903674440436 5.101826342872503 0 0 1
2090 1 10.572308868555764 16.143893831994028 5.060035094711195 0 0 1
2092 1 17.341232607982985 15.782216954924056 4.762301338462721 0 0 1
2061 1 15.687382915750465 17.38398569012506 6.247539187053023 0 0 0
2739 1 23.73533353228081 15.973582331077779 4.780166715385911 0 0 1
2246 1 22.27561463103188 17.244532798655875 6.5469940232846024 0 0 0
2740 1 30.30512505853897 15.817983646954495 5.1923064733036535 0 0 1
2665 1 31.686633295850672 17.833330262744827 3.8039795685661364 0 0 1
1998 1 2.481871728307384 20.625330649316435 3.773591466214234 0 0 1
2093 1 0.5640634772111357 19.319628101148975 5.27775529045207 0 0 1
2096 1 7.798784273917688 19.23708070622048 4.794999052172734 0 0 1
1453 1 12.418259252090538 20.851707994683398 6.121192865783073 0 0 0
2098 1 14.300840898242695 19.11712538556597 4.754309941188705 0 0 1
2742 1 20.81751724555456 19.020780223085954 4.867300810834383 0 0 1
2666 1 22.457541303986567 20.83522349777687 3.4443369812373477 0 0 1
2744 1 27.296459301151053 19.024405230565876 4.756018137485039 0 0 1
2745 1 33.553139893646936 18.95074760867678 5.448141739694721 0 0 1
2004 1 5.819855156226194 23.915687273609255 3.455006719632263 0 0 1
2086 1 5.985752602070089 21.01922550834235 6.506450783681587 0 0 0
2099 1 3.8388049617900792 22.632398244114633 5.056373519725101 0 0 1
2102 1 10.758282219940329 22.406132961935125 4.693175131102354 0 0 1
2103 1 17.336669396196744 22.08723470742117 5.067983797131825 0 0 1
2747 1 23.686094994744607 22.711271814509725 5.242649313219524 0 0 1
2749 1 30.51917495804048 22.189755929600594 5.248442284340298 0 0 1
2674 1 32.07643608594767 23.704014433891572 3.3960080288432857 0 0 1
2111 1 0.8246303730945985 25.843672225503536 4.772237632657857 0 0 1
2159 1 2.7879606287873924 24.760865655051767 6.435936155619037 0 0 0
2112 1 3.050549261652325 26.957121974188293 3.5363111827074354 0 0 1
2106 1 8.02924415600444 25.11477684900113 4.98701475834405 0 0 1
2110 1 14.092695041388716 25.592350089182187 4.797106506645618 0 0 1
2155 1 15.600817711847501 24.135661300389504 6.561309483943007 0 0 0
2751 1 20.369691965180447 25.52188439029987 5.093442402061946 0 0 1
2672 1 25.109388570154053 24.33294526998935 3.521540295535258 0 0 1
2752 1 27.098674810840443 25.666834134854213 5.243733796012417 0 0 1
2754 1 33.553053690920116 25.442156218009746 4.9112314741307825 0 0 1
4910 1 34.65542904448055 14.342857870101605 3.1978215496156417 0 0 1
2116 1 4.610233444584252 28.5635432606508 5.291415221693906 0 0 1
2114 1 8.923574371504976 27.27734734809237 3.4747563495965657 0 0 1
2118 1 11.12544318391938 28.819377924300877 4.5434400917095745 0 0 1
1435 1 12.546991414321587 27.252700818958616 6.3549796452565 0 0 0
2120 1 17.34886431902273 28.74064658096922 4.775514561737124 0 0 1
2756 1 21.774282245730774 27.292253608302744 3.5650288108791215 0 0 1
1437 1 18.80358922765129 27.134572422740582 6.485739188478719 0 0 0
2757 1 23.887501555616765 28.67361860547031 4.808043858663064 0 0 1
2755 1 30.024367319228034 28.83240586620986 4.550413102013876 0 0 1
2199 1 31.835898605682935 27.27270369700902 6.049542681485718 0 0 0
2121 1 1.4453703940782383 32.128051251968586 4.881879981546173 0 0 1
1465 1 3.018922425509643 30.485088749524888 6.377778906157864 0 0 0
2122 1 7.963497763662737 32.04326117124222 4.200073533218485 0 0 1
1921 1 9.425862277904555 30.531047973207006 6.119799260357361 0 0 0
2125 1 13.973830796296218 32.2709006613022 4.937900940970531 0 0 1
1683 1 15.410329254838047 30.470257545016626 6.483464956198913 0 0 0
2750 1 20.52386305466047 31.46547744360078 5.261847509995687 0 0 1
2760 1 25.307756694539286 30.485062063067634 3.4107530040191913 0 0 1
2746 1 26.61589986537148 32.14227765701295 5.377465343232716 0 0 1
2212 1 28.37031333839481 30.38374215209158 6.491469536209675 0 0 0
2731 1 33.39644602024342 31.9846252871719 5.196757602418629 0 0 1
2158 1 -0.21731049021205026 33.855883652995935 6.278607313856307 0 0 0
2018 1 3.148111730959535 33.64581246210409 3.437316396058708 0 0 1
2127 1 4.643149063718855 35.36087803589621 5.1767652876775125 0 0 1
1880 1 6.561800664613634 33.46276439452552 6.0160302584305425 0 0 0
2129 1 11.293089153941382 35.70498571045244 4.782507153390655 0 0 1
1524 1 12.272724352001276 33.9439535683174 6.5564265484642155 0 0 0
2131 1 17.120265892335887 35.296162556573144 5.0893801712349065 0 0 1
2684 1 21.895982409383983 33.33461269921883 3.5392753925852127 0 0 1
2725 1 23.729598032525722 35.028525876454566 5.021827668633746 0 0 1
2687 1 28.31712196984982 33.38768286594277 3.627659888346208 0 0 1
2753 1 30.334609605156235 35.18161230789916 4.85877558023711 0 0 1
2126 1 1.029183065245505 38.45773863273458 4.7256147004791655 0 0 1
1478 1 2.766545897521825 37.02114670193989 6.493323068939288 0 0 0
2025 1 6.029336403802454 37.08695504414416 3.4331579773260623 0 0 1
2101 1 7.86922708855124 38.6981975515275 5.0783701823751555 0 0 1
2075 1 14.538377091624831 38.58363300436397 4.986268696517752 0 0 1
2135 1 18.78314159497218 36.973742967123265 3.6392249473520666 0 0 1
2741 1 20.36907996121549 38.44956667442794 5.360382087578223 0 0 1
2743 1 26.859886523386816 38.192875554062475 5.128872048284067 0 0 1
2769 1 28.65093263340504 36.84043477371693 6.554020040610302 0 0 0
2733 1 33.8140067466878 38.586208449028945 5.024024391442079 0 0 1
2030 1 2.7157568444042712 40.558673986061464 3.6760115801442095 0 0 1
2154 1 -0.16743594118655758 40.24628952400112 6.396339861891016 0 0 0
2113 1 4.514806187537424 42.04977281507506 5.164843601254748 0 0 1
2091 1 10.919140628746257 41.97486209236908 4.665749993833934 0 0 1
2104 1 12.674428445255657 40.292216649078675 6.455492796483296 0 0 0
2054 1 17.148038175230436 42.01711356438965 4.819949320480211 0 0 1
2710 1 23.19330162346414 41.56923989720176 4.738750763841572 0 0 1
2696 1 28.705027875235643 39.7868521435709 3.413948571123442 0 0 1
2606 1 30.081342895882553 41.66241635658837 5.293180985826503 0 0 1
2766 1 31.693785176906506 40.05454837524678 6.390661246484358 0 0 0
2043 1 1.3587673222153045 44.752122758773396 5.032702857946137 0 0 1
1447 1 9.038653664712545 43.23840036409073 6.01122700359565 0 0 0
1830 1 13.992098561467015 45.07446253995596 4.8506721664280095 0 0 1
1487 1 15.515043916681144 43.54005047694942 6.424421651330276 0 0 0
2513 1 20.13437339298724 45.00110258353967 4.882885123945717 0 0 1
2621 1 22.176397946996882 43.33954976870898 6.252484320364787 0 0 0
2717 1 25.447855149971193 42.80858072293731 3.710368811095835 0 0 1
2493 1 26.540169048681367 44.78312056127405 5.129415799510657 0 0 1
2582 1 31.755735911376036 43.47221167627013 3.4168635364892075 0 0 1
2475 1 33.36604003668206 45.13074538202069 4.99221104956643 0 0 1
2119 1 3.2029810491017594 46.372165130607236 3.620078077307719 0 0 1
1654 1 4.621388094651608 48.25487748953233 5.1001508086896505 0 0 1
2068 1 7.499416485336156 45.40271777062657 4.866252939791546 0 0 1
2047 1 9.468907025595508 46.935463329294485 3.5041732947421766 0 0 1
2029 1 12.263608486300493 46.36861770395733 6.476850204678605 0 0 0
1612 1 18.480446028523822 46.82952834436034 6.292720510699611 0 0 0
2384 1 23.385012377683246 48.106928828548085 4.789496576239339 0 0 1
2383 1 29.689486544607735 47.999206681972026 4.388323304366065 0 0 1
2764 1 31.167981660395053 46.490416870034025 6.0320004135755605 0 0 0
1449 1 1.1293130295117988 51.054764088228126 5.035178389223354 0 0 1
1445 1 7.584692499610696 51.2787697699202 4.6560210246052645 0 0 1
1510 1 10.728171994633906 48.47593004252354 5.29648244255339 0 0 1
1459 1 17.039295422847985 48.58066791274858 4.7707025416769575 0 0 1
2353 1 20.396590865618233 51.22209420793059 5.013753028785999 0 0 1
2767 1 22.442937555385353 49.82309775090561 6.504284606196137 0 0 0
2326 1 26.401504124813968 51.024112775031504 4.971735789268113 0 0 1
2198 1 28.38479228562192 49.83194458130222 6.455234389582663 0 0 0
2178 1 33.35828978012646 50.89867103512576 4.7598005411213755 0 0 1
1935 1 2.905563099015043 36.92896728562868 -0.03405844764392968 0 0 1
93 1 4.679107809392166 -0.1775872315731038 8.370830881461336 0 1 0
12 1 12.315664636571912 2.152608733845275 7.000314309180965 0 0 0
95 1 10.961067522042528 -0.1148079414296233 8.81863610486471 0 1 0
96 1 16.902434472765922 -0.2532209387781058 8.7075573165904 0 1 0
846 1 29.7869675718418 -0.22413425253436142 8.468563654899343 0 1 0
1 1 1.5162423765771702 3.562596218811147 8.446910657882405 0 0 0
155 1 8.923935457336178 5.414418213475669 7.476691884761442 0 0 0
4 1 7.593907645808859 3.364869798244129 8.411373194117722 0 0 0
5 1 13.886385812155066 3.259354805566881 8.788158335315055 0 0 0
744 1 15.633796939952003 4.807563699665289 7.136512320594638 0 0 0
1376 1 21.823734683383847 5.116738386550878 6.981668765630019 0 0 0
772 1 20.09862463019391 3.480408299656453 8.442942831022897 0 0 0
774 1 26.899455845161533 3.1967751033556375 8.545149111320812 0 0 0
777 1 33.30895148833493 3.1062995615461886 8.405946947565951 0 0 0
760 1 5.773209432656061 8.02722428046517 6.988301135125576 0 0 0
7 1 4.581189060843825 6.349049725571318 8.594321620270772 0 0 0
10 1 11.110805596716654 6.577394531233796 8.739779637457966 0 0 0
11 1 17.30400840571705 6.552235208335047 8.547236201904392 0 0 0
779 1 23.583302722327876 6.37162738962697 8.48792171151366 0 0 0
937 1 25.487654058596544 7.9957134087856065 7.056027840376259 0 0 0
780 1 29.9602300440315 6.17444409286228 8.618305680510337 0 0 0
923 1 31.696711031955726 8.146720554995941 7.123131979407373 0 0 0
13 1 1.3411141925294017 9.501256094328246 8.459552239268255 0 0 0
48 1 3.03953884308632 11.46686520929125 7.14245653779292 0 0 0
15 1 7.8169981027435025 9.338838726369156 8.193449661518143 0 0 0
17 1 13.84605031496381 9.500872536344648 8.713745992326627 0 0 0
86 1 15.608732921384004 11.362829666038781 7.232790248797872 0 0 0
781 1 20.570675764032185 9.355529673274503 8.212510453119714 0 0 0
782 1 27.03193598864491 9.666165080381337 8.603721863541212 0 0 0
1142 1 28.431950536930565 11.445531592601164 7.263473675298423 0 0 0
783 1 33.36607888540059 9.389236422206205 9.04128140951797 0 0 0
2705 1 24.64929499041365 46.66529808036453 -0.050091834396563006 0 0 1
19 1 4.764098560687324 13.263735454851789 8.470830403067671 0 0 0
20 1 10.910086268024608 12.720839889222592 8.849223273549491 0 0 0
21 1 17.62636014179653 12.78940342317449 8.364928581813793 0 0 0
785 1 23.71220515104664 12.933331164058064 8.758520840470146 0 0 0
787 1 30.24840050400145 12.753738865093622 8.777348475164972 0 0 0
784 1 31.941797306488468 14.085577779143645 7.123092072505245 0 0 0
22 1 1.019806065113931 16.270597456633265 9.028482185869327 0 0 0
23 1 7.542680228519802 16.15552819270644 8.459573299315993 0 0 0
25 1 13.878236000519257 16.035112071385697 8.122563410203373 0 0 0
790 1 20.41205780465021 15.980338174763613 8.395161561479798 0 0 0
792 1 26.859281775459564 16.079801629919192 8.914686786443998 0 0 0
841 1 28.61530302795065 17.35410762840119 7.175241824182455 0 0 0
794 1 33.52258740303302 15.829869389243797 8.655607528683808 0 0 0
90 1 2.56821788646647 18.072977710353054 7.085915313150341 0 0 0
28 1 4.309970456418488 19.425013338900182 8.66967424176565 0 0 0
68 1 9.46151405984162 17.951845242608645 7.098561710684383 0 0 0
31 1 11.206513659554451 19.460604710467347 8.725975618571526 0 0 0
33 1 17.003471165285255 18.970740098449777 8.523149767500469 0 0 0
901 1 19.01566272213831 20.38178916462412 7.109065742200792 0 0 0
795 1 23.924773927959638 19.191982678532263 8.566123866148928 0 0 0
1379 1 25.566374919850652 20.883340820486463 7.110535023872712 0 0 0
796 1 30.21987424451819 19.30390125961061 8.439516095845775 0 0 0
895 1 31.97087934279474 20.495702464047625 7.086500852907851 0 0 0
40 1 1.2070034261693467 22.65884614709175 8.146112219062275 0 0 0
36 1 7.658278769856391 22.39171004622514 8.499165914876611 0 0 0
38 1 14.075515492263202 22.143432287183984 8.631725297274889 0 0 0
797 1 20.464310313146882 22.37514382057887 8.914894027966087 0 0 0
1244 1 21.952365375646288 23.961016616811246 6.981110182619627 0 0 0
800 1 27.222445296910045 22.37528999460947 8.733851545317684 0 0 0
802 1 33.21045722538283 22.46407304721465 8.819237891695005 0 0 0
41 1 4.541949032563058 25.71651558511909 8.70537586109913 0 0 0
395 1 6.498172923856833 26.716696800988444 6.995874890039521 0 0 0
741 1 9.471415782123666 24.015517076019282 7.2281824302196345 0 0 0
42 1 11.320327878846456 25.483708694257885 8.451333308159635 0 0 0
44 1 17.176437027845655 25.56653414331061 8.666912624606407 0 0 0
804 1 23.597101257298668 25.644492196294618 8.45453606070876 0 0 0
1093 1 28.66120105778701 24.11804779504015 7.075867202177295 0 0 0
811 1 30.297995677115853 26.033432841708272 8.408233488430165 0 0 0
45 1 1.613607896556928 28.85115787963893 8.363563072440769 0 0 0
52 1 8.230068187104544 28.702504176238286 8.109897403532724 0 0 0
49 1 15.377581176320568 27.127448041993304 9.833062665237106 0 0 0
54 1 13.947895864749492 29.15612839710177 8.448327902617905 0 0 0
807 1 20.4588838044497 28.681276634223046 8.769593152465374 0 0 0
1161 1 22.210284041116164 29.870873035618267 6.99705075050777 0 0 0
799 1 25.442008592667065 27.281348026927244 7.052681183738862 0 0 0
808 1 27.05526181653129 28.955904332855088 8.58102581348588 0 0 0
815 1 33.08280168189168 28.661112017643887 8.499033542017456 0 0 0
2901 1 34.65113124973545 17.814804978518783 13.341302765084983 0 0 0
58 1 5.0234008422451355 31.49541817185035 8.42187247149317 0 0 0
59 1 10.95637167402861 31.96031415587163 8.543180980565657 0 0 0
62 1 17.17938117002266 31.96115298814385 8.688371063259698 0 0 0
817 1 23.296025980095177 31.8666347978208 8.677965534976295 0 0 0
819 1 30.154072534857743 32.03112846106248 8.713975505192534 0 0 0
64 1 1.5504538320797396 35.45427422442522 8.690020444469774 0 0 0
66 1 7.614836342610754 35.3060532270424 8.232576306831135 0 0 0
158 1 9.149105873573943 33.51463709822554 9.785087972448302 0 0 0