
# Create simulation box of size 50 x 50 x 50 Angstrom
#
lattice	            sc 1
Lattice spacing in x,y,z = 1.0000000 1.0000000 1.0000000
region 	            all block 0 ${X} ${YZ_LO} ${YZ_HI} ${YZ_LO} ${YZ_HI} units box
region 	            all block 0 53.4 ${YZ_LO} ${YZ_HI} ${YZ_LO} ${YZ_HI} units box
region 	            all block 0 53.4 -0.10071112073956812.0 ${YZ_HI} ${YZ_LO} ${YZ_HI} units box
region 	            all block 0 53.4 -0.10071112073956812.0 51.00783112073968.0 ${YZ_LO} ${YZ_HI} units box
region 	            all block 0 53.4 -0.10071112073956812.0 51.00783112073968.0 -0.10071112073956812.0 ${YZ_HI} units box
region 	            all block 0 53.4 -0.10071112073956812.0 51.00783112073968.0 -0.10071112073956812.0 51.00783112073968.0 units box
create_box          1 all
Created orthogonal box = (0.0000000 -0.10071112 -0.10071112) to (53.400000 51.007831 51.007831)
  3 by 1 by 2 MPI processor grid

# fill box with 4175 randomly distributed atoms
#
create_atoms        1 random 4608 63782 all
Created 4608 atoms
  create_atoms CPU = 0.001 seconds
mass                1 18.015

# Define potential
#
pair_style          sw
pair_coeff          * * /data/emrosky-sim/Freezing_Simulations/Melting/MLmW_fancy/ML_mW.sw mW
Reading sw potential file /data/emrosky-sim/Freezing_Simulations/Melting/MLmW_fancy/ML_mW.sw with DATE: 2019-02-27

# Run minimization
#
minimize            1.0e-8 1.0e-8 10000 1000
WARNING: Using 'neigh_modify every 1 delay 0 check yes' setting during minimization (../min.cpp:187)
Neighbor list info ...
  update every 1 steps, delay 0 steps, check yes
  max neighbors/atom: 2000, page size: 100000
  master list distance cutoff = 6.0032907
  ghost atom cutoff = 6.0032907
  binsize = 3.0016454, bins = 18 18 18
  1 neighbor lists, perpetual/occasional/extra = 1 0 0
  (1) pair sw, perpetual
      attributes: full, newton on
      pair build: full/bin/atomonly
      stencil: full/bin/3d
      bin: standard
Per MPI rank memory allocation (min/avg/max) = 4.236 | 4.249 | 4.255 Mbytes
Step Temp E_pair E_mol TotEng Press 
       0            0    7190613.3            0    7190613.3    4899668.8 
     669            0   -49884.227            0   -49884.227   -600.21815 
Loop time of 1.20756 on 6 procs for 669 steps with 4608 atoms

99.6% CPU use with 6 MPI tasks x no OpenMP threads

Minimization stats:
  Stopping criterion = max force evaluations
  Energy initial, next-to-last, final = 
      7190613.28662418  -49884.0918447259  -49884.2267993221
  Force two-norm initial, final = 1.6509541e+08 3.1218875
  Force max component initial, final = 87912737.0 0.83128024
  Final line search alpha, max atom move = 0.10969309 0.091185695
  Iterations, force evaluations = 669 1001

MPI task timing breakdown:
Section |  min time  |  avg time  |  max time  |%varavg| %total
---------------------------------------------------------------
Pair    | 0.97804    | 1.0423     | 1.1151     |   5.3 | 86.32
Neigh   | 0.025407   | 0.026184   | 0.027264   |   0.4 |  2.17
Comm    | 0.043755   | 0.11701    | 0.181      |  15.9 |  9.69
Output  | 0          | 0          | 0          |   0.0 |  0.00
Modify  | 0          | 0          | 0          |   0.0 |  0.00
Other   |            | 0.02205    |            |       |  1.83

Nlocal:        768.000 ave         793 max         755 min
Histogram: 1 2 0 1 1 0 0 0 0 1
Nghost:        1573.00 ave        1588 max        1557 min
Histogram: 3 0 0 0 0 0 0 0 0 3
Neighs:        0.00000 ave           0 max           0 min
Histogram: 6 0 0 0 0 0 0 0 0 0
FullNghs:      21772.3 ave       22969 max       21165 min
Histogram: 2 1 1 0 0 1 0 0 0 1

Total # of neighbors = 130634
Ave neighs/atom = 28.349392
Neighbor list builds = 26
Dangerous builds = 0

# Add velocity/set timestep
#
velocity            all create ${TEMP} 120598 rot yes dist gaussian
velocity            all create 296 120598 rot yes dist gaussian
timestep            5.0

# Define output
#
compute	            1 all msd
thermo	            100
thermo_style        custom step temp press vol etotal ke pe c_1[4] density

# Neighbor lists
#
neigh_modify        delay 0 every 1 check yes

# Set fixes
#
fix                 1 all momentum 10 linear 1 1 1 rescale
fix                 2 all nve
fix                 3 all temp/csvr ${TEMP} ${TEMP} 500.0 928347
fix                 3 all temp/csvr 296 ${TEMP} 500.0 928347
fix                 3 all temp/csvr 296 296 500.0 928347
fix                 4 all press/berendsen iso ${PRES} ${PRES} 1000.0 modulus 20000
fix                 4 all press/berendsen iso -1000 ${PRES} 1000.0 modulus 20000
fix                 4 all press/berendsen iso -1000 -1000 1000.0 modulus 20000

# Run 0.5 ns equilibration
#
dump                1 all custom 1000 eq.${NAME}.dump id type x y z vx vy vz
dump                1 all custom 1000 eq.liq_296K_-1000atm_ML.dump id type x y z vx vy vz
run                 100000
Per MPI rank memory allocation (min/avg/max) = 3.486 | 3.501 | 3.505 Mbytes
Step Temp Press Volume TotEng KinEng PotEng c_1[4] Density 
     669          296    731.91866    139485.24    -45819.38    4064.8472   -49884.227 2.0228952e-33   0.98825166 
     700    153.87921   -944.39052    140634.53   -45208.197    2113.1604   -47321.358   0.19163602    0.9801755 
     800     208.9998   -747.59648    141361.61   -43786.214     2870.109   -46656.323   0.66264623   0.97513407 
     900    243.76513   -858.19938    141560.68   -42882.444     3347.527   -46229.971    1.2396728   0.97376275 
    1000    259.86597   -922.86635     142245.3   -42284.226    3568.6333   -45852.859    2.0274077    0.9690761 
    1100    276.79737   -709.23102    142567.15   -41801.675    3801.1453    -45602.82    2.8473219   0.96688832 
    1200    278.42776   -1188.6984     143118.6   -41496.096    3823.5348   -45319.631    3.7405269   0.96316285 
    1300    287.30477   -853.68017    143078.79   -41223.097    3945.4391   -45168.536    4.6712802   0.96343083 
    1400    287.25161   -1008.0127    142901.05   -41124.525    3944.7092   -45069.234      5.58163   0.96462916 
    1500    293.89314   -1062.0889    142845.31   -40993.916    4035.9146   -45029.831    6.5654542   0.96500555 
    1600    290.57893   -1241.8588    142631.68   -41011.533    3990.4019   -45001.935    7.5986605   0.96645091 
    1700    293.57915   -1076.2724    142558.91   -41009.452    4031.6027   -45041.055    8.7417909   0.96694427 
    1800    294.40513   -1169.0406    142403.95   -40963.796    4042.9455   -45006.741    9.9174439   0.96799643 
    1900    295.76923   -771.45431    142397.19    -40872.44    4061.6781   -44934.118    11.098406   0.96804241 
    2000    299.55144   -1137.1246    142383.85   -40849.238    4113.6176   -44962.856    12.072618    0.9681331 
    2100    289.97923   -843.19439    142389.65   -40904.397    3982.1665   -44886.563    13.025197   0.96809368 
    2200     293.3112   -807.79006    142409.62   -40911.253     4027.923   -44939.176    13.893124    0.9679579 
    2300    296.68753   -666.39782    142973.48   -40864.096    4074.2887   -44938.385    15.061956   0.96414046 
    2400    296.91653   -1050.7096    142615.54    -40913.36    4077.4336   -44990.794    16.143963   0.96656028 
    2500    295.11373   -886.56464    142581.77   -40883.533    4052.6765    -44936.21    17.188162   0.96678919 
    2600    297.74102   -1113.5484     142736.5   -40787.326    4088.7559   -44876.082    18.345981   0.96574117 
    2700    301.03959   -944.55497     142889.9   -40792.552    4134.0539   -44926.606     19.36452   0.96470442 
    2800    293.61581   -1050.7578     142723.1   -40858.854    4032.1061    -44890.96    20.456957   0.96583186 
    2900    296.74343   -711.44483    142993.12   -40814.487    4075.0565   -44889.544    21.429029   0.96400803 
    3000    299.48269   -1031.7771    143119.58   -40765.613    4112.6736   -44878.287     22.68742   0.96315623 
    3100    297.04792   -948.81079    142968.34   -40762.856    4079.2378   -44842.094    23.781899   0.96417509 
    3200    300.71361   -1160.4822    143049.33   -40745.636    4129.5773   -44875.213    25.131564   0.96362922 
    3300    298.41622   -942.90522    143188.76   -40787.021    4098.0282   -44885.049    26.478843   0.96269089 
    3400    301.95696   -1171.1541    143143.74   -40791.373    4146.6517   -44938.025    27.497072   0.96299371 
    3500    300.91371    -987.8976    143310.87   -40710.603    4132.3252   -44842.928    28.708227   0.96187063 
    3600    295.53388   -1101.9168     143193.9   -40773.528    4058.4461   -44831.975    29.905943   0.96265638 
    3700    293.65587   -1004.4999    142949.45   -40757.254    4032.6562    -44789.91    30.836502   0.96430257 
    3800    292.71496   -963.32268    142895.79   -40758.725     4019.735    -44778.46    31.865496   0.96466463 
    3900    294.32118   -1004.5874    142824.15   -40880.587    4041.7927    -44922.38    33.143654   0.96514853 
    4000    292.66737   -838.81244    142711.81   -40937.893    4019.0815   -44956.974    34.003436   0.96590829 
    4100    295.64239   -949.15616    142592.95   -40864.755    4059.9363   -44924.691    35.146387   0.96671343 
    4200    292.65435    -1062.427    142811.61   -40882.803    4018.9028   -44901.706    36.085946   0.96523329 
    4300    294.76826   -1209.6749    142992.54   -40789.465    4047.9322   -44837.397    36.962023   0.96401192 
    4400    300.77114   -985.12968    142784.56   -40813.583    4130.3673   -44943.951    37.956446   0.96541613 
    4500    297.74309   -826.45577     142688.3   -40796.795    4088.7843   -44885.579    38.905237   0.96606739 
    4600    298.74016   -1124.5746    142858.99   -40827.168    4102.4768   -44929.644    40.469313   0.96491316 
    4700    301.52785   -818.28904    142765.14   -40879.258     4140.759   -45020.017    41.530635   0.96554744 
    4800     300.4429    -719.8496    142896.07   -40887.301    4125.8597   -45013.161    42.541118   0.96466277 
    4900    292.71707   -1011.8846    142686.69   -40880.065     4019.764   -44899.829    43.989714   0.96607829 
    5000    299.57189   -827.79001    143060.53   -40938.167    4113.8985   -45052.065    45.178254   0.96355382 
    5100    291.94251   -988.68683    143503.82   -40943.196    4009.1273   -44952.323    46.584946   0.96057737 
    5200    292.67848   -900.73342    143820.06   -40979.195    4019.2342   -44998.429    47.742241   0.95846516 
    5300    291.77469   -1096.0266    143323.96   -40961.945    4006.8227   -44968.767    48.722749   0.96178276 
    5400    300.37608   -982.74399    142999.21    -40849.33    4124.9422   -44974.272    49.959246   0.96396696 
    5500    298.45092     -826.142     143001.6   -40804.258    4098.5047   -44902.763      50.9123    0.9639509 
    5600    298.28971   -1054.6171    142706.74   -40699.809    4096.2909     -44796.1    51.949466   0.96594261 
    5700    292.59819   -825.87766    142722.29   -40754.455    4018.1315   -44772.587    53.140278   0.96583731 
    5800    300.58953   -1230.3497     142953.9   -40640.141    4127.8733   -44768.014    54.065309   0.96427254 
    5900    293.48526   -896.22701    142473.06   -40868.411    4030.3132   -44898.724    55.207681    0.9675269 
    6000    288.99456     -1119.31    142497.01   -40859.152    3968.6444   -44827.796    56.399118   0.96736425 
    6100    295.72905   -894.62301    142408.15   -40764.991    4061.1264   -44826.117    57.694195   0.96796792 
    6200    293.90069    -994.4762    142460.68   -40811.255    4036.0182   -44847.273    59.088555   0.96761095 
    6300    296.68312   -965.97631    142401.59   -40799.749    4074.2282   -44873.977     60.60637   0.96801246 
    6400    294.73605    -898.3395    142380.67   -40828.205    4047.4898   -44875.695    61.948003   0.96815471 
    6500    298.42008   -818.31562    142618.99   -40787.759    4098.0812   -44885.841    63.199957   0.96653693 
    6600    298.71065   -1170.1757    142697.35   -40891.863    4102.0714   -44993.934    63.907625   0.96600618 
    6700    291.86352   -1041.3216    142720.37   -40890.187    4008.0427    -44898.23    65.153783   0.96585033 
    6800    287.93511   -1116.8824    142636.41   -40958.634    3954.0954   -44912.729    66.507035   0.96641887 
    6900    297.06518    -1189.512    142714.43   -40899.152     4079.475   -44978.627    67.797556   0.96589053 
    7000     300.2019   -1017.5279    142678.42   -40760.188    4122.5502   -44882.738     68.96468   0.96613429 
    7100    296.64928   -894.36217    142948.95   -40877.181    4073.7635   -44950.944    70.312525   0.96430591 
    7200    293.02468   -929.94589    143041.84   -40927.351    4023.9884   -44951.339    71.390274    0.9636797 
    7300    295.55521   -1003.5726    143305.94     -40891.9     4058.739   -44950.639    72.644432   0.96190369 
    7400     295.8974   -842.91866    142941.08   -40968.573    4063.4382   -45032.011    73.463356   0.96435897 
    7500    293.84515   -955.06344     143298.8   -40881.301    4035.2556   -44916.556    74.646913   0.96195166 
    7600    292.31754   -931.70043    143154.05   -40846.316    4014.2775   -44860.593    75.870243   0.96292432 
    7700    301.01829   -1034.4283    143124.93    -40826.42    4133.7613   -44960.182    77.044728   0.96312027 
    7800    294.36546    -1147.249    143216.75   -40878.715    4042.4007   -44921.116    78.387306   0.96250278 
    7900    290.50003   -1322.1378    142800.75   -41011.545    3989.3184   -45000.863    79.747915   0.96530669 
    8000    290.94731   -1120.6793    142285.85   -41015.191    3995.4607   -45010.651    80.448056   0.96879989 
    8100    295.15185   -942.10963    141948.47   -40901.602    4053.1999   -44954.802    81.799975   0.97110253 
    8200    292.57762   -1111.9258    142114.96   -40922.904    4017.8491   -44940.753    83.355761   0.96996483 
    8300    295.29582   -958.81862    142119.61   -40860.507     4055.177   -44915.684    84.869117   0.96993311 
    8400    288.05959   -991.94569    142301.16   -40914.265    3955.8049    -44870.07    86.211317   0.96869569 
    8500     297.7811   -1005.3416    142386.95   -40933.724    4089.3063    -45023.03     87.42681   0.96811203 
    8600     296.5521   -1015.1764    142504.15   -40873.581     4072.429    -44946.01    88.863747   0.96731577 
    8700    297.43524   -987.96047    142557.48   -40830.798    4084.5568   -44915.355    89.941095   0.96695396 
    8800       296.95   -1061.0003    142900.02   -40801.894    4077.8932   -44879.788    91.425263   0.96463607 
    8900    291.71807   -1036.1324    143143.93   -40825.289    4006.0452   -44831.334    92.874032   0.96299239 
    9000    308.20303    -1134.048    143056.99   -40674.001    4232.4265   -44906.427    94.130958   0.96357762 
    9100     301.0456   -1271.8528    143131.34   -40759.565    4134.1363   -44893.702     95.24571   0.96307708 
    9200    295.69992   -1294.2475    143196.43   -40810.421    4060.7263   -44871.147    96.160948   0.96263933 
    9300    298.64821      -1190.9    143083.33    -40801.37    4101.2139   -44902.584    96.943617   0.96340024 
    9400    298.15285   -655.44908    142872.33    -40833.57    4094.4115   -44927.981    98.096222   0.96482303 
    9500    293.83434   -991.41077    142849.32   -40914.302    4035.1071   -44949.409     99.05482   0.96497848 
    9600     293.6197   -1076.3174    142875.32    -40921.35    4032.1595    -44953.51    100.42977   0.96480285 
    9700    293.18463   -1083.7738    142740.04   -40867.629    4026.1849   -44893.813    101.69661   0.96571726 
    9800    295.41683   -1042.9692    142985.41   -40865.391    4056.8387    -44922.23    103.50695   0.96405999 
    9900    295.76735   -1031.3778    142892.71   -40811.881    4061.6524   -44873.533    104.51531   0.96468547 
   10000     296.3186   -997.84959    142840.15   -40980.822    4069.2224   -45050.045    105.43117   0.96504044 
   10100    297.42751   -988.87108    142916.76   -40881.596    4084.4506   -44966.047    106.91033   0.96452307 
   10200    293.73288   -944.40824    142928.63   -40916.029    4033.7138   -44949.742     107.8253     0.964443 
   10300    296.33663   -1073.6127    142680.24   -40844.077    4069.4701   -44913.547     108.3519   0.96612199 
   10400     299.4277   -1068.3176    142588.08   -40756.458    4111.9185   -44868.377    109.38456   0.96674646 
   10500     296.9487   -991.56261    142567.06   -40785.804    4077.8753   -44863.679    110.68991   0.96688899 
   10600    297.75915   -1080.3488    142637.32    -40774.88    4089.0049   -44863.885    112.33326   0.96641271 
   10700    296.31495   -983.08784    142997.66   -40776.656    4069.1723   -44845.828     113.6214   0.96397743 
   10800    299.53342   -965.89084    143300.98   -40777.112    4113.3702   -44890.483    114.79779   0.96193704 
   10900    301.08992   -1232.5768    143433.08   -40630.146     4134.745   -44764.891    115.62189    0.9610511 
   11000    294.15486    -967.9749    143254.44   -40681.911    4039.5086    -44721.42    116.73776   0.96224949 
   11100     296.0229   -845.50695    143339.68   -40712.502    4065.1617   -44777.664    117.49453   0.96167729 
   11200    294.10459   -1107.4919    143423.71   -40684.608    4038.8183   -44723.426    118.42752    0.9611139 
   11300     294.6068   -961.12633    143214.77   -40764.702     4045.715   -44810.417    119.39451   0.96251605 
   11400    295.26062   -998.76131    143141.69    -40748.02    4054.6936   -44802.714    120.24999   0.96300745 
   11500    292.95974   -964.18759    143234.69   -40876.122    4023.0966   -44899.219    121.52396   0.96238223 
   11600    289.70495   -1051.4771    142800.18   -40944.871    3978.3999   -44923.271    122.16075   0.96531054 
   11700    298.29961   -783.73267    142974.55   -40808.557    4096.4268   -44904.984    123.40491   0.96413328 
   11800    296.07139   -789.45914    143024.13   -40800.929    4065.8276   -44866.756    125.19567   0.96379901 
   11900    297.75928   -796.47563    142828.76   -40909.656    4089.0066   -44998.663    126.18842   0.96511738 
   12000     294.0762   -1003.2066    143071.31   -40908.739    4038.4284   -44947.167    127.45115   0.96348121 
   12100     293.3348   -1048.7066    143170.49   -40882.437    4028.2471   -44910.684    128.25188   0.96281373 
   12200    298.53728   -770.12678    143241.71   -40748.664    4099.6907   -44848.355     129.9342   0.96233505 
   12300    298.12009   -1130.0487    143119.13   -40717.061    4093.9615   -44811.022    131.64793   0.96315928 
   12400    300.89232   -1064.1408    142899.72   -40657.207    4132.0314   -44789.238    132.50508   0.96463813 
   12500    297.77177   -898.50111    143093.42   -40681.398    4089.1781   -44770.576    133.68365   0.96333232 
   12600    300.06968   -814.09387    143117.77   -40720.344    4120.7345   -44841.079    134.34147   0.96316844 
   12700    303.78226   -1017.0011    143448.47   -40706.154    4171.7178   -44877.871    135.28199   0.96094796 
   12800    295.55761   -978.18401     143404.2   -40746.351     4058.772   -44805.123    136.30006   0.96124462 
   12900    302.96442   -980.61217     143301.1   -40722.755    4160.4868   -44883.241    137.47684   0.96193618 
   13000    294.69052   -1079.7771    143234.79   -40816.783    4046.8646   -44863.648    138.85688   0.96238151 
   13100    294.22601    -1133.121     143367.4   -40796.126    4040.4857   -44836.612    140.27447   0.96149138 
   13200    298.44612   -1104.1435    142964.77   -40733.828    4098.4388   -44832.266    141.30126    0.9641992 
   13300    292.16846   -887.32177    142664.74   -40745.356    4012.2302   -44757.586    142.50224   0.96622692 
   13400    292.86437   -1049.8618     142834.8     -40779.1    4021.7869   -44800.887    143.73103   0.96507652 
   13500    292.07715   -897.59882    143116.58   -40760.656    4010.9763   -44771.633    145.74566   0.96317643 
   13600    297.37232    -1066.656    143461.42    -40741.27    4083.6927   -44824.963    147.05477    0.9608612 
   13700    295.47541   -1294.1866    143191.04   -40801.638    4057.6432   -44859.281    147.98988   0.96267559 
   13800    299.44165   -1063.8599    143355.63   -40845.472      4112.11   -44957.582     149.0807   0.96157027 
   13900    294.51919   -815.07796    143142.75   -40899.757    4044.5118   -44944.268    149.51956   0.96300034 
   14000    293.53793   -1380.9021    143015.28   -41005.436    4031.0366   -45036.473     150.6245   0.96385868 
   14100    294.33239   -861.76626    142957.98   -40949.188    4041.9466   -44991.135    151.95886   0.96424499 
   14200    296.24837   -928.29373    143183.76   -40915.035     4068.258   -44983.293    153.46473   0.96272449 
   14300    292.87079   -1077.2593    142847.59   -40967.882     4021.875   -44989.757    154.45486   0.96499015 
   14400    290.07849    -1038.237    142825.05   -40910.475    3983.5295   -44894.005    155.69141   0.96514246 
   14500    292.27372    -881.7605    142653.22   -40916.885    4013.6757    -44930.56    156.98722   0.96630498 
   14600    296.51539   -933.76757    142887.11   -40795.249    4071.9249   -44867.173    158.29735   0.96472328 
   14700    298.55582   -1185.0768     142979.1   -40748.517    4099.9453   -44848.462    159.96985   0.96410257 
   14800    293.91156   -1063.7983    143312.78   -40814.107    4036.1676   -44850.275    160.93723   0.96185783 
   14900    298.85748   -840.54372    143368.12   -40777.768    4104.0878   -44881.856    162.30666   0.96148651 
   15000    293.92615   -1062.4947    143530.87   -40855.159    4036.3679   -44891.527    163.60253   0.96039631 
   15100    295.61853   -1049.7102     143411.1    -40880.39    4059.6086   -44939.999    164.76111   0.96119841 
   15200    294.00994   -1045.8306    143430.95   -40936.315    4037.5185   -44973.833    165.76063   0.96106537 
   15300     298.4013    -1019.339     143706.6   -40834.723    4097.8233   -44932.546    167.06872   0.95922189 
   15400    298.03209   -1126.3189    143169.23   -40757.298     4092.753   -44850.051     167.8525   0.96282224 
   15500    295.36361   -947.53799    142950.09   -40793.366     4056.108   -44849.474    168.78404   0.96429822 
   15600    295.88237   -1317.8811    142663.89   -40830.924    4063.2318   -44894.156    170.23518   0.96623272 
   15700    297.06407   -1181.4905    142613.38   -40849.124    4079.4597   -44928.584    171.06195   0.96657494 
   15800    294.46266   -1118.7404    142366.52   -40853.683    4043.7356   -44897.418    172.12123   0.96825092 
   15900    298.53246   -966.06079    142230.38    -40814.83    4099.6244   -44914.455    173.04054   0.96917773 
   16000    292.71617   -916.66867     142765.8   -40870.962    4019.7517   -44890.714    174.88271   0.96554296 
   16100    293.01857   -1202.4062    142559.73   -40882.626    4023.9044    -44906.53    175.79432   0.96693866 
   16200    300.26915   -856.36691    142761.41   -40727.855    4123.4736   -44851.329    176.51152   0.96557269 
   16300    297.23851   -1041.7085    142522.96   -40735.062    4081.8551   -44816.918    177.29928   0.96718817 
   16400    299.25114   -860.87578    142373.43   -40688.087    4109.4938   -44797.581    178.62629   0.96820397 
   16500    302.09419   -813.97105    142280.02   -40706.938    4148.5363   -44855.474    179.29352   0.96883959 
   16600    298.83904   -1015.3747    142300.17    -40710.73    4103.8345   -44814.565     181.2114   0.96870242 
   16700    297.83259   -1142.7806    142461.79   -40816.655    4090.0135   -44906.668    182.34671   0.96760343 
   16800    298.79133   -987.52297    142247.48   -40780.542    4103.1794   -44883.721    183.15073   0.96906122 
   16900    292.02853   -901.01902     142270.9   -40744.418    4010.3087   -44754.727     183.9377   0.96890171 
   17000    300.80999   -1178.1853    142363.62   -40757.711    4130.9009   -44888.611    184.93952   0.96827069 
   17100     295.8859   -1193.5272    142693.78   -40755.888    4063.2803   -44819.169    186.64155   0.96603032 
   17200    298.55797   -955.67312    142480.05   -40697.719    4099.9747   -44797.694    188.14305   0.96747945 
   17300    301.16956    -927.5235    142809.31   -40678.273    4135.8387   -44814.111    190.20366   0.96524879 
   17400    301.43107   -1056.8799    142823.39   -40736.478    4139.4298   -44875.908    191.62767   0.96515369 
   17500    300.19805   -733.78341    142449.13    -40737.51    4122.4973   -44860.007    192.83174   0.96768945 
   17600    293.24248   -1081.2904    142458.72   -40819.401    4026.9793   -44846.381    193.90745   0.96762429 
   17700    298.36645   -884.68461    142680.96   -40779.614    4097.3447   -44876.958    194.85551   0.96611713 
   17800    295.08598   -993.58337    142722.13   -40825.874    4052.2954    -44878.17    195.48463   0.96583843 
   17900    293.82919   -677.77888    142635.67   -40886.861    4035.0363   -44921.898    196.51862   0.96642386 
   18000    291.30501   -1248.5823    142618.73   -40976.149    4000.3728   -44976.521    197.63177   0.96653864 
   18100    294.66779   -1082.4932    142598.83   -40958.924    4046.5526   -45005.476    199.00207   0.96667355 
   18200    294.34503   -979.21781    142825.58   -40889.467    4042.1202   -44931.587    200.72672   0.96513888 
   18300    291.63093     -863.136    142731.66   -40997.747    4004.8485   -45002.596    201.33873   0.96577391 
   18400    294.11679   -1030.4994     142549.2   -41068.142    4038.9858   -45107.128    201.94382   0.96701013 
   18500    298.48856   -1023.9753    142703.83   -40964.168    4099.0216    -45063.19    202.84785   0.96596229 
   18600    295.43625   -994.68852    142852.57   -40920.509    4057.1055   -44977.615    204.62779    0.9649565 
   18700    300.49533   -929.02077    143078.76   -40818.474    4126.5797   -44945.053    206.42378   0.96343106 
   18800    294.57836    -1148.462    142987.51   -40869.783    4045.3244   -44915.108    207.82908   0.96404584 
   18900     294.7718   -1099.5103    143006.76   -40888.045    4047.9809   -44936.026    209.24276   0.96391607 
   19000    300.58086   -841.83246    143157.15   -40863.111    4127.7543   -44990.865    211.15905   0.96290349 
   19100    289.88277   -1144.7434    142899.27    -40954.73    3980.8418   -44935.572    212.27998   0.96464115 
   19200    294.25947   -1167.5981    143122.21   -40879.545    4040.9453    -44920.49    213.98511   0.96313853 
   19300    294.59302   -1031.7967    143209.01   -40867.823    4045.5257   -44913.349     214.8948   0.96255476 
   19400    293.21261    -938.3151    143328.91   -40875.518    4026.5691   -44902.087    216.03609   0.96174958 
   19500    292.04225   -985.89038    143230.22    -40820.28     4010.497   -44830.777    216.71888   0.96241227 
   19600    292.85811   -981.87878    143097.59   -40788.318    4021.7008   -44810.019     217.6258   0.96330423 
   19700     293.7049   -1281.6033    143277.69   -40768.216    4033.3296   -44801.545    218.56845   0.96209337 
   19800     296.4437   -1104.1074    143304.64   -40744.515    4070.9403   -44815.456    219.78245   0.96191242 
   19900    297.43879   -991.57442    143102.78   -40719.696    4084.6055   -44804.302    220.40385   0.96326934 
   20000     302.0546   -1120.5999    143183.57   -40662.458    4147.9926   -44810.451    221.79948   0.96272579 
   20100    297.73992    -986.7728    143240.81   -40708.436    4088.7408   -44797.176    222.78922   0.96234111 
   20200    303.55814   -1193.5974    142952.88   -40700.049    4168.6401   -44868.689     222.9272   0.96427941 
   20300    300.23618   -931.34234    142700.08   -40669.673    4123.0209   -44792.693    224.13659   0.96598768 
   20400     296.1595   -905.40411    142815.98   -40720.956    4067.0376   -44787.993    225.27833   0.96520376 
   20500    303.10299   -1113.1224    142998.31   -40668.211    4162.3897     -44830.6    227.38986   0.96397306 
   20600    307.28353   -984.93844    143316.92   -40758.756    4219.7994   -44978.556    228.93753   0.96183002 
   20700    293.47471   -1127.1486    143496.44   -40854.719    4030.1684   -44884.888    230.65826   0.96062674 
   20800    294.68427   -1048.3159    143438.24   -40846.282    4046.7789   -44893.061    231.94437   0.96101654 
   20900    290.33166   -1005.2518    143326.54   -40848.195    3987.0062   -44835.201    233.33633   0.96176549 
   21000    299.09536   -667.41848    143219.66   -40740.406    4107.3545    -44847.76    234.50963   0.96248322 
   21100    294.21547   -1267.2845    143625.88   -40816.792     4040.341   -44857.133    235.73715   0.95976097 
   21200    289.91801   -1209.3553    143099.62   -40947.785    3981.3257    -44929.11    235.75615   0.96329057 
   21300    293.44974   -1084.2295    142716.08   -40953.827    4029.8255   -44983.652    236.38396   0.96587935 
   21400    297.24859   -861.85471    142577.32   -40846.963    4081.9936   -44928.957    236.85558   0.96681942 
   21500    295.81408   -1074.6192    142560.24   -40769.953    4062.2941   -44832.247    237.36778   0.96693524 
   21600    294.39011   -959.70681    142384.25   -40836.795    4042.7393   -44879.534    237.93878    0.9681304 
   21700    303.85225   -922.78791    142371.24   -40797.979     4172.679   -44970.658    238.91235   0.96821885 
   21800    292.50776   -853.62033    142717.25   -40788.409    4016.8898   -44805.299    240.50491   0.96587143 
   21900    297.05769   -885.94797    142625.02   -40734.822     4079.372   -44814.194    241.47259   0.96649603 
   22000    295.15753   -1042.4089    142707.29   -40754.646    4053.2779   -44807.924    241.77315   0.96593887 
   22100    302.09481   -1176.6367    142878.96   -40710.052    4148.5447   -44858.597    243.68816   0.96477829 
   22200    294.48204   -818.07063     142869.8   -40659.388    4044.0017    -44703.39    245.20313   0.96484013 
   22300    293.72203   -773.66796    143158.56   -40689.918    4033.5648   -44723.483    246.35442   0.96289397 
   22400      294.119   -1083.0776    143153.55   -40767.295    4039.0162   -44806.311    246.97154    0.9629277 
   22500    296.11484   -1079.6852       143125   -40749.841    4066.4243   -44816.265    248.18684   0.96311973 
   22600    294.44002   -965.54303    143153.43   -40761.391    4043.4247   -44804.816    249.19728   0.96292852 
   22700    295.56782   -852.86613    142917.37   -40781.234    4058.9123   -44840.146    249.77478   0.96451897 
   22800    294.08846   -1033.0669    142989.19   -40880.095    4038.5968   -44918.692     251.0791   0.96403453 
   22900    296.57929    -896.6523    143335.08   -40882.491    4072.8024   -44955.293    252.95146   0.96170814 
   23000     301.3524   -1033.8467    143200.57   -40819.116    4138.3495   -44957.465    253.56726   0.96261153 
   23100    297.99609   -839.77447    143102.09   -40839.785    4092.2587   -44932.044    255.16869   0.96327397 
   23200     293.4761   -1097.6468     143020.1   -40867.235    4030.1875   -44897.423    256.62785   0.96382618 
   23300    291.69443   -1044.9149    143052.75   -40901.228    4005.7206   -44906.949    257.65522   0.96360619 
   23400    293.82415   -1212.4475    142667.68   -40907.845    4034.9672   -44942.813    258.88519   0.96620707 
   23500    295.13704    -943.0363    142745.76    -40862.88    4052.9965   -44915.876    259.38607   0.96567853 
   23600    287.52496    -1186.114     142692.3   -40925.568     3948.463   -44874.031    260.29675   0.96604035 
   23700    296.59324   -1451.7525    142663.44   -40926.041     4072.994   -44999.035    260.98505   0.96623575 
   23800    290.65304   -1016.9706    142600.06   -40940.039    3991.4196   -44931.459    261.77964   0.96666522 
   23900    293.60003   -1154.7617     142547.7   -40842.849    4031.8894   -44874.738    262.56682   0.96702027 
   24000    294.32715   -1165.8386     142853.7   -40776.871    4041.8746   -44818.745    263.60437   0.96494889 
   24100    295.34074   -764.74048    142551.54   -40775.852    4055.7939   -44831.646    264.23673   0.96699424 
   24200    300.24509   -860.91068    142670.54   -40697.391    4123.1433   -44820.535    265.38222   0.96618766 
   24300    296.96966   -1112.7752     142988.1   -40743.662    4078.1632   -44821.826    267.24277   0.96404191 
   24400    296.76381   -1179.3294    142684.68     -40714.4    4075.3363   -44789.736    268.18919   0.96609195 
   24500    295.38036   -968.16013    143089.26   -40770.278     4056.338   -44826.616     270.1212   0.96336032 
   24600    296.35228   -959.93591    143229.14   -40774.141     4069.685   -44843.826     271.6938   0.96241951 
   24700    300.35688   -670.12349    143599.23   -40713.186    4124.6784   -44837.865     273.0336   0.95993908 
   24800     295.1247   -896.54279    143441.88   -40721.533    4052.8271    -44774.36    274.25789   0.96099215 
   24900     294.0657   -1063.4044     143483.9   -40808.722    4038.2842   -44847.006    275.78239   0.96071072 
   25000    294.27389    -1115.122    143448.07    -40825.28    4041.1433   -44866.424    276.67607   0.96095066 
   25100    293.95361   -762.44025    143120.91   -40823.373     4036.745   -44860.118     277.1772   0.96314729 
   25200    293.92864   -747.65079    143658.76   -40840.481     4036.402   -44876.883    278.90253   0.95954133 
   25300    296.81064    -946.4418    143719.87   -40882.847    4075.9794   -44958.827    280.02461   0.95913334 
   25400    298.25074   -928.60845     143301.3    -40845.75    4095.7557   -44941.506    280.55991   0.96193484 
   25500    292.69712   -849.76449    143175.06   -40879.072    4019.4901   -44898.562    281.37077     0.962783 
   25600    296.36845   -1026.3487    143110.46   -40953.354     4069.907   -45023.261    282.56014    0.9632176 
   25700    292.79448   -872.39906    142982.85   -40989.424    4020.8272   -45010.251    283.62499   0.96407729 
   25800    291.06409   -1117.0795    142859.64   -41060.856    3997.0644    -45057.92    283.99787   0.96490872 
   25900    295.25009   -1038.8693    143230.96   -41101.188     4054.549   -45155.737    285.09865   0.96240724 
   26000    292.67371   -965.43416    143043.15   -40932.536    4019.1687   -44951.705    285.74246   0.96367087 
   26100    293.36113   -992.37446     142834.7   -40946.172    4028.6087    -44974.78     286.8438   0.96507722 
   26200    297.45375   -838.57236    142970.02   -40843.037     4084.811   -44927.848    288.24083   0.96416382 
   26300    292.83265   -1183.5393    143120.25   -40823.703    4021.3512   -44845.054    290.19556    0.9631517 
   26400    299.06135    -1151.679    142606.58   -40899.485    4106.8875   -45006.373    291.10516     0.966621 
   26500    298.55074   -1090.0579    142518.78    -40737.14    4099.8755   -44837.016    292.23694   0.96721648 
   26600    294.56352   -1105.9456    142348.87   -40821.325    4045.1206   -44866.445    292.53104   0.96837099 
   26700    301.75499   -1240.9716    142195.07   -40785.439    4143.8782   -44929.318    293.01767   0.96941843 
   26800    294.33457   -932.34577    142242.13   -40789.497    4041.9765   -44831.473    293.69784   0.96909766 
   26900    300.77296   -948.78093    142270.06   -40892.713    4130.3923   -45023.105    295.10693   0.96890742 
   27000     299.6985   -1028.1533     142288.8   -40918.182    4115.6372    -45033.82    296.45122   0.96877984 
   27100    305.25334   -1049.1118     142284.2   -40835.795    4191.9196   -45027.715     297.6384   0.96881115 
   27200    299.12139   -920.07419       142610    -40805.45     4107.712   -44913.162    299.38693   0.96659781 
   27300     302.4247   -1212.4263     142518.9   -40807.934    4153.0749   -44961.009    300.78539   0.96721573 
   27400    295.05248   -962.18118    142241.67   -40725.847    4051.8353   -44777.682    301.49268   0.96910077 
   27500    301.23573   -974.59819    142294.45   -40785.737    4136.7474   -44922.484    303.00237   0.96874137 
   27600    298.47076   -997.09944     142772.4   -40683.346    4098.7771   -44782.123    304.50441   0.96549838 
   27700     298.3969    -848.6093    143174.51   -40706.128    4097.7628   -44803.891    306.21926   0.96278674 
   27800    298.78152   -1167.9196    143113.43   -40687.288    4103.0447   -44790.333    307.71036    0.9631976 
   27900    299.50611   -1100.5361    142774.54   -40687.765    4112.9951    -44800.76    308.10925   0.96548388 
   28000    300.70737   -1117.0044    142456.89   -40624.272    4129.4916   -44753.763    309.39582   0.96763673 
   28100    296.33428   -1121.3708    142293.48   -40704.161    4069.4377   -44773.598    310.62658   0.96874797 
   28200    292.86699   -1087.7723    142250.54   -40830.104    4021.8229   -44851.927    311.89545   0.96904038 
   28300    291.92203   -1139.3834    142201.93   -40837.456    4008.8461   -44846.303    312.48697   0.96937164 
   28400    300.54435   -1042.7419    142393.26   -40683.074    4127.2529   -44810.327    314.23229   0.96806913 
   28500    297.28181   -838.49625    142474.08   -40738.687    4082.4498   -44821.136    315.35345   0.96751997 
   28600    298.57352   -859.84032    142688.48   -40772.122    4100.1884    -44872.31    316.52658   0.96606616 
   28700    291.39047   -869.40263    142797.67   -40835.841    4001.5463   -44837.388    318.68002   0.96532747 
   28800    295.27148   -993.72994    143120.57   -40784.938    4054.8427   -44839.781    320.18302    0.9631496 
   28900    296.76985   -1070.9444    142859.82   -40813.353    4075.4192   -44888.772    321.43726   0.96490753 
   29000    296.06453   -869.29641    142780.47   -40809.088    4065.7334   -44874.821    322.22545   0.96544377 
   29100    298.26692   -1042.9953    143035.34   -40797.915    4095.9779   -44893.892     323.7873   0.96372345 
   29200    291.53529    -1018.597    143089.79   -40856.456    4003.5352   -44859.991    325.49914   0.96335673 
   29300     297.5852    -1200.868    142941.71   -40827.499    4086.6161   -44914.115    326.78022   0.96435476 
   29400    294.27108   -838.70093    142693.54   -40862.262    4041.1047   -44903.367    327.74628   0.96603195 
   29500    295.24232      -972.29    142932.64    -40830.89    4054.4423   -44885.332     329.0263   0.96441596 
   29600    299.36534   -980.19769     143219.7   -40824.426     4111.062   -44935.488     330.8543   0.96248294 
   29700    296.84774   -1077.3696    143062.08   -40781.726    4076.4889   -44858.214    331.17872   0.96354337 
   29800    302.28394   -1117.3119    143070.32   -40720.281     4151.142   -44871.423    332.19704   0.96348785 
   29900    296.78512   -1064.2978    143197.48   -40747.549    4075.6289   -44823.178    333.44592   0.96263229 
   30000    292.86888   -1138.9854    142992.55   -40758.439    4021.8488   -44780.288    334.48189   0.96401187 
   30100     295.7156   -832.01295     142797.5    -40746.26    4060.9417   -44807.202    335.86495   0.96532863 
   30200    298.64755   -1115.5072    143057.87   -40793.125    4101.2049    -44894.33    338.00911   0.96357172 
   30300    301.51766   -877.65685    142797.29   -40712.189     4140.619   -44852.808    338.70916   0.96533004 
   30400    292.63315   -1130.8034     142652.3   -40887.277    4018.6116   -44905.889      339.567    0.9663112 
   30500    293.01661   -1106.9568     142502.6   -40905.004    4023.8775   -44928.881    340.71051    0.9673263 
   30600    292.23733    -1096.852    142674.72   -40912.764     4013.176    -44925.94    341.89597   0.96615935 
   30700    293.31022   -975.51059    142595.71    -40875.83    4027.9096    -44903.74    343.03213    0.9666947 
   30800    297.82777   -978.63048    142481.26   -40804.818    4089.9472   -44894.765     343.5959   0.96747122 
   30900    301.28539   -940.08394    142651.25    -40836.17    4137.4293   -44973.599    346.23343   0.96631833 
   31000    296.65442   -935.56222    143254.69   -40765.123    4073.8341   -44838.957    348.33131   0.96224786 
   31100    294.28172   -947.11109    143139.87   -40956.105    4041.2507   -44997.356    349.22366   0.96301969 
   31200    290.87897   -1299.8278       143089    -40983.73    3994.5222   -44978.253    349.87136   0.96336208 
   31300     293.1017   -1033.4379    142942.91   -40912.975     4025.046   -44938.021    350.74925   0.96434665 
   31400    295.14781    -1175.876    142742.31   -40891.343    4053.1444   -44944.488     351.4672   0.96570187 
   31500    297.62011   -879.16759    142830.89   -40776.526    4087.0956   -44863.622    352.83546   0.96510298 
   31600    291.69509   -677.98867    143032.73   -40798.454    4005.7297   -44804.184    354.49168    0.9637411 
   31700    299.13911   -1115.4989    142922.25   -40816.387    4107.9553   -44924.342    355.96163   0.96448603 
   31800    298.11408   -970.46163    142316.24   -40831.047     4093.879   -44924.926    356.16985   0.96859303 
   31900    298.28596   -1107.6896    142549.42   -40832.913    4096.2394   -44929.153    357.91799   0.96700859 
   32000    296.05933   -1168.1202    142521.99    -40801.38     4065.662   -44867.042    359.32409   0.96719472 
   32100    293.44054   -1076.4994     142537.1   -40900.757    4029.6992   -44930.457    360.13735   0.96709222 
   32200     296.5129   -1459.0009    142443.74   -40857.854    4071.8906   -44929.744    361.07546   0.96772606 
   32300    292.95335   -1084.8061    142484.77   -40861.978    4023.0089   -44884.987    362.20111   0.96744736 
   32400    298.80585    -669.8086    142717.69   -40704.958    4103.3788   -44808.336    364.34756   0.96586849 
   32500    294.23929   -1281.6649    143213.59   -40808.666    4040.6681   -44849.334    366.22129     0.962524 
   32600    293.47056   -1223.7702    142722.38   -40811.988    4030.1115   -44842.099    366.65471   0.96583672 
   32700    299.90842   -1096.3411    142670.64   -40813.578      4118.52   -44932.098    367.23333   0.96618697 
   32800    293.62686    -1000.517    142766.66   -40871.967    4032.2579   -44904.225     368.5069   0.96553718 
   32900    292.63518   -886.36329    142838.82    -40936.94    4018.6395   -44955.579    369.50846   0.96504939 
   33000    287.51357   -1061.7218    142985.88   -40919.999    3948.3065   -44868.306    370.79056   0.96405682 
   33100    293.79406    -1057.707    142330.73   -40907.642    4034.5539   -44942.196    371.16538   0.96849444 
   33200    297.56838    -965.9876    142667.84   -40820.342    4086.3852   -44906.727     372.8629   0.96620595 
   33300    294.20379   -831.55283    142733.85   -40761.809    4040.1806    -44801.99    374.31667   0.96575909 
   33400    294.83038   -1017.7059    143053.68    -40803.02    4048.7852   -44851.805    376.02183   0.96359996 
   33500    295.80627   -977.02314    142939.92    -40692.35    4062.1867   -44754.537     377.4908   0.96436683 
   33600    295.80743   -923.93465    143053.16   -40732.445    4062.2027   -44794.648    377.77905   0.96360345 
   33700    293.00858   -1031.2005    142930.13   -40766.648    4023.7672   -44790.415    377.83633   0.96443285 
   33800    295.97755   -1010.4433    142621.76   -40757.489    4064.5389   -44822.028    379.25033   0.96651814 
   33900     295.8235   -1022.3611    142695.37   -40816.537    4062.4234    -44878.96     380.5984   0.96601955 
   34000    291.42402   -941.32034    142862.05   -40809.015    4002.0072   -44811.023    382.31139   0.96489247 
   34100    290.73631   -1046.7191    142917.12   -40864.948     3992.563   -44857.511    384.14533   0.96452068 
   34200    298.76274   -1062.2905    142992.33   -40840.026    4102.7867   -44942.812    385.50025   0.96401335 
   34300    293.38788   -1092.7133    142861.99    -40792.13    4028.9761   -44821.106     385.6604    0.9648929 
   34400    300.06234   -991.71272    142877.67   -40665.418    4120.6337   -44786.051    387.15518   0.96478696 
   34500    299.23826   -1129.8012    142802.09   -40649.531    4109.3169   -44758.848    388.15987   0.96529761 
   34600    297.06445   -1180.7466    142851.23   -40702.535    4079.4648       -44782    389.45253   0.96496555 
   34700    296.13876   -854.26381    142897.81   -40771.882    4066.7528   -44838.635    390.86538   0.96465099 
   34800    293.84712    -945.1231     142601.3   -40858.237    4035.2825    -44893.52    391.78329   0.96665682 
   34900    292.41396   -1009.3282    143060.65   -40819.661    4015.6016   -44835.263    393.41395   0.96355301 
   35000     297.5704    -1119.606    143108.52   -40842.399    4086.4129   -44928.812    394.79719   0.96323067 
   35100    292.02722   -915.11818       143039   -40813.403    4010.2906   -44823.694    395.44654   0.96369883 
   35200    304.43409   -810.48805     143277.5   -40605.803    4180.6692   -44786.472    396.24386   0.96209467 
   35300    300.82485   -1117.0811    143714.98   -40687.706     4131.105   -44818.811    397.96026   0.95916598 
   35400    295.42801   -1281.8209    143440.28   -40815.845    4056.9923   -44872.837    398.25216   0.96100282 
   35500    300.08481   -1053.8329    142959.11    -40865.88    4120.9422   -44986.822    398.06111   0.96423739 
   35600    299.30974   -604.35569    143120.83   -40889.793    4110.2985   -45000.092    399.22287   0.96314783 
   35700    297.42648   -1119.7851    143234.61   -40841.139    4084.4365   -44925.575    401.14339   0.96238277 
   35800     295.4342   -1082.1409    143482.72   -40871.754    4057.0773   -44928.831    401.96599   0.96071858 
   35900    296.48198   -1072.4658    143466.13   -40837.678     4071.466   -44909.144    402.43103   0.96082972 
   36000    296.69667   -1240.6589    143735.63   -40896.239    4074.4142   -44970.653     403.9456   0.95902818 
   36100    294.35704   -1096.2198    143563.54   -40912.485    4042.2851    -44954.77    405.13585   0.96017774 
   36200    293.92678    -1149.634     143548.1   -40865.692    4036.3765   -44902.069    405.52448   0.96028101 
   36300    295.81914   -996.64227    143537.98   -40873.806    4062.3635   -44936.169    406.41654   0.96034874 
   36400    301.72212   -1086.7335    143312.18   -40801.014    4143.4268   -44944.441    406.42536   0.96186185 
   36500    302.23865   -1030.0458    143385.17   -40754.496      4150.52   -44905.016    407.98815   0.96137222 
   36600    293.89853    -976.5995    143067.64   -40890.608    4035.9886   -44926.596    408.75491   0.96350591 
   36700    294.24791   -1217.3935    142985.73   -40853.198    4040.7865   -44893.985    410.03194   0.96405786 
   36800      289.416   -1169.0366    142543.27   -40881.315    3974.4318   -44855.747     410.4018   0.96705035 
   36900    289.30964   -1129.1091    142234.65   -40973.181    3972.9713   -44946.152    411.11441   0.96914862 
   37000    291.36212    -1190.062       142087   -40908.394    4001.1571   -44909.551    411.98748   0.97015572 
   37100    292.28955   -981.59504    141726.28    -40907.94    4013.8932   -44921.833    412.54568   0.97262493 
   37200    293.76942   -978.09409    141588.05   -40870.087    4034.2156   -44904.303    413.48155    0.9735745 
   37300    292.67891   -916.79978    141664.62   -40843.778    4019.2401   -44863.019    414.60845    0.9730483 
   37400     291.5793   -823.75706    141989.92   -40898.751    4004.1395    -44902.89    417.15059   0.97081906 
   37500    292.20705   -1233.3007     141865.6   -40930.209    4012.7602    -44942.97    417.81908   0.97166976 
   37600    295.36943   -737.36659    142132.16   -40884.777    4056.1878   -44940.965    418.37648   0.96984747 
   37700    295.98803     -1101.72    142416.47   -40882.778    4064.6828   -44947.461    419.35585   0.96791133 
   37800    297.62937   -899.37529    142505.71   -40853.248    4087.2226   -44940.471    420.72142   0.96730524 
   37900    288.95367   -1187.0763    142282.48   -40942.063    3968.0828   -44910.146    421.15443   0.96882281 
   38000     294.5279   -947.49183    142225.65   -40891.267    4044.6315   -44935.898    421.53583   0.96920993 
   38100    292.75427   -1056.1269    142370.16   -40934.403    4020.2749   -44954.678    422.31957   0.96822616 
   38200    292.49541   -1080.6512    142454.36   -40935.346    4016.7201   -44952.066    422.83836   0.96765393 
   38300    292.61649   -1039.9631    142401.06    -41044.64    4018.3829   -45063.023    423.06911    0.9680161 
   38400    290.76661   -989.74102    142604.92    -41068.21    3992.9792    -45061.19    424.84281   0.96663226 
   38500    289.00445   -1207.8538    142924.18    -41064.37    3968.7802    -45033.15    426.65075   0.96447302 
   38600     290.3908   -924.29208    143028.34   -40914.831    3987.8183    -44902.65    427.74765   0.96377065 
   38700    290.72934   -1173.3732    143030.78   -40909.639    3992.4674   -44902.106    428.49663   0.96375423 
   38800    294.28049   -863.73979    143143.21   -40809.089    4041.2339   -44850.323    429.35595   0.96299722 
   38900    304.79479   -963.95903    143246.39   -40717.719    4185.6225   -44903.342    430.35763   0.96230363 
   39000    294.17412   -958.35658     143745.8    -40782.85    4039.7731   -44822.623    433.49221   0.95896031 
   39100    294.79401   -1069.6212    143841.76   -40795.294    4048.2859    -44843.58    434.63627   0.95832053 
   39200    295.38778   -1250.4658    143372.69   -40778.891    4056.4399   -44835.331    434.39055    0.9614559 
   39300    294.28237   -990.38121    143228.51   -40795.171    4041.2598   -44836.431    434.66252   0.96242376 
   39400    293.65864   -937.71353    142665.45    -40818.24    4032.6942   -44850.934    434.57939   0.96622216 
   39500    298.69913   -949.25219    142467.77   -40731.554    4101.9132   -44833.467    434.81657   0.96756282 
   39600    303.86957   -992.32884    142712.55   -40742.577    4172.9168   -44915.494    436.47424   0.96590328 
   39700    294.06589   -1139.2427    142539.39   -40854.891    4038.2869   -44893.178    437.57639   0.96707666 
   39800    299.86358   -994.09048    142575.38    -40806.24    4117.9041   -44924.144    439.35657   0.96683251 
   39900    294.42918   -912.34798    143015.37   -40972.532    4043.2758   -45015.808    442.05577   0.96385808 
   40000    294.74382   -1228.3277    142809.65   -40873.993    4047.5965    -44921.59    442.79226   0.96524653 
   40100    290.51116   -617.26126    143052.46   -40841.604    3989.4712   -44831.075    444.98383   0.96360813 
   40200    299.63736   -978.73958    143171.58    -40755.39    4114.7976   -44870.188    445.97284   0.96280643 
   40300     297.8951   -993.21755    143376.47   -40741.773    4090.8719   -44832.645    447.72827   0.96143053 
   40400    294.52186   -864.85829    143456.68   -40788.952    4044.5485   -44833.501    449.29996   0.96089297 
   40500    299.31715   -1002.4933    143609.39   -40796.877    4110.4003   -44907.277    450.79395   0.95987119 
   40600    296.42936   -1114.9306    143120.19   -40790.043    4070.7434   -44860.786    450.91175   0.96315212 
   40700    298.39901   -1057.0726    143240.73   -40817.133    4097.7918   -44914.925    451.91883   0.96234161 
   40800    296.57146   -1046.7788    142881.24   -40874.268    4072.6949   -44946.963    452.88634   0.96476286 
   40900    294.46364   -1224.3534    142253.43   -40893.954     4043.749   -44937.703    452.48267   0.96902072 
   41000    299.72557   -783.74167    142242.88   -40886.813    4116.0089   -45002.822     452.7168   0.96909257 
   41100    294.16361   -1125.2641    142503.91   -40898.472    4039.6288     -44938.1    454.40835   0.96731742 
   41200    299.73021   -966.98989    142729.32   -40768.123    4116.0726   -44884.196    456.69101   0.96578976 
   41300    294.44872   -1205.9737    142524.59   -40885.007    4043.5441   -44928.551    457.59859   0.96717706 
   41400    293.18251   -1093.1279    142282.88   -40899.775    4026.1558   -44925.931    458.49198   0.96882011 
   41500    293.14445   -675.65833     142060.9   -40909.362    4025.6331   -44934.996    459.46608   0.97033397 
   41600    290.91249   -1171.8629    142205.24   -40816.054    3994.9826   -44811.037    460.43211   0.96934908 
   41700    291.81824   -1088.0136    142071.94   -40970.361    4007.4209   -44977.782    461.31967   0.97025858 
   41800    293.23245   -998.73736    142056.03   -40875.529    4026.8415   -44902.371    462.30201   0.97036721 
   41900    295.09549     -1207.86    142210.81   -40776.803     4052.426   -44829.229    463.98392   0.96931113 
   42000    293.46119    -879.9736    142095.92   -40774.433    4029.9828   -44804.416    465.98818   0.97009482 
   42100    300.66471   -958.54513    142271.41   -40802.523    4128.9057   -44931.428    467.58169    0.9688982 
   42200    294.61326   -966.27116     142378.8   -40778.484    4045.8036   -44824.287    469.13302   0.96816746 
   42300    292.46773   -770.72061    142711.61   -40844.414    4016.3399   -44860.754    470.43797   0.96590962 
   42400     294.6442   -1045.5823    142462.73   -40830.452    4046.2286   -44876.681    472.11026   0.96759703 
   42500    293.75365   -897.06579    142633.36   -40831.366     4033.999   -44865.365    473.46129   0.96643952 
   42600    292.96435   -964.34697     142634.5    -40849.45    4023.1599    -44872.61    474.20367   0.96643181 
   42700    290.36103   -1290.2702    143116.16   -40905.985    3987.4095   -44893.395    477.02957   0.96317923 
   42800    291.00365     -890.587    142905.94   -40959.915    3996.2343    -44956.15    476.45316   0.96459616 
   42900     297.4637   -882.68426    143068.19    -40894.75    4084.9476   -44979.697    477.44329   0.96350219 
   43000    295.36079   -990.52845    143164.08   -40840.351    4056.0692    -44896.42    478.54554   0.96285686 
   43100    296.63486   -1017.2911    142943.94   -40835.086    4073.5655   -44908.651    478.65111   0.96433969 
   43200    295.96131   -934.60443    142813.91   -40857.661    4064.3159   -44921.976    479.48677   0.96521775 
   43300    297.86348   -1135.2264    142833.14   -40888.304    4090.4376   -44978.742    479.90226   0.96508779 
   43400    292.92878   -873.40112    142945.16   -40922.284    4022.6714   -44944.955     480.5903   0.96433145 
   43500    296.37161     -897.728    142988.25   -40865.072    4069.9503   -44935.022    481.25345   0.96404085 
   43600    293.73305   -1111.4932    143431.74   -40877.288    4033.7161   -44911.004    484.25253   0.96106005 
   43700    296.08158   -1125.4707    143484.28   -40872.468    4065.9676   -44938.436    485.45298   0.96070812 
   43800    299.45173   -972.60715    143243.57   -40767.743    4112.2484   -44879.992    485.54937   0.96232256 
   43900    296.70357   -1122.1327    142865.12   -40894.887    4074.5091   -44969.396     485.2518   0.96487175 
   44000    293.25099   -951.26647    142903.97   -40824.317    4027.0961   -44851.414    486.69193   0.96460942 
   44100    296.53371   -954.76666    142666.34   -40733.272    4072.1765   -44805.448    486.71345   0.96621613 
   44200    299.42817   -804.01653    142890.18   -40825.526    4111.9248   -44937.451    487.86265   0.96470249 
   44300    291.67259   -1046.7761    143201.69   -40944.482    4005.4207   -44949.902     490.3825   0.96260399 
   44400    289.72757   -992.37384    143285.24   -40917.867    3978.7104   -44896.578    492.30335    0.9620427 
   44500    290.60255   -1126.7638    143062.76   -40972.774    3990.7263     -44963.5    493.53867   0.96353879 
   44600    289.04887   -1277.4251    142599.95   -40969.236    3969.3902   -44938.626    493.67147   0.96666597 
   44700    291.92998   -1016.2175    142603.81   -41017.469    4008.9553   -45026.424    495.17908   0.96663976 
   44800    297.05069   -1090.6358    142660.74   -40919.804    4079.2759    -44999.08      495.982   0.96625403 
   44900    295.31547   -764.53133    143183.44    -40936.25    4055.4468   -44991.697    498.09322    0.9627267 
   45000    293.61029   -1172.7908    143059.39   -40926.237    4032.0303   -44958.267     499.2145   0.96356147 
   45100    297.84358   -1120.8343     142857.4   -40841.195    4090.1643   -44931.359    499.70648   0.96492388 
   45200    294.15309   -1205.1285    142778.76    -40901.45    4039.4843   -44940.934      499.806   0.96545532 
   45300    292.38387   -1221.3826    142712.38   -40908.811    4015.1883   -44923.999     500.1437    0.9659044 
   45400    291.65334   -730.89371    142635.64   -40953.837    4005.1563   -44958.994    501.80862   0.96642405 
   45500     297.7246   -1307.7754    142332.38   -40840.119    4088.5305   -44928.649    501.51102   0.96848321 
   45600    289.95169   -1050.0193    142370.92   -40882.276    3981.7883   -44864.064    503.37921     0.968221 
   45700     297.2361   -889.46749    142142.62   -40822.689     4081.822   -44904.511    504.79339    0.9697761 
   45800    291.10584   -945.52499    142075.78   -40777.028    3997.6377   -44774.665    505.34622   0.97023233 
   45900    300.47576   -1074.3104    142399.26   -40759.969     4126.311    -44886.28    507.54347   0.96802829 
   46000    292.09674   -1000.6335    142718.51   -40800.954    4011.2453   -44812.199    509.70828   0.96586292 
   46100    293.74593   -862.55829    142979.71   -40749.495     4033.893   -44783.388    510.67795   0.96409844 
   46200     293.5507    -1321.388     143280.3   -40725.789     4031.212   -44757.001    513.30012   0.96207588 
   46300     298.4491   -892.63484    143128.45   -40724.483    4098.4798   -44822.963    513.86255   0.96309657 
   46400    295.37878   -951.08644    143160.34   -40721.473    4056.3163    -44777.79    515.32917   0.96288199 
   46500    296.22581   -1183.4853     143165.4   -40671.791    4067.9482   -44739.739    516.27048   0.96284798 
   46600    298.95267   -643.58371    142907.88   -40635.738     4105.395   -44741.133    516.60569     0.964583 
   46700    303.46888    -625.0704    143086.75   -40663.585    4167.4143   -44830.999    518.27817   0.96337721 
   46800    302.40879   -1098.6583     142838.9    -40651.55    4152.8565   -44804.407    518.29222   0.96504886 
   46900    305.55864   -894.39338    142725.76   -40704.872    4196.1121   -44900.984    518.74028   0.96581389 
   47000    296.19938   -755.63581    142758.96   -40765.232    4067.5852   -44832.817    520.88356   0.96558922 
   47100    299.00904   -732.71904    143327.31   -40747.863    4106.1692   -44854.032    523.91576   0.96176029 
   47200    296.67455   -1149.4569    143312.39   -40807.553    4074.1105   -44881.663    524.74156   0.96186041 
   47300    292.87738   -991.90668    143069.79   -40788.951    4021.9656   -44810.917    525.17501   0.96349142 
   47400    298.70265   -1003.6422    143026.78   -40735.274    4101.9617   -44837.235    525.51641   0.96378118 
   47500    290.57032   -948.56451    143113.08   -40817.789    3990.2836   -44808.072    527.97498   0.96320002 
   47600    297.24315   -871.96247    143007.05   -40720.365    4081.9188   -44802.284    529.09529   0.96391415 
   47700    296.89823   -945.92977    143085.83   -40765.421    4077.1822   -44842.603    530.88239   0.96338343 
   47800    293.40511   -713.22667    143334.95    -40792.34    4029.2126   -44821.553     532.8221   0.96170906 
   47900     295.7433   -984.90352    143633.22   -40758.589    4061.3221   -44819.911    534.66371   0.95971194 
   48000    291.53084   -1032.5314    143296.09   -40810.429     4003.474   -44813.903     534.1686   0.96196985 
   48100    295.04612   -1050.9022    142817.42   -40869.015     4051.748   -44920.763    534.06524   0.96519403 
   48200    293.62074   -969.34205    142849.35   -40801.972    4032.1737   -44834.145    535.12343   0.96497827 
   48300    297.36637   -1003.7743    142421.85   -40818.571    4083.6111   -44902.182     534.9597   0.96787478 
   48400    290.04114   -930.14808    142274.98   -40820.618    3983.0166   -44803.635    536.41852   0.96887394 
   48500    293.72894   -1014.0085    142053.24   -40909.371    4033.6597   -44943.031    536.68127   0.97038626 
   48600    294.77042   -1102.7391    142005.44   -40875.787    4047.9619   -44923.749    537.66487    0.9707129 
   48700    296.07066   -975.28653    141969.83   -40936.495    4065.8175   -45002.312    539.17552   0.97095644 
   48800    293.87824   -1025.3726    142018.33   -40906.921    4035.7099   -44942.631     541.0215   0.97062484 
   48900    292.79151   -1096.9309    142288.55   -40852.505    4020.7863   -44873.292    543.52645    0.9687815 
   49000    296.32615   -1053.2976    142021.95   -40829.461    4069.3261   -44898.787     545.4047   0.97060009 
   49100    296.36437   -1087.9057     142192.3   -40863.239    4069.8509    -44933.09     547.7271   0.96943728 
   49200    292.10541    -787.0575    142081.91   -40960.363    4011.3644   -44971.727    548.01608   0.97019045 
   49300    290.04958   -1247.2116    142196.41   -40914.725    3983.1325   -44897.858    549.22015   0.96940925 
   49400    291.38378   -1011.3125    142449.06   -40862.626    4001.4545   -44864.081    550.20779   0.96768989 
   49500    291.53462   -709.79067    142443.56   -40811.668     4003.526   -44815.194    550.97408   0.96772723 
   49600    293.50266   -1060.8267    142521.68   -40784.572    4030.5523   -44815.124    552.89753   0.96719686 
   49700    298.49752   -905.45346    142459.96   -40759.143    4099.1446   -44858.287    554.73938   0.96761586 
   49800    295.38415   -858.59458    142394.92   -40723.088      4056.39   -44779.478    556.47213   0.96805781 
   49900    291.17689   -1085.4418    142802.66   -40786.179    3998.6134   -44784.793     558.3222   0.96529373 
   50000    302.45214   -894.68466    142694.24   -40856.113    4153.4518   -45009.565    558.91706   0.96602717 
   50100    301.77571   -844.81482    142935.39   -40901.861    4144.1627   -45046.024    560.72406   0.96439736 
   50200    295.67055    -1207.027    142834.59   -40907.454    4060.3231   -44967.777    561.98951     0.965078 
   50300    294.06891   -1212.0757    142731.69   -40881.534    4038.3283   -44919.862    563.02915   0.96577371 
   50400     294.0911    -647.1142    142512.78   -40922.925     4038.633   -44961.558    564.20425   0.96725722 
   50500    293.04218   -917.42469    143029.67   -40897.338    4024.2287   -44921.566    567.21339   0.96376168 
   50600     294.8638   -886.12022    143297.92   -40918.882    4049.2442   -44968.126    569.13306   0.96195758 
   50700    294.28461   -911.90592    142928.81   -40774.926    4041.2904   -44816.216    569.04823   0.96444179 
   50800    301.33189   -933.01706    142998.53    -40725.48    4138.0679   -44863.548    570.84121   0.96397155 
   50900    292.34354   -941.43136    143248.22   -40761.357    4014.6345   -44775.991     572.5501   0.96229129 
   51000    296.41433   -1153.0562    143003.45   -40823.218     4070.537   -44893.755    573.12144   0.96393841 
   51100    295.22857   -952.95613    142937.46   -40787.074    4054.2535   -44841.327    574.13854   0.96438339 
   51200    294.67414   -1062.0191    143229.96   -40677.004    4046.6397   -44723.644    575.98709   0.96241396 
   51300    303.77184   -1101.7611    142845.59   -40621.077    4171.5748   -44792.652    575.28185   0.96500363 
   51400    296.96447   -1132.7963    142839.52   -40811.863    4078.0919   -44889.955    577.19467    0.9650447 
   51500    295.19461   -945.60181    143050.48   -40873.857    4053.7872   -44927.644    578.55662   0.96362148 
   51600    294.67715   -1086.6312    142939.34   -40856.972     4046.681   -44903.653    579.78653   0.96437076 
   51700    292.53063   -998.17686    142836.33    -40817.09    4017.2038   -44834.294    580.15258   0.96506619 
   51800    290.38855   -936.31865       142847   -40888.609    3987.7875   -44876.396     580.2893   0.96499413 
   51900    288.73952   -1064.6805    142847.22   -40927.232     3965.142   -44892.374    581.31018   0.96499262 
   52000    296.21167   -1057.9163    142390.47   -40902.722     4067.754   -44970.476    582.11523   0.96808806 
   52100     294.3801   -954.44042    142445.46   -40920.229    4042.6017   -44962.831    583.44584   0.96771432 
   52200    291.72946   -1198.6253    142483.01   -40896.271    4006.2016   -44902.472     584.7682   0.96745935 
   52300    294.93824   -1088.0696     142161.5   -40855.387    4050.2665   -44905.654    584.54829    0.9696473 
   52400    296.35746   -1012.2434    142673.17   -40751.915     4069.756   -44821.671    586.82745   0.96616989 
   52500    297.77916   -988.74489     142924.5   -40740.203    4089.2796   -44829.483     589.6983   0.96447089 
   52600    290.88072   -1207.6505    142764.62   -40876.701    3994.5463   -44871.247    591.14376   0.96555094 
   52700    291.75017   -992.35162    142545.87   -40901.943    4006.4861   -44908.429     591.7588   0.96703271 
   52800     296.3471   -1140.9438     142287.8   -40926.524    4069.6138   -44996.138    592.47627   0.96878662 
   52900    293.09675   -750.18725    142025.23   -41035.965    4024.9781   -45060.943    592.02307   0.97057769 
   53000    292.28139   -1118.1773    142198.31   -41117.131    4013.7811   -45130.912    593.11638    0.9693963 
   53100    288.77515   -1074.8055    142684.27   -41119.713    3965.6313   -45085.344    595.33598   0.96609469 
   53200    294.85627   -940.16954    142987.81     -40993.4    4049.1408   -45042.541    596.45768   0.96404386 
   53300    292.22835   -1023.9293    143089.99   -40994.862    4013.0527   -45007.915     597.1631   0.96335539 
   53400    297.58961   -725.56065    142917.49       -40878    4086.6767   -44964.676    596.86212   0.96451814 
   53500    297.34072   -1112.2796    143131.29   -40882.287    4083.2588   -44965.546    598.04499   0.96307747 
   53600    292.35902   -1010.8564    143176.21   -40872.858    4014.8471   -44887.705    599.69657   0.96277529 
   53700    294.47464   -756.62471    143249.36   -40902.486       4043.9   -44946.386    600.26063   0.96228364 
   53800    291.88924   -944.73624    143048.92   -41006.376    4008.3958   -45014.772    600.19063   0.96363202 
   53900    286.27824   -804.65132    142904.81   -41019.335    3931.3423   -44950.677    601.11103   0.96460377 
   54000    296.18746   -1143.6142    142589.75   -40957.255    4067.4215   -45024.676    601.69391   0.96673509 
   54100    292.28782   -1045.4773    142523.46   -40901.408    4013.8694   -44915.277    601.88111   0.96718475 
   54200    292.19616   -1047.8679    142267.74   -40908.775    4012.6106   -44921.386    602.10395   0.96892319 
   54300    295.35034   -818.66536    142611.27    -40827.07    4055.9256   -44882.995    604.80496   0.96658922 
   54400    292.95328     -952.339     142612.9   -40915.356    4023.0078   -44938.363    606.07295   0.96657817 
   54500     295.4397   -912.48383    143046.78   -40868.308    4057.1528   -44925.461     608.9533   0.96364641 
   54600    293.89647   -1303.2669    142834.46   -40867.726    4035.9603   -44903.686    610.00832   0.96507883 
   54700    299.33484   -991.11964    142469.93   -40899.292    4110.6431   -45009.935     610.3792   0.96754818 
   54800    295.27995   -1027.7154     142447.5   -40901.078    4054.9591   -44956.037    611.97506   0.96770048 
   54900     296.5135   -827.74209    142486.77   -40800.434    4071.8989   -44872.333    614.10836   0.96743379 
   55000    296.81051   -954.91941     142788.9   -40749.075    4075.9776   -44825.053    615.68972   0.96538681 
   55100    301.83775   -1294.4101     142874.7   -40740.532    4145.0146   -44885.547     617.9543   0.96480706 
   55200    297.69798   -964.78657    142712.17   -40788.692    4088.1648   -44876.857    618.52292    0.9659058 
   55300    295.51419   -881.64452    142920.88   -40766.179    4058.1757   -44824.355    620.06369   0.96449527 
   55400    303.48519   -924.11277    142980.07   -40761.896    4167.6383   -44929.534     620.3434   0.96409601 
   55500    298.82864   -1095.9988    142624.84   -40817.871    4103.6918   -44921.563    620.11807   0.96649727 
   55600    297.55988   -955.76402    142709.04   -40756.645    4086.2684   -44842.913    621.79146   0.96592703 
   55700    298.43608   -989.06087    142606.41   -40774.748    4098.3008   -44873.049    621.30382   0.96662219 
   55800    294.25516   -990.27628    142497.81   -40874.337     4040.886   -44915.223    623.47796   0.96735884 
   55900    290.86458   -770.19776    142478.64   -40979.101    3994.3246   -44973.426    624.58531   0.96748898 
   56000    288.34233   -880.09244    142838.19   -41043.734    3959.6875   -45003.422    628.38284   0.96505366 
   56100    291.17177   -880.75389    142738.25   -40943.694    3998.5431   -44942.238    629.92489   0.96572932 
   56200    297.55697   -913.99112    142575.51   -40942.682    4086.2285    -45028.91    630.54132   0.96683166 
   56300    297.01909   -877.72827    142693.85   -40849.131    4078.8419   -44927.973    631.58295   0.96602983 
   56400    295.38322   -918.32286    142797.77   -40721.563    4056.3772    -44777.94    633.65799   0.96532679 
   56500    300.66948   -930.77396     142508.4   -40783.185    4128.9713   -44912.156    634.36232   0.96728696 
   56600    296.69068   -1196.8797    142625.21   -40714.963     4074.332   -44789.295    635.46861   0.96649475 
   56700    298.38625   -1251.1301    142564.75   -40738.885    4097.6165   -44836.501    636.50766   0.96690466 
   56800    300.34727   -944.43292    142531.77   -40721.441    4124.5465   -44845.987    638.86423   0.96712835 
   56900    296.00176   -963.42452    142525.06   -40818.225    4064.8714   -44883.096    640.24449   0.96717391 
   57000    297.97316   -1140.4492    142757.88   -40834.168    4091.9438   -44926.112    641.94561   0.96559657 
   57100     292.3103   -877.32342     142554.5   -40916.734    4014.1781   -44930.912    643.24446   0.96697415 
   57200    285.36257   -1027.0772    142678.01   -40994.654    3918.7677   -44913.421    645.65319   0.96613709 
   57300    293.82832   -576.11059    142536.97   -40949.467    4035.0244   -44984.492    646.04683   0.96709305 
   57400    297.26144   -1236.5241    142457.33   -40972.406    4082.1701   -45054.577     646.0447   0.96763374 
   57500    291.86832   -1201.9709    142336.54   -40931.546    4008.1086   -44939.655    646.30882   0.96845488 
   57600    285.73623   -942.20404    142249.65   -40966.595     3923.899   -44890.494    646.61641   0.96904644 
   57700    292.09181   -782.19274    142261.19   -40923.442    4011.1777   -44934.619    648.61779   0.96896785 
   57800    294.55589   -1078.3231     142452.9   -40815.575    4045.0158   -44860.591    650.14084   0.96766379 
   57900     291.5913   -1006.1715    142592.37   -40941.013    4004.3043   -44945.318    650.96776   0.96671735 
   58000    292.56975    -1071.116    142560.57    -40946.84     4017.741   -44964.581    652.38439     0.966933 
   58100    298.30119   -1049.0495    142283.52   -40811.072    4096.4485    -44907.52    652.63099   0.96881574 
   58200    293.53465   -1133.8179    142174.28   -40920.444    4030.9916   -44951.435    653.47764   0.96956016 
   58300    293.20954   -1044.7935    142217.58   -40962.052    4026.5269   -44988.579    654.79933   0.96926495 
   58400    292.74369   -865.84773    142188.37   -40883.094    4020.1296   -44903.223    655.78101   0.96946405 
   58500    294.18544   -1058.5878    142253.45   -40753.394    4039.9286   -44793.323    657.51821   0.96902054 
   58600    296.04344   -900.88289    142626.16    -40807.42    4065.4437   -44872.864    659.71059   0.96648834 
   58700    296.86327   -1145.7353    142807.54   -40767.566    4076.7022   -44844.268    660.52125   0.96526075 
   58800    299.74302   -758.46489    143005.33   -40773.338    4116.2486   -44889.587    662.74483   0.96392573 
   58900    293.25287   -1186.6717    143011.66   -40732.721     4027.122   -44759.843    664.90757   0.96388305 
   59000    292.83391    -968.7041    143062.06   -40831.406    4021.3686   -44852.774    667.25718   0.96354348 
   59100    300.74877   -942.77553    143184.22   -40798.373    4130.0601   -44928.433     668.6716   0.96272143 
   59200    295.26527   -1003.3081    142981.55   -40913.591    4054.7575   -44968.348    668.83177   0.96408603 
   59300    294.24593    -804.4064    142744.53   -40930.709    4040.7593   -44971.468    669.23676   0.96568684 
   59400    293.89028   -1062.0793    143088.77   -40878.875    4035.8753    -44914.75    670.07848   0.96336366 
   59500    293.75282   -912.38707    142785.15   -40888.684    4033.9876   -44922.672    670.52711   0.96541214 
   59600    300.48072   -1080.8866    142964.34    -40780.53     4126.379   -44906.909    672.65431   0.96420209 
   59700    300.43407   -1006.6826    142755.14   -40865.928    4125.7384   -44991.666    672.76053    0.9656151 
   59800    296.06181   -992.83429    142489.92   -40860.553     4065.696   -44926.249    672.60309   0.96741242 
   59900    296.87932   -1169.4051    142142.37   -40929.171    4076.9226   -45006.094    671.70581   0.96977779 
   60000    292.78048   -926.22591    142200.36   -40860.221    4020.6349   -44880.856    673.27227   0.96938233 
   60100     296.8294   -912.53419    142357.98   -40854.677     4076.237   -44930.914    674.91985   0.96830905 
   60200    294.86225   -1181.7739    142599.58   -40959.781     4049.223   -45009.004    676.88703   0.96666845 
   60300    300.22219   -1106.4871    142638.32   -40884.226    4122.8289   -45007.055    678.22655   0.96640593 
   60400    293.05144   -1037.4811    142538.51   -40883.134    4024.3558    -44907.49    679.25179   0.96708266 
   60500    291.05575   -661.56435    142424.69   -40967.559    3996.9499   -44964.509    679.96186   0.96785547 
   60600    294.15146   -842.14988    142420.23   -40886.239     4039.462   -44925.701    681.40756   0.96788581 
   60700    297.01732   -1115.9503    142486.79    -40920.88    4078.8177   -44999.697    683.67405   0.96743366 
   60800    296.07268   -807.47863    142729.23   -40889.972    4065.8453   -44955.817    685.44881    0.9657904 
   60900    297.57461   -997.50211    142858.82   -40853.086    4086.4706   -44939.557    685.64132   0.96491428 
   61000    297.07469   -867.04372    142982.57   -40748.327    4079.6055   -44827.932    687.20075   0.96407918 
   61100    303.20878    -1162.933    142998.42   -40693.086    4163.8424   -44856.928    687.48802   0.96397228 
   61200    292.23441   -980.18783    143114.97   -40755.169    4013.1359   -44768.305    688.82436   0.96318726 
   61300    299.26301   -1277.9366    142985.19   -40690.869    4109.6568   -44800.526    689.67849   0.96406153 
   61400     305.5543   -1097.6026    143097.33   -40580.769    4196.0525   -44776.821    691.04601   0.96330603 
   61500     302.0071   -1022.4199    143386.06   -40621.014    4147.3403   -44768.355    694.18636   0.96136624 
   61600    297.29553   -1030.7148    143572.15   -40713.444    4082.6382   -44796.083     696.5082    0.9601202 
   61700    299.40044   -804.48989    143466.37   -40764.519     4111.544   -44876.063    697.13632   0.96082809 
   61800    295.79197   -921.97271    143750.58   -40786.914    4061.9904   -44848.905    699.22432   0.95892845 
   61900    294.93699   -986.64632    143581.62   -40693.345    4050.2494   -44743.595    699.88459   0.96005686 
   62000    296.34975   -1047.1851    143257.29   -40791.894    4069.6502   -44861.545    699.79363   0.96223039 
   62100      301.919   -729.94086    142911.39   -40846.755    4146.1305   -44992.886    700.28518   0.96455934 
   62200    293.17999    -820.5411    142645.52   -40902.583    4026.1212   -44928.704     700.4414   0.96635712 
   62300    293.68785   -1193.3006    142973.13   -40894.361    4033.0955   -44927.456    702.93386   0.96414284 
   62400    295.92941   -1180.2458    142771.93    -40939.84    4063.8778   -45003.717    703.26109   0.96550154 
   62500    296.34393   -1361.1173       142792   -40881.816    4069.5702   -44951.387    704.50765   0.96536582 
   62600    300.92352    -952.0897    142660.87   -40870.639      4132.46   -45003.099    705.51092   0.96625318 
   62700    295.21227   -808.26995    142738.02   -40844.352    4054.0297   -44898.381    707.04887   0.96573093 
   62800    295.16422    -964.6766    142891.84   -40888.161    4053.3698    -44941.53    708.37201    0.9646913 
   62900    294.17079   -916.07698    142575.09   -40816.859    4039.7275   -44856.586    709.12139   0.96683448 
   63000    294.21586   -1013.8792    142698.95   -40830.992    4040.3463   -44871.338    710.61025    0.9659953 
   63100    292.67225   -1128.8744    142568.28   -40845.412    4019.1486    -44864.56    711.80447   0.96688069 
   63200    295.65268   -912.56296    142576.74   -40810.389    4060.0776   -44870.466     712.8452   0.96682332 
   63300    293.06294   -1102.4364    142597.53   -40947.473    4024.5137   -44971.987     713.5374   0.96668239 
   63400    293.84688   -877.09158    142470.95    -41012.43    4035.2793   -45047.709    714.21095   0.96754119 
   63500     295.7027   -1052.1393    142585.08   -40871.565    4060.7645   -44932.329    716.16964   0.96676679 
   63600    295.67456    -978.3846    142511.21   -40831.639     4060.378   -44892.017    717.02592   0.96726788 
   63700    292.45338   -1003.9381    142494.39   -40935.372    4016.1429   -44951.514    718.80109   0.96738208 
   63800    291.28084    -834.6501    142651.32    -40929.07    4000.0409   -44929.111    719.22941   0.96631784 
   63900    294.63352   -999.26478    142811.22   -40844.223    4046.0819   -44890.305     720.7625   0.96523588 
   64000    293.82987   -930.27045    142712.46   -40921.201    4035.0458   -44956.246    721.28713   0.96590388 
   64100    288.68086    -952.5145    142830.36   -40920.167    3964.3364   -44884.504    722.82677   0.96510659 
   64200    292.41619   -1206.2191    142686.24   -40913.544    4015.6322   -44929.176    725.60401   0.96608138 
   64300    291.83136   -1019.7681    142775.28   -40956.322     4007.601   -44963.923    725.87427   0.96547887 
   64400    290.01779    -1190.787    142488.05   -40969.156    3982.6959   -44951.852    724.78497    0.9674251 
   64500    295.90286   -996.19477     142768.1   -41008.827    4063.5132    -45072.34    726.58205   0.96552743 
   64600     291.9894   -1055.2352    142736.75   -40942.002    4009.7712   -44951.773    727.10276   0.96573952 
   64700    292.96867   -1077.7949    142506.36   -40858.054    4023.2192   -44881.273    727.89752   0.96730079 
   64800    300.10992   -893.45781     142709.3   -40749.965    4121.2871   -44871.252    729.86104   0.96592523 
   64900    298.33806   -977.88638    143036.33   -40798.752    4096.9548   -44895.706    732.76868   0.96371683 
   65000    294.78048   -919.43466    143144.97   -40854.617       4048.1   -44902.717    734.44951   0.96298539 
   65100    295.16018   -1063.6731    143015.64   -40959.416    4053.3143    -45012.73    735.47254   0.96385627 
   65200    294.55873   -976.17817    142674.24   -40917.685    4045.0548    -44962.74    735.16421   0.96616262 
   65300    291.63517   -794.28431    142724.97   -40935.422    4004.9068   -44940.329    735.99649   0.96581923 
   65400    291.38501   -1022.3807    142678.54   -41014.854    4001.4715   -45016.326    736.94192   0.96613353 
   65500      294.677   -881.08392    142413.12   -40935.877     4046.679   -44982.556    738.06505   0.96793412 
   65600    297.91127   -982.41936    142681.35    -40850.33    4091.0939   -44941.424    740.09845   0.96611444 
   65700     297.7189   -960.52552    142800.11   -40826.687    4088.4522   -44915.139     741.3069   0.96531101 
   65800    290.69546   -878.30675    143040.45   -40854.749    3992.0021   -44846.751    742.78331   0.96368908 
   65900    296.56243   -1131.6074    143060.54   -40826.016    4072.5709   -44898.587     743.6447   0.96355376 
   66000    295.46746   -972.72941    143123.17   -40851.524    4057.5341   -44909.058    744.92367   0.96313209 
   66100    298.53786   -915.88666    143092.83   -40833.219    4099.6985   -44932.918    745.90303    0.9633363 
   66200    296.07898   -1000.4444    142944.48   -40762.835    4065.9318   -44828.766    746.85482   0.96433603 
[...]
   84600    294.71963   -1126.8456    143127.53    -40956.82    4047.2644   -45004.085    966.06066   0.96310276 
   84700    292.95126   -1058.4361    143097.47     -41003.6    4022.9802    -45026.58     967.4791   0.96330508 
   84800      297.083   -1040.3857    142760.88   -40950.292    4079.7196   -45030.012    968.18929   0.96557625 
   84900    292.26765   -797.99349    143326.37   -40882.131    4013.5923   -44895.723    971.11384   0.96176661 
   85000    293.45587   -843.05786    143429.13   -40865.673    4029.9097   -44895.583    972.58395   0.96107754 
   85100    291.62573   -907.02427    143506.42   -40830.953    4004.7772    -44835.73    973.82944    0.9605599 
   85200    297.65537   -1022.4944    143189.89   -40816.028    4087.5797   -44903.608    973.24844   0.96268333 
   85300    294.98145    -1047.182    142863.62   -40826.408    4050.8599   -44877.268    973.39924   0.96488186 
   85400    298.43701   -900.15664    142724.24   -40818.758    4098.3137   -44917.072    974.19828   0.96582416 
   85500    297.39553   -1239.3981    142534.61   -40875.373    4084.0114   -44959.385    974.27728   0.96710912 
   85600    291.23128   -905.29473    142859.85   -40843.175    3999.3604   -44842.535    977.32858   0.96490735 
   85700    296.27757   -1135.1464    143221.91   -40821.894    4068.6589   -44890.552    979.88809   0.96246806 
   85800    292.86011   -984.26204    142867.87   -40827.647    4021.7283   -44849.375    979.96695   0.96485317 
   85900    297.93642   -1170.3067     142906.2   -40888.269    4091.4393   -44979.708    980.68546   0.96459439 
   86000    297.03974   -586.88194    143003.16    -40896.04    4079.1255   -44975.166    981.41467   0.96394034 
   86100    294.50623   -990.86159    143159.84   -40922.539    4044.3339   -44966.873    982.73667   0.96288535 
   86200    292.40587   -1282.1187    143244.67   -40884.103    4015.4904   -44899.594    983.90193   0.96231518 
   86300    295.06685   -1099.9953    142803.15   -40915.206    4052.0326   -44967.239    982.53514   0.96529042 
   86400    295.94817   -1093.6593    142632.84   -40883.073    4064.1354   -44947.208     983.3336   0.96644303 
   86500    295.22007   -832.06175    142596.57   -40848.975    4054.1367   -44903.112    984.43016    0.9666889 
   86600     294.0105   -1017.2774    142457.59   -40884.609    4037.5262   -44922.136    984.41023   0.96763198 
   86700    290.28261   -1007.7623    142650.68   -40883.287    3986.3327    -44869.62    986.70395   0.96632216 
   86800    293.59231    -1002.841    142629.97    -40845.29    4031.7834   -44877.074    989.36503   0.96646248 
   86900    294.39995   -1005.0313       142578    -40851.28    4042.8744   -44894.155     990.8922   0.96681481 
   87000    295.40385   -966.81359    142608.77   -40898.542    4056.6605   -44955.203    993.15233   0.96660617 
   87100    290.56811   -861.63834    142631.37   -40927.407    3990.2533    -44917.66    994.28585     0.966453 
   87200    291.79453        -1140    142910.58   -40921.774    4007.0953    -44928.87    996.73247   0.96456482 
   87300    295.91071   -795.98615    142884.08   -40766.455     4063.621   -44830.076    997.76496   0.96474368 
   87400    295.89273   -1029.2462    142870.77   -40851.429    4063.3741   -44914.804    999.00205   0.96483358 
   87500    296.08125   -803.83544    142779.53   -40900.569     4065.963   -44966.532    999.03889   0.96545012 
   87600    299.97318    -1182.011    142365.49   -40904.328    4119.4092   -45023.737    998.04164   0.96825791 
   87700    302.86531   -938.74314    142511.98   -40891.551    4159.1257   -45050.677    1000.2928   0.96726268 
   87800    295.08979   -784.20771    142730.12   -40774.149    4052.3477   -44826.497    1001.4202   0.96578433 
   87900     295.3173   -1200.4291     142968.4   -40763.132    4055.4719   -44818.604    1004.3209   0.96417471 
   88000    294.77923   -756.50355    143138.99   -40749.771    4048.0829   -44797.854    1007.1867    0.9630256 
   88100    298.64608   -1074.8267    143136.06   -40766.009    4101.1847   -44867.194    1008.4776   0.96304535 
   88200    299.04966   -1081.6636    143103.37    -40706.21    4106.7269   -44812.937    1009.6365   0.96326537 
   88300    292.93373   -1097.1764    143055.38   -40714.512    4022.7394   -44737.251    1009.5522   0.96358847 
   88400    294.72385   -707.06662     143204.5   -40801.605    4047.3223   -44848.927    1011.6426   0.96258512 
   88500    299.14933   -805.61338    143283.26   -40816.892    4108.0957   -44924.987    1012.7874   0.96205597 
   88600     296.4444   -984.37395    143456.06   -40830.287    4070.9499   -44901.237    1014.6735   0.96089716 
   88700    289.10896   -860.78677     143478.7   -40867.548    3970.2154   -44837.763    1015.8871   0.96074552 
   88800    295.33994   -993.56243    143351.72   -40859.613    4055.7829   -44915.396    1015.5356   0.96159654 
   88900    292.78278   -1210.9458    143045.13   -40886.868    4020.6664   -44907.534    1016.2302   0.96365756 
   89000    295.04694   -675.44596     143130.7   -40802.658    4051.7592   -44854.418    1019.2331   0.96308138 
   89100    297.95433   -1083.4334     143152.3   -40748.028    4091.6852   -44839.713    1021.3027   0.96293609 
   89200    293.58782   -1060.9044    143188.37   -40850.149    4031.7217    -44881.87    1022.1355   0.96269353 
   89300    293.80085   -1054.7536    142980.38   -40872.993    4034.6472    -44907.64    1022.8449    0.9640939 
   89400    297.10568   -737.17447    143230.39   -40805.007    4080.0311   -44885.038     1025.416   0.96241109 
   89500    293.83566   -1117.3921     142947.5   -40896.996    4035.1252   -44932.122    1025.2878   0.96431567 
   89600    297.80247   -849.58186    143153.06   -40858.324    4089.5998   -44947.924    1027.3124   0.96293095 
   89700    291.89246   -809.95949    143254.26    -40845.43    4008.4401    -44853.87    1028.0503   0.96225076 
   89800    293.67443   -1096.4125    143031.58   -40870.517    4032.9111   -44903.428    1028.1728   0.96374883 
   89900    296.46765   -1207.5712    143162.19   -40878.096    4071.2693   -44949.365    1029.0677   0.96286959 
   90000     297.1486   -999.10016    143181.79   -40848.067    4080.6204   -44928.688    1030.1964   0.96273776 
   90100    300.44814   -1137.5622    143038.26   -40839.938    4125.9317    -44965.87    1029.1943    0.9637038 
   90200    290.57163   -1038.5764     142919.7   -40997.946    3990.3016   -44988.248    1030.1266   0.96450327 
   90300    293.80844   -1005.8915    142796.78   -41011.037    4034.7514   -45045.788    1030.4303    0.9653335 
   90400    294.38056   -986.51918    143018.09   -40908.742     4042.608    -44951.35    1032.7584   0.96383971 
   90500    300.29943   -584.45504    143105.84   -40828.186    4123.8895   -44952.076    1034.6344   0.96324874 
   90600    296.16903   -1049.5396     142816.6   -40839.695    4067.1684   -44906.863    1034.4755   0.96519952 
   90700     295.6909   -1135.7993     143127.7   -40845.603    4060.6024   -44906.205    1037.4028    0.9631016 
   90800    296.86333   -1012.5499    143056.42   -40818.023     4076.703   -44894.726    1038.8962   0.96358145 
   90900    294.30502   -786.48199    142808.26   -40934.708    4041.5707   -44976.279    1038.9897   0.96525594 
   91000    297.08598   -987.47312    142780.21   -40873.684    4079.7605   -44953.445    1039.7461   0.96544552 
   91100    299.50193    -873.3378    142649.74   -40834.308    4112.9377   -44947.246    1039.1607   0.96632856 
   91200    293.02176   -734.61266    142919.33   -40886.935    4023.9482   -44910.883    1042.0748   0.96450572 
   91300    297.54458   -798.87468    143350.86   -40874.744    4086.0583   -44960.802    1044.7954   0.96160228 
   91400    294.41109   -1396.4779    143217.13   -40907.438    4043.0274   -44950.466    1045.8839   0.96250019 
   91500    294.77367   -1003.1984    142951.63   -40905.571    4048.0065   -44953.577    1045.7526   0.96428784 
   91600    297.33868    -1002.449     143019.2   -40892.626    4083.2308   -44975.857    1047.2442   0.96383224 
   91700    290.16198   -1070.9762     142756.1   -40965.427    3984.6761   -44950.103    1047.0098   0.96560858 
   91800    290.21554   -966.94244    143018.52   -41005.326    3985.4116   -44990.737    1047.4504    0.9638368 
   91900    295.64672   -915.39208    142791.46   -40967.334    4059.9957    -45027.33    1047.7725    0.9653695 
   92000    296.19467   -859.97826    142724.56   -40890.253    4067.5206   -44957.774    1049.4827     0.965822 
   92100    299.84978     -1091.81    143064.05   -40842.125    4117.7146   -44959.839    1054.0787   0.96353008 
   92200    292.91295   -858.11342    143193.16   -40799.595     4022.454   -44822.049    1056.3917   0.96266132 
   92300      299.565   -851.09856    142675.45   -40796.603    4113.8039   -44910.407    1054.4528   0.96615445 
   92400    293.53846   -947.07277     142607.4   -40827.738    4031.0439   -44858.782    1054.9101   0.96661544 
   92500    294.90258   -963.20095    142798.89   -40751.169    4049.7767   -44800.946    1057.2578   0.96531927 
   92600    296.86598   -816.56458    143051.33   -40742.437    4076.7394   -44819.176    1059.7247   0.96361575 
   92700    296.61073   -929.06967    142940.71   -40789.334    4073.2341   -44862.569    1059.6869   0.96436149 
   92800    297.85281   -1197.9055    142611.97   -40830.515    4090.2911   -44920.806    1059.7643   0.96658447 
   92900     298.7895   -1036.2662    142265.79   -40811.314    4103.1543   -44914.468    1059.2958   0.96893648 
   93000    293.93978   -882.27525    142303.71   -40800.693     4036.555   -44837.248    1060.1228    0.9686783 
   93100    296.54193    -867.4744    142431.27   -40800.471    4072.2894    -44872.76    1063.2066   0.96781078 
   93200    291.91663   -757.86228    142703.91   -40757.459    4008.7719   -44766.231    1065.1535   0.96596176 
   93300    301.19516   -1088.5286    143069.21   -40679.355    4136.1902   -44815.545    1068.1216   0.96349534 
   93400     294.8965   -929.59812    142925.89   -40771.734    4049.6933   -44821.428    1068.7239   0.96446151 
   93500    289.54328   -1128.4783    143273.15   -40804.681    3976.1797   -44780.861    1071.8082   0.96212386 
   93600    293.54279   -842.12145    143335.03   -40797.737    4031.1034    -44828.84    1074.6742   0.96170853 
   93700    295.39057   -1078.6869    143641.27   -40797.789    4056.4782   -44854.267    1078.0325   0.95965815 
   93800    297.07348   -770.83689    143409.42   -40688.874    4079.5888   -44768.463    1077.1128   0.96120964 
   93900    294.80715   -1002.3553    143501.31   -40797.088    4048.4663   -44845.554    1078.7762   0.96059414 
   94000    288.64388   -822.26395    143520.94   -40839.073    3963.8286   -44802.901     1079.177   0.96046274 
   94100    293.66981   -1186.7076    143087.22   -40901.632    4032.8477    -44934.48    1076.7333   0.96337406 
   94200    291.94412   -1211.2488    142808.73   -40895.312    4009.1495   -44904.462    1075.4894   0.96525275 
   94300    293.63814   -1304.5626    142646.38   -40887.836    4032.4128   -44920.249    1075.2629   0.96635129 
   94400    293.10256   -932.35214    142514.92   -40868.558    4025.0579   -44893.616     1075.723   0.96724267 
   94500    296.17202   -1180.3265    142432.45   -40881.149    4067.2095   -44948.359    1077.3172   0.96780272 
   94600    291.54828   -907.86923    142370.33   -40951.799    4003.7136   -44955.512    1078.2437   0.96822504 
   94700     295.4904   -1050.2269    142531.74   -40810.456     4057.849   -44868.305    1081.3973   0.96712857 
   94800     294.8293   -845.60402    142693.36   -40778.836    4048.7704   -44827.607    1083.3007   0.96603318 
   94900    297.97683    -889.6561    142727.11    -40786.37    4091.9942   -44878.365    1084.6354   0.96580472 
   95000    295.98796    -775.8533    143118.61   -40784.141    4064.6818   -44848.823    1089.7444   0.96316275 
   95100    292.36346   -655.84925    143194.54   -40748.124    4014.9081   -44763.032    1090.7302   0.96265207 
   95200    298.50524   -1158.9063    143294.37   -40759.538    4099.2506   -44858.788    1092.3247   0.96198142 
   95300    290.97665   -1058.3253    143172.37   -40800.854    3995.8636   -44796.717    1093.4996    0.9628011 
   95400    298.81613   -899.68201    143427.22   -40750.867    4103.5199   -44854.387    1095.0017   0.96109036 
   95500     294.5352    -1117.219    143365.14   -40775.363    4044.7317   -44820.095    1095.9997    0.9615065 
   95600    287.82649   -1001.8287    143132.16   -40874.609    3952.6037   -44827.213    1096.6677   0.96307162 
   95700     294.2442    -1227.236    142892.95   -40808.756    4040.7356   -44849.492    1096.8993    0.9646838 
   95800    296.48655   -935.29112     142547.4   -40774.268    4071.5288   -44845.797    1094.9509   0.96702233 
   95900    296.49482   -873.06819    142172.18   -40750.616    4071.6424   -44822.258    1094.4379   0.96957446 
   96000     294.5114   -940.60092    142440.34   -40727.054    4044.4048   -44771.459    1097.5525   0.96774917 
   96100    296.78409   -953.90299    142739.64    -40718.79    4075.6148   -44794.405    1101.5997   0.96571993 
   96200    299.65021   -810.18165    142803.39   -40723.392    4114.9741   -44838.366    1104.1336   0.96528882 
   96300      298.689   -1073.6486    142976.38     -40730.6    4101.7741   -44832.374    1105.8628   0.96412091 
   96400    295.83603    -917.8832     142841.7   -40823.851    4062.5954   -44886.447    1105.7926   0.96502993 
   96500    294.77438   -1127.8616    143079.44   -40818.007    4048.0163   -44866.024    1109.8688   0.96342645 
   96600    296.36498   -954.88413    142918.79   -40758.887    4069.8594   -44828.746    1110.1325   0.96450943 
   96700    298.93485    -828.3414    142859.37   -40727.392    4105.1503   -44832.543    1111.2671   0.96491055 
   96800    299.36142   -984.93316    142780.61   -40717.085    4111.0083   -44828.093     1112.153   0.96544283 
   96900    293.66783   -882.17421    142930.21   -40759.819    4032.8205    -44792.64    1112.3026   0.96443236 
   97000    300.02872   -946.91848    142991.99   -40753.059     4120.172   -44873.231    1114.3177   0.96401567 
   97100    296.89642   -1046.9276    142776.56   -40814.321    4077.1573   -44891.479    1113.8965   0.96547023 
   97200    295.39877   -1072.1642    142622.25   -40841.834    4056.5907   -44898.424    1114.1229   0.96651479 
   97300    294.86923   -1171.1628    143015.56   -40816.826    4049.3188   -44866.145     1118.182   0.96385677 
   97400    294.36766   -983.93032    143379.31   -40798.688     4042.431   -44841.119    1121.0121   0.96141151 
   97500    299.20779   -1075.5363    143081.71   -40838.401    4108.8985     -44947.3    1120.7179   0.96341113 
   97600    290.15605   -1176.9961    143006.26   -40820.799    3984.5946   -44805.394    1121.9059   0.96391946 
   97700    290.72565   -959.16522    143159.58    -40870.58    3992.4167   -44862.996    1124.0327   0.96288712 
   97800    296.26739   -1004.5788    142982.66   -40842.457    4068.5192   -44910.976    1123.3449   0.96407856 
   97900    293.87672   -983.36593    143311.75   -40769.876     4035.689   -44805.565    1125.4727   0.96186473 
   98000    300.51734   -949.70222    142969.87   -40729.328     4126.882    -44856.21    1123.8074   0.96416483 
   98100    292.79121   -1102.7709    142740.14   -40796.105    4020.7822   -44816.887    1123.9662   0.96571655 
   98200    294.43645   -911.06023    142658.23   -40745.279    4043.3756   -44788.654    1124.2995   0.96627105 
   98300    305.44935   -1044.5419    142736.95   -40657.586    4194.6113   -44852.197    1124.6401   0.96573816 
   98400    292.84299   -892.46282    142669.68   -40696.453    4021.4933   -44717.947    1125.7746   0.96619347 
   98500    296.58741   -948.15313    142416.75   -40716.507    4072.9139    -44789.42    1124.7409   0.96790944 
   98600    295.81647   -1127.6033    142599.62   -40760.081    4062.3269   -44822.408    1126.7252   0.96666821 
   98700    300.19093   -978.08169    142486.94   -40793.771    4122.3995   -44916.171    1127.0246   0.96743266 
   98800    296.11689   -1259.4646    142277.49    -40801.64    4066.4524   -44868.092    1126.1848   0.96885683 
   98900    300.54531   -919.31207    142157.48   -40810.802    4127.2661   -44938.068    1126.7984   0.96967471 
   99000    300.12468   -1199.1746    142339.88   -40736.072    4121.4897   -44857.562    1127.9548   0.96843213 
   99100    303.88279   -1079.7313    142427.34   -40811.476    4173.0983   -44984.574     1129.397   0.96783746 
   99200    291.85364   -1095.9532    142661.98    -40835.46    4007.9069   -44843.367    1130.5341   0.96624564 
   99300     295.4001   -1163.0975    142407.23   -40867.733     4056.609   -44924.342    1130.9249   0.96797416 
   99400     296.5351   -855.96392    142328.23   -40755.549    4072.1955   -44827.744    1132.4131   0.96851142 
   99500    297.04472   -1195.9565    142380.77   -40801.021    4079.1939   -44880.215    1133.8734   0.96815403 
   99600    293.27643     -1280.71    142463.14   -40839.624    4027.4455   -44867.069    1136.0476   0.96759423 
   99700    296.63649   -717.66198    142600.92   -40780.936    4073.5879   -44854.524    1138.6017   0.96665935 
   99800    298.14437   -1127.8315    142635.31   -40804.442     4094.295   -44898.737    1139.4535   0.96642629 
   99900    297.03046   -1048.2509    142921.88   -40781.252    4078.9981    -44860.25    1141.6493   0.96448855 
  100000    292.97675   -917.19061    142669.97   -40799.604    4023.3302   -44822.935    1141.1593   0.96619152 
  100100    291.92148   -1088.4374    142645.58   -40836.961    4008.8385   -44845.799    1143.4689    0.9663567 
  100200    296.14106   -1118.3314     142341.5   -40797.992    4066.7843   -44864.777    1141.6416    0.9684211 
  100300    293.77901   -1053.5566     142494.8   -40800.306    4034.3472   -44834.654    1142.9774    0.9673793 
  100400    296.76683    -838.6381    142557.62   -40812.978    4075.3778   -44888.356    1142.5692   0.96695296 
  100500    288.86456   -997.66162    142634.02   -40820.516    3966.8591   -44787.375    1144.4579   0.96643504 
  100600    295.98332   -888.97996    142261.51   -40905.501    4064.6182   -44970.119     1143.852   0.96896564 
  100669    290.84017   -983.71704    142632.63   -40829.701    3993.9893   -44823.691    1146.2468   0.96644448 
Loop time of 111.049 on 6 procs for 100000 steps with 4608 atoms

Performance: 389.017 ns/day, 0.062 hours/ns, 900.503 timesteps/s
99.0% CPU use with 6 MPI tasks x no OpenMP threads

MPI task timing breakdown:
Section |  min time  |  avg time  |  max time  |%varavg| %total
---------------------------------------------------------------
Pair    | 92.949     | 93.441     | 93.942     |   3.2 | 84.14
Neigh   | 7.0881     | 7.1263     | 7.1695     |   1.1 |  6.42
Comm    | 7.2097     | 7.7396     | 8.2669     |  12.1 |  6.97
Output  | 0.17392    | 0.17482    | 0.17852    |   0.4 |  0.16
Modify  | 1.8671     | 1.9279     | 1.9848     |   2.7 |  1.74
Other   |            | 0.6391     |            |       |  0.58

Nlocal:        768.000 ave         777 max         745 min
Histogram: 1 0 0 0 1 0 0 0 0 4
Nghost:        1545.17 ave        1563 max        1521 min
Histogram: 1 0 0 1 1 0 0 1 1 1
Neighs:        0.00000 ave           0 max           0 min
Histogram: 6 0 0 0 0 0 0 0 0 0
FullNghs:      21619.0 ave       22070 max       20554 min
Histogram: 1 0 0 0 0 1 0 1 0 3

Total # of neighbors = 129714
Ave neighs/atom = 28.149740
Neighbor list builds = 7133
Dangerous builds = 0

undump              1
unfix               2
unfix               3
unfix               4


################################################
#######         Run Simulation         #########
################################################

reset_timestep      0
log                 log.run_${NAME}
log                 log.run_liq_296K_-1000atm_ML
