
# Set production fixes - Nose/Hoover
#
fix                 2 all nph iso ${PRES} ${PRES} ${PCOUPL}
fix                 2 all nph iso -1000 ${PRES} ${PCOUPL}
fix                 2 all nph iso -1000 -1000 ${PCOUPL}
fix                 2 all nph iso -1000 -1000 10000.0
fix                 3 all temp/csvr ${TEMP} ${TEMP} ${TCOUPL} 837492
fix                 3 all temp/csvr 296 ${TEMP} ${TCOUPL} 837492
fix                 3 all temp/csvr 296 296 ${TCOUPL} 837492
fix                 3 all temp/csvr 296 296 5000.0 837492

# Define Order parameter
#
compute             2 all orientorder/atom nnn NULL cutoff 3.5
thermo              200
thermo_style        custom step temp press vol etotal ke pe c_1[4]

# Run 1ns simulation
dump		    1 all custom 400 prod.${NAME}.dump id type x y z vx vy vz c_2[*]
dump		    1 all custom 400 prod.ice_296K_-1000atm_ML.dump id type x y z vx vy vz c_2[*]
run                 200000
Neighbor list info ...
  update every 1 steps, delay 0 steps, check yes
  max neighbors/atom: 2000, page size: 100000
  master list distance cutoff = 6.0032907
  ghost atom cutoff = 6.0032907
  binsize = 3.0016454, bins = 20 18 18
  2 neighbor lists, perpetual/occasional/extra = 1 1 0
  (1) pair sw, perpetual
      attributes: full, newton on
      pair build: full/bin/atomonly
      stencil: full/bin/3d
      bin: standard
  (2) compute orientorder/atom, occasional, copy from (1)
      attributes: full, newton on
      pair build: copy
      stencil: none
      bin: none
Per MPI rank memory allocation (min/avg/max) = 5.821 | 5.821 | 5.822 Mbytes
Step Temp Press Volume TotEng KinEng PotEng c_1[4] 
       0    296.33279   -1019.5163    149959.97   -47382.924    4069.4173   -51452.341   0.15817938 
     200    301.69946   -995.53524     149983.2   -47373.332    4143.1156   -51516.448   0.14947779 
     400    295.55898    -1002.751    149996.61   -47366.155    4058.7908   -51424.946   0.14978278 
     600    297.34022   -961.46755    149961.03   -47405.517    4083.2519   -51488.769   0.15220357 
     800    295.03361   -959.32876    149926.61   -47421.742    4051.5761   -51473.319   0.15897066 
    1000    293.95444   -965.67261    149939.89   -47434.148    4036.7564   -51470.904   0.15654406 
    1200     293.9277    -987.9066    149972.27   -47459.648    4036.3891   -51496.037   0.14530938 
    1400     290.7555   -1006.7647    149974.06   -47449.699    3992.8267   -51442.525   0.14941367 
    1600    296.68185   -989.22071    149951.87   -47454.665    4074.2108   -51528.875   0.15294303 
    1800    293.15776   -1021.7969    149949.04   -47460.624    4025.8159    -51486.44   0.16248117 
    2000    294.42255   -988.25639     149954.9   -47413.635    4043.1848    -51456.82   0.15576973 
    2200    294.15102   -988.63086    149959.92   -47381.672     4039.456   -51421.128   0.15181974 
    2400     292.1754   -1017.3517    149973.04   -47400.172    4012.3255   -51412.498   0.15335449 
    2600     290.3255   -1024.0617    149968.22    -47445.65    3986.9217   -51432.572   0.15701847 
    2800    297.30109   -993.99357     149946.3   -47464.171    4082.7146   -51546.886   0.15865899 
    3000    296.08415    -963.6812    149902.83   -47476.163    4066.0028   -51542.166   0.15578851 
    3200    292.15263   -1004.5938    149877.35   -47421.326    4012.0129   -51433.339   0.15852472 
    3400    295.45352   -1018.6019    149944.13   -47460.036    4057.3426   -51517.379   0.15301851 
    3600    294.18836   -995.88896    149956.21     -47487.6    4039.9686   -51527.569   0.15204385 
    3800    292.55987   -952.88833    149853.37   -47413.626    4017.6053   -51431.231   0.15678197 
    4000    291.81259   -959.90816    149894.11   -47407.179    4007.3431   -51414.522   0.16268864 
    4200    297.02684   -1075.8425    150017.72   -47422.996    4078.9483   -51501.945   0.15952257 
    4400    292.25615   -1034.4221    149943.05   -47409.768    4013.4345   -51423.203   0.15811286 
    4600    291.35449   -921.67969    149824.12   -47389.814    4001.0524   -51390.867   0.15542533 
    4800    294.94359   -997.30534    149902.11   -47378.972      4050.34   -51429.312   0.15746126 
    5000    297.18436   -1059.4669    150024.62   -47355.404    4081.1115   -51436.516   0.15437042 
    5200    294.79759   -1024.8991    149957.25   -47358.268     4048.335   -51406.603   0.15865045 
    5400    300.19286   -940.28024    149838.93   -47319.793     4122.426   -51442.219   0.16021966 
    5600    297.75845   -969.43812     149964.6   -47302.111    4088.9953   -51391.106    0.1589327 
    5800    296.27799   -1123.4662    150113.35   -47288.298    4068.6648   -51356.962   0.15663337 
    6000    294.61679   -1025.5486    149970.02   -47276.251    4045.8521   -51322.103   0.16059656 
    6200    298.45789   -897.53284    149816.04   -47272.614    4098.6003   -51371.214   0.15923276 
    6400    305.15878   -986.77956    149976.92   -47238.719     4190.621    -51429.34   0.16031472 
    6600    295.58098   -1174.7318    150180.31   -47276.019     4059.093   -51335.112   0.16559554 
    6800    294.71651   -1009.3388    149982.68   -47318.747    4047.2215   -51365.968   0.15317079 
    7000    298.32795   -847.10076    149769.46   -47326.393     4096.816   -51423.209   0.15077948 
    7200    297.01444   -1029.8186    150006.86   -47270.332    4078.7781    -51349.11   0.16262869 
    7400    299.14006   -1206.3252    150200.39    -47250.98    4107.9684   -51358.949   0.17327939 
    7600     301.9908   -967.96073    149909.95   -47290.553    4147.1164    -51437.67   0.16183335 
    7800    300.43764   -814.42801    149713.61   -47321.681    4125.7875   -51447.469   0.14968367 
    8000    300.46565   -1069.1713    150048.06   -47283.015    4126.1721   -51409.187   0.15746383 
    8200     297.0575   -1182.2614    150227.17   -47315.645    4079.3694   -51395.014   0.16262493 
    8400    295.05708   -886.65314    149823.48   -47348.082    4051.8984    -51399.98   0.16111356 
    8600    298.41803   -821.26118    149672.16   -47308.819     4098.053   -51406.872   0.16057116 
    8800    298.35925   -1100.8365    150159.07   -47230.424    4097.2458    -51327.67   0.15766087 
    9000    299.36107   -1198.4132    150292.33   -47206.816    4111.0034   -51317.819   0.16039344 
    9200    304.94542   -797.61149    149720.25   -47199.824    4187.6909   -51387.515   0.15711659 
    9400     301.1815   -703.67409    149631.27   -47252.049    4136.0027   -51388.052   0.15601101 
    9600    298.71022   -1258.0688    150301.88   -47232.555    4102.0655    -51334.62   0.16152765 
    9800    296.69293   -1273.0527    150325.89   -47248.122    4074.3629   -51322.485   0.16249264 
   10000    295.67291   -719.77942     149610.3   -47254.376    4060.3554   -51314.731   0.15596266 
   10200    305.68498   -757.93791    149715.75   -47248.431    4197.8471   -51446.279   0.14924135 
   10400    300.22965   -1311.0307    150461.76   -47222.723    4122.9313   -51345.655   0.16302758 
   10600    303.15118   -1212.8954    150287.45   -47207.173    4163.0514   -51370.225   0.16509023 
   10800    306.45135   -655.53368     149577.1   -47250.228    4208.3713   -51458.599   0.15030865 
   11000    295.59026   -880.96537    149845.09   -47291.284    4059.2204   -51350.504   0.15461315 
   11200    299.44895   -1326.1992    150502.57   -47297.591    4112.2102   -51409.801   0.16386858 
   11400    298.15177   -1118.6765    150164.32   -47329.494    4094.3965    -51423.89   0.15350757 
   11600    302.89788   -663.49912    149543.59   -47309.497    4159.5729    -51469.07   0.15150244 
   11800    297.36482   -964.86092    149909.71   -47381.333    4083.5897   -51464.923   0.15332798 
   12000    294.16511   -1316.7891    150386.93   -47372.915    4039.6495   -51412.564   0.16700784 
   12200    295.35518   -987.90606    149949.63   -47357.547    4055.9922   -51413.539   0.15587056 
   12400    301.35086   -692.68155    149590.98   -47330.604    4138.3284   -51468.933    0.1484399 
   12600    300.99684   -996.58215    150049.16   -47336.191    4133.4667   -51469.658   0.15502838 
   12800    294.48982   -1263.5869    150319.34   -47341.537    4044.1085   -51385.646   0.16704492 
   13000    297.60835   -959.18343    149922.44   -47328.602    4086.9341   -51415.536   0.15886391 
   13200    298.37809   -843.21287    149739.06   -47302.462    4097.5045   -51399.967   0.15540412 
   13400    296.90716   -1071.7826    150074.39   -47317.422    4077.3048   -51394.726   0.15380071 
   13600    295.35378    -1148.884    150204.73   -47305.861     4055.973   -51361.834   0.15424759 
   13800    297.36334   -969.09276    149932.18   -47304.116    4083.5695   -51387.686   0.15941185 
   14000    296.05726   -862.77531    149847.49   -47326.846    4065.6335   -51392.479   0.15705915 
   14200    302.35518   -1062.7067    150051.27   -47350.977    4152.1203   -51503.097   0.15472331 
   14400    296.28767   -1075.1539    150044.67    -47375.62    4068.7977   -51444.417   0.15562847 
   14600    292.78674   -913.62799    149847.02   -47373.354    4020.7209   -51394.075   0.15439673 
   14800     299.6216   -934.98856    149874.85   -47355.834    4114.5812   -51470.415   0.15708961 
   15000    291.82188   -1059.6338    150033.02   -47405.717    4007.4708   -51413.188   0.15664212 
   15200    292.71962   -1019.2767    149957.32    -47461.46    4019.7991   -51481.259   0.15224306 
   15400    294.54008    -955.7306    149807.97   -47480.809    4044.7987   -51525.608   0.15186972 
   15600    289.37151   -974.33778    149909.43   -47515.272    3973.8209   -51489.093    0.1495883 
   15800    293.48634   -1057.6374    150023.01   -47464.225    4030.3282   -51494.553   0.15431618 
   16000    293.02747   -1000.5294    149913.96   -47451.774    4024.0267   -51475.801   0.15621481 
   16200    293.70654   -920.03698    149800.66   -47399.783    4033.3521   -51433.135    0.1549668 
   16400    295.97238   -1018.2509    149931.74   -47394.013     4064.468   -51458.481   0.15552745 
   16600    298.92123   -1071.6901    150060.79   -47409.912    4104.9633   -51514.875   0.15542341 
   16800    299.86636   -989.96156    149893.14   -47365.936    4117.9423   -51483.879   0.15921492 
   17000    291.47136   -920.76278    149784.84   -47390.468    4002.6573   -51393.126   0.16083975 
   17200    300.87381   -1030.2297    149990.78   -47371.246    4131.7773   -51503.023   0.15562468 
   17400    296.36844   -1095.1107     150067.6   -47414.901    4069.9068   -51484.808   0.15538367 
   17600     293.6769    -959.6316    149849.62   -47456.462     4032.945   -51489.407   0.15683398 
   17800    291.41711    -888.1683    149767.09   -47476.028    4001.9122   -51477.941   0.15213584 
   18000    289.35982   -1076.0898    149975.42    -47507.77    3973.6604    -51481.43    0.1510368 
   18200    289.20751   -1086.2429    150019.16   -47531.419    3971.5687   -51502.988   0.15268373 
   18400     286.7899   -904.98413    149799.24   -47555.059    3938.3687   -51493.428   0.15049949 
   18600    293.46937    -898.3808     149774.4   -47512.188    4030.0951   -51542.283   0.15738918 
   18800    293.08515   -1070.1361    150014.37   -47441.731    4024.8187   -51466.549   0.15518965 
   19000    289.97615   -1109.2334    150033.11    -47470.06    3982.1241   -51452.184   0.15319835 
   19200    289.66653   -866.36916    149734.07   -47447.154    3977.8722   -51425.027   0.15532203 
   19400    294.83295   -888.37181    149803.09   -47438.755    4048.8206   -51487.575   0.15069785 
   19600    289.77971   -1198.6078    150151.48   -47461.203    3979.4265   -51440.629   0.16099371 
   19800    291.79251   -1094.2302    150032.66   -47460.369    4007.0674   -51467.436   0.15147834 
   20000    297.00122   -776.40333    149662.38   -47455.716    4078.5966   -51534.313   0.14569642 
   20200    291.53489   -928.71851    149850.28   -47480.232    4003.5296   -51483.762   0.14877582 
   20400    294.38983   -1215.8512     150240.9   -47452.565    4042.7353     -51495.3   0.15638999 
   20600     291.5811   -1017.5467    150008.79   -47450.777    4004.1643   -51454.941   0.15633342 
   20800    290.74933   -774.77135    149613.52   -47458.751    3992.7419   -51451.493     0.151188 
   21000    295.48461   -959.77663    149930.15   -47450.227    4057.7696   -51507.997    0.1480589 
   21200    293.23226   -1288.7144    150308.05   -47433.236    4026.8389   -51460.075   0.15832719 
   21400      292.182   -976.14057    149907.88   -47433.738    4012.4161   -51446.154   0.15450483 
   21600    296.76225   -701.04864    149588.04    -47394.48    4075.3149   -51469.795   0.14758109 
   21800    295.28687   -1057.5381    150082.55   -47339.129     4055.054   -51394.183   0.15400682 
   22000    298.11659   -1259.1114    150374.15   -47339.083    4093.9135   -51432.996   0.15432616 
   22200    292.57705   -898.15718    149858.85   -47305.366    4017.8412   -51323.207   0.15144281 
   22400    294.25795   -782.03379     149659.9   -47285.486    4040.9243    -51326.41   0.15708057 
   22600    302.43265   -1105.8328    150242.19   -47285.315    4153.1842   -51438.499    0.1536313 
   22800    292.22838   -1279.0098    150363.39   -47319.568     4013.053   -51332.621   0.15885906 
   23000     299.8242   -794.80712    149734.98   -47347.549    4117.3633   -51464.912   0.14552839 
   23200     302.0861    -737.7233    149668.99   -47343.743    4148.4251   -51492.169   0.15266522 
   23400    294.36259   -1237.0282     150317.8   -47343.276    4042.3614   -51385.637   0.15960206 
   23600    290.75081   -1258.8091    150303.95   -47359.041    3992.7623   -51351.804   0.15591426 
   23800    298.86032   -734.51237    149629.95   -47306.983    4104.1268    -51411.11     0.149335 
   24000    295.16254   -835.07761    149742.96   -47345.441    4053.3466   -51398.788   0.15509231 
   24200    294.44836   -1299.7402    150374.23    -47318.46    4043.5391   -51361.999   0.16465853 
   24400    295.69953   -1132.1856    150166.77   -47326.686     4060.721   -51387.407   0.15588651 
   24600    294.47025    -680.9915    149575.93   -47334.528    4043.8398   -51378.367    0.1508031 
   24800    298.44614   -912.14261     149844.4   -47254.742     4098.439   -51353.181   0.15827572 
   25000     300.3232   -1300.7739    150435.87   -47244.419    4124.2159   -51368.635   0.16785944 
   25200    298.51207   -1066.1265    150114.55   -47273.374    4099.3444   -51372.718   0.16221631 
   25400    295.89736   -701.06958    149547.98   -47344.892    4063.4376    -51408.33   0.15228856 
   25600    297.66064   -922.08886    149891.45   -47364.954    4087.6521   -51452.606   0.14792241 
   25800    297.22832   -1289.0089    150370.85   -47332.722    4081.7152   -51414.438   0.15921803 
   26000    297.89052    -1029.335    149977.35   -47316.325     4090.809   -51407.134   0.15825883 
   26200    293.28529   -666.70694    149541.03   -47368.781    4027.5672   -51396.348   0.14710884 
   26400    293.40729   -1034.4106    149973.63   -47388.876    4029.2425   -51418.119   0.15636166 
   26600    289.84534   -1292.5071     150366.6   -47389.411    3980.3278   -51369.739   0.15912196 
   26800    294.78039   -970.90856    149924.92   -47401.289    4048.0988   -51449.388   0.15163347 
   27000    297.57622   -704.05894    149568.04   -47406.794    4086.4928   -51493.287   0.14756726 
   27200    296.13328   -994.10998    150019.87   -47395.427    4066.6775   -51462.105   0.15400583 
   27400    293.16715    -1264.005    150346.04   -47354.026    4025.9448    -51379.97   0.15454247 
   27600     294.3673    -923.0881    149917.85   -47365.376     4042.426   -51407.802   0.14991519 
   27800    298.87225   -761.61929    149694.18   -47365.227    4104.2907   -51469.517    0.1491202 
   28000    289.07258   -1082.5652    150107.54   -47348.169    3969.7157   -51317.885   0.15478917 
   28200    296.26281   -1179.4364    150290.52   -47365.118    4068.4563   -51433.574   0.15362719 
   28400    299.10101   -908.37719    149894.94    -47365.99    4107.4321   -51473.422   0.14804225 
   28600    297.15695   -813.33607    149738.53   -47389.605    4080.7351    -51470.34   0.15041798 
   28800    293.83749   -1082.0677     150095.6   -47395.627    4035.1503   -51430.777   0.15818574 
   29000    294.47452   -1157.2072    150190.47   -47430.903    4043.8985   -51474.802   0.15484161 
   29200    293.39646   -867.51627    149821.22   -47472.503    4029.0938   -51501.597   0.14752494 
   29400    294.61879   -890.60062    149764.52   -47475.435    4045.8797   -51521.314   0.14544934 
   29600    292.39596   -1143.1504    150138.09    -47429.68    4015.3544   -51445.034   0.15778362 
   29800    296.74626   -1152.4495    150162.64   -47349.884    4075.0952    -51424.98   0.16079058 
   30000    297.88608    -896.3302    149826.15   -47345.073     4090.748   -51435.821   0.15074491 
   30200    295.42392   -917.35428     149835.4   -47353.913    4056.9361   -51410.849   0.15243609 
   30400    291.84945   -1145.5305    150154.36   -47402.542    4007.8493   -51410.392   0.15465358 
   30600    296.94214   -1040.4137    150083.16   -47349.003    4077.7852   -51426.788   0.15624982 
   30800    298.36358   -859.37337    149838.05   -47319.767    4097.3052   -51417.072   0.15061676 
   31000    300.61426   -985.58993    149980.54   -47305.384    4128.2129   -51433.597   0.15399731 
   31200    297.36729   -1116.1852    150212.78   -47304.167    4083.6237   -51387.791   0.15813236 
   31400    301.70422   -984.54703    150045.84   -47305.085    4143.1809   -51448.266   0.15307384 
   31600    295.48792   -897.28362    149831.06   -47371.289     4057.815   -51429.104   0.15297661 
   31800      298.219   -1033.9244    150010.64   -47340.298    4095.3199   -51435.618   0.15723834 
   32000    298.34698   -1097.4751    150162.53   -47307.277    4097.0773   -51404.354   0.15429023 
   32200    292.76536   -986.50886    149951.45   -47345.232    4020.4272   -51365.659   0.15218676 
   32400    297.03052   -853.41515    149846.32   -47342.169    4078.9989   -51421.168   0.15177624 
   32600    294.99186    -1076.854     150109.8   -47324.245    4051.0028   -51375.248   0.15813966 
   32800    297.38557    -1164.092       150233   -47318.031    4083.8747   -51401.906   0.15517707 
   33000    299.04007   -926.35845    149926.08   -47311.744    4106.5952   -51418.339   0.14968398 
   33200    296.78797   -868.04977    149827.92   -47308.202     4075.668    -51383.87   0.15456908 
   33400    302.93876   -1095.3701    150195.12   -47264.203    4160.1343   -51424.338   0.15864837 
   33600    300.26975   -1210.3167    150302.45   -47194.177    4123.4819   -51317.659   0.16110795 
   33800    298.85978   -859.09064    149882.34    -47236.12    4104.1194    -51340.24   0.15887886 
   34000    296.71045    -803.5973    149737.56   -47259.865    4074.6035   -51334.468   0.15368405 
   34200    299.93133   -1135.8691    150181.42   -47285.576    4118.8346   -51404.411   0.15379341 
   34400    293.84963   -1199.9517    150246.34   -47351.196    4035.3171   -51386.514    0.1594515 
   34600    296.86669   -775.14648    149679.83   -47331.295    4076.7491   -51408.044   0.15064788 
   34800    294.03248   -778.39391    149662.69   -47373.743     4037.828   -51411.571   0.15362699 
   35000    297.56205   -1267.7827    150321.61   -47389.481    4086.2981   -51475.779   0.15381343 
   35200    295.32024   -1239.5498    150234.71   -47376.951    4055.5124   -51432.463   0.15802448 
   35400    294.34318   -663.89922    149500.06   -47347.204    4042.0948   -51389.299   0.15407289 
   35600    292.23688     -866.996    149721.07    -47340.41    4013.1698    -51353.58   0.16041621 
   35800    295.21443   -1360.1822    150489.28   -47328.125    4054.0594   -51382.184   0.15776433 
   36000    294.68057   -1151.7872    150188.78   -47333.277    4046.7279   -51380.005   0.15892184 
   36200    299.34586   -594.91222     149433.8   -47359.981    4110.7945   -51470.776   0.14680852 
   36400    293.20416   -940.81025    149801.98   -47383.874    4026.4531   -51410.328   0.15444863 
   36600    295.34227   -1360.5033    150474.37   -47345.701    4055.8149   -51401.516   0.15978879 
   36800    292.70499   -1048.9331    150019.23   -47397.856    4019.5982   -51417.455   0.15562768 
   37000    298.20271   -600.35302    149448.11   -47395.247    4095.0961   -51490.343   0.15069664 
   37200    297.02816   -1027.7215    149970.92   -47349.967    4078.9665   -51428.933   0.15835886 
   37400    301.14747   -1323.4607    150423.43   -47333.428    4135.5353   -51468.964   0.16075368 
   37600     294.3014   -969.40469    149924.16   -47368.812    4041.5211   -51410.333   0.15891989 
   37800    298.22673   -701.79039    149592.48   -47337.325    4095.4259   -51432.751   0.15360989 
   38000    294.57857   -1094.4031    150063.18   -47387.063    4045.3273    -51432.39   0.15706243 
   38200    297.44399   -1210.2869    150272.97   -47376.831     4084.677   -51461.508   0.15383785 
   38400    300.84839   -908.43765    149815.98   -47348.739    4131.4281   -51480.167   0.15565735 
   38600    298.81822    -791.0051    149672.64   -47347.916    4103.5487   -51451.464   0.15220099 
   38800    290.82267   -1081.8967    150072.89   -47393.789     3993.749   -51387.538   0.15287211 
   39000    290.07998   -1152.6565    150166.66   -47419.394      3983.55   -51402.944   0.15900231 
   39200    286.13737   -964.65776    149793.71   -47444.371    3929.4078   -51373.779   0.16299729 
   39400    293.85036   -874.65769    149726.63    -47436.91    4035.3271   -51472.237   0.15285332 
   39600    292.36206   -1105.4667    150041.35   -47503.704    4014.8889   -51518.593   0.15304204 
   39800    288.98509   -1100.8709    150032.02   -47490.992    3968.5144   -51459.506   0.16053172 
   40000    290.10498   -895.52757    149742.18    -47507.65    3983.8933   -51491.543   0.15486634 
   40200    289.28582   -926.86203    149765.41   -47482.172    3972.6441   -51454.817   0.15381924 
   40400    296.70762   -1074.2676    150063.39   -47472.982    4074.5647   -51547.547   0.14806943 
   40600    291.46561   -1107.4336     150051.3   -47501.711    4002.5782   -51504.289   0.15514661 
   40800    293.92218   -883.08787    149741.68   -47524.545    4036.3133   -51560.858   0.14704689 
   41000    292.20841   -895.32256    149774.78   -47479.144    4012.7788   -51491.922   0.15101121 
   41200    293.32328   -1100.6489    150094.66   -47506.818    4028.0888   -51534.907   0.15431697 
   41400    287.41541   -1073.4911    150053.54   -47468.133    3946.9585   -51415.091   0.15529034 
   41600    290.62205   -882.03056    149767.26   -47467.674     3990.994   -51458.668   0.15360381 
   41800    292.40811   -950.11426    149836.06    -47465.87    4015.5212   -51481.392     0.152673 
   42000    293.15277   -1109.0122    150115.32   -47432.578    4025.7473   -51458.325   0.15324778 
   42200    290.50411   -1055.6522     150028.6   -47460.069    3989.3744   -51449.443   0.15873055 
   42400    290.97197   -868.37694    149733.69   -47515.597    3995.7994   -51511.396   0.14884542 
   42600    289.96863    -904.8598    149832.45   -47541.899    3982.0209    -51523.92   0.14725204 
   42800    289.46225    -1098.152    150084.92   -47539.123     3975.067    -51514.19    0.1482668 
   43000    296.80152   -1002.0556    149950.41   -47495.066    4075.8541    -51570.92   0.14994983 
   43200    289.07635   -858.10296    149757.39   -47500.818    3969.7676   -51470.586   0.15046985 
   43400     290.5731   -974.51425    149913.18   -47491.042    3990.3218   -51481.364    0.1547519 
   43600    295.11412   -1096.4605    150057.03   -47485.061    4052.6817   -51537.743   0.15547662 
   43800    294.15295   -1006.8534    149918.28   -47459.863    4039.4824   -51499.345   0.15403072 
   44000    291.50941   -966.32929    149826.45   -47480.407    4003.1797   -51483.587   0.15283443 
   44200    293.83909   -1019.3829       149940   -47523.138    4035.1723    -51558.31   0.15276915 
   44400    289.72899   -1058.2788    149991.03   -47495.504    3978.7299   -51474.234   0.15359295 
   44600    294.37668   -1010.9692    149913.89   -47432.692    4042.5548   -51475.247   0.15440508 
   44800     298.7514   -927.51243    149904.28   -47398.112    4102.6311   -51500.744    0.1495252 
   45000    293.84769   -1024.6863    149975.87   -47433.202    4035.2904   -51468.493   0.15031268 
   45200    291.11214   -1045.6206    149958.41   -47454.059    3997.7242   -51451.783    0.1539593 
   45400    291.58171   -968.91689    149878.66   -47505.679    4004.1727   -51509.852   0.15002717 
   45600    294.94947     -1021.18    149898.41   -47493.551    4050.4208   -51543.972    0.1520359 
   45800    292.10869   -1007.4468    149962.11   -47465.958    4011.4095   -51477.367   0.15416695 
   46000    293.44891   -1025.2244    149968.97   -47463.867    4029.8142   -51493.681   0.15357193 
   46200    293.20201   -974.22519     149934.9   -47498.593    4026.4236   -51525.017   0.14740847 
   46400    295.43211   -1017.6301    149953.38   -47481.868    4057.0486   -51538.917   0.14708711 
   46600    294.37846   -1021.4072    149960.53   -47478.946    4042.5793   -51521.526     0.149949 
   46800     291.2506   -969.04011    149937.76   -47442.932    3999.6256   -51442.558   0.15214325 
   47000    292.49016   -992.79086    149962.68   -47422.361     4016.648   -51439.009    0.1471875 
   47200    290.93287   -1009.6486    149998.38   -47390.632    3995.2623   -51385.894   0.14929801 
   47400    295.51234   -990.62283    150017.29   -47321.002    4058.1504   -51379.153   0.15074762 
   47600    301.80235   -952.35833    150017.33   -47294.138    4144.5285   -51438.667   0.15274276 
   47800    295.76802   -1034.6222    149997.84   -47261.827    4061.6616   -51323.489   0.15812587 
   48000    300.38859   -984.01509     149991.3   -47266.365     4125.114   -51391.479   0.15928158 
   48200     299.5647   -1021.1902    150045.69   -47265.816    4113.7998   -51379.616   0.15650284 
   48400    305.92771   -1015.9261    150052.21   -47246.513    4201.1804   -51447.694   0.15244401 
   48600    302.37363   -965.53901    149974.18    -47313.99    4152.3737   -51466.364   0.15135995 
   48800    301.69574   -982.77952    149930.84   -47254.992    4143.0644   -51398.057    0.1573042 
   49000    297.85116   -1064.5009    150048.19   -47231.266    4090.2684   -51321.535    0.1617471 
   49200    301.85473   -1053.1641    150099.99   -47265.926    4145.2478   -51411.174   0.15517266 
   49400     295.8381   -959.54982    149928.02   -47278.085     4062.624   -51340.709   0.15737612 
   49600    301.91804   -916.00877    149894.65   -47297.627    4146.1172   -51443.744   0.15808971 
   49800    301.36378   -1087.8536    150044.62   -47274.209    4138.5057   -51412.715   0.16029823 
   50000    299.36125   -1059.1799    150036.43   -47274.542    4111.0059   -51385.548   0.16132097 
   50200     296.9892   -939.06871    149853.47   -47315.043    4078.4315   -51393.474   0.16090733 
   50400    301.50799   -885.89633    149845.37   -47319.044    4140.4862    -51459.53   0.15171494 
   50600    293.75887   -1147.2781    150075.78   -47336.141    4034.0707   -51370.212    0.1617345 
   50800     292.6632   -1099.6839    150047.29   -47347.153    4019.0243   -51366.178   0.15930592 
   51000    298.87648    -806.5121    149766.83   -47285.214    4104.3488   -51389.563   0.15042597 
   51200    295.76501   -937.32672    149922.53   -47315.622    4061.6201   -51377.242   0.15551111 
   51400    297.47098   -1203.5279    150256.68   -47272.696    4085.0475   -51357.743   0.15876508 
   51600    301.22034   -1034.8083    150063.42   -47277.481    4136.5361   -51414.017    0.1581045 
   51800    299.02557   -779.49939     149723.7   -47277.987    4106.3961   -51384.383   0.15549109 
   52000     300.5755   -995.84907    149969.28   -47236.814    4127.6807   -51364.494   0.16563693 
   52200    302.69029   -1174.9292    150285.23   -47202.776    4156.7223   -51359.498   0.16291779 
   52400    301.84064   -973.24053    150008.48   -47187.257    4145.0543   -51332.311   0.16124519 
   52600    301.80423   -779.00497    149708.55    -47231.36    4144.5544   -51375.914   0.15793675 
   52800     301.9306   -1041.2046    150022.61   -47246.662    4146.2898   -51392.951   0.15784927 
   53000    299.83548   -1227.7047    150306.64   -47247.154    4117.5182   -51364.673   0.16302278 
   53200    304.23535   -901.55998    149948.93   -47261.603    4177.9399   -51439.543   0.15029966 
   53400    298.21898   -773.79596    149706.27   -47295.414    4095.3195   -51390.734   0.15620314 
   53600    301.58419    -1066.684    150082.88   -47317.476    4141.5326   -51459.009   0.15566336 
   53800    296.80362   -1216.4464    150261.47   -47289.597     4075.883    -51365.48   0.16635058 
   54000    302.31557   -871.11201    149848.94    -47287.29    4151.5764   -51438.867    0.1581398 
   54200    300.67761   -766.56552     149717.9   -47298.003    4129.0829   -51427.086   0.14927742 
   54400    295.43209   -1167.4311    150190.34   -47318.903    4057.0483   -51375.951   0.15989396 
   54600    292.85636   -1197.0793    150258.12   -47310.258    4021.6769   -51331.935   0.16308678 
   54800    302.94179   -805.82388     149768.2   -47262.157     4160.176   -51422.333   0.15061243 
   55000    301.08667   -850.70761    149789.43   -47265.591    4134.7004   -51400.291   0.15042766 
   55200     298.5799   -1161.8787    150308.52   -47287.896    4100.2759   -51388.172   0.15697778 
   55400    301.00809    -1116.794    150235.47   -47312.235    4133.6213   -51445.856   0.15552089 
   55600    299.06421   -785.53688       149704   -47358.131    4106.9268   -51465.058   0.15291034 
   55800    297.90789   -894.50219    149802.65   -47328.967    4091.0475   -51420.015   0.15857541 
   56000    293.49582   -1312.0397    150344.25   -47305.246    4030.4583   -51335.705   0.16778006 
   56200    294.52786   -1107.0195    150156.84    -47342.33     4044.631   -51386.961    0.1601109 
   56400    295.54641    -686.7879    149622.66   -47352.475    4058.6183   -51411.094   0.15201838 
   56600    294.23044   -919.78472    149905.74   -47354.384    4040.5465    -51394.93   0.15287959 
   56800    302.68695   -1266.1248    150419.92   -47295.166    4156.6764   -51451.843   0.15655212 
   57000    293.58498   -1006.3865    150067.08   -47307.093    4031.6828   -51338.776   0.15708824 
   57200    297.59517   -677.01365    149570.19   -47344.853     4086.753   -51431.606   0.15125987 
   57400    298.97666   -1009.6076       149970   -47359.982    4105.7245   -51465.706   0.15407388 
   57600    293.41811    -1301.718    150376.78   -47340.791    4029.3912   -51370.183   0.16733474 
   57800    296.67362   -959.09898    149880.42   -47361.442    4074.0978    -51435.54   0.16177911 
   58000    292.30226   -709.31265     149497.3   -47380.218    4014.0676   -51394.285   0.15904876 
   58200    295.47682   -1039.0954    150041.95   -47413.795    4057.6625   -51471.457   0.15357211 
   58400    299.17157   -1281.7968    150353.63   -47400.392     4108.401   -51508.793   0.15984948 
   58600    294.50966   -887.18748    149772.64   -47386.815     4044.381   -51431.196   0.15376591 
   58800    294.26137   -736.03848    149546.08   -47423.476    4040.9713   -51464.448   0.14865667 
   59000    292.22677   -1163.9534    150124.68    -47439.86     4013.031   -51452.891   0.15542198 
   59200    294.82018   -1179.7638    150251.25   -47436.719    4048.6452   -51485.364   0.15470418 
   59400    295.96555    -822.5232    149745.46   -47386.345    4064.3741   -51450.719   0.15329092 
   59600    296.63316   -843.38678    149740.48   -47382.419    4073.5421   -51455.961   0.15495317 
   59800    295.21415   -1169.6066    150187.36    -47361.11    4054.0555   -51415.165   0.15976319 
   60000    295.18103   -1162.6938    150165.39   -47347.799    4053.6006     -51401.4   0.16122041 
   60200    295.33658   -854.99028    149769.45   -47325.967    4055.7367   -51381.703   0.16085945 
   60400    295.51812   -896.73002       149863   -47293.198    4058.2298   -51351.428   0.15984254 
   60600    298.52879   -1195.1066     150228.3   -47329.807    4099.5741   -51429.381   0.16507247 
   60800    299.77527    -1002.526    150076.09   -47269.345    4116.6914   -51386.036   0.15553766 
   61000    298.05386   -874.56083    149808.97    -47314.67     4093.052   -51407.722   0.15259351 
   61200    296.29635   -940.70054    149966.02   -47317.605    4068.9169   -51386.522   0.15612015 
   61400    299.72732   -1101.9623    150179.28   -47310.881     4116.033   -51426.914   0.15368235 
   61600    298.44729   -1016.5999    149981.81   -47305.169    4098.4548   -51403.624    0.1590752 
   61800    298.79994    -895.7027    149805.71   -47308.827    4103.2976   -51412.124     0.157309 
   62000    301.14052   -1018.5303    150005.43   -47330.643    4135.4399   -51466.082   0.15335902 
   62200     300.0424   -1123.7754     150109.1   -47339.948    4120.3598   -51460.308   0.16043524 
   62400    299.83869   -937.18398    149923.67   -47301.891    4117.5624   -51419.453   0.15640638 
   62600    298.02332   -941.96935    149849.55   -47325.151    4092.6326   -51417.783   0.15873162 
   62800    292.81845   -1024.5608    150022.49   -47296.983    4021.1563   -51318.139   0.15656106 
   63000    296.27597   -1104.4663    150115.72   -47262.709    4068.6369   -51331.345   0.15978477 
   63200    299.83201   -958.60977    149979.62   -47269.851    4117.4706   -51387.322   0.15656111 
   63400    301.10049   -908.83496    149930.28    -47224.83    4134.8902    -51359.72   0.15659624 
   63600    297.11458   -1056.6924    150087.19   -47201.501    4080.1532   -51281.655   0.16196916 
   63800    295.01154   -1070.6565    150070.82   -47229.824     4051.273   -51281.097   0.16590459 
   64000     302.6391   -888.28618    149863.39   -47225.662    4156.0193   -51381.682   0.15529704 
   64200    304.09995   -942.73439    149905.15   -47228.121    4176.0805   -51404.201   0.15966457 
   64400    303.63416   -1071.5138    150125.15    -47211.49     4169.684   -51381.174   0.16343613 
   64600    297.27349   -1065.7405    150090.93   -47268.557    4082.3355   -51350.893   0.15987217 
   64800    298.54845   -910.83381    149828.06    -47283.27    4099.8441   -51383.114   0.15947073 
   65000    299.01305   -949.78999    149894.36   -47273.016    4106.2241    -51379.24    0.1604076 
   65200    302.19524   -1098.3527     150146.6   -47296.577    4149.9239   -51446.501   0.15644501 
   65400    301.31272   -986.58654    150015.41   -47324.749    4137.8046   -51462.554   0.15369607 
   65600    297.14544   -918.45774    149782.89   -47352.749     4080.577   -51433.326   0.15542768 
   65800    300.44793   -967.85393    149935.87   -47325.254    4125.9288   -51451.183   0.15250651 
   66000    295.51666   -1167.4271    150174.17   -47319.591    4058.2097   -51377.801   0.16160125 
   66200    293.45679   -1013.4598    149921.36   -47349.838    4029.9223    -51379.76   0.16341319 
   66400    292.64957   -790.29632    149652.57   -47347.158    4018.8371   -51365.995    0.1596859 
   66600    292.24894   -1049.6967    149980.36    -47355.99    4013.3354   -51369.325   0.16181134 
   66800    295.26941   -1259.1894    150260.01   -47333.056    4054.8143   -51387.871   0.16299702 
   67000    293.34127   -978.47348    149826.27   -47370.104    4028.3359    -51398.44   0.16108618 
   67200    295.37743   -728.54551     149536.8   -47394.567    4056.2977   -51450.864   0.15130976 
   67400    293.04822   -1115.7231    150100.06   -47420.797    4024.3116   -51445.108   0.15856413 
   67600    291.23153   -1341.3598    150375.35   -47369.115    3999.3637   -51368.479   0.16519374 
   67800    295.14328   -805.55676    149681.01   -47326.028    4053.0822    -51379.11   0.15758229 
   68000    299.22359   -601.94115    149503.64   -47322.867    4109.1154   -51431.982   0.15145275 
   68200     301.4259   -1300.4231    150355.67   -47385.753    4139.3589   -51525.112   0.16116501 
   68400    299.04062   -1356.1193     150423.6   -47324.813    4106.6028   -51431.416   0.16908377 
   68600    299.07718   -667.71647    149496.12   -47322.277    4107.1049   -51429.382   0.15709924 
   68800     299.0175   -715.25376     149538.2   -47291.076    4106.2853   -51397.362   0.16022234 
   69000     297.0909   -1387.8785    150451.66   -47323.446    4079.8282   -51403.274   0.16506981 
   69200    297.39835   -1247.0403    150277.72    -47331.42    4084.0502    -51415.47   0.15951394 
   69400    295.28984   -630.04732    149426.12   -47382.901    4055.0949   -51437.996   0.15265057 
   69600    295.05218   -804.92659     149672.9   -47394.826    4051.8311   -51446.657   0.15593505 
   69800    295.31582   -1353.6118       150413   -47349.479    4055.4517   -51404.931   0.17143689 
   70000    298.12073    -1088.846     150125.6   -47313.433    4093.9703   -51407.403   0.15873985 
   70200    296.62217   -646.90245    149501.52   -47304.718    4073.3912   -51378.109   0.15440739 
   70400    298.96524   -899.81377    149843.41   -47316.931    4105.5676   -51422.499   0.15662488 
   70600     293.9408   -1344.0254       150382   -47279.784     4036.569   -51316.353   0.17061982 
   70800     298.2378   -1051.7661    150033.92   -47309.943     4095.578   -51405.521   0.15847276 
   71000     295.7143   -727.96962    149550.56   -47363.846    4060.9238    -51424.77   0.15217117 
   71200    299.10513   -956.58736    149881.42    -47368.57    4107.4887   -51476.059   0.15233774 
   71400    298.81685   -1249.0115    150273.58   -47328.835    4103.5298   -51432.365   0.15849452 
   71600    298.40409   -1019.5186    149976.45   -47310.612    4097.8616   -51408.473   0.16014408 
   71800     295.1363   -843.39975     149692.4   -47335.863    4052.9864    -51388.85   0.16218388 
   72000    296.36818   -1031.8411    149997.97   -47357.868    4069.9032   -51427.771   0.16519693 
   72200    299.73756   -1145.4957    150182.21   -47391.506    4116.1736   -51507.679    0.1555816 
   72400    293.38271   -907.14327    149882.13   -47375.713    4028.9051   -51404.618   0.15096754 
   72600    293.88432   -873.15029    149786.88   -47344.109    4035.7934   -51379.903   0.15833947 
   72800    295.42604   -1121.5363    150122.67   -47417.523    4056.9653   -51474.488   0.16348399 
   73000    292.77798   -1149.7365    150150.67   -47414.638    4020.6005   -51435.239   0.16129812 
   73200    293.99639   -839.38158    149785.42   -47433.069    4037.3325   -51470.402   0.14880046 
   73400    294.69176   -879.92292    149767.05   -47429.063    4046.8817   -51475.944   0.15494108 
   73600    295.13738   -1149.1356     150138.4   -47406.592    4053.0011   -51459.593   0.16256006 
   73800     293.3481   -1100.3799    150099.54   -47401.141    4028.4297    -51429.57   0.16201087 
   74000    294.71414    -881.2269    149731.71   -47455.407     4047.189   -51502.596   0.15976287 
   74200     296.7568   -922.76714    149777.42   -47451.585      4075.24   -51526.825   0.15392342 
   74400    292.87203   -1129.9703     150099.7   -47407.203     4021.892   -51429.095   0.16056245 
   74600    295.42516   -1023.1883    150027.44    -47431.56    4056.9532   -51488.513   0.15176237 
   74800    292.29103   -893.69327    149725.52   -47446.451    4013.9135   -51460.365   0.15676809 
   75000    294.88121   -933.00238     149841.8   -47407.841    4049.4833   -51457.325   0.15655968 
   75200    299.37668   -1116.5128    150181.09   -47388.673    4111.2177    -51499.89   0.15686452 
   75400    294.82429   -1105.5065    150034.67   -47377.621    4048.7016   -51426.322   0.15929976 
   75600    295.09485    -822.7756    149693.55     -47361.2    4052.4171   -51413.617   0.15574047 
   75800    298.37773   -964.20791    149952.14   -47334.967    4097.4996   -51432.467   0.15859091 
   76000    294.05339   -1210.8003    150301.34   -47313.836    4038.1152   -51351.951   0.16171716 
   76200    298.06172   -973.61051    149966.49   -47345.971      4093.16   -51439.131   0.16057584 
   76400     295.1613   -749.08045    149609.77   -47320.459    4053.3296   -51373.788   0.15926478 
   76600     294.5836    -1071.163     150011.8   -47302.894    4045.3963   -51348.291   0.16497328 
   76800    294.92237   -1272.4175    150315.41   -47296.161    4050.0485   -51346.209   0.16532927 
   77000    298.69934   -875.90704    149821.86   -47306.563    4101.9161   -51408.479   0.15749707 
   77200    298.21299   -741.45287    149577.99   -47357.801    4095.2373   -51453.038   0.16717051 
   77400    295.58752    -1197.764    150181.35   -47339.201    4059.1828   -51398.384   0.17000544 
   77600    291.96508   -1333.7056    150421.34   -47348.881    4009.4373   -51358.318   0.16344644 
   77800    296.57696   -755.48983    149666.29     -47373.8    4072.7704    -51446.57   0.14785755 
   78000    298.23655   -581.37973    149478.36   -47378.294    4095.5608   -51473.855   0.14948118 
   78200    295.03675   -1357.8935    150450.68   -47357.857    4051.6193   -51409.476   0.16613627 
   78400     292.3232   -1420.0053    150542.02    -47374.42    4014.3552   -51388.776   0.17114603 
   78600    296.42173   -511.92395    149367.86   -47410.836    4070.6386   -51481.474   0.14760361 
   78800    298.29958   -584.97482     149416.2   -47398.218    4096.4264   -51494.645   0.14985292 
   79000     298.0746   -1511.7136    150653.09   -47360.954    4093.3369   -51454.291   0.15931351 
   79200    296.53692   -1330.8856    150421.15   -47374.623    4072.2205   -51446.844   0.16450374 
   79400    298.89012   -464.46059    149257.32   -47341.512    4104.5361   -51446.049   0.16050644 
   79600     293.7646   -741.32835    149616.17   -47328.457    4034.1493   -51362.606   0.15547744 
   79800     295.9159   -1480.9771    150574.07   -47339.024    4063.6922   -51402.716   0.15841138 
   80000    299.24805   -1131.9854    150133.62   -47317.114    4109.4514   -51426.566   0.15378702 
   80200    297.33067   -589.13655    149422.54   -47291.174    4083.1207   -51374.295   0.15585896 
   80400    301.99176   -933.67689       149921   -47256.068    4147.1296   -51403.198   0.15911725 
   80600    297.69846   -1334.9487    150472.15   -47266.599    4088.1715    -51354.77   0.16888304 
   80800     303.1848   -1002.0152    149997.56   -47216.827    4163.5131    -51380.34   0.16438237 
   81000     300.4096   -754.67143    149584.05   -47276.371    4125.4024   -51401.773   0.15469814 
   81200    297.76222   -1046.1367    150021.11   -47250.353    4089.0471     -51339.4   0.15646724 
   81400    298.73584    -1267.189    150323.34   -47221.109    4102.4174   -51323.527   0.17155014 
   81600    296.59273   -953.28703    149914.68   -47247.652    4072.9869   -51320.639   0.16614347 
   81800    301.58985   -767.38774    149697.73   -47256.221    4141.6103   -51397.832   0.15612333 
   82000    301.02684   -1086.7061     150100.3   -47216.938    4133.8788   -51350.817     0.158055 
   82200    300.33184   -1201.4545    150240.18   -47259.755    4124.3346    -51384.09    0.1585349 
   82400    303.11132   -866.52768    149833.87   -47268.015     4162.504   -51430.519    0.1550307 
   82600    296.45792   -849.31887    149737.47   -47313.907    4071.1356   -51385.042   0.15440934 
   82800    296.59313   -1122.3436    150108.36   -47349.562    4072.9925   -51422.555   0.15899426 
   83000    297.13666   -1136.3118    150154.46   -47331.865    4080.4565   -51412.321   0.15601719 
   83200    294.45676   -884.63461    149836.67   -47357.313    4043.6545   -51400.968   0.15213316 
   83400    292.14499   -904.77724    149842.66     -47377.8    4011.9079   -51389.708   0.15412206 
   83600    296.23558   -1127.1368    150140.84   -47390.591    4068.0823   -51458.673    0.1500684 
   83800    299.33811   -1078.2086    150113.82   -47340.092    4110.6882    -51450.78   0.16051374 
   84000    297.97025   -900.40653    149818.41   -47375.275    4091.9038   -51467.179   0.15547522 
   84200    290.99935    -893.2751    149852.95   -47361.596    3996.1753   -51357.771   0.15311987 
   84400    291.11318   -1156.6588    150154.23   -47361.489    3997.7385   -51359.228   0.15967083 
   84600    295.29311   -1044.6085    150061.61   -47359.293    4055.1398   -51414.432   0.15686791 
   84800    295.44465   -880.35809    149761.87   -47375.239    4057.2208    -51432.46   0.15844916 
   85000    295.90547   -927.65627    149904.84   -47335.948     4063.549   -51399.497   0.15758142 
   85200    297.35044   -1140.6996     150202.1   -47298.537    4083.3922   -51381.929    0.1633249 
   85400    298.50449   -1065.7359    150029.13   -47286.935    4099.2403   -51386.175   0.16234017 
   85600    305.86379   -770.09141    149722.33   -47288.806    4200.3026   -51489.109   0.14834725 
   85800    296.07619   -969.17386    149951.45   -47299.544    4065.8934   -51365.437   0.15927652 
   86000     299.4867   -1173.1213    150224.65   -47247.107    4112.7287   -51359.836   0.16798351 
   86200    298.99488   -977.35419    149954.22   -47262.554    4105.9746   -51368.528   0.16095294 
   86400    303.15864   -821.19958    149743.04   -47259.941    4163.1539   -51423.095   0.15474215 
   86600    301.35123   -1087.1293    150094.35   -47254.473    4138.3335   -51392.807   0.15975007 
   86800    300.70366   -1204.9046     150276.1    -47281.73    4129.4407   -51411.171   0.16403099 
   87000    293.19088   -855.45737    149822.97   -47310.777    4026.2707   -51337.047   0.16104415 
   87200    298.73045   -781.84375    149654.59   -47283.215    4102.3434   -51385.559   0.15959608 
   87400     300.1041   -1189.7548    150223.03   -47237.931    4121.2071   -51359.138   0.16677479 
   87600    296.51917   -1252.9509    150376.98   -47303.103    4071.9767    -51375.08   0.16010049 
   87800    303.58966   -759.25495    149702.31    -47321.51     4169.073   -51490.583   0.15016979 
   88000    298.99304    -680.6738    149573.52   -47272.689    4105.9495   -51378.638   0.15757295 
   88200    300.26161    -1240.406    150370.14   -47274.394    4123.3701   -51397.764    0.1669584 
   88400    303.33081   -1319.5985    150437.52   -47257.627    4165.5182   -51423.145   0.16788406 
   88600     298.3125   -652.96814    149518.75   -47284.847    4096.6038    -51381.45   0.15424961 
   88800    296.83762   -703.45449    149569.73   -47275.701    4076.3499   -51352.051   0.15955505 
   89000    300.96147   -1398.6713    150558.28   -47284.043    4132.9811   -51417.024   0.16745715 
   89200    297.08749   -1320.1358    150405.82   -47257.873    4079.7812   -51337.655   0.16718125 
   89400    305.77233   -574.89268     149456.4   -47243.969    4199.0467   -51443.015   0.15697984 
   89600    300.05971   -779.11818    149719.63   -47264.802    4120.5976     -51385.4   0.15577364 
   89800    298.87785   -1429.6332    150526.28   -47287.528    4104.3676   -51391.896   0.16780019 
   90000    295.28556   -1102.5418    150113.17   -47310.074    4055.0361    -51365.11   0.16217645 
   90200    294.21544   -661.72879       149415   -47366.237    4040.3406   -51406.578   0.15758529 
   90400    292.85268    -924.2195    149843.33   -47382.343    4021.6263   -51403.969   0.16301991 
   90600    294.24222   -1302.4574    150377.93   -47365.297    4040.7084   -51406.005   0.16692485 
   90800    293.99909   -1060.6946    149976.85   -47396.104    4037.3695   -51433.474   0.16036127 
   91000    297.44536   -689.10151    149581.95   -47402.206    4084.6957   -51486.901   0.14761945 
   91200    292.14407    -1008.232    149934.71   -47411.882    4011.8953   -51423.777   0.16217949 
   91400    294.68679   -1214.5566    150241.73   -47396.579    4046.8134   -51443.393   0.16210886 
   91600    290.19086   -982.74751    149905.62   -47406.009    3985.0727   -51391.081   0.15864584 
   91800    296.34034   -786.59925     149673.8    -47385.45    4069.5209   -51454.971   0.15822739 
   92000    296.67535   -1035.0725     150012.9   -47396.011    4074.1215   -51470.132   0.16181903 
   92200    293.34307   -1197.5621    150171.43   -47416.024    4028.3607   -51444.385   0.16375244 
   92400    292.68661   -917.05704    149837.58   -47399.758    4019.3457   -51419.103   0.15974977 
   92600    298.03624   -852.78209    149750.99   -47460.115      4092.81   -51552.925   0.15789663 
   92800    290.18758    -1070.789    150037.76   -47422.622    3985.0276   -51407.649   0.16141706 
   93000    294.62758    -1104.991    150076.87   -47348.661    4046.0004   -51394.661   0.15822093 
   93200    299.05833   -921.59975    149863.48   -47351.083     4106.846   -51457.929   0.15409341 
   93400    297.34982   -921.51252    149862.43   -47354.443    4083.3837   -51437.827   0.16336203 
   93600    296.39146   -1113.2388    150042.26   -47334.496    4070.2229   -51404.719   0.16944042 
   93800    300.25678   -1047.2272    149994.92   -47325.687    4123.3038   -51448.991   0.16576901 
   94000    295.28162   -923.03356    149834.31   -47328.865     4054.982   -51383.847   0.16143874 
   94200    298.35064   -979.15755    149914.99   -47412.717    4097.1275   -51509.844   0.15115758 
   94400    299.88664   -1087.6045    150057.61   -47395.362    4118.2208   -51513.583   0.16052166 
   94600    297.67667   -1028.9168    149980.79   -47393.274    4087.8723   -51481.146   0.15865584 
   94800    291.43535   -927.28353    149822.98   -47448.717    4002.1627    -51450.88   0.16016469 
   95000      294.157   -936.40432    149899.97   -47454.454     4039.538   -51493.992   0.15489906 
   95200    294.15873    -1100.261    150066.27   -47458.567    4039.5619   -51498.129   0.15767599 
   95400     293.9537    -1026.443    149962.35   -47471.611    4036.7462   -51508.358   0.15813286 
   95600     292.5007   -908.46976    149787.02   -47436.036    4016.7927   -51452.829    0.1588531 
   95800    297.59469   -1026.7662    149926.59   -47397.569    4086.7464   -51484.315   0.16042881 
   96000    293.44061   -1134.1391    150095.96   -47386.353    4029.7002   -51416.053   0.16727894 
   96200    299.45158   -993.63483    149910.08   -47432.422    4112.2464   -51544.669    0.1554974 
   96400    299.52415    -847.6156    149705.48   -47428.147    4113.2429    -51541.39   0.15188508 
   96600    295.75584   -1039.5749    149943.28   -47437.145    4061.4942   -51498.639     0.157294 
   96800    289.60696   -1190.7438    150165.95   -47485.487    3977.0542   -51462.541   0.16045695 
   97000    290.85081   -966.79668     149844.8   -47472.963    3994.1355   -51467.098   0.16229087 
   97200     293.2622   -773.28212    149609.56   -47463.275    4027.2501   -51490.526   0.15874154 
   97400    292.30459   -1077.6061    150025.82   -47411.227    4014.0997   -51425.327   0.16131382 
   97600    300.87372   -1207.2213    150268.19   -47378.833    4131.7761   -51510.609   0.15460357 
   97800    298.84815   -901.23284    149804.49   -47380.533    4103.9597   -51484.493   0.15737061 
   98000    294.64079    -731.8405    149627.55   -47353.319    4046.1818     -51399.5   0.15808856 
   98200    294.43349   -1184.3625    150206.48   -47356.906     4043.335   -51400.241   0.16097676 
   98400    297.22008   -1274.1556     150335.7   -47282.263    4081.6021   -51363.865   0.16635927 
   98600    298.18892   -801.85887    149675.23    -47341.03    4094.9068   -51435.937   0.15778467 
   98800    302.84349   -755.28325    149582.72   -47304.781     4158.826   -51463.607   0.15591132 
   99000    293.77008   -1262.3112    150300.19   -47295.894    4034.2247   -51330.118   0.16992565 
   99200    292.93556   -1238.7391    150306.63   -47360.275    4022.7645    -51383.04   0.17109827 
   99400    292.69579   -753.22592     149540.7   -47466.498    4019.4718    -51485.97   0.16088515 
   99600    293.21365   -764.15846    149590.83   -47490.903    4026.5833   -51517.486   0.15277241 
   99800    295.07893   -1285.2906    150331.76   -47451.601    4052.1985     -51503.8   0.15965388 
  100000    292.40292   -1198.2774     150196.4    -47452.49      4015.45    -51467.94   0.16244763 
  100200    293.54812   -685.99693     149519.8   -47419.296    4031.1765   -51450.472   0.15242025 
  100400    291.15772   -885.18056     149759.3   -47414.995    3998.3501   -51413.345   0.15739766 
  100600    293.69059   -1280.7555    150379.95   -47352.443     4033.133   -51385.576    0.1668745 
  100800    298.73991   -1098.1359     150104.3   -47388.046    4102.4733   -51490.519   0.15944265 
  101000    296.68641     -679.365    149555.57   -47377.954    4074.2735   -51452.227   0.15487928 
  101200    297.49667   -970.82273    149885.43   -47353.165    4085.4003   -51438.565   0.16373749 
  101400    294.41667    -1248.515     150337.5   -47351.042     4043.104   -51394.146   0.16619056 
  101600    295.32841   -1060.1606    149989.51   -47373.449    4055.6246   -51429.074   0.16250105 
  101800    293.61293   -721.19009    149558.62   -47344.921    4032.0666   -51376.988    0.1558559 
  102000    294.65988   -969.92367    149910.13   -47342.533    4046.4439   -51388.977   0.15962859 
  102200    294.71001   -1285.0399     150316.2   -47326.772    4047.1323   -51373.904   0.16651494 
  102400    299.99438   -992.65551    149969.47   -47274.089    4119.7003   -51393.789   0.15977899 
  102600    297.11675   -771.52648    149641.38   -47290.649    4080.1831   -51370.832   0.16094606 
  102800    296.55721   -1053.7818    150024.14     -47298.1    4072.4991     -51370.6   0.16430087 
  103000    294.49029   -1233.3071     150307.3   -47285.276     4044.115   -51329.391   0.16620981 
  103200    298.41385   -953.00946    149899.64   -47270.994    4097.9956    -51368.99   0.16228298 
  103400    297.93181   -723.63619     149643.1   -47302.382     4091.376   -51393.758   0.15581918 
  103600    304.86608   -1024.3953    150053.14   -47301.174    4186.6014   -51487.776   0.15932672 
  103800    297.47926   -1264.0074    150279.91   -47300.457    4085.1612   -51385.618   0.17199012 
  104000    298.15262   -933.09473    149862.07   -47314.709    4094.4082   -51409.117   0.16098197 
  104200     294.6686   -777.30388    149664.88   -47330.908    4046.5637   -51377.472   0.15928375 
  104400    298.61605   -1063.3023     150080.8   -47343.426    4100.7724   -51444.198   0.16131185 
  104600     297.5716   -1202.0581    150233.33   -47336.387    4086.4294   -51422.816   0.16539757 
  104800    297.54519    -853.7322    149783.51   -47333.136    4086.0666   -51419.203   0.15653019 
  105000    297.42406   -774.33261    149680.93   -47366.269    4084.4032   -51450.672   0.15653915 
  105200     293.9518   -1143.2737    150152.81   -47361.419    4036.7201   -51398.139   0.16273523 
  105400    296.63599   -1166.6334    150194.53    -47351.71     4073.581   -51425.291   0.16379542 
  105600    292.48027    -830.1758    149720.07   -47356.388    4016.5122     -51372.9   0.15872126 
  105800    298.97604   -839.49841    149733.12   -47375.146     4105.716   -51480.862   0.15763558 
  106000    297.43739   -1200.2827    150174.94   -47349.332    4084.5862   -51433.918   0.16848275 
  106200    299.97652   -1111.2971    150123.48   -47325.132    4119.4552   -51444.587   0.15880613 
  106400    297.42976   -787.16906    149703.55   -47343.396    4084.4815   -51427.878   0.16163647 
  106600    298.26887   -893.95795    149812.64   -47344.617    4096.0046   -51440.621   0.16455968 
  106800    295.31484    -1173.753    150223.41   -47330.614    4055.4381   -51386.052   0.16038917 
  107000    296.46973   -1056.8828    150091.42   -47288.275    4071.2977   -51359.573   0.16041414 
  107200    295.48834   -821.60013    149733.82     -47283.4    4057.8208   -51341.221   0.16178354 
  107400     298.8209   -923.06271    149934.36   -47288.629    4103.5855   -51392.215   0.16351464 
  107600    300.70579   -1162.1467    150249.89   -47259.811    4129.4699   -51389.281   0.16259777 
  107800    295.62836   -1012.0955    149984.52   -47284.584    4059.7437   -51344.328   0.16121135 
  108000     301.6016   -746.50695    149639.61   -47265.182    4141.7717   -51406.954   0.16327161 
  108200    299.29164   -1029.2939    149959.06   -47297.713      4110.05   -51407.763   0.16774714 
  108400    299.59274   -1236.0634    150293.64   -47288.009    4114.1849   -51402.194   0.16459678 
  108600    296.36423   -1003.0415    149955.43   -47263.895     4069.849   -51333.744   0.16743188 
  108800    300.16404   -744.92061    149638.86   -47291.076    4122.0303   -51413.107   0.15822286 
  109000    294.01447   -1039.3136    149982.12   -47326.021    4037.5807   -51363.602   0.16332611 
  109200    297.01605   -1153.8374    150241.07   -47322.395    4078.8002   -51401.195   0.16219087 
  109400    298.61927   -852.36178     149869.9   -47313.194    4100.8165   -51414.011   0.15686398 
  109600    295.06719    -809.0393    149727.27   -47275.661    4052.0374   -51327.698   0.16583095 
  109800    296.24662   -1136.5462    150154.84   -47323.354     4068.234   -51391.588   0.16621968 
  110000    296.96537   -1145.8055    150240.96   -47257.914    4078.1043   -51336.018   0.16500656 
  110200    301.01601   -864.64209    149806.23    -47251.99      4133.73    -51385.72    0.1596841 
  110400    299.30937   -827.84937    149758.88   -47306.084    4110.2934   -51416.377     0.158008 
  110600    294.72223   -1200.1044     150226.2   -47372.911    4047.3002   -51420.211   0.16276576 
  110800    293.99056   -1204.9066    150183.44    -47369.42    4037.2524   -51406.672   0.16100959 
  111000    289.18185   -781.38109    149587.57   -47378.552    3971.2164   -51349.769    0.1620629 
  111200    296.84851   -814.59849     149692.5   -47366.468    4076.4994   -51442.967   0.15541516 
  111400    289.35032   -1371.6127    150403.85   -47409.875    3973.5298   -51383.405   0.16751648 
  111600     294.6023   -1127.6756    150141.64    -47467.74    4045.6531   -51513.393   0.15883016 
  111800    292.98027   -565.41794    149255.58    -47512.66    4023.3785   -51536.038   0.15880868 
  112000    293.99344    -833.2559    149638.95    -47500.83    4037.2919   -51538.122   0.15956152 
  112200    290.90532   -1529.9212     150590.6    -47440.32     3994.884   -51435.204   0.16991884 
  112400     294.5969   -1077.7136    150061.91   -47416.659     4045.579   -51462.238   0.16361328 
  112600    295.43803   -440.86176    149172.69   -47402.436    4057.1299   -51459.566    0.1545084 
  112800    295.93747   -915.89315    149872.92   -47412.507    4063.9885   -51476.495   0.15476727 
  113000     292.3715   -1571.5583    150658.21   -47375.339    4015.0186   -51390.357   0.16821142 
  113200    298.03349   -969.95293    149894.78   -47424.497    4092.7723   -51517.269   0.15814925 
  113400    291.77681   -512.33155    149270.83   -47411.518    4006.8519    -51418.37   0.15406226 
  113600    294.32535   -1083.7547    150013.29   -47408.583    4041.8499   -51450.433   0.16173437 
  113800    295.64551    -1399.218     150510.5   -47381.351    4059.9791    -51441.33   0.17002092 
  114000    298.87901   -903.55141    149820.61   -47378.046    4104.3835   -51482.429   0.16499473 
  114200    296.88539    -659.3287     149465.6   -47395.576     4077.006   -51472.582   0.15278393 
  114400    297.82235   -1106.4442    150097.72   -47328.462    4089.8728   -51418.335   0.16061721 
  114600    300.40261   -1268.8434    150346.59   -47295.631    4125.3064   -51420.938   0.16694452 
  114800    301.92242   -861.62946    149790.46   -47289.767    4146.1774   -51435.945   0.15424385 
  115000    297.62562   -768.54321    149637.67   -47321.841    4087.1712   -51409.012   0.15484677 
  115200    298.43712   -1166.3599    150173.61   -47329.188    4098.3152   -51427.504   0.16628988 
  115400    294.00572   -1217.1152     150212.7   -47340.155    4037.4605   -51377.615   0.16339762 
  115600    295.95172    -803.2834    149738.89   -47329.664    4064.1841   -51393.849   0.15952377 
  115800    299.23193   -850.17506    149787.64   -47345.745      4109.23   -51454.975   0.15647423 
  116000    300.32242   -1170.1514     150201.9    -47324.79    4124.2052   -51448.995   0.16797766 
  116200    295.10475   -1070.2149     150103.7   -47343.019    4052.5531   -51395.572   0.15831388 
  116400    295.60825   -804.70731    149700.13   -47391.282    4059.4674   -51450.749   0.15088236 
  116600    292.62623   -913.73541     149811.4   -47403.359    4018.5166   -51421.876   0.15866089 
  116800    294.15119   -1172.9429    150187.18   -47353.197    4039.4582   -51392.655   0.16487857 
  117000    298.70488   -1071.2761    150046.86   -47362.219    4101.9922   -51464.211   0.16131626 
  117200    292.20011   -851.47623    149679.03   -47356.531    4012.6649   -51369.196   0.16467638 
  117400    294.97681   -956.71252    149865.74   -47381.249    4050.7962   -51432.045   0.16107151 
  117600    293.08768   -1186.5535    150214.41   -47355.332    4024.8534   -51380.185   0.16336108 
  117800    305.17516   -1022.3452    150006.12    -47318.76    4190.8459   -51509.606   0.15854661 
  118000    299.72285    -778.0787    149680.99   -47314.629    4115.9715   -51430.601   0.15515975 
  118200    298.38208   -998.90868    149939.97   -47346.573    4097.5594   -51444.132   0.16308247 
  118400    292.12614   -1220.2341    150241.04   -47392.875     4011.649   -51404.524   0.16201907 
  118600    293.88872   -983.87588    149943.87   -47425.003    4035.8539   -51460.857   0.15542183 
  118800    294.48601   -817.49337    149682.98    -47480.28    4044.0562   -51524.336   0.15059588 
  119000    295.54431   -1010.8776    149966.33    -47475.83    4058.5894   -51534.419   0.15732725 
  119200    296.27846    -1212.911    150201.68   -47474.589    4068.6712    -51543.26   0.16444114 
  119400    289.76244   -961.54201    149886.02   -47504.208    3979.1894   -51483.397   0.15667773 
  119600    294.47194   -782.94013    149684.56   -47445.851    4043.8629   -51489.714   0.15575786 
  119800    296.47979   -1088.2705    150060.27   -47437.919     4071.436   -51509.355   0.15737582 
  120000    294.45588   -1132.7465    150209.17   -47453.009    4043.6425   -51496.651   0.15358442 
  120200    291.47596   -889.07776    149797.03   -47431.245    4002.7204   -51433.966   0.15453007 
  120400     286.6743   -825.44489    149704.51   -47480.193    3936.7812   -51416.974   0.15845951 
  120600    292.24361   -1118.4789    150165.56   -47468.207    4013.2623   -51481.469   0.16294833 
  120800    294.44071   -1198.4906    150224.87   -47457.328    4043.4341   -51500.763   0.16084105 
  121000    294.79935   -827.00796    149686.63   -47449.789    4048.3592   -51498.148   0.15408456 
  121200    294.18794   -790.81877    149691.76   -47448.514     4039.963   -51488.477   0.15543345 
  121400     293.8255   -1299.3921    150316.24   -47438.563    4034.9857   -51473.549   0.16428325 
  121600    292.20636   -1168.3935    150192.49   -47429.916    4012.7507   -51442.667   0.16060171 
  121800    293.44279   -644.99034    149525.06   -47437.319    4029.7301   -51467.049   0.15240864 
  122000    297.89012   -841.97987    149772.87   -47413.809    4090.8035   -51504.612   0.15225939 
  122200    295.42783    -1370.403       150479   -47369.369    4056.9899   -51426.359   0.16159314 
  122400    295.57335   -1114.3916    150069.63   -47328.176    4058.9882   -51387.164   0.16635282 
  122600    299.23043   -529.37906    149322.62   -47257.138    4109.2094   -51366.348   0.16663887 
  122800    299.49375   -935.56146    149912.25   -47251.674    4112.8254   -51364.499    0.1671389 
  123000    299.71042   -1503.4901    150658.41   -47285.436    4115.8008   -51401.237   0.16601145 
  123200    294.27184   -991.46393    149941.54    -47320.06     4041.115   -51361.175   0.15653961 
  123400    291.77663   -463.68266    149273.41   -47413.278    4006.8494   -51420.127   0.15076747 
  123600    297.72159   -1075.2682    150044.43    -47353.05    4088.4892   -51441.539   0.16250727 
  123800    298.84423   -1434.0285     150571.7   -47364.056    4103.9059   -51467.962   0.16553729 
  124000     295.9514   -886.89743    149802.24   -47359.516    4064.1798   -51423.695    0.1599395 
  124200    300.17569   -601.49177     149466.1   -47348.106    4122.1902   -51470.297   0.15351314 
  124400    296.37432   -1136.0038    150146.71   -47353.655    4069.9875   -51423.642    0.1571476 
  124600    294.86665   -1286.0018     150337.7   -47366.842    4049.2833   -51416.125   0.16972929 
  124800    291.74297   -873.24313    149776.77   -47379.634    4006.3871   -51386.021   0.16405687 
  125000     294.7417   -773.20306    149685.52    -47390.95    4047.5675   -51438.517   0.15447158 
  125200    290.70625    -1147.732    150161.56   -47374.511    3992.1503   -51366.661   0.15875723 
  125400    293.11281   -1160.5857    150225.99   -47443.255    4025.1986   -51468.454   0.15135653 
  125600    295.07797   -908.96829    149794.59    -47443.88    4052.1854   -51496.065   0.15712841 
  125800    291.96311   -867.26059     149750.5    -47434.93    4009.4102    -51444.34   0.15421653 
  126000    289.59027   -1116.0786    150142.84   -47395.457     3976.825   -51372.282    0.1631549 
  126200    292.59964   -1141.7453    150143.01   -47374.919    4018.1515    -51393.07   0.16424761 
  126400    292.13189   -865.13883    149773.92   -47410.569     4011.728   -51422.297   0.15804965 
  126600    296.07688   -923.59109    149826.45   -47436.506    4065.9029   -51502.409   0.15565761 
  126800    292.39925   -1144.5737    150124.93   -47402.342    4015.3996   -51417.742    0.1588892 
  127000    294.45089   -1035.9527    150021.55   -47420.116    4043.5739    -51463.69   0.15724234 
  127200    292.44113   -848.18753    149755.08   -47459.134    4015.9747   -51475.109   0.15218782 
  127400    294.34746   -977.28376    149885.12   -47457.186    4042.1535   -51499.339   0.15056761 
  127600    293.52266   -1146.5924    150140.92   -47447.503    4030.8269    -51478.33   0.15236498 
  127800    293.11402   -1007.0182    149982.02   -47438.187    4025.2151   -51463.402   0.15734672 
  128000    293.17367   -833.93563    149772.23   -47438.333    4026.0344   -51464.367   0.15945573 
  128200    295.76326   -987.35969    149980.68   -47400.733    4061.5961   -51462.329   0.16418516 
  128400    298.19309   -1140.5019    150150.56   -47424.384     4094.964   -51519.348   0.15954373 
  128600    290.55067   -971.63527    149850.51   -47460.686    3990.0137   -51450.699     0.161357 
  128800    289.63345   -831.87722    149693.24   -47500.515     3977.418   -51477.933   0.15172599 
  129000    292.03715   -1051.3947    150021.02   -47530.312     4010.427   -51540.739    0.1469277 
  129200    286.33867   -1178.7452    150168.57   -47483.198    3932.1721    -51415.37   0.16446125 
  129400    291.48211    -906.3517    149819.65   -47488.515    4002.8049    -51491.32   0.15467289 
  129600    290.12295    -830.2888    149727.86   -47490.073    3984.1401   -51474.213   0.15174742 
  129800    291.31462   -1089.1313    150128.55   -47495.928    4000.5048   -51496.433   0.15367752 
  130000    291.91851   -1166.0515    150186.29   -47504.957    4008.7978   -51513.754   0.16131402 
  130200     287.9612   -860.35848    149729.51   -47530.255    3954.4536   -51484.708   0.15904996 
  130400    289.75686   -841.94034    149673.68   -47515.942    3979.1127   -51495.055   0.15368437 
  130600    293.45088   -1158.5846     150169.3   -47464.328    4029.8412   -51494.169   0.15777899 
  130800    290.99723    -1184.154    150197.84   -47485.364    3996.1462    -51481.51   0.15216352 
  131000    294.89998   -781.31707    149657.31   -47513.347    4049.7411   -51563.088   0.14267315 
  131200    290.14859   -811.87583    149711.96    -47485.19    3984.4922   -51469.682   0.15072011 
  131400    289.78505   -1282.0304    150332.28   -47478.095    3979.4998   -51457.595    0.1583937 
  131600    290.67249   -1171.1079    150171.18   -47472.405    3991.6866   -51464.091   0.15971442 
  131800    289.52277   -606.14853    149501.61   -47452.922    3975.8981    -51428.82   0.15134299 
  132000    295.85274    -879.7489    149824.03   -47394.401    4062.8249   -51457.226   0.15564404 
  132200    284.69833   -1447.3004    150569.48   -47388.749     3909.646   -51298.395   0.17310103 
  132400    299.77369   -1058.7485    150127.06   -47400.384    4116.6697   -51517.054   0.15687956 
  132600    300.76229   -490.48434    149323.62   -47386.032    4130.2458   -51516.277   0.14773839 
  132800    295.90842   -943.34982    149920.81   -47350.094    4063.5895   -51413.683    0.1584489 
  133000    299.27327   -1547.9452    150738.26   -47329.864    4109.7977   -51439.662   0.16616199 
  133200    299.41223   -1017.6988    150021.67     -47288.3    4111.7059   -51400.006   0.16110964 
  133400    298.65298   -437.23658    149270.94   -47283.105    4101.2795   -51384.385   0.15234817 
  133600    297.29938   -1058.3677    150059.24   -47288.471    4082.6911   -51371.162   0.16798213 
  133800    297.69875   -1475.2797    150639.82   -47296.352    4088.1755   -51384.527   0.17718486 
  134000    302.95757      -871.23    149845.67   -47257.866    4160.3927   -51418.259   0.15534752 
  134200    296.46567    -690.0116    149494.96   -47276.286     4071.242   -51347.528   0.16216815 
  134400    296.40178   -1128.1011    150160.33   -47266.378    4070.3647   -51336.743   0.16746081 
  134600    298.00615   -1242.8611    150349.63   -47278.911    4092.3969   -51371.308    0.1644785 
  134800     296.7796    -882.3845    149785.96   -47330.806    4075.5532   -51406.359   0.15518061 
  135000    296.78249   -824.20362    149682.36   -47388.987    4075.5929   -51464.579   0.15468694 
  135200    294.73894   -1122.5914    150101.96   -47392.979    4047.5296   -51440.509   0.16440688 
  135400    294.61753   -1097.1289    150117.29   -47414.086    4045.8623   -51459.948   0.15959081 
  135600    292.82143   -876.63642    149780.17   -47380.942    4021.1972   -51402.139    0.1588478 
  135800    292.90671   -904.21655    149828.79   -47454.291    4022.3684   -51476.659   0.15916736 
  136000    293.38409    -1138.635    150113.96   -47481.239     4028.924   -51510.163   0.16104369 
  136200    286.09025   -1066.2998    149991.86   -47492.692    3928.7607   -51421.453   0.15960089 
  136400    295.46032   -850.02576    149747.66   -47448.958     4057.436   -51506.394   0.15351077 
  136600    299.13167   -956.05349    149898.53   -47390.171    4107.8531   -51498.024   0.15708166 
  136800    292.25467   -1119.2794    150113.63   -47394.811    4013.4141   -51408.225   0.16487398 
  137000    297.51104   -1016.3895    149940.61   -47403.053    4085.5977   -51488.651   0.16390103 
  137200    296.83296   -846.57432    149732.79   -47438.961    4076.2859   -51515.247   0.15567811 
  137400    293.49681   -1029.0472    149951.81   -47392.709    4030.4719   -51423.181    0.1621278 
  137600    293.72387   -1126.1234    150155.82   -47381.411      4033.59   -51415.001   0.15823258 
  137800    293.74619   -949.08657     149926.9   -47357.249    4033.8966   -51391.146   0.16126778 
  138000    302.10793   -850.99228    149740.52   -47360.216    4148.7249   -51508.941   0.15930748 
  138200    292.66446   -1091.2809    150018.15   -47406.561    4019.0415   -51425.603   0.15848497 
  138400    297.85547   -1131.8941    150140.26   -47389.381    4090.3276   -51479.708   0.15850745 
  138600    299.69622   -921.14617    149855.93    -47407.45    4115.6059   -51523.056   0.15692271 
  138800    300.11459   -880.55012     149791.1    -47358.77    4121.3511   -51480.121   0.16253312 
  139000    295.83437   -1116.2644     150113.4     -47341.1    4062.5727   -51403.673   0.16780816 
  139200    297.04861   -1112.4757    150135.72   -47342.028    4079.2473   -51421.275   0.16164823 
  139400    301.13242    -843.0752    149786.18   -47375.969    4135.3286   -51511.297   0.14990967 
  139600    299.41286   -858.35538    149819.58   -47357.226    4111.7146   -51468.941   0.15331819 
  139800    301.34302   -1112.5691    150186.18   -47311.382    4138.2207   -51449.602   0.16234203 
  140000    299.91435   -1124.7217    150131.69   -47278.244    4118.6014   -51396.846   0.16414937 
  140200    293.53451   -844.41629    149719.39   -47327.045    4030.9896   -51358.034   0.15983133 
  140400    296.80773   -897.57956    149793.56   -47352.489    4075.9394   -51428.428   0.16020684 
  140600    297.00457   -1189.5255       150225   -47345.583    4078.6425   -51424.226   0.16594661 
  140800    297.72092   -1108.9015    150062.61   -47339.725    4088.4799   -51428.205   0.16778165 
  141000    303.70644   -717.84091    149583.77    -47385.19    4170.6766   -51555.867   0.15966352 
  141200    302.94314   -922.13563    149843.81   -47333.489    4160.1945   -51493.683    0.1588132 
  141400     296.8916    -1310.797    150408.91   -47328.672    4077.0912   -51405.763   0.16168867 
  141600    293.47413   -1062.6848    150093.76   -47315.896    4030.1604   -51346.057   0.15894446 
  141800    297.24817   -620.23351    149498.55    -47379.06    4081.9878   -51461.048   0.15500681 
  142000    297.09661   -997.03205    149918.35   -47391.768    4079.9065   -51471.675   0.16254194 
  142200    294.87395   -1433.9842    150524.81   -47376.113    4049.3837   -51425.497   0.16374147 
  142400    295.70957   -1019.9964    149958.23   -47389.391    4060.8589    -51450.25   0.16295074 
  142600    297.18941   -520.33282    149336.68   -47388.329    4081.1809    -51469.51   0.15441979 
  142800    299.52628   -1069.2273    150033.64    -47385.66    4113.2722   -51498.932   0.15841437 
  143000    291.45655   -1455.4756    150610.55   -47436.028    4002.4539   -51438.482   0.16845956 
  143200    295.81283   -871.54013    149804.66   -47416.918    4062.2769   -51479.195   0.15382098 
  143400    297.31471   -500.99562     149322.9   -47386.905    4082.9016   -51469.807   0.14942792 
  143600     287.2124   -1199.5863    150198.09   -47364.136    3944.1707   -51308.306   0.15845889 
  143800    295.59984   -1423.1117    150508.11   -47371.385    4059.3519   -51430.737   0.16639903 
  144000    296.90439   -775.47665    149630.44   -47372.378    4077.2668   -51449.645    0.1579259 
  144200    292.67132   -630.68562    149478.41   -47348.363    4019.1358   -51367.499   0.15899649 
  144400    292.94087   -1272.5838     150298.7   -47339.315    4022.8375   -51362.153   0.17026519 
  144600    299.02096   -1251.9895    150340.97   -47311.068    4106.3328   -51417.401   0.16717335 
  144800    305.51732   -803.16536    149719.21   -47291.232    4195.5446   -51486.777     0.155959 
  145000    300.48335   -799.48569    149731.95   -47335.254    4126.4152   -51461.669   0.15124443 
  145200    294.11791   -1174.8074    150176.02   -47360.392    4039.0013   -51399.394   0.16360872 
  145400    296.34168   -1107.5683    150104.28   -47366.126    4069.5394   -51435.665   0.15987815 
  145600    291.41505   -841.28544    149752.72    -47388.69    4001.8839   -51390.573   0.15582501 
  145800    296.02861   -939.51658    149846.58   -47404.457      4065.24   -51469.697    0.1542709 
  146000    293.94887   -1094.1692    150135.61    -47386.19    4036.6799    -51422.87   0.15668404 
  146200    293.02353    -1048.788    150038.48   -47419.398    4023.9725   -51443.371   0.15749602 
  146400    295.53118   -858.36705    149781.01   -47374.529    4058.4091   -51432.938    0.1620623 
  146600     300.1244   -982.55127    149925.97   -47335.275    4121.4859   -51456.761   0.15815152 
  146800    301.96423   -1127.4937    150212.66   -47286.049    4146.7515     -51432.8   0.15483258 
  147000    295.72096    -1070.277    150047.74   -47302.311    4061.0153   -51363.326   0.15887656 
  147200    300.69473   -823.66936    149789.67   -47273.467     4129.318   -51402.785   0.14995366 
  147400    299.20956    -1018.186     150016.9   -47338.194    4108.9227   -51447.116   0.15438105 
  147600    291.40166   -1150.4255    150244.09   -47346.194    4001.7001   -51347.895   0.15921837 
  147800    292.34817   -995.96401    149951.06    -47393.98    4014.6981   -51408.678   0.15617314 
  148000    293.20581   -814.51574    149704.58    -47361.66    4026.4758   -51388.136   0.15535992 
  148200    299.85923   -1038.3909    150004.26   -47401.119    4117.8444   -51518.963   0.15680596 
  148400    293.34787    -1222.157    150196.84   -47447.474    4028.4266   -51475.901   0.16597431 
  148600    287.79126   -921.61556    149849.94   -47420.066      3952.12   -51372.186    0.1633276 
  148800    292.51462   -819.94919    149702.94   -47426.058     4016.984   -51443.042   0.15456859 
  149000    291.48526   -1092.6499    150060.62   -47427.907    4002.8481   -51430.756   0.15833825 
  149200    296.53685   -1141.6632    150148.66   -47432.655    4072.2195   -51504.875   0.16234905 
  149400    291.51666    -890.8881    149748.47   -47460.542    4003.2794   -51463.822    0.1548113 
  149600    292.24763   -826.37228    149712.11   -47461.071    4013.3174   -51474.388   0.15454172 
  149800    295.39221   -1191.8935    150184.89   -47440.777    4056.5007   -51497.277   0.16168605 
  150000    296.63814   -1156.1661    150149.29   -47398.758    4073.6106   -51472.369   0.16097331 
  150200    296.47343    -806.5055    149673.34   -47349.342    4071.3486    -51420.69   0.15601721 
  150400    297.06672   -885.63157    149779.25   -47318.841     4079.496   -51398.337   0.15555887 
  150600    296.96751   -1212.4571     150263.2   -47364.082    4078.1337   -51442.215   0.16187195 
  150800    294.71779   -1102.1023    150077.64   -47328.447    4047.2391   -51375.686   0.15806029 
  151000    298.55273   -748.75283    149609.37   -47376.339    4099.9028   -51476.242   0.14950473 
  151200    295.60268   -923.52133    149884.11   -47359.628    4059.3909   -51419.019   0.15578372 
  151400    297.99113    -1279.954     150366.4   -47263.311    4092.1906   -51355.501   0.16091041 
  151600    297.45145   -1027.7788    150055.14   -47253.767    4084.7793   -51338.546   0.16047088 
  151800    298.10235   -714.22541    149616.02    -47272.88    4093.7179   -51366.598   0.15636845 
  152000    297.80613   -1012.9098    150001.16   -47269.766      4089.65   -51359.416   0.15898913 
  152200    300.75008   -1286.9878     150403.5   -47284.153    4130.0781   -51414.231   0.16057741 
  152400    298.47734   -949.96791    149917.83   -47339.938    4098.8675   -51438.806   0.15248522 
  152600    301.09457   -678.03775    149535.93   -47314.475    4134.8088   -51449.284   0.15345703 
  152800    297.69567   -1106.6751    150128.51   -47238.316    4088.1332   -51326.449    0.1634665 
  153000    294.64272   -1384.7544    150477.57    -47300.82    4046.2083   -51347.029   0.16953095 
  153200    300.18675   -835.11638    149760.73   -47252.732    4122.3422   -51375.074   0.16146877 
  153400    299.36948   -665.68487    149488.39   -47311.858    4111.1188   -51422.977   0.15471051 
  153600    295.99307   -1200.6149    150233.54   -47329.612     4064.752   -51394.364   0.16258181 
  153800    296.33834    -1336.004    150370.16   -47354.689    4069.4935   -51424.182   0.16576555 
  154000    297.97122     -726.066    149556.65   -47381.407    4091.9172   -51473.324   0.15345068 
  154200    302.10677   -674.28553    149532.13   -47328.421    4148.7089    -51477.13    0.1519431 
  154400    300.63453   -1264.4773    150397.47   -47309.885    4128.4913   -51438.376   0.15828516 
  154600    302.04375   -1263.7787    150376.24   -47330.924    4147.8435   -51478.767   0.15741512 
  154800    294.22533   -705.75427    149594.25   -47358.209    4040.4764   -51398.685   0.15547582 
  155000    297.65294   -769.24989    149697.94   -47346.085    4087.5464   -51433.631   0.15730337 
[...]
  163200    293.24982   -984.11325     149962.3   -47412.487      4027.08   -51439.567   0.15762997 
  163400    294.35831   -664.68333    149525.93   -47454.338    4042.3026    -51496.64   0.15251746 
  163600     297.8176   -1030.6661    150036.69   -47396.473    4089.8075    -51486.28   0.15361731 
  163800    298.54475   -1344.2388    150469.83    -47449.36    4099.7933   -51549.153   0.15806582 
  164000    296.60372   -897.81821     149808.1   -47477.463    4073.1378   -51550.601   0.15381195 
  164200    291.08391   -618.51347    149428.41   -47478.005    3997.3366   -51475.342   0.15187504 
  164400    295.25591   -1114.9356     150164.3   -47411.328    4054.6289   -51465.957   0.15787571 
  164600    288.96879   -1396.4074    150480.13   -47381.882    3968.2905   -51350.173   0.16886557 
  164800    295.04217   -788.82225    149707.28   -47433.825    4051.6937   -51485.519   0.15199437 
  165000     294.5841   -652.86137    149494.25   -47411.976    4045.4032   -51457.379   0.15158096 
  165200    293.12341   -1227.4486    150249.65   -47397.375    4025.3442   -51422.719    0.1596493 
  165400    296.48371   -1235.8922    150308.96   -47425.199    4071.4898   -51496.689   0.16691027 
  165600    297.93991    -757.7055    149584.34   -47373.359    4091.4872   -51464.847   0.15753689 
  165800    293.86677   -766.24076    149628.71   -47398.203    4035.5524   -51433.755   0.15937618 
  166000    298.56436   -1250.8296    150302.51   -47346.567    4100.0626    -51446.63   0.17030116 
  166200    294.32964   -1171.9237    150177.39   -47378.423    4041.9088   -51420.331   0.16167359 
  166400    293.60886   -758.90071    149567.25   -47382.394    4032.0106   -51414.404   0.15486154 
  166600    301.06722   -859.59109    149744.52   -47376.503    4134.4332   -51510.936   0.15554326 
  166800    286.62821   -1264.6649    150272.32   -47427.925    3936.1482   -51364.074   0.16587317 
  167000    293.68492   -1112.2378    150082.25   -47432.016    4033.0552   -51465.071   0.16041622 
  167200    292.73173   -744.42305    149635.54   -47385.894    4019.9654   -51405.859   0.15371868 
  167400    297.46906   -945.07239    149873.87   -47431.571    4085.0212   -51516.592   0.15149596 
  167600    296.19085   -1213.2251    150266.22   -47406.278     4067.468   -51473.746   0.16182694 
  167800     291.9684   -1058.6298    150019.77   -47480.004    4009.4829   -51489.487   0.16077164 
  168000    289.13354   -771.68588    149646.47   -47472.718    3970.5528   -51443.271   0.15701985 
  168200    293.68182   -1001.9344    149889.96   -47468.955    4033.0125   -51501.968    0.1598526 
  168400    295.03282   -1196.8983    150203.37   -47418.992    4051.5653   -51470.558   0.15594129 
  168600    296.77966   -1006.2712    149969.13    -47434.74     4075.554   -51510.294   0.15089594 
  168800     293.2215   -822.77091    149735.62   -47478.608    4026.6912     -51505.3   0.15400509 
  169000    292.32167    -1033.407    149962.34   -47460.423    4014.3342   -51474.758    0.1631514 
  169200    295.11565    -1128.496    150114.92   -47427.009    4052.7028   -51479.712   0.15889967 
  169400    292.40731   -1007.0744    149900.68   -47457.131    4015.5103   -51472.641   0.15380662 
  169600    295.10684   -835.47808    149760.51   -47468.726    4052.5818   -51521.307   0.15263811 
  169800    290.58619   -1032.6315    149963.72   -47471.002    3990.5015   -51461.504   0.16162187 
  170000    290.79214    -1074.138    150055.44   -47508.554    3993.3298   -51501.884   0.15955051 
  170200    291.05772   -961.13251    149865.98    -47520.85    3996.9769   -51517.826   0.15717089 
  170400    291.29645   -913.45293    149814.91    -47491.09    4000.2553   -51491.345   0.15267624 
  170600    288.50305   -1053.7991    150014.16   -47468.773    3961.8946   -51430.667   0.15552583 
  170800    291.07067   -1114.6401    150046.58   -47493.192    3997.1547   -51490.346   0.15691196 
  171000    290.77664   -939.19454    149805.28    -47495.41     3993.117   -51488.527   0.15641824 
  171200    286.66945   -969.49686    149795.58   -47523.755    3936.7146   -51460.469   0.16243549 
  171400    284.66252   -1117.7877    150035.63   -47514.407    3909.1542   -51423.561   0.16229624 
  171600    292.15269   -1034.7959    150000.45   -47479.214    4012.0137   -51491.228   0.15749344 
  171800    291.33646   -885.89251    149778.87    -47459.09    4000.8047   -51459.895   0.15715811 
  172000    295.40307   -927.58045    149832.89   -47465.232    4056.6498   -51521.882   0.15516736 
  172200    291.57492   -1078.1809    150075.06   -47467.029    4004.0794   -51471.108    0.1601029 
  172400    295.25089   -1047.3943    150007.88   -47435.536      4054.56   -51490.096   0.15634915 
  172600     294.1423   -880.32535    149765.61   -47422.966    4039.3362   -51462.302   0.15678705 
  172800    295.35325   -990.93816    149891.27   -47430.679    4055.9656   -51486.645   0.15885413 
  173000     290.3442   -1161.4001    150154.91   -47444.634    3987.1784   -51431.812     0.157814 
  173200    291.83601   -997.81754    149948.65   -47484.924    4007.6648   -51492.589   0.15585045 
  173400    286.52806   -823.78352    149651.62   -47474.674    3934.7729   -51409.447    0.1622962 
  173600     298.6342   -971.68263    149959.59     -47421.9    4101.0216   -51522.922   0.15842309 
  173800    294.32606   -1283.0581    150336.74   -47415.038    4041.8597   -51456.898   0.16164177 
  174000    298.88618   -961.80305    149907.86   -47385.338     4104.482    -51489.82   0.15508534 
  174200    301.86697   -634.80076    149483.55   -47384.625     4145.416   -51530.041   0.15302563 
  174400    290.84894   -1091.2936    150042.58   -47359.414    3994.1098   -51353.523   0.16538549 
  174600    297.65609   -1356.1685    150456.15    -47363.39    4087.5896    -51450.98   0.16606957 
  174800    299.32392   -869.03628    149785.92   -47338.216    4110.4932   -51448.709   0.16136784 
  175000    295.18076   -648.05409    149437.55   -47392.092    4053.5969   -51445.689   0.15616573 
  175200     291.7116   -1218.4606    150207.02   -47378.619    4005.9564   -51384.576   0.16367536 
  175400     297.7094    -1358.223     150475.8    -47382.23    4088.3218   -51470.551   0.16812713 
  175600    295.67172   -758.64187    149616.33   -47407.094    4060.3391   -51467.433   0.16015931 
  175800    297.37242   -658.77124    149445.82   -47392.973    4083.6941   -51476.667   0.15700784 
  176000     291.9125   -1290.0471    150317.59   -47367.645    4008.7152    -51376.36   0.16544714 
  176200    299.80286   -1286.2824    150371.77   -47314.501    4117.0703   -51431.571   0.16307366 
  176400    299.99383   -671.40369    149574.76   -47366.168    4119.6928    -51485.86   0.15015437 
  176600     297.0528   -783.65685    149642.58    -47345.72    4079.3049   -51425.025   0.15427749 
  176800    294.70632   -1322.2897    150345.34   -47342.652    4047.0817   -51389.734   0.16868436 
  177000    298.47929   -1140.6446    150188.06   -47360.893    4098.8943   -51459.787   0.15890588 
  177200     289.8132   -763.83008    149596.32   -47382.541    3979.8864   -51362.428    0.1580173 
  177400    296.71328   -892.97862    149781.88   -47472.756    4074.6423   -51547.398   0.15092601 
  177600    291.02864   -1199.4616    150262.07   -47428.361    3996.5775   -51424.938   0.15578587 
  177800    295.69204   -1042.0636    150067.06   -47409.933     4060.618   -51470.551   0.15602142 
  178000    298.41733   -782.67242    149699.11   -47373.163    4098.0434   -51471.206   0.15374448 
  178200    290.95998   -1027.5963    149933.62   -47407.059    3995.6347   -51402.694   0.16097182 
  178400    296.51818   -1167.1528    150230.69   -47377.907    4071.9632    -51449.87   0.15609985 
  178600    291.38091   -1035.3661    149989.98   -47397.318    4001.4152   -51398.733   0.15836352 
  178800     298.8123   -842.43675     149729.2   -47370.567    4103.4674   -51474.034   0.15597865 
  179000    297.37095   -1018.3981    150000.93   -47341.344    4083.6739   -51425.018   0.16107754 
  179200    294.31183   -1191.4764    150221.39   -47362.468    4041.6643   -51404.132   0.16418062 
  179400    293.93545   -962.68329    149927.46   -47339.646    4036.4956   -51376.141   0.15979611 
  179600    297.20254   -813.38087    149734.34   -47349.476    4081.3612   -51430.838   0.15375742 
  179800    299.78276   -1052.8731    150033.14   -47374.542    4116.7943   -51491.336   0.16002085 
  180000    295.12722   -1118.6239    150170.67   -47335.969    4052.8616   -51388.831   0.16266302 
  180200     297.8177   -949.40119    149866.34   -47301.144    4089.8089   -51390.953   0.16249643 
  180400    300.74939   -835.99264    149776.54   -47256.775    4130.0687   -51386.844   0.15522052 
  180600    294.78468   -1090.8799    150115.22   -47341.458    4048.1577   -51389.616   0.15850055 
  180800    297.21204    -1086.704    150140.51   -47304.118    4081.4916    -51385.61   0.15915174 
  181000    291.91443   -875.75921     149818.9   -47350.166    4008.7417   -51358.907   0.15703335 
  181200    297.27013   -908.46119    149843.76   -47333.861    4082.2894   -51416.151   0.15724905 
  181400    291.93227   -1161.8249    150164.25   -47369.208    4008.9868   -51378.195   0.16231317 
  181600    299.25883   -1055.5166    150067.24    -47392.71    4109.5994   -51502.309   0.15423108 
  181800    296.84095   -787.45359    149758.11   -47367.359    4076.3957   -51443.755   0.15239326 
  182000    297.36181   -934.07372    149914.08    -47374.89    4083.5484   -51458.438   0.15656097 
  182200    295.93143   -1140.1376    150230.91   -47386.113    4063.9055   -51450.019   0.15800657 
  182400    302.14633   -1017.4902    150050.17   -47391.204    4149.2523   -51540.457   0.15263219 
  182600    298.77171   -819.38108    149741.96   -47357.966      4102.91   -51460.876   0.15364788 
  182800    293.70336   -969.04876    149988.54   -47319.387    4033.3084   -51352.695   0.15883961 
  183000    297.24833   -1222.2853    150311.52   -47315.325      4081.99   -51397.315   0.15921224 
  183200    298.67623   -1003.8091    149995.83   -47301.716    4101.5987   -51403.314   0.15651292 
  183400    301.21774   -776.48405    149686.84   -47316.014    4136.5003   -51452.515   0.15591973 
  183600     296.2099   -1081.4917    150068.77   -47340.409    4067.7297   -51408.139   0.16167356 
  183800    294.01125   -1266.6498    150326.94   -47368.009    4037.5366   -51405.546   0.16734318 
  184000    295.76895   -889.98605    149803.95   -47389.817    4061.6743   -51451.491   0.15637234 
  184200    298.35893   -683.17297    149516.37   -47436.981    4097.2414   -51534.223     0.147351 
  184400    294.22163   -1244.8561     150203.9   -47438.402    4040.4255   -51478.827   0.16053776 
  184600    294.84828    -1428.293    150488.75   -47440.261    4049.0311   -51489.292   0.16873494 
  184800    289.56202   -732.91399    149560.45   -47440.197     3976.437   -51416.634   0.15752838 
  185000     298.7858   -559.35243    149344.71   -47434.998    4103.1035   -51538.101   0.14683789 
  185200    293.66393   -1351.6702    150438.83   -47477.183    4032.7669    -51509.95   0.15610547 
  185400    293.60327   -1433.0848     150495.4   -47451.833    4031.9339   -51483.767   0.16644541 
  185600    294.13685   -511.91491    149337.64   -47471.699    4039.2614    -51510.96   0.14851937 
  185800    296.07053   -627.38836    149446.22   -47416.302    4065.8157   -51482.117   0.15470298 
  186000    293.68818   -1434.3152    150542.97   -47385.442    4033.0999   -51418.542   0.16734442 
  186200    290.98336   -1248.9296    150314.63   -47379.619    3995.9558   -51375.574   0.15888005 
  186400    297.05549   -608.03339    149391.81   -47341.357    4079.3418   -51420.698    0.1536701 
  186600    295.65297   -804.42101    149718.21   -47373.962    4060.0816   -51434.044   0.16062071 
  186800    292.84085   -1331.9839    150464.59   -47387.795    4021.4639   -51409.259   0.16942831 
  187000    295.32088   -1159.3011    150135.61   -47364.276    4055.5212   -51419.798   0.16021159 
  187200    297.59875   -678.60399    149557.36   -47391.998    4086.8022     -51478.8   0.15168301 
  187400    290.85301   -943.96792    149890.31   -47373.765    3994.1657    -51367.93   0.16154903 
  187600    293.00461   -1293.2078    150334.28   -47407.589    4023.7128   -51431.302   0.16455307 
  187800    297.27823   -965.18068    149954.79   -47401.834    4082.4006   -51484.235   0.15747006 
  188000    294.99311    -768.8048    149617.44   -47380.384      4051.02   -51431.404   0.15858416 
  188200    294.46876   -1065.0638     150005.9     -47366.9    4043.8194    -51410.72   0.16247257 
  188400    291.37698   -1217.2174    150257.63   -47348.379    4001.3611    -51349.74   0.16283835 
  188600    296.08342   -912.23619    149861.05    -47360.49    4065.9928   -51426.483   0.15942374 
  188800    297.11059   -831.48505    149695.27   -47377.444    4080.0985   -51457.542   0.15831088 
  189000    296.66611   -1132.9467    150079.25   -47364.398    4073.9946   -51438.392   0.16402956 
  189200    295.77129    -1201.377    150182.01   -47366.515    4061.7064   -51428.221   0.16516963 
  189400     298.5661   -836.71543    149827.72   -47332.959    4100.0864   -51433.045    0.1592976 
  189600    293.55605   -856.43594    149804.16   -47347.095    4031.2854   -51378.381   0.15533083 
  189800     291.7081   -1123.0247    150113.69   -47381.994    4005.9082   -51387.902   0.15569259 
  190000    292.36925   -1075.4213    150072.94   -47414.992    4014.9875   -51429.979   0.15652462 
  190200    292.64759   -903.24099    149771.96    -47393.31    4018.8099    -51412.12   0.16027402 
  190400    293.88918   -970.29118    149872.24   -47391.031    4035.8602   -51426.891   0.16541157 
  190600    301.41815   -1127.9073    150173.38   -47329.804    4139.2524   -51469.056   0.16345225 
  190800    298.27331   -1056.4667    150043.63   -47363.464    4096.0656   -51459.529   0.15327495 
  191000    298.51779   -818.32171    149747.83   -47381.725     4099.423   -51481.148    0.1540673 
  191200    294.05716   -961.14879    149924.82   -47372.822     4038.167   -51410.989   0.16272626 
  191400    291.50915   -1213.1088    150198.53   -47393.726    4003.1762   -51396.902   0.17222621 
  191600    298.98335    -1011.053    149975.96   -47352.565    4105.8164   -51458.382    0.1596238 
  191800    291.17023   -854.87256    149755.46   -47389.328     3998.522    -51387.85   0.15091448 
  192000    293.84136   -1027.6536    149988.97   -47387.452    4035.2034   -51422.656   0.15326777 
  192200    297.27465    -1146.216    150178.59   -47353.123    4082.3514   -51435.475   0.16157005 
  192400    294.06865   -987.66866    149953.83   -47364.436    4038.3248    -51402.76   0.16580121 
  192600    293.07933   -864.31018    149781.44   -47398.209    4024.7389   -51422.948   0.15508672 
  192800    295.64708   -1027.8352    150013.99    -47371.64    4060.0007    -51431.64   0.15367125 
  193000    297.73269   -1128.8379    150191.19   -47358.198    4088.6415    -51446.84   0.15744825 
  193200    299.23094   -964.39423    149963.77   -47314.484    4109.2163   -51423.701   0.16152925 
  193400    300.68903    -869.7272    149797.27   -47319.149    4129.2397   -51448.389     0.159479 
  193600    298.39115   -1073.0436    150049.76   -47328.962    4097.6838   -51426.646   0.15827135 
  193800    295.81636   -1142.1937    150201.86   -47375.461    4062.3253   -51437.787   0.15379932 
  194000    294.70299   -930.47466    149865.94   -47405.798    4047.0359   -51452.834   0.15423298 
  194200    294.03404   -778.68784    149665.72   -47393.792    4037.8495   -51431.642   0.15530036 
  194400    298.61582   -1116.9314    150109.49   -47368.485    4100.7691   -51469.254   0.16104091 
  194600    294.33241   -1271.8807    150297.53    -47388.91    4041.9468   -51430.857   0.16840675 
  194800    298.41595   -848.41925    149688.92   -47384.764    4098.0245   -51482.788   0.15848154 
  195000    298.18855   -695.36619    149508.23   -47369.425    4094.9016   -51464.326   0.15812119 
  195200    296.92531   -1273.0063    150292.03    -47343.15    4077.5541   -51420.704   0.16581243 
  195400    292.73795   -1356.0114       150428   -47341.487    4020.0508   -51361.538   0.16567189 
  195600    296.95162   -712.39193    149536.06   -47360.252    4077.9155   -51438.167   0.15581492 
  195800    295.35411   -639.53823    149496.02   -47407.802    4055.9775    -51463.78   0.15243483 
  196000    293.24546   -1347.2303       150399   -47362.835    4027.0202   -51389.856   0.17287648 
  196200     292.2853   -1320.8269    150296.83    -47350.15    4013.8347   -51363.985   0.16497585 
  196400    302.10761   -603.59912    149434.22   -47362.816    4148.7206   -51511.537    0.1478706 
  196600    293.40858   -794.14044    149635.14   -47428.911    4029.2602   -51458.171    0.1571995 
  196800    293.83011   -1338.8599    150421.99   -47406.632     4035.049    -51441.68   0.16182163 
  197000    291.15831   -1118.0936    150157.97   -47420.292    3998.3582    -51418.65   0.15980094 
  197200    295.44151   -647.81121    149495.77   -47487.033    4057.1777   -51544.211   0.14749934 
  197400     290.5846     -915.197    149814.09   -47440.475    3990.4797   -51430.955   0.15212659 
  197600    293.72925    -1326.135    150364.57   -47344.422     4033.664   -51378.086    0.1641079 
  197800    301.24751   -1017.6104    150034.86   -47336.168    4136.9092   -51473.077   0.15224788 
  198000    294.35399   -709.12486    149569.09   -47371.767    4042.2432    -51414.01      0.15601 
  198200    296.03172    -961.7014    149943.61   -47394.354    4065.2828   -51459.636   0.15336516 
  198400    296.51253   -1259.0397    150324.53    -47313.01    4071.8856   -51384.896   0.15944192 
  198600    293.45283   -1020.5291    149912.53   -47308.969    4029.8679   -51338.837   0.16369605 
  198800    294.43174   -761.61838    149607.43    -47346.21     4043.311   -51389.521   0.16136431 
  199000    295.76819   -1066.1009     150016.3   -47347.021    4061.6638   -51408.684   0.16394409 
  199200    293.38473   -1221.6308    150206.82   -47337.879    4028.9328   -51366.812   0.16772346 
  199400    292.60934   -932.14103    149807.47   -47354.919    4018.2846   -51373.203   0.15489745 
  199600    296.95935   -834.52479    149647.39   -47380.204    4078.0215   -51458.226   0.15754041 
  199800    296.12669   -1080.2149    150030.48   -47353.377     4066.587   -51419.964   0.16356948 
  200000    297.85067   -1195.0799    150187.23   -47369.487    4090.2617   -51459.749   0.16025071 
Loop time of 104.833 on 6 procs for 200000 steps with 4608 atoms

Performance: 824.165 ns/day, 0.029 hours/ns, 1907.788 timesteps/s
97.9% CPU use with 6 MPI tasks x no OpenMP threads

MPI task timing breakdown:
Section |  min time  |  avg time  |  max time  |%varavg| %total
---------------------------------------------------------------
Pair    | 74.206     | 74.781     | 75.3       |   3.9 | 71.33
Neigh   | 10.638     | 10.978     | 11.404     |   9.1 | 10.47
Comm    | 8.7539     | 9.1298     | 10.077     |  15.2 |  8.71
Output  | 3.028      | 3.0291     | 3.0334     |   0.1 |  2.89
Modify  | 5.6073     | 5.6928     | 5.7627     |   2.3 |  5.43
Other   |            | 1.223      |            |       |  1.17

Nlocal:        768.000 ave         777 max         760 min
Histogram: 1 0 1 1 0 1 1 0 0 1
Nghost:        1396.00 ave        1407 max        1379 min
Histogram: 1 0 0 0 1 1 0 1 1 1
Neighs:        0.00000 ave           0 max           0 min
Histogram: 6 0 0 0 0 0 0 0 0 0
FullNghs:      21855.0 ave       22082 max       21626 min
Histogram: 1 0 0 1 2 0 0 1 0 1

Total # of neighbors = 131130
Ave neighs/atom = 28.457031
Neighbor list builds = 12855
Dangerous builds = 0
write_data		data.${NAME}
write_data		data.ice_296K_-1000atm_ML
System init for write_data ...
Total wall time: 0:02:34
