

read_data data.ice_${TEMP}K_${PRES}atm_ML group ice
read_data data.ice_296K_${PRES}atm_ML group ice
read_data data.ice_296K_-1000atm_ML group ice
Reading data file ...
  orthogonal box = (-0.11330001 -0.10071112 -0.10071112) to (57.383810 51.007831 51.007831)
  3 by 1 by 2 MPI processor grid
  reading atoms ...
  4608 atoms
  reading velocities ...
  4608 velocities
  read_data CPU = 0.021 seconds
read_data data.liq_${TEMP}K_${PRES}atm_ML add append shift ${X_HI} ${YZ_LO} ${YZ_LO} group water
read_data data.liq_296K_${PRES}atm_ML add append shift ${X_HI} ${YZ_LO} ${YZ_LO} group water
read_data data.liq_296K_-1000atm_ML add append shift ${X_HI} ${YZ_LO} ${YZ_LO} group water
read_data data.liq_296K_-1000atm_ML add append shift 51.0078311207397 ${YZ_LO} ${YZ_LO} group water
read_data data.liq_296K_-1000atm_ML add append shift 51.0078311207397 0.100711120739568 ${YZ_LO} group water
read_data data.liq_296K_-1000atm_ML add append shift 51.0078311207397 0.100711120739568 0.100711120739568 group water
Reading data file ...
  orthogonal box = (-0.11330001 -0.19077721 -0.19077721) to (104.59592 51.299319 51.299319)
  3 by 1 by 2 MPI processor grid
  reading atoms ...
  4608 atoms
  reading velocities ...
  4608 velocities
  read_data CPU = 0.012 seconds

write_data data.icewater_test
System init for write_data ...
WARNING: Communication cutoff is 0.0. No ghost atoms will be generated. Atoms may get lost. (../comm_brick.cpp:167)

# Define potential
#
pair_style sw
pair_coeff * * /data/emrosky-sim/Freezing_Simulations/Melting/MLmW_fancy/ML_mW.sw mW
Reading sw potential file /data/emrosky-sim/Freezing_Simulations/Melting/MLmW_fancy/ML_mW.sw with DATE: 2019-02-27

# Delete water and ice atoms that are overlapping
#
delete_atoms overlap 2.5 water ice
System init for delete_atoms ...
Neighbor list info ...
  update every 1 steps, delay 10 steps, check yes
  max neighbors/atom: 2000, page size: 100000
  master list distance cutoff = 6.0032907
  ghost atom cutoff = 6.0032907
  binsize = 3.0016454, bins = 35 18 18
  2 neighbor lists, perpetual/occasional/extra = 1 1 0
  (1) command delete_atoms, occasional, copy from (2)
      attributes: full, newton on
      pair build: copy
      stencil: none
      bin: none
  (2) pair sw, perpetual
      attributes: full, newton on
      pair build: full/bin/atomonly
      stencil: full/bin/3d
      bin: standard
Deleted 679 atoms, new total = 8537

# set timestep
#
timestep 10.0

# Define output
#
compute 1 all msd
thermo 50
thermo_style custom step temp press vol etotal ke pe c_1[4]

# Neighbor lists
#
neigh_modify delay 0 every 1 check yes

# Set fixes
#
fix 1 all momentum 10 linear 1 1 1 rescale
fix 2 all nph iso ${PRES} ${PRES} ${PCOUPL}
fix 2 all nph iso -1000 ${PRES} ${PCOUPL}
fix 2 all nph iso -1000 -1000 ${PCOUPL}
fix 2 all nph iso -1000 -1000 10000.0
fix 3 all temp/csvr ${TEMP} ${TEMP} ${TCOUPL} 837492
fix 3 all temp/csvr 296 ${TEMP} ${TCOUPL} 837492
fix 3 all temp/csvr 296 296 ${TCOUPL} 837492
fix 3 all temp/csvr 296 296 5000.0 837492


# Fix ice atoms in place
#
velocity ice set 0.0 0.0 0.0
fix 4 ice setforce 0.0 0.0 0.0

# Run 1.0 ns equilibration of water
#
dump 1 all atom 1000 eq.all.${NAME}.dump
dump 1 all atom 1000 eq.all.coexist_296K_-1000atm_ML.dump
run 100000
Neighbor list info ...
  update every 1 steps, delay 0 steps, check yes
  max neighbors/atom: 2000, page size: 100000
  master list distance cutoff = 6.0032907
  ghost atom cutoff = 6.0032907
  binsize = 3.0016454, bins = 35 18 18
  1 neighbor lists, perpetual/occasional/extra = 1 0 0
  (1) pair sw, perpetual
      attributes: full, newton on
      pair build: full/bin/atomonly
      stencil: full/bin/3d
      bin: standard
Per MPI rank memory allocation (min/avg/max) = 4.591 | 4.598 | 4.603 Mbytes
Step Temp Press Volume TotEng KinEng PotEng c_1[4] 
       0    138.50593   -1867.3507    277608.24   -83496.162    3524.1718   -87020.334            0 
      50     160.8552   -1594.2661    275957.49   -83201.447     4092.831   -87294.278   0.90029677 
     100    169.41772   -725.70935    272797.31   -82894.607    4310.6975   -87205.305    1.8722031 
     150      176.447   -347.97814    271316.52   -82554.328    4489.5519    -87043.88    2.9189721 
     200    178.27023   -587.88395    271753.75   -82316.534    4535.9425   -86852.477      3.91523 
     250    186.10099   -857.28311       273045   -82007.816    4735.1899   -86743.006    4.9746151 
     300    184.53433   -1552.4387    274435.81   -81644.254    4695.3274   -86339.582    6.1631133 
     350    191.64947   -1186.8958    274517.69   -81425.316    4876.3663   -86301.682    7.3969468 
     400    200.48383   -1071.8783    273928.57   -81210.375    5101.1495   -86311.525    8.7859062 
     450    202.87602   -720.40689    273412.03   -80945.533    5162.0169    -86107.55    10.196025 
     500    207.90959   -889.15825     273784.7    -80741.26    5290.0919   -86031.352     11.64645 
     550    209.45983   -934.71606    274609.43   -80530.317    5329.5366   -85859.853     13.13324 
     600    216.19954    -1159.134    275281.51   -80320.507    5501.0231    -85821.53    14.875607 
     650    217.16834   -1105.0341    275322.32   -80117.026    5525.6735   -85642.699    16.684325 
     700    223.97585   -851.38546    274920.86   -79924.893    5698.8851   -85623.778    18.659448 
     750    225.55388   -868.18658    274909.31   -79758.642    5739.0368   -85497.679    20.529333 
     800    225.66924   -1020.6994    275136.46    -79562.53     5741.972   -85304.502    22.724118 
     850    230.55498   -929.41251    275299.54   -79368.005    5866.2859   -85234.291    24.919309 
     900    237.37584    -1168.879    275562.23   -79201.274     6039.837   -85241.111    27.158451 
     950    238.14796   -967.15011    275762.11   -79034.322    6059.4829   -85093.804    29.175198 
    1000    238.94318   -995.56094    275788.56   -78892.215    6079.7168   -84971.932    31.515511 
    1050    236.70268   -720.21289    275996.21   -78769.176     6022.709   -84791.885    33.946306 
    1100    244.69251   -1219.8077    276813.65   -78651.088    6226.0039   -84877.092    36.242828 
    1150    242.17699   -1141.7195    277218.66   -78515.833    6161.9984   -84677.831    38.962905 
    1200    247.65484   -875.13295    276839.05   -78414.653     6301.378   -84716.031    41.526222 
    1250    248.58863   -860.17637    276430.11   -78314.671    6325.1374   -84639.809    44.151085 
    1300    254.29637   -961.72997    276476.06   -78231.642    6470.3663   -84702.009    46.908773 
    1350    253.00671    -741.5575    276940.99    -78137.04    6437.5519   -84574.592     49.73846 
    1400    253.05462   -1254.3328    277487.07   -77995.836    6438.7709   -84434.607    52.648463 
    1450     255.9582   -837.52843    277491.78   -77883.559    6512.6503   -84396.209    55.660529 
    1500     256.1138   -940.78376    277407.91   -77809.253    6516.6094   -84325.863    58.339847 
    1550    260.85123   -830.19991    277298.68   -77731.348    6637.1495   -84368.498    61.257992 
    1600    259.03374   -1238.0546    277736.74    -77634.27    6590.9048   -84225.175    64.326127 
    1650    265.96052   -1253.6682    278033.01   -77572.423    6767.1513   -84339.575    67.409144 
    1700     263.9617   -1153.5762    277691.12   -77473.114    6716.2928   -84189.406    70.201268 
    1750    264.70625    -780.2196    277069.95   -77413.762    6735.2374       -84149    72.726181 
    1800    268.85292   -519.14585    277078.32   -77324.981     6840.746   -84165.727    75.528588 
    1850    266.19155   -1202.7725     277863.5   -77223.207    6773.0296   -83996.236    78.382658 
    1900    272.28058   -1109.3969    278461.79   -77127.457      6927.96   -84055.417    81.028405 
    1950    272.54158   -987.91694    278525.54   -77040.729     6934.601    -83975.33    83.655253 
    2000     274.8457   -996.54101     278424.2   -76947.548    6993.2274   -83940.775    86.324992 
    2050    278.27363   -1079.9038    278496.98   -76937.714    7080.4483   -84018.163    88.902263 
    2100    276.55806   -979.88005    278595.63   -76909.107     7036.797   -83945.904    91.768408 
    2150    277.32239   -853.75589    278442.72   -76854.464    7056.2448   -83910.709    95.236212 
    2200    280.78156   -1172.9705     278229.2   -76789.528    7144.2608   -83933.789    97.950432 
    2250    281.42847    -891.1163    277965.29   -76762.759    7160.7206    -83923.48    101.08025 
    2300     282.0501   -1084.1436    278218.88   -76665.983    7176.5376    -83842.52    104.21067 
    2350    281.05775   -1030.3044    278737.48   -76568.257     7151.288   -83719.545    107.29685 
    2400    277.81641   -936.29276    278882.71   -76534.429    7068.8149   -83603.244    110.62192 
    2450    284.66788   -1017.5107    278848.06   -76490.176     7243.145   -83733.321    113.33785 
    2500    286.26188   -1107.1109    278656.39   -76421.597     7283.703     -83705.3    115.95411 
    2550    284.84842   -953.69351    278429.38   -76393.016    7247.7386   -83640.755    119.17217 
    2600    282.69433   -719.37701    278480.79    -76370.31    7192.9296    -83563.24    122.48721 
    2650    290.85171   -914.42013    278836.32   -76286.607    7400.4874   -83687.094    126.02904 
    2700    285.93286   -1063.8558    279371.99   -76247.845    7275.3312   -83523.176    128.83723 
    2750     287.1814   -1142.0072    279588.71   -76257.606    7307.0993   -83564.705    131.99229 
    2800    288.49904   -957.31019    279462.37    -76228.55    7340.6256   -83569.176    134.76878 
    2850    289.65389   -950.28452    279302.76   -76242.958      7370.01   -83612.968    137.57704 
    2900    289.15512   -886.46971       278987   -76259.166    7357.3193   -83616.485    140.32719 
    2950     289.0775   -858.73786    278556.43   -76262.194    7355.3441   -83617.538    142.92314 
    3000    290.38973   -638.30437    278312.34   -76223.673    7388.7329   -83612.406    146.13772 
    3050    288.33905   -829.80267    278944.84   -76220.864    7336.5549   -83557.418    149.31928 
    3100    288.75642   -1059.4913    279646.59   -76198.417    7347.1746   -83545.591    153.27599 
    3150    286.91272    -1245.054    279861.56   -76199.872     7300.263   -83500.135    156.19707 
    3200    289.73874   -1064.1286    279336.35   -76167.735    7372.1689   -83539.903     158.5212 
    3250    292.53344    -940.6402     278461.1   -76154.541    7443.2779   -83597.819    161.21469 
    3300    293.67967   -669.25385    278272.79   -76110.636    7472.4427   -83583.079    164.18969 
    3350    291.06325   -840.02355    279052.63   -76001.262      7405.87   -83407.132    167.73072 
    3400    292.11043   -1272.8217    279933.38   -76038.364    7432.5146   -83470.879     171.5278 
    3450    289.59528   -1286.0285    280103.68   -76053.109    7368.5188   -83421.628    174.64451 
    3500    286.38678   -1100.6642    279630.38   -76045.097    7286.8809   -83331.978    177.95068 
    3550    293.12315   -911.94143    278988.81   -76010.176    7458.2824   -83468.458    180.61362 
    3600    295.88542   -651.61578    278779.58   -76027.547    7528.5662   -83556.113    182.88613 
    3650    291.26165   -1178.4224    279121.68   -76030.309    7410.9181   -83441.227     185.1023 
    3700    294.59318   -952.02246    279333.06   -76020.784    7495.6861    -83516.47    188.36018 
    3750    292.73314   -1051.9556    279510.46    -76037.23    7448.3591   -83485.589    191.51384 
    3800    293.10371   -1131.5864    279617.81   -76031.519     7457.788   -83489.307    194.38602 
    3850    290.59687   -1040.0503    279367.28   -76019.095    7394.0033   -83413.098    196.05546 
    3900    289.85418   -895.75199    278906.46   -76034.531    7375.1063   -83409.638      199.494 
    3950    292.34368   -870.98069    278715.59   -75992.704    7438.4494   -83431.153    202.68182 
    4000    296.96928   -1136.9663     279009.5   -75997.194    7556.1441   -83553.338    206.35966 
    4050    293.12784   -1210.6462    279585.86   -75969.785    7458.4018   -83428.187    209.99671 
    4100    295.10805   -1321.0041    279771.56   -75959.261    7508.7867   -83468.048       213.45 
    4150    293.16875   -984.14738    279371.68   -75926.371    7459.4426   -83385.814    216.57294 
    4200    290.99307   -689.04869    278849.05    -75925.58    7404.0844   -83329.665    219.27378 
    4250    296.98234    -947.8611    278880.12    -75902.58    7556.4765   -83459.056    222.95775 
    4300    293.72514   -1001.2372    279321.38   -75912.473    7473.5996   -83386.072    226.29141 
    4350    294.87185   -1417.4827    279798.03   -75920.999    7502.7768   -83423.776    230.01833 
    4400    297.36718    -1127.332    279733.06   -75911.623    7566.2683   -83477.892     233.8531 
    4450    289.46586   -1069.1772    279461.13   -75846.161    7365.2256   -83211.387    237.59907 
    4500    297.69292   -732.55691    279199.45   -75801.894    7574.5567   -83376.451    240.78457 
    4550    297.86255   -1004.6155    279441.51   -75752.691    7578.8726   -83331.564     244.0919 
    4600     300.8892   -1302.7258    279964.99   -75741.844    7655.8834   -83397.728    248.31784 
    4650    296.77572    -934.3944     280258.2   -75667.181    7551.2191     -83218.4     251.0647 
    4700    298.03407   -1151.1814     280301.6   -75652.195     7583.237   -83235.432    253.62973 
    4750    299.00992    -882.5899    279766.19   -75680.914    7608.0666   -83288.981    255.51898 
    4800    299.61273   -763.82147    279209.14   -75690.005    7623.4046    -83313.41    257.99492 
    4850    305.47051   -997.04101    279039.66   -75708.698    7772.4511   -83481.149    261.51691 
    4900    298.98616   -928.61965    279237.17   -75699.736     7607.462   -83307.198     263.6768 
    4950    296.17473   -1006.9132    279747.74   -75700.995    7535.9275   -83236.922    267.10678 
    5000    292.78931   -1233.0149    280085.57   -75709.288    7449.7882   -83159.076    270.38059 
    5050    295.59504   -1308.8412     280063.9   -75717.845    7521.1778   -83239.022    273.69276 
    5100    298.85237   -789.35374    279562.82   -75734.957    7604.0579   -83339.015    277.24698 
    5150    303.49799   -842.31639    279201.45    -75770.16    7722.2619   -83492.422    280.45136 
    5200    300.50357   -843.77747    279184.32   -75775.213    7646.0712   -83421.284    283.51125 
    5250    295.85741   -659.30629    279468.31   -75750.674    7527.8536   -83278.528    287.28533 
    5300    297.24608   -952.59101    280022.42   -75731.301    7563.1872   -83294.488    291.16604 
    5350     295.8937   -878.25354    280172.76   -75688.435    7528.7769   -83217.212      294.438 
    5400    297.07903   -913.71492    279805.65    -75744.99    7558.9366   -83303.927    297.42531 
    5450    298.18911   -898.91258    279651.53   -75733.396    7587.1818   -83320.578    300.69608 
    5500     296.1981   -1175.6193    279591.39   -75729.818     7536.522    -83266.34    302.79454 
    5550     298.0805   -1146.0043    279297.31   -75784.789    7584.4181   -83369.207    305.33713 
    5600    295.08467   -1314.2787    279136.38   -75849.522    7508.1919   -83357.713    308.73428 
    5650    294.93704   -702.44454    278992.55   -75932.164    7504.4355     -83436.6    312.57603 
    5700    296.48851   -1225.2329     279145.1   -75901.468    7543.9113   -83445.379    315.98614 
    5750    293.67547   -998.66085    279393.09    -75876.12    7472.3359   -83348.456    319.15569 
    5800    295.98656   -884.41634    279396.81   -75879.236    7531.1396   -83410.376    322.82556 
    5850    298.06271   -1124.9634    279300.69   -75816.302    7583.9657   -83400.268    326.08255 
    5900    293.23934   -823.86254    279269.57   -75845.961    7461.2389     -83307.2     328.3614 
    5950    295.27625   -1205.1763    279481.56   -75851.805    7513.0664   -83364.871    331.21776 
    6000    293.68821   -1018.6704    279687.56   -75850.876    7472.6598   -83323.536     334.5472 
    6050     295.2104    -1268.447    279926.16   -75789.518    7511.3909   -83300.909    337.68631 
    6100    298.76946   -1130.4106    279946.71    -75798.05    7601.9482   -83399.998    340.79503 
    6150    299.36157   -1315.4218    279672.21   -75795.918    7617.0141   -83412.932    344.48264 
    6200    296.07437   -677.83447    279074.05   -75827.253    7533.3738   -83360.627     347.0867 
    6250    295.01893   -1027.6749    279156.92   -75796.238    7506.5192   -83302.758    349.73201 
    6300    297.15163   -918.03008    279543.53     -75757.9     7560.784   -83318.684    352.34708 
    6350    294.74443    -1040.605    279990.22   -75716.545    7499.5347    -83216.08    354.42365 
    6400    297.68942   -1263.8239    280181.78   -75777.019    7574.4675   -83351.486    357.93924 
    6450    290.60801    -1004.479    279600.09   -75791.922    7394.2868   -83186.209     360.4976 
    6500    299.12005   -955.38932    279032.84   -75746.524    7610.8688   -83357.393    362.80403 
    6550    297.26902   -1060.8087    279006.69   -75727.192    7563.7707   -83290.963    365.70583 
    6600    297.54988   -901.55195    279254.82   -75746.531    7570.9171   -83317.448    369.65278 
    6650    296.34901   -994.92732    279613.36   -75781.448    7540.3619    -83321.81     373.4052 
    6700    296.85393   -1105.3017     279853.8   -75788.514    7553.2093   -83341.723    376.76782 
    6750    296.54658   -978.95628       279720   -75824.402    7545.3889   -83369.791    379.70543 
    6800    298.32843    -999.4684    279490.77   -75802.766    7590.7265   -83393.493    384.03277 
    6850    292.94683   -905.69411     279386.6   -75797.838    7453.7962   -83251.634    387.22736 
    6900    298.80694   -862.61875    279238.48   -75772.601     7602.902   -83375.503    389.67104 
    6950     296.0078   -1093.7631    279446.78   -75760.742    7531.6801   -83292.422    391.98957 
    7000    300.89302   -1051.6223    279706.81   -75734.322    7655.9806   -83390.303     395.6636 
    7050    299.25324   -741.01889    279851.97   -75714.567    7614.2576   -83328.825    398.44807 
    7100    298.17056   -1381.5407    280033.36   -75706.502    7586.7096   -83293.212    402.48762 
    7150    291.89551    -846.4583    279652.82   -75765.624    7427.0461    -83192.67    405.94636 
    7200    301.36016   -776.46148    279182.89    -75817.82    7667.8665   -83485.687    408.62953 
    7250     297.6692   -926.27332    279118.99   -75765.277     7573.953    -83339.23    411.76769 
    7300    301.54289    -858.8984    279324.96   -75741.086    7672.5159   -83413.602    415.80418 
    7350    296.84872   -958.02094    279793.73   -75723.403    7553.0766   -83276.479    418.80061 
    7400    296.96132   -1365.1476    280344.78    -75672.25    7555.9415   -83228.191    423.00853 
    7450    299.72122   -1134.3156    280196.98   -75657.472    7626.1651   -83283.637    426.30051 
    7500    296.96602   -663.93171    279491.45   -75730.624    7556.0613   -83286.686    428.26171 
    7550     296.1876   -1017.8381    279080.66   -75775.169     7536.255   -83311.424    430.69709 
    7600    299.01867   -810.59209    279135.15    -75721.98    7608.2892   -83330.269    432.63553 
    7650    295.01628   -1070.6611    279844.82   -75728.304    7506.4515   -83234.755    435.04145 
    7700    291.45377   -1210.6477    280380.15   -75706.005    7415.8065   -83121.811    438.30443 
    7750    295.54958   -1307.7356     280245.5   -75670.105     7520.021   -83190.126    440.41147 
    7800    296.82979   -528.17684    279565.76   -75718.179     7552.595   -83270.774    442.80517 
    7850     294.7447   -660.85077    279275.53   -75693.106    7499.5415   -83192.647    444.21085 
    7900    298.73453   -815.36855    279371.94   -75735.501    7601.0595    -83336.56    447.32632 
    7950    299.93985   -1166.9489    279642.25   -75779.799    7631.7279   -83411.527    450.75728 
    8000    296.46992   -1096.3428    279689.09   -75763.987    7543.4382   -83307.425    453.69011 
    8050    297.80647   -1029.3268    279486.63    -75754.43    7577.4457   -83331.876    457.02952 
    8100    300.35455   -903.77057    279127.04   -75811.351    7642.2796   -83453.631    460.14787 
    8150     295.7915   -954.22251    279063.87   -75750.619    7526.1764   -83276.796    462.76938 
    8200    298.17634   -985.42497    279310.61   -75781.412    7586.8568   -83368.269    466.03425 
    8250     293.7968   -796.93201    279774.85   -75765.967     7475.423    -83241.39    468.98774 
    8300    301.17528   -1140.8751     280078.5   -75751.397    7663.1624    -83414.56     472.1917 
    8350    289.70735   -999.77883    279828.27   -75805.448    7371.3703   -83176.818    474.55598 
    8400    297.39558   -1134.7984    279460.25   -75813.484     7566.991   -83380.475    476.94179 
    8450    290.50612   -1022.5595    279307.05   -75811.702    7391.6942   -83203.396    479.56203 
    8500    295.20256   -1027.7666    279360.99   -75791.385    7511.1913   -83302.576    483.06554 
    8550    296.18655   -1049.4947    279588.42    -75816.41    7536.2282   -83352.638    485.83001 
    8600    298.07361   -802.76175    279695.15   -75811.772    7584.2429   -83396.015    489.09737 
    8650    296.40185   -1142.1909    279830.24   -75803.715    7541.7063   -83345.422     492.4963 
    8700    300.66513   -996.18991    279640.88    -75797.65    7650.1821   -83447.832     495.9448 
    8750    298.97509   -1073.9313    279566.45    -75761.35    7607.1804   -83368.531     499.4884 
    8800    294.31359   -1049.0994    279758.37   -75776.613    7488.5723   -83265.185    501.96414 
    8850     300.0448   -1124.8308    279733.63   -75820.058    7634.3984   -83454.457    505.23342 
    8900    294.56661    -1051.622    279630.89   -75838.207    7495.0101   -83333.218    509.52324 
    8950    291.92203   -672.34994    279327.41   -75819.609    7427.7209    -83247.33    512.28074 
    9000    294.15168   -735.88989    279246.79   -75810.025    7484.4525   -83294.478     516.0602 
    9050    294.13235   -931.06733    279498.08   -75801.611    7483.9607   -83285.572    519.62273 
    9100    293.98363   -1392.2012    279978.74   -75854.279    7480.1768   -83334.456    522.75273 
    9150     295.0178   -1127.6411     279908.2    -75819.78    7506.4904   -83326.271    524.90816 
    9200    295.72187   -1075.7657    279372.14   -75830.722    7524.4049   -83355.126    527.43013 
    9250    294.02957    -473.5449    278784.99     -75879.2    7481.3457   -83360.546    529.94829 
    9300    290.39735   -925.96071    279100.06   -75925.795    7388.9266   -83314.722     532.8429 
    9350    293.89212   -1232.9236    279700.49   -75893.764    7477.8483   -83371.613     536.0387 
    9400    292.13269   -1102.1679    279712.69   -75884.799    7433.0811    -83317.88    538.58029 
    9450    295.32429   -1026.0257    279285.68   -75838.633    7514.2886   -83352.922    540.56073 
    9500    291.68546   -931.79609    279028.26   -75858.822    7421.7016   -83280.524    543.23112 
    9550    296.68642   -1044.0987    279273.25    -75841.78     7548.947   -83390.727    546.06419 
    9600    292.98748   -1076.6098    279917.41   -75804.615    7454.8305   -83259.446    548.99479 
    9650    293.67468   -1124.5339    280076.79   -75840.253    7472.3157   -83312.568    551.06348 
    9700    287.23907   -1204.2022    279754.65   -75838.775    7308.5668   -83147.341    553.84335 
    9750    293.10596   -893.60849    279188.72   -75848.583    7457.8451   -83306.428    556.85248 
    9800     290.6777    -742.0049    278989.68    -75850.47      7396.06    -83246.53    559.05736 
    9850    294.72498    -930.0546    279247.03   -75846.349    7499.0396   -83345.389    561.26938 
    9900    296.55378   -1214.5654    279696.85   -75841.576     7545.572   -83387.148    563.26176 
    9950    298.80697   -1078.7028    279484.76   -75822.487    7602.9027    -83425.39    566.21366 
   10000     294.8354   -922.70699    279347.57   -75823.129    7501.8492   -83324.979    567.90162 
   10050    293.59323   -1020.0961    279432.68   -75821.004    7470.2433   -83291.247    570.85129 
   10100    292.64847    -1301.758    279548.17   -75792.849    7446.2045   -83239.054     574.5844 
   10150    299.64675   -1109.0174    279618.78   -75773.206    7624.2703   -83397.477    576.78183 
   10200    298.32148   -1291.6696    279584.52   -75764.838    7590.5497   -83355.388    579.23379 
   10250    295.76212   -930.81372    279381.85   -75777.157    7525.4289   -83302.586    581.41752 
   10300    295.48576   -812.88146    279344.66   -75747.667    7518.3972   -83266.064    585.08194 
   10350    298.00057   -980.37834    279506.89   -75746.479    7582.3846   -83328.864    588.31998 
   10400    298.26973   -1130.6059    279438.04   -75814.118     7589.233   -83403.351    590.78318 
   10450    295.62669   -733.77722    279255.21   -75794.413     7521.983   -83316.396    592.79916 
   10500    297.26879   -809.74986    279258.31   -75798.622    7563.7649   -83362.386    594.95394 
   10550    299.05104   -828.75112    279620.73   -75785.127    7609.1129    -83394.24    598.23208 
   10600    294.44761   -1181.8238    279925.09   -75774.099    7491.9824   -83266.081    602.51091 
   10650    295.83032    -1174.181    279900.94   -75754.907    7527.1643   -83282.071    606.43624 
   10700    299.63833    -1053.514    279356.42   -75795.872     7624.056   -83419.928    610.25121 
   10750    296.25002   -860.77366    278970.68   -75772.067    7537.8431   -83309.911    611.64745 
   10800    298.77391   -808.17932    279058.28   -75791.022    7602.0615   -83393.084    614.93711 
   10850     303.1721   -1046.7028     279482.3    -75736.38    7713.9698    -83450.35    618.80823 
   10900    298.88995   -1079.1985     280046.1   -75729.503     7605.014   -83334.517    622.71245 
   10950    296.08601    -1034.379    280248.27   -75726.487      7533.67   -83260.157    626.32081 
   11000    297.92015   -1379.4072    279880.76   -75777.236    7580.3382   -83357.574    629.25733 
   11050    295.17282   -647.82591       279267   -75808.925    7510.4347   -83319.359    632.24989 
   11100    298.74978   -931.08002    279109.76   -75787.481    7601.4475   -83388.928      633.154 
   11150    298.59342   -1006.0587    278966.15   -75804.827    7597.4692   -83402.297    634.76236 
   11200    298.88554   -1190.7582    279085.53   -75786.289    7604.9017   -83391.191    637.67994 
   11250    290.65767   -981.33745    279454.16   -75813.545    7395.5502   -83209.096    642.05223 
   11300    293.69551   -1107.8244    279723.56   -75796.176    7472.8457   -83269.022    643.98727 
   11350    299.55703   -1136.8531    279793.33    -75836.33    7621.9874   -83458.317    647.19434 
   11400    299.64956   -1240.6125    279776.86   -75841.097    7624.3416   -83465.439    649.93231 
   11450    293.08203   -782.75251    279467.49   -75899.433    7457.2362   -83356.669    652.44261 
   11500     293.7778   -903.70211     279351.8   -75890.295    7474.9396   -83365.235    656.05516 
   11550    289.58365   -944.61274    279321.56   -75910.548    7368.2228   -83278.771    659.40811 
   11600    295.43079   -1100.8402    279365.69   -75894.052    7516.9984    -83411.05    661.68235 
   11650    295.38578   -1012.2242     279280.2    -75888.02    7515.8532   -83403.873     664.4168 
   11700    296.72825   -939.70382    279111.68   -75854.884    7550.0113   -83404.896    666.92089 
   11750    296.12811   -969.21848    279428.13    -75869.32    7534.7413   -83404.061    669.75158 
   11800    294.62016   -1150.0748    279653.37    -75880.35    7496.3728   -83376.723    673.23936 
   11850    299.95089   -1240.1395     279627.9   -75810.401    7632.0088    -83442.41    674.45857 
   11900    292.97199    -993.0047    279406.02   -75891.042    7454.4363   -83345.478    676.40191 
   11950    294.16714   -897.95524    279054.18   -75889.912    7484.8459   -83374.758    679.55268 
   12000    290.45212   -877.28372    278968.23   -75893.292    7390.3201   -83283.612    682.56377 
   12050     291.5709   -839.83125    279451.68   -75875.181    7418.7866   -83293.967    685.97558 
   12100    296.15904   -1083.7691    280061.64   -75838.927    7535.5282   -83374.455    689.81952 
   12150    296.99705   -1312.7086    280337.71    -75822.51    7556.8508   -83379.361    693.32338 
   12200    296.41109   -1078.0164    279771.96   -75819.399    7541.9414    -83361.34    695.12863 
   12250    298.20123   -879.05552    278995.85   -75798.855    7587.4902   -83386.345    696.39976 
   12300    301.35041   -881.64461    278985.84    -75818.58    7667.6185   -83486.198    699.53054 
   12350    290.01685   -858.20421    279527.46   -75839.083    7379.2451   -83218.328    702.77813 
   12400    289.67223   -1177.6508    280093.12   -75861.671    7370.4766   -83232.148    704.78205 
   12450      294.174   -1032.8777     279961.6   -75833.436    7485.0204   -83318.456    708.07792 
   12500    297.07082   -938.67077    279536.86    -75809.54    7558.7278   -83368.268    709.63361 
   12550    294.60578    -846.2808    279119.91    -75869.16    7496.0069   -83365.167    711.68162 
   12600    295.62775   -937.05675    279223.43   -75808.984    7522.0099   -83330.994    713.91639 
   12650    299.58907   -1013.1596     279678.7   -75824.531    7622.8025   -83447.333    717.89036 
   12700    296.65347   -1136.7414    280053.04   -75787.624    7548.1086   -83335.732    720.96569 
   12750    294.34247   -1035.1852    279653.28   -75851.467    7489.3072   -83340.774     722.1412 
   12800    297.22257   -955.58316     279090.5   -75879.681    7562.5889    -83442.27    722.78016 
   12850    294.28575   -1067.5817    279083.23   -75864.698    7487.8639   -83352.562    724.75995 
   12900    295.02844   -755.88246    279374.23   -75850.438    7506.7609   -83357.199    728.31366 
   12950    293.76079   -979.54696    279893.05   -75846.112    7474.5068   -83320.619    733.12894 
   13000    295.98673   -1109.5143    280158.04   -75824.738     7531.144   -83355.882    736.89609 
   13050    297.67961   -1259.2044    279796.62   -75817.706    7574.2179   -83391.924    739.09072 
   13100    297.17013     -886.434     278893.8   -75802.945    7561.2546     -83364.2    740.52562 
   13150    296.69238   -681.53491    278583.25   -75828.509    7549.0987   -83377.608    741.18224 
   13200    295.93418   -1071.3422    279142.51   -75845.766    7529.8069   -83375.573    744.91659 
   13250    292.21555    -1271.581    279921.92   -75880.972    7435.1893   -83316.161    749.42835 
   13300    295.19593   -1239.4575    280005.35   -75872.128    7511.0228    -83383.15    752.41435 
   13350     301.0318   -1168.8326    279527.31   -75862.371    7659.5118   -83521.883    753.44489 
   13400     296.3112   -947.17693    279072.48   -75896.933    7539.3999   -83436.333    756.41552 
   13450    294.86359    -1087.234    279267.93    -75924.44    7502.5666   -83427.006    758.75067 
   13500    296.67404    -1007.676    279631.72   -75878.531    7548.6319   -83427.163    761.12524 
   13550    294.66304   -1227.5203    279786.02   -75960.203    7497.4638   -83457.667    763.98579 
   13600    291.79696   -886.75808    279452.64   -75963.445    7424.5387   -83387.983     765.7055 
   13650    295.09715   -906.01341    279215.04    -75977.81    7508.5093   -83486.319    766.72165 
   13700    295.69444   -758.03609    279314.84   -75966.308    7523.7068   -83490.015    770.07792 
   13750    289.53969   -825.10129    279763.12   -75935.474    7367.1043   -83302.579    772.57822 
   13800    291.31385   -1230.0392    279898.72   -75990.134    7412.2463    -83402.38    774.10152 
   13850    292.23886    -951.6813    279288.47    -75985.12    7435.7824   -83420.903    774.99677 
   13900    294.65283    -958.9203    278752.37   -75964.168    7497.2039   -83461.372    775.73123 
   13950    297.46797   -987.05934    278744.78   -75988.701    7568.8329   -83557.534     777.3582 
   14000    293.84983   -965.77728    279314.16   -75923.007    7476.7723    -83399.78    780.79462 
   14050     293.9844   -1096.4698    279949.96   -75904.459    7480.1964   -83384.656    784.95291 
   14100    297.05592   -1226.8855    280173.48   -75896.579    7558.3487   -83454.928    788.29503 
   14150    297.11336   -1242.9115     279582.7     -75909.7    7559.8102    -83469.51    789.03818 
   14200    294.24886   -642.04517     278676.1   -75915.572    7486.9252   -83402.497    789.59586 
   14250     296.7131    -630.7214    278482.61   -75841.805    7549.6259    -83391.43    791.67475 
   14300    300.20666   -1017.3486    278995.07   -75869.041    7638.5167   -83507.558    795.77137 
   14350    294.52265   -1077.3542    279407.16   -75861.507    7493.8917   -83355.399    798.84422 
   14400    293.73378   -1137.9024    279711.92   -75828.603    7473.8196   -83302.422    801.54675 
   14450    291.76651   -1426.7193    279806.88   -75871.708    7423.7638   -83295.472    803.87672 
   14500    300.39854   -1158.1262    279355.22   -75880.213    7643.3988   -83523.612    806.29068 
   14550    290.24076   -591.47574     278746.1    -75932.21    7384.9423   -83317.152    808.24258 
   14600    293.49684   -1016.3798    278736.01   -75927.544    7467.7908   -83395.335    810.01753 
   14650     291.0047   -951.09108    279122.49   -75932.677    7404.3801   -83337.057    811.96529 
   14700    291.45405   -921.28841     279440.2   -75894.895    7415.8136   -83310.709    816.15999 
   14750    289.56048   -1160.4944    279675.15   -75896.251    7367.6331   -83263.884    820.59177 
   14800    293.00165    -1041.435    279697.92    -75945.66     7455.191    -83400.85    822.56261 
   14850    292.56555   -1058.6693    279640.36   -75957.816    7444.0948   -83401.911    824.96741 
   14900    294.42909   -1209.1441    279490.13   -75954.618     7491.511   -83446.129    826.68896 
   14950    292.87897    -1126.755    279219.14   -76033.512    7452.0696   -83485.582    826.61258 
   15000    295.30619   -948.23056    278922.97   -76035.458    7513.8281   -83549.286    828.90943 
   15050    294.07883   -857.91833    278816.06   -76038.281     7482.599    -83520.88    830.84078 
   15100       291.66   -886.62635    279092.71   -76010.652    7421.0538   -83431.706    833.95061 
   15150    291.85611    -990.7383    279440.15   -76012.906    7426.0438    -83438.95    837.57952 
   15200    297.77738   -1138.7373    279578.46   -76007.074    7576.7055   -83583.779     840.4944 
   15250    289.86537   -1101.8184    279480.25   -76011.537    7375.3909   -83386.928    842.74828 
   15300    295.33185   -1063.2371    279054.86   -75976.871     7514.481   -83491.352    845.71407 
   15350    295.36077   -924.13809    278870.62   -75987.875    7515.2168   -83503.092    847.51218 
   15400    295.89294   -1141.2059    279171.71   -75944.511    7528.7575   -83473.269    849.42009 
   15450    294.71432   -1143.0127     279788.5   -75940.826    7498.7685   -83439.595    852.30113 
   15500    294.55919   -1127.1812    280007.88    -75917.77    7494.8213   -83412.592    855.52744 
   15550     296.6756   -913.43961    279715.99   -75933.673    7548.6717   -83482.344    857.77102 
   15600    295.75423   -945.21566    279254.01   -75933.815    7525.2282   -83459.043     859.9851 
   15650    291.88891   -1066.3948    278999.57   -75938.925    7426.8782   -83365.803    862.33012 
   15700    288.91512   -776.20665    279086.02   -75904.052    7351.2125   -83255.265    866.33241 
   15750    292.35207    -1130.051    279449.58   -75902.933     7438.663   -83341.596    870.68201 
   15800    293.64394   -1241.8623    279717.34   -75894.559    7471.5335   -83366.092    874.16265 
   15850    293.23516   -1201.0689     279676.9   -75874.948    7461.1324    -83336.08    875.44738 
   15900    295.07912   -1056.1121    279168.25   -75890.505    7508.0506   -83398.555    876.98338 
   15950    297.12264   -824.76376    278677.59   -75873.341    7560.0462   -83433.388    878.71983 
   16000    294.05449   -617.38828    278871.67   -75839.202    7481.9797   -83321.182    880.62751 
   16050    296.40437   -955.58781    279656.21   -75794.745    7541.7705   -83336.516    885.02593 
   16100    294.39762   -1369.4867    280292.47    -75777.26    7490.7103   -83267.971    887.99395 
   16150    292.89796   -1143.2625    280063.48   -75770.348    7452.5526   -83222.901    888.46708 
   16200    298.37834   -1106.3984    279296.06   -75732.695    7591.9966   -83324.692    889.08093 
   16250    299.71843   -914.22269    278687.38   -75728.928    7626.0941   -83355.022    889.72346 
   16300    299.87528   -643.99034    278853.09    -75755.07     7630.085   -83385.155    891.75038 
   16350    294.17444   -1076.8164    279541.39   -75768.977    7485.0318   -83254.009    896.46468 
   16400    294.88282   -1220.7875    280160.77   -75732.951    7503.0559   -83236.007    902.04562 
   16450    300.31183   -1410.9318    280260.62    -75768.41    7641.1927   -83409.603    904.00951 
   16500    296.62063   -1027.4031    279647.84    -75743.59    7547.2731   -83290.863    905.59377 
   16550    297.59506   -735.30799    278939.59   -75725.823    7572.0666   -83297.889    906.44158 
   16600     299.0788   -985.20779    278946.22   -75704.406    7609.8192   -83314.225    909.07487 
   16650    295.80794   -974.43753    279377.55   -75648.726    7526.5947    -83175.32    912.42966 
   16700    303.64646   -1344.2179    279859.94   -75729.449    7726.0397   -83455.489    916.92135 
   16750    298.71221   -1382.4247    279815.71   -75742.218    7600.4917    -83342.71    918.67046 
   16800    300.27285   -745.24719    279298.09   -75779.652    7640.2009   -83419.853     921.2076 
   16850    298.46267   -975.74353    279108.33   -75818.644    7594.1422   -83412.786    923.57876 
   16900    299.76162   -947.83126    278983.83   -75814.732     7627.193   -83441.925    926.52597 
   16950    300.88726   -1194.8287    279273.73   -75774.645     7655.834   -83430.479    931.81131 
   17000    295.76682   -1316.1224    279932.28   -75791.412    7525.5486   -83316.961    936.65445 
   17050    298.34147   -1303.6423    280118.22   -75755.517    7591.0585   -83346.575    940.48079 
   17100    300.27255   -936.37543    279742.43   -75765.015    7640.1932   -83405.208    942.94261 
   17150    295.47018   -1090.4031    279328.39    -75706.41    7518.0008   -83224.411    943.70518 
   17200    297.59365   -655.13495    279040.92   -75670.742    7572.0307   -83242.772    945.75243 
   17250    301.98815   -722.62186    279439.59   -75674.498    7683.8452   -83358.343    949.19628 
   17300     299.6355   -1116.2122    280190.82   -75613.621    7623.9839   -83237.604    954.52793 
   17350    300.52884   -1210.8253    280664.49   -75647.076    7646.7142   -83293.791    959.27232 
   17400    301.78201    -1408.106    280168.87   -75683.771    7678.6002   -83362.371    960.74173 
   17450    299.05816   -856.97471    279237.23   -75660.063     7609.294   -83269.357    960.99864 
   17500    300.91875   -590.09589    278847.77   -75722.492    7656.6352   -83379.127    963.81803 
   17550    298.86384   -889.02878    279067.29   -75771.727    7604.3497   -83376.077    967.23883 
   17600    295.07583   -964.71348    279726.84    -75728.41    7507.9668   -83236.377      970.577 
   17650    298.66905   -1013.8202     280283.6   -75669.793    7599.3935   -83269.187    975.22952 
   17700     297.6358   -1185.8914    280237.83     -75644.6    7573.1031   -83217.703    978.55465 
   17750    297.18772   -1060.4445    279714.08    -75644.97    7561.7022   -83206.672    978.53897 
   17800    302.48854   -934.33772    279281.55   -75648.497    7696.5772   -83345.074    980.31396 
   17850    296.18279   -1127.7553    279468.22   -75671.808    7536.1326   -83207.941    982.83129 
   17900    299.87913   -966.46804    279731.95   -75696.954     7630.183   -83327.137    986.74598 
   17950    296.29164   -1100.2689    280045.67   -75699.158    7538.9022    -83238.06     990.5185 
   18000    296.79292   -1172.9502    279751.96   -75769.523    7551.6569    -83321.18     992.1337 
   18050    298.06041   -755.93783    278986.27   -75816.379     7583.907   -83400.286    993.56956 
   18100    300.23862   -709.62633    278884.07   -75854.245    7639.3299   -83493.575    995.23143 
   18150    290.03951   -1137.1952    279599.82    -75874.69    7379.8217   -83254.512    997.77311 
   18200    298.94144   -1113.1323     280070.1   -75811.751    7606.3242   -83418.075    1003.1716 
   18250     293.1544   -1218.7102    280139.68   -75754.059    7459.0775   -83213.136    1007.7634 
   18300    299.59675   -1202.6937    279658.94   -75745.609    7622.9981   -83368.608    1009.9751 
   18350    293.98138   -743.66434    279182.32   -75738.407    7480.1196   -83218.527    1011.4963 
   18400    295.40888   -915.89869    279166.98   -75743.591    7516.4411   -83260.033    1013.1424 
   18450    298.32928   -1184.3962     279561.3    -75766.32    7590.7483   -83357.069    1016.0886 
   18500    292.24995   -1001.2531     279890.3   -75732.138    7436.0646   -83168.203    1018.6117 
   18550    297.91993   -925.00185    279846.75   -75695.448    7580.3326    -83275.78    1020.5203 
   18600    303.02607   -1351.7903    279568.47   -75674.597    7710.2544   -83384.852    1022.1227 
   18650    298.87182    -901.2151    279093.82   -75707.179    7604.5527   -83311.732    1023.5059 
   18700    300.53071   -875.56098    278696.23    -75730.93    7646.7619   -83377.692    1023.9644 
   18750    304.08945   -886.48044    278740.52   -75662.151     7737.311   -83399.462    1026.1666 
   18800    298.11038   -1028.2048    279438.12   -75672.901    7585.1785    -83258.08    1030.7518 
   18850    300.38392   -960.71066    280211.56   -75690.579    7643.0269   -83333.606    1036.2191 
   18900    294.57821   -1279.3893    280492.38   -75699.177    7495.3054   -83194.482     1038.383 
   18950     297.6515   -1136.2202    279883.85   -75742.756    7573.5026   -83316.259    1038.5563 
   19000    301.51792   -985.42046    279075.74   -75725.344    7671.8806   -83397.224    1039.1268 
   19050    306.43632   -902.17043    278657.01   -75712.564    7797.0254   -83509.589    1039.6201 
   19100     296.8862   -917.25274    279119.59   -75746.657    7554.0302   -83300.687     1043.015 
   19150    295.11198   -1240.0421    280022.95   -75697.651    7508.8867   -83206.537    1048.9693 
   19200    298.20087    -1220.728    280295.26   -75708.644    7587.4811   -83296.125    1054.1841 
   19250    291.10269   -643.01894    279935.82   -75700.001    7406.8734   -83106.874    1058.0105 
   19300    297.10533    -902.2585     279632.1   -75727.016    7559.6057   -83286.622    1059.6987 
   19350    299.46017   -1080.7543    279323.63   -75761.451    7619.5227   -83380.974    1063.7902 
   19400    296.86885   -958.56799    279298.74   -75777.061    7553.5889    -83330.65     1067.561 
   19450    294.14724   -719.83812    279528.28   -75804.751    7484.3396   -83289.091     1071.414 
   19500    296.57789   -1097.6597    280178.84   -75859.074    7546.1856   -83405.259     1075.353 
   19550    294.78368   -1656.6542    280444.28   -75781.816    7500.5333    -83282.35    1079.0501 
   19600    296.95843   -1136.0515     279700.7   -75781.808     7555.868   -83337.676    1081.0374 
   19650    300.01855    -648.9914    278936.81   -75753.179    7633.7303   -83386.909    1081.8434 
   19700    301.49541   -796.57253    279028.45   -75701.098    7671.3078   -83372.406    1084.8351 
   19750    297.72165   -985.66087    279638.18   -75717.873    7575.2875   -83293.161    1088.7936 
   19800     298.4442   -1243.7956    280099.98   -75736.177    7593.6723   -83329.849    1092.1052 
   19850    302.07592   -1365.5286    280202.24   -75709.981    7686.0786   -83396.059    1094.3016 
   19900    300.95501   -1132.3269    280043.86   -75660.848    7657.5578   -83318.405    1096.6366 
   19950    298.56166   -1032.9685    279721.77   -75670.334     7596.661   -83266.995    1098.2937 
   20000    304.03784   -939.88449    279345.77   -75647.245    7735.9979   -83383.243    1098.6685 
   20050    298.67404   -1058.2249     279385.7   -75687.607    7599.5203   -83287.128    1101.1903 
   20100    295.75854   -929.18308    279742.34   -75708.895    7525.3378   -83234.233    1106.9322 
   20150    299.18454   -1286.8962    280060.58   -75736.703    7612.5098   -83349.213    1110.9618 
   20200    294.35272   -1245.3851    279851.15   -75728.582     7489.568    -83218.15    1113.2173 
   20250    302.27189   -999.51417    279379.96   -75761.735    7691.0647   -83452.799     1115.851 
   20300    301.09549   -859.65742    279056.62   -75748.275    7661.1322   -83409.407    1118.1469 
   20350    293.44551   -586.90536    278960.76   -75736.876    7466.4846   -83203.361    1120.4374 
   20400    294.28592   -1004.8012    279525.68   -75706.528    7487.8683   -83194.397    1123.5597 
   20450    300.55026   -1252.6741    280166.06   -75646.137    7647.2594   -83293.397    1128.5136 
   20500    300.58333    -1141.562    280422.83    -75648.29    7648.1008   -83296.391    1133.1003 
   20550     297.0856   -858.03568    280089.88   -75637.474    7559.1039   -83196.578     1134.274 
   20600     300.0601   -863.45393    279565.07   -75637.235    7634.7876   -83272.023    1134.1358 
   20650    299.61087   -905.21108    279423.16   -75587.293    7623.3573    -83210.65    1136.3504 
   20700     297.3284   -725.81606    279415.53   -75675.432    7565.2816   -83240.714    1140.4562 
   20750    296.82939   -985.34572     279741.4   -75665.916    7552.5848   -83218.501    1144.3414 
   20800    299.78049   -1248.2174    280194.86   -75646.283    7627.6732   -83273.957    1147.4556 
   20850    302.75289    -795.4436    280137.91   -75649.635    7703.3034   -83352.938    1150.7251 
   20900    300.93163   -913.35016    279887.12   -75577.939    7656.9629   -83234.902    1150.6644 
   20950    298.90056   -853.91963    279524.35    -75639.56     7605.284   -83244.844    1151.5548 
   21000    293.76707   -765.50217    279466.11   -75666.846    7474.6664   -83141.512    1154.8126 
   21050    293.55789   -812.67294    279804.92   -75609.364    7469.3441   -83078.708    1156.8836 
   21100    299.81641   -1032.2288    280027.93   -75590.522     7628.587   -83219.109    1159.8013 
   21150    299.71195   -932.99063     279740.8   -75629.079    7625.9291   -83255.008    1161.9658 
   21200    299.94467   -799.36604    279416.84   -75661.149    7631.8506   -83292.999    1162.6381 
   21250    295.37318   -849.38567    279580.37   -75703.313    7515.5327   -83218.845    1165.1852 
   21300    298.96529   -1045.3392    279783.85   -75697.532    7606.9311   -83304.463     1168.557 
   21350    296.20732   -959.70718    279628.64   -75761.843    7536.7568     -83298.6    1170.0956 
   21400    292.86541   -934.37924    279513.55   -75760.491    7451.7244   -83212.215    1171.0288 
   21450    298.26156   -898.65459    279729.32   -75739.836    7589.0252   -83328.861    1173.1095 
   21500    295.44422   -1013.6515    280037.56   -75702.699    7517.3402   -83220.039    1177.5512 
   21550    297.03751   -975.96412    280019.12   -75705.633    7557.8801   -83263.513     1180.973 
   21600    296.87532   -962.58858    279601.19   -75756.096    7553.7533   -83309.849     1183.966 
   21650     296.8314   -895.54168    279200.22   -75766.484    7552.6359    -83319.12    1185.4794 
   21700    300.06926   -978.42907    279161.96   -75745.863    7635.0207   -83380.883    1186.7873 
   21750    298.53675   -980.30835    279576.19   -75744.132    7596.0271   -83340.159    1189.0361 
   21800    294.80413   -1135.5643    279969.74   -75751.208    7501.0536   -83252.261    1191.9319 
   21850    297.90965    -1299.896    279840.65   -75755.645    7580.0712   -83335.716    1192.8621 
   21900    298.23009   -787.70875    279318.54   -75744.003    7588.2244   -83332.227    1192.3989 
   21950    300.77296   -807.57564     279126.2   -75760.861    7652.9258   -83413.787    1194.2744 
   22000    296.93305   -781.79767    279431.23   -75708.859    7555.2223   -83264.081    1198.0877 
   22050     300.4194   -1144.5996    280006.54    -75686.43    7643.9297    -83330.36    1202.6143 
   22100    299.02457   -1287.2305    280060.24   -75670.046    7608.4393   -83278.485    1206.0727 
   22150    299.27675   -1284.5811    279868.63   -75655.479    7614.8558   -83270.334    1207.6232 
   22200    299.87607   -879.45708    279419.37   -75656.516    7630.1052   -83286.621    1209.1367 
   22250    302.47897   -1167.2535    279424.24   -75677.688    7696.3338   -83374.022    1212.6496 
   22300    295.04939   -853.42299    279913.28   -75693.068     7507.294   -83200.362    1215.1334 
   22350     294.1537    -1148.292     280167.1   -75697.253     7484.504   -83181.757    1216.8554 
   22400    295.22087   -1189.6518    279949.02   -75714.993    7511.6573   -83226.651    1218.8288 
   22450    300.50821   -1006.4868     279374.4   -75698.024    7646.1894   -83344.213    1219.5989 
   22500    300.80538   -936.42673    279084.77   -75626.345    7653.7507   -83280.095    1222.0256 
   22550    299.05763   -1019.3552    279420.32   -75651.685    7609.2805   -83260.966    1225.4644 
   22600    297.55158   -893.85867    279916.41    -75682.59    7570.9602    -83253.55    1229.4676 
   22650    296.56745    -1135.247    280124.99   -75653.676    7545.9199   -83199.596    1234.3003 
   22700    298.67219   -990.58052    279973.32   -75678.778    7599.4734   -83278.252    1238.2942 
   22750    298.57926   -1061.5408    279493.06   -75648.695    7597.1088   -83245.803    1239.2145 
   22800    304.15211   -822.84526    279084.83   -75685.242    7738.9054   -83424.148    1239.5409 
   22850    303.04299    -1171.997    279214.26   -75665.775    7710.6848    -83376.46    1242.8312 
   22900    299.87357   -1026.8678    279553.57   -75611.081    7630.0414   -83241.123    1246.0743 
   22950    297.18736   -1133.3431    279783.84   -75618.732     7561.693   -83180.425    1249.0471 
   23000     301.7008   -1150.2142    279740.58   -75686.312    7676.5339   -83362.846    1249.5954 
   23050    298.47576   -809.34195    279554.73   -75679.389    7594.4752   -83273.865    1252.2384 
   23100    299.98468    -1123.506    279830.71   -75728.346    7632.8685   -83361.214    1256.1232 
   23150    295.34181   -1300.5049    280352.84   -75720.132    7514.7346   -83234.866    1259.7088 
   23200    302.76949    -1076.829    280178.03   -75686.705    7703.7258   -83390.431    1260.4182 
   23250    303.12105   -808.69744    279715.87   -75683.117     7712.671   -83395.788    1262.3574 
   23300    303.36325   -812.73762    279158.06   -75712.337    7718.8336   -83431.171    1262.7441 
   23350    299.46363   -684.95804    279165.33   -75733.005    7619.6108   -83352.616    1265.9518 
   23400    295.71172   -996.61748     279703.8   -75707.357    7524.1466   -83231.504    1272.3785 
   23450    295.65503   -1146.6679    279892.71   -75727.222    7522.7041   -83249.926     1275.985 
   23500    297.17993   -1165.2523    279755.52   -75753.508     7561.504   -83315.012    1278.1043 
   23550    296.68001   -1001.6597    279654.13   -75750.658    7548.7838   -83299.442    1279.7954 
   23600    297.39968   -978.60918    279689.04   -75762.659    7567.0953   -83329.754     1284.166 
   23650     298.7488   -1185.4668    279519.23   -75800.545    7601.4226   -83401.968     1284.579 
   23700    298.58027   -1075.0562    279192.83   -75823.684    7597.1345   -83420.818    1285.9077 
   23750    295.00101   -906.67091    279316.18   -75817.204    7506.0631   -83323.267    1287.5476 
   23800    296.41955   -1144.3276     279721.5   -75789.588    7542.1567   -83331.744    1290.7592 
   23850     297.8193    -1005.457    279962.69   -75752.259    7577.7723   -83330.032    1294.4544 
   23900    297.96488    -970.5806    279979.66     -75770.3    7581.4764   -83351.776    1294.8567 
   23950    292.14043   -1077.6052    279592.74   -75813.709     7433.278   -83246.987    1296.9564 
   24000    297.19023   -875.05547    278992.05   -75813.059    7561.7661   -83374.825    1297.1815 
   24050    297.37685   -1031.6021    278919.33   -75804.181    7566.5144   -83370.695     1300.019 
   24100     295.7295   -1056.6225    279262.07   -75804.185    7524.5989   -83328.784    1302.5194 
   24150    297.00697   -978.04513    279786.23   -75765.581    7557.1032   -83322.684    1305.5634 
   24200    299.15938   -1144.2078    280195.91   -75764.741    7611.8694    -83376.61    1309.3712 
   24250    292.46146   -1128.6715    279963.28   -75701.096    7441.4463   -83142.542    1311.2901 
   24300    296.81975   -984.40304    279440.34   -75736.875    7552.3394   -83289.214    1311.5474 
   24350     295.4176   -1067.0659    279168.45   -75773.534    7516.6629   -83290.197    1314.2118 
   24400    297.85199   -942.35406    279296.28   -75791.947    7578.6039   -83370.551    1318.5516 
   24450    297.13328   -1062.9877    279606.57   -75792.591     7560.317   -83352.908    1323.1635 
   24500    297.59171   -961.59897    279755.34   -75787.359    7571.9814   -83359.341    1325.0049 
   24550    296.77804    -854.2902    279832.37   -75817.802    7551.2782    -83369.08    1329.0915 
   24600    296.49956   -1057.4453    279837.26   -75846.848    7544.1925   -83391.041    1331.8842 
   24650    294.19514   -1013.8068    279524.39   -75840.739    7485.5583   -83326.297    1333.8415 
   24700    300.07628   -784.60289    279183.93   -75846.743    7635.1993   -83481.942    1334.6115 
   24750    295.69175   -1210.3557    279346.71   -75827.103    7523.6385   -83350.741    1338.6787 
   24800    298.03035   -1153.5724    279095.61   -75853.087    7583.1423   -83436.229    1340.3333 
   24850    294.39688   -774.92156    279050.17   -75847.696    7490.6914   -83338.387    1342.3045 
   24900    295.14611    -1113.128    279361.71   -75885.289    7509.7551   -83395.044    1346.0519 
   24950    294.72515   -981.28996    279652.58   -75883.922    7499.0439   -83382.966    1351.2865 
   25000    295.92088   -1008.7013    279827.87   -75850.214    7529.4684   -83379.683    1353.1483 
   25050     295.7963   -1192.7452    279734.06   -75830.568    7526.2986   -83356.867    1355.0698 
   25100    295.86598   -1007.2904    279206.61   -75859.974    7528.0715   -83388.045    1356.3168 
   25150    295.73349    -765.2316     278987.3   -75844.202    7524.7006   -83368.902    1359.0491 
   25200    295.39152   -1024.9723    279364.88   -75797.436    7515.9993   -83313.436    1363.9015 
   25250    297.74856   -1018.4864    279772.16   -75780.377    7575.9724    -83356.35    1366.1505 
   25300    297.74114   -1212.8546     279886.7   -75742.609    7575.7835   -83318.393    1369.7661 
   25350    294.32682   -857.40998    279641.87    -75749.43     7488.909   -83238.339    1372.4763 
   25400    294.38941   -1027.3766    279620.93   -75764.294    7490.5015   -83254.796    1375.3719 
   25450    297.38084   -1096.1712    279643.24     -75792.3    7566.6159   -83358.916    1377.6845 
   25500    297.34063   -1008.6177    279508.77   -75812.833    7565.5929   -83378.425    1378.8826 
   25550    295.93936   -1010.9014    279588.64   -75814.813    7529.9387   -83344.752    1380.2381 
   25600    288.59342   -1175.1706    279871.74   -75820.026    7343.0272   -83163.053    1381.2406 
   25650    296.72194   -1225.6586    279926.44   -75800.872    7549.8509   -83350.723    1382.6434 
   25700     296.7687   -858.06947    279596.19   -75769.963    7551.0406   -83321.003    1384.0741 
   25750    295.19133   -818.78047    279143.45   -75787.207    7510.9056   -83298.112     1385.519 
   25800    300.09725   -746.20255     278911.9   -75774.311    7635.7328   -83410.044    1388.5855 
   25850     295.9958   -1200.6402    279273.11   -75773.654    7531.3746   -83305.029    1391.7858 
   25900    297.74635    -1068.076     279732.5   -75795.719     7575.916   -83371.635    1394.9122 
   25950    296.01677   -1189.3171    279792.47   -75811.464    7531.9084   -83343.372    1397.2792 
   26000    289.73775   -881.24498    279557.34   -75833.612    7372.1438   -83205.756    1397.8354 
   26050    293.77837   -1013.9404    279409.42   -75842.652    7474.9539   -83317.606    1402.2676 
   26100    291.14317   -989.57761    279409.24   -75856.252    7407.9036   -83264.155    1403.5656 
   26150    301.18868   -967.83675    279580.83    -75799.95    7663.5035   -83463.453    1407.4163 
   26200    297.43703   -1251.5931    279900.76   -75789.079    7568.0457   -83357.124    1411.2231 
   26250    296.47171   -1048.4774    279685.49   -75757.667    7543.4838   -83301.151    1413.1295 
   26300    300.18117   -791.55772    279071.45   -75768.997    7637.8682   -83406.865    1412.6509 
   26350    298.43315    -860.6652    279033.25   -75720.197    7593.3911   -83313.588    1415.3191 
   26400    295.79428   -1163.8195     279837.4    -75704.32    7526.2473   -83230.568    1421.7806 
   26450    294.64519   -1151.8334    280595.76   -75739.987    7497.0094   -83236.997    1428.9839 
   26500    294.95689   -1446.1544    280538.67   -75702.668    7504.9404   -83207.608    1430.4789 
   26550    296.13264   -1103.5281    279432.32   -75762.073    7534.8566   -83296.929     1429.633 
   26600    300.53078   -840.01981    278645.63   -75761.548    7646.7635   -83408.312    1431.2345 
   26650    298.22509   -895.54496    278506.67   -75801.747    7588.0973   -83389.845    1432.7172 
   26700    295.84908   -816.48144    279112.45   -75848.236    7527.6417   -83375.878    1438.2938 
   26750    295.06973   -1062.3574    279992.27   -75869.002    7507.8115   -83376.814    1444.9268 
   26800    295.89541   -1244.3044    280390.76   -75865.122    7528.8203   -83393.943    1448.9908 
   26850    291.91122   -780.26708    279839.49   -75908.634    7427.4459    -83336.08    1451.4307 
   26900     291.6912   -836.94819    279090.15    -75947.21    7421.8476   -83369.057    1451.5273 
   26950    299.38726   -909.40088    278530.72   -75956.885    7617.6677   -83574.552    1449.5542 
   27000     295.0068   -1061.9861    278572.96   -75969.015    7506.2104   -83475.226    1452.2124 
   27050    293.74561   -809.42558    278901.28   -75974.482    7474.1204   -83448.602    1454.9633 
   27100    291.44456   -1249.9011    279370.67   -76006.371    7415.5722   -83421.943    1458.9518 
   27150    301.53537   -789.10481    279343.72   -75914.951    7672.3247   -83587.275    1461.1149 
   27200     295.6974   -713.65704     279437.1   -75908.759    7523.7821   -83432.541    1463.4472 
   27250    297.61199   -1109.2438     279610.4   -75908.623    7572.4974   -83481.121    1467.1618 
   27300    295.37812   -913.31956    279682.34   -75891.799    7515.6583   -83407.458    1471.6435 
   27350    292.73289   -980.94276    279855.96   -75894.665    7448.3526   -83343.018    1474.9007 
   27400    300.33101     -1283.09    279901.16   -75862.783    7641.6807   -83504.463    1479.4199 
   27450    301.27094   -1142.9345    279668.71   -75828.207    7665.5963   -83493.804    1480.0179 
   27500    295.71292    -1242.363    279445.61   -75790.244    7524.1771   -83314.421    1483.8179 
   27550    298.48985   -789.33354    279331.65   -75777.842    7594.8337   -83372.676    1487.3047 
   27600    294.69264   -949.58558    279658.68   -75751.322    7498.2169   -83249.539    1491.9317 
   27650    292.28706    -1285.699    280029.81   -75773.364    7437.0089   -83210.373    1496.8483 
   27700    295.83014   -1141.8011    279979.88   -75774.463    7527.1597   -83301.623    1500.0088 
   27750    295.82572   -1004.4478    279536.02   -75744.804    7527.0471   -83271.852    1501.0225 
   27800    294.54922   -450.95418    279138.24   -75810.314    7494.5677   -83304.882    1500.8634 
   27850    300.69545    -949.5969    279361.85   -75782.661    7650.9535   -83433.614    1503.9111 
   27900    303.91173   -1020.9502    279799.33   -75702.778    7732.7892   -83435.568    1507.5728 
   27950     298.1115   -1036.4324    280147.15   -75712.622    7585.2071   -83297.829    1511.1644 
   28000    297.38676   -1031.2041    280225.51   -75713.606    7566.7666   -83280.373    1513.6335 
   28050    295.43954   -982.90959    279989.94   -75692.045     7517.221   -83209.266    1515.6711 
   28100    302.00887   -698.37634    279502.51   -75707.988    7684.3726   -83392.361    1515.9603 
   28150    302.96259   -863.57148    279073.49   -75745.015    7708.6392   -83453.654    1514.8101 
   28200    297.57057   -793.33605    278997.24   -75771.422    7571.4434   -83342.866    1516.1308 
   28250    296.90862   -1052.5995    279271.07   -75710.919    7554.6007    -83265.52    1517.2084 
   28300    296.04839   -652.21603    279573.93   -75717.627     7532.713    -83250.34    1517.6161 
   28350    300.24884    -1303.923    280168.36   -75740.182      7639.59   -83379.772    1522.5447 
   28400    297.76067   -1032.6912    279963.58    -75734.04    7576.2803    -83310.32    1524.2034 
   28450    300.73811   -880.10507    279386.71   -75737.921     7652.039    -83389.96    1525.1459 
   28500    299.91218   -836.21993    279332.64   -75685.982    7631.0239   -83317.006    1528.5268 
   28550    302.34494   -1195.1094    279921.34   -75640.687    7692.9236    -83333.61    1535.6631 
   28600     299.0956   -1295.9381    280362.46   -75590.638    7610.2467   -83200.884    1540.8056 
   28650    298.20919   -1067.0655    280126.63   -75604.675    7587.6928   -83192.367    1542.5488 
   28700    298.95323   -748.86903    279710.09   -75558.874    7606.6241   -83165.498      1542.65 
   28750    303.93408   -1068.4937    279670.53   -75592.891    7733.3579   -83326.249    1544.7181 
   28800    297.98085   -1119.0754       279729   -75666.438    7581.8827    -83248.32    1548.6706 
   28850    301.52801   -1069.8777    279718.58   -75681.144    7672.1374   -83353.281      1548.86 
   28900    296.84589   -1215.8187    279557.26   -75685.692    7553.0047   -83238.696    1550.8724 
   28950    297.04379   -599.01638    279305.14    -75706.35    7558.0399    -83264.39    1555.2981 
   29000    303.66487   -927.66813     279251.9   -75753.929    7726.5081   -83480.437    1557.8968 
   29050    302.43419   -797.33054     279158.6   -75762.686    7695.1943    -83457.88     1559.668 
   29100    299.04913   -822.36082    279327.46   -75745.138    7609.0641   -83354.202    1563.2523 
   29150    296.62693    -1061.813    279644.16   -75747.669    7547.4334   -83295.103    1566.6739 
   29200    295.22281   -927.21847    279864.54   -75741.479    7511.7067   -83253.186    1568.9837 
   29250    296.49489   -1265.4047    279874.87   -75689.313    7544.0737   -83233.386    1569.6597 
   29300     297.0543   -1103.0172    279263.15   -75740.773    7558.3075   -83299.081    1570.3652 
   29350    300.04432   -724.00096    278976.35   -75776.099    7634.3861   -83410.485    1573.2658 
   29400    298.31641   -1077.6438    279514.49   -75795.526    7590.4208   -83385.947    1579.3515 
   29450    298.59178   -1099.8657    279975.97   -75788.699    7597.4275   -83386.127    1583.7618 
   29500    299.89449   -1317.1545    279881.42   -75801.068    7630.5737   -83431.642    1586.2117 
   29550     298.4626   -724.05236    279417.08   -75773.054    7594.1406   -83367.194    1586.9225 
   29600    294.13711   -1010.8051     279292.7   -75752.545    7484.0819   -83236.627    1589.1901 
   29650     301.4462   -1104.5855    279508.85    -75728.26    7670.0558   -83398.316    1594.5618 
   29700     299.7062   -787.29604    279860.78   -75759.522    7625.7829   -83385.305    1598.1015 
   29750    301.55999   -947.09796    279977.03   -75741.749    7672.9512     -83414.7    1601.7292 
   29800    299.93851     -980.042    279692.66   -75719.308    7631.6938   -83351.002    1604.6395 
   29850    299.19425   -1130.0006    279525.66   -75715.387    7612.7567   -83328.144    1608.5899 
   29900    303.81481   -1013.5199    279357.34   -75679.144    7730.3232   -83409.468    1608.1877 
   29950    298.08203   -1005.5549    279443.49   -75668.956    7584.4572   -83253.413    1609.0784 
   30000    294.28758   -1020.4434    279628.65   -75701.144    7487.9105   -83189.055    1613.2296 
   30050    298.76918    -1240.964    279798.56   -75728.411    7601.9411   -83330.352    1617.3049 
   30100    302.84856   -949.94017    279636.03   -75685.634    7705.7376   -83391.372    1620.1101 
   30150    300.52921   -991.79124    279546.89   -75691.907    7646.7236   -83338.631    1621.0208 
   30200    299.94961   -732.19539    279358.74    -75697.45    7631.9762   -83329.426    1621.0141 
   30250    301.14589   -933.01819     279522.1   -75702.636    7662.4147    -83365.05      1624.23 
   30300    297.51578   -822.20805     279756.6   -75677.661    7570.0495    -83247.71    1627.9208 
   30350    300.04895   -835.44693     279658.4   -75700.661     7634.504   -83335.165    1629.5293 
   30400    298.15294   -1013.9645    279449.17   -75783.074    7586.2614   -83369.336    1630.0203 
   30450     296.2657   -1053.3695    279375.13   -75803.274    7538.2422   -83341.516    1633.6489 
   30500    302.46082   -1201.2412    279486.72   -75750.837    7695.8719   -83446.709    1636.6004 
   30550     295.6202   -775.32272    279246.75    -75739.38    7521.8179   -83261.198    1638.2446 
   30600    299.20215   -618.19788    279081.49   -75779.584    7612.9578   -83392.542    1639.0356 
   30650    298.03377   -1186.3732     279384.2   -75791.835    7583.2293   -83375.064    1642.1837 
   30700    296.82406   -994.07005    279578.51   -75792.033    7552.4491   -83344.482    1645.6703 
   30750    295.63109   -950.42259    279379.57   -75831.978    7522.0949   -83354.073    1649.0084 
   30800    291.85718   -1030.3902    279269.94   -75869.216    7426.0708   -83295.286     1652.387 
   30850    296.30608   -787.05641    279088.87   -75891.788    7539.2696   -83431.058    1655.7482 
   30900    292.49908   -1024.0215    279332.21   -75862.533    7442.4036   -83304.936    1659.5796 
   30950    292.15847     -949.012    279807.12   -75865.926     7433.737   -83299.663    1662.8674 
   31000    295.10719   -1161.0515       280089   -75861.582    7508.7647   -83370.346    1667.0256 
   31050     296.4458   -999.36885    279855.73   -75856.957    7542.8247   -83399.782    1670.0462 
   31100    290.37615   -596.04589    279294.02   -75832.305    7388.3873   -83220.692    1669.4781 
   31150    296.50991   -938.01326    279368.01   -75801.996    7544.4558   -83346.452    1672.4797 
   31200     304.9094   -970.79335    279598.34   -75798.797    7758.1741   -83556.971    1674.6314 
   31250    296.44266    -1319.345    280059.61   -75782.821    7542.7448   -83325.566    1679.4383 
   31300    297.76497   -1254.1593    280001.96   -75775.864    7576.3898   -83352.254    1679.1631 
   31350    294.42957   -1043.9761    279453.57   -75806.518    7491.5233   -83298.041    1678.7243 
   31400    298.56644   -744.50948    278919.22   -75845.058    7596.7826    -83441.84     1678.573 
   31450    288.83488    -627.5828    278957.76   -75823.278    7349.1709   -83172.449    1681.0803 
   31500    296.98977   -776.67058    279431.64   -75811.487    7556.6656   -83368.152    1684.8047 
   31550    293.77296   -977.37616    279804.28    -75817.15    7474.8163   -83291.966    1689.1938 
   31600    297.45697   -1388.7823    279925.45   -75834.551    7568.5531   -83403.104    1692.6595 
   31650    297.46368   -1173.8857    279667.18   -75769.581    7568.7237   -83338.305    1693.2101 
   31700    302.94252   -1028.0154     279332.5   -75795.554    7708.1283   -83503.682    1694.2268 
   31750    294.50714   -805.81153    279255.39   -75785.232    7493.4971   -83278.729    1694.7004 
   31800    296.09616   -996.88633    279278.74   -75784.593    7533.9284   -83318.522     1697.519 
   31850    296.39886   -1044.8436    279168.51   -75831.058    7541.6302   -83372.689    1698.9005 
   31900    297.18746   -1060.4624    279535.21   -75858.218    7561.6957   -83419.913    1702.8404 
   31950    298.95777   -1085.9642    279788.15   -75814.909    7606.7398   -83421.649    1704.6149 
   32000    293.74137   -1030.4551    279605.76   -75841.613    7474.0125   -83315.625    1704.6939 
   32050    297.68553   -1098.9483     279237.5   -75860.944    7574.3687   -83435.313    1705.1033 
   32100    296.72993   -929.92468    279032.27   -75851.694    7550.0541   -83401.748    1704.8511 
   32150    294.30808   -1030.8549    279097.21   -75890.947     7488.432   -83379.379    1708.4426 
   32200    298.78141    -1012.165    279280.66   -75858.559    7602.2523   -83460.812    1712.6763 
   32250    304.19642   -1094.3125    279378.98   -75849.007    7740.0329   -83589.039    1714.6099 
   32300    300.01383   -1165.8091    279422.12   -75870.227    7633.6103   -83503.837    1717.0248 
   32350    294.15949   -783.43954    279410.47   -75865.915    7484.6514   -83350.566    1720.2938 
   32400    289.10496   -1052.3767    279558.11     -75860.3    7356.0428   -83216.343    1724.1611 
   32450    294.11235   -1207.1049    279740.91   -75895.623    7483.4519   -83379.075     1727.411 
   32500    296.00738   -986.45771    279456.21   -75870.139    7531.6693   -83401.808    1727.9677 
   32550    295.82069   -1143.3029    279244.84   -75891.293    7526.9193   -83418.213    1728.6394 
   32600     296.4548   -819.43629    279023.41   -75836.454    7543.0537   -83379.507    1730.0007 
   32650    295.00566   -1173.8698     279202.8   -75833.365    7506.1815   -83339.546    1732.8696 
   32700    291.61514    -911.8587    279383.75   -75836.005    7419.9123   -83255.918    1735.4082 
   32750    298.22899   -986.40638    279944.07   -75815.206    7588.1964   -83403.403    1741.7336 
   32800    291.13294   -1511.0547    280206.34   -75824.135    7407.6431   -83231.779    1747.0287 
   32850    295.62693    -1005.156    279814.88   -75816.796    7521.9892   -83338.786    1747.7782 
   32900    292.09599   -716.39445    279231.13   -75851.396    7432.1472   -83283.543    1749.3115 
   32950    298.91256   -866.25348    279020.97   -75894.592    7605.5893   -83500.181    1749.8422 
   33000    296.48026   -873.83931    279000.67   -75840.732    7543.7015   -83384.433     1751.629 
   33050    298.16956   -999.06688    279182.17   -75836.785    7586.6843    -83423.47    1754.3013 
   33100    294.43653    -1097.494    279411.57   -75854.308    7491.7004   -83346.009    1757.8756 
   33150    298.17696    -1085.239    279644.02    -75859.38    7586.8726   -83446.253    1763.3651 
   33200    293.90482   -1239.6639    279707.88   -75887.141    7478.1714   -83365.313    1766.2922 
   33250    296.41394   -886.10507    279398.04   -75899.869    7542.0141   -83441.883    1767.7228 
   33300    299.95849   -880.78462    278994.96   -75896.347    7632.2022    -83528.55    1769.3094 
   33350    286.98913   -1201.5689    279258.16   -75920.942    7302.2072    -83223.15    1775.4475 
   33400    293.24121   -1105.6863    279800.04   -75878.043    7461.2863   -83339.329     1781.222 
   33450    297.00028   -1266.8798    279976.09    -75848.35    7556.9329   -83405.283    1785.7318 
   33500    293.66808   -1022.2901    279432.95   -75885.123    7472.1479    -83357.27    1788.5659 
   33550    299.95988   -979.28677    278931.75    -75865.89    7632.2376   -83498.128    1789.3468 
   33600    292.51272   -1031.1315    278856.61   -75885.252    7442.7505   -83328.003    1790.9414 
   33650    293.00119   -708.05355    278943.88   -75894.429    7455.1792   -83349.609    1794.4511 
   33700    293.91632   -868.42185    279315.31   -75847.776    7478.4639    -83326.24    1796.9458 
   33750     293.3142   -970.90523     280011.8   -75819.227    7463.1435    -83282.37    1801.5027 
   33800    296.45886   -1235.1618    280310.08    -75821.86     7543.157   -83365.017    1805.4342 
   33850    291.89617   -872.43381    279996.63   -75826.791    7427.0628   -83253.854    1805.1764 
   33900    292.79425   -763.86646    279358.52   -75852.321    7449.9138   -83302.235     1803.759 
   33950    294.42013   -517.72835    278754.92   -75869.059     7491.283   -83360.342    1802.0784 
   34000    298.55714   -761.11815    278857.97    -75838.86    7596.5459   -83435.406    1807.3801 
   34050    297.72397   -1134.2218    279393.67   -75848.338    7575.3465   -83423.685    1812.7104 
   34100    295.18523   -1112.0362    279757.85   -75868.089    7510.7504   -83378.839    1815.8935 
   34150    296.89193   -1044.0425    279649.08    -75869.59     7554.176   -83423.766    1818.2147 
   34200     287.4639   -840.38299    279510.39   -75874.644    7314.2875   -83188.932    1818.9373 
   34250    290.31424   -990.14116    279523.78   -75864.297    7386.8121    -83251.11    1820.6079 
   34300    296.62499   -1135.9186    279553.03   -75821.057    7547.3839   -83368.441    1826.3242 
   34350     302.0946   -1187.8413     279422.7   -75847.097    7686.5538   -83533.651     1830.596 
   34400    297.90587   -839.15807    279094.19   -75897.296     7579.975   -83477.271    1831.7683 
   34450    298.76753   -1175.7412    279076.04   -75857.162    7601.8991   -83459.061    1834.7996 
   34500    298.12033   -850.69878    279424.12   -75903.941    7585.4317   -83489.373     1836.863 
   34550    293.59624   -1321.0878    279749.05   -75943.584    7470.3198   -83413.904    1842.0927 
   34600    291.41893   -941.84717    279619.48   -75973.127    7414.9201   -83388.047    1845.6172 
   34650    289.49908   -1097.8035    279494.08   -75940.293    7366.0709   -83306.363     1848.049 
   34700    293.30354   -1039.2357    279317.82   -75918.563    7462.8723   -83381.435    1847.7301 
   34750    299.33628   -969.13763    279171.01   -75944.628    7616.3706   -83560.999    1849.5187 
   34800    298.14342   -917.10544    279113.21   -75917.413    7586.0191   -83503.432    1854.9668 
   34850      295.647     -1356.78     279257.9   -75945.322    7522.4997   -83467.822    1860.0869 
   34900    289.70962   -778.15582    279392.09   -75940.401    7371.4279   -83311.829    1862.7918 
   34950    298.37077   -933.39575    279829.05   -75893.672    7591.8041   -83485.476    1866.3971 
   35000    293.90387   -1181.7164     280343.5   -75881.599    7478.1472   -83359.747    1870.2785 
   35050    295.69428   -1285.0458    280210.82    -75863.83    7523.7029   -83387.533    1870.6512 
   35100    295.14369   -1155.3747    279435.52   -75904.572    7509.6934   -83414.265    1871.1476 
   35150    299.98216   -1060.1935    278546.69    -75936.22    7632.8044   -83569.024     1868.414 
   35200    296.98389   -696.08582       278219   -75935.146    7556.5159   -83491.661    1871.5294 
   35250    296.55458   -959.60028    278943.95   -75888.065    7545.5924   -83433.657    1876.4756 
   35300    292.16887   -1058.6007    279785.04   -75839.232    7434.0016   -83273.234    1881.5374 
   35350    296.20851   -1091.7691    280038.53   -75811.264     7536.787   -83348.052    1884.3811 
   35400    300.27017   -1373.0717    279683.03   -75852.831    7640.1326   -83492.964    1884.5259 
   35450    295.92916   -773.74478    279105.45   -75843.791     7529.679    -83373.47    1888.1645 
   35500    298.11942   -856.20403    279055.41   -75821.753    7585.4085   -83407.161    1891.2406 
   35550    297.00492   -781.18597    279441.91   -75861.242    7557.0509   -83418.293    1895.3603 
   35600     296.3678   -910.29827    279763.06   -75767.966    7540.8399   -83308.806    1898.8986 
   35650    295.97604   -1330.8322    279891.49   -75763.432     7530.872   -83294.305    1900.3402 
   35700    296.88229   -1002.0202    279663.09   -75812.022    7553.9307   -83365.953     1903.379 
   35750    297.21385   -1135.0038    279317.45   -75818.508    7562.3671   -83380.876       1904.8 
   35800     290.0942   -970.09365    279145.73   -75839.268    7381.2133   -83220.481    1904.1905 
   35850    296.25373   -1027.0214    279220.82   -75806.564    7537.9375   -83344.501    1906.6075 
   35900    297.86241   -1041.1531    279372.91   -75804.306    7578.8691   -83383.175    1909.4664 
   35950     294.1221   -773.88867    279391.52   -75815.633    7483.6998   -83299.333    1910.3303 
   36000    292.36933   -1109.8058     279659.2   -75836.575    7439.1022   -83275.677    1914.5811 
   36050    294.45961   -1126.5871    279548.52   -75870.009    7492.2875   -83362.297    1915.9601 
   36100     294.5912   -675.79199    279167.51   -75844.759    7495.6359   -83340.395    1915.7755 
   36150    297.30212   -950.70266    279024.71   -75837.261    7564.6129   -83401.874    1917.1242 
   36200    296.62241   -998.06978    278944.76   -75839.238    7547.3184   -83386.556    1918.7444 
   36250    289.83853   -959.46791    279339.16   -75812.978    7374.7079   -83187.686    1922.0574 
   36300    297.62051   -1245.5675    279789.78   -75857.963    7572.7143   -83430.677    1924.4045 
   36350    296.97345   -1298.0641    279940.95   -75775.082    7556.2503   -83331.333    1924.7187 
   36400    293.05551   -1191.9991    279587.86   -75823.695    7456.5613   -83280.257    1923.9762 
   36450    294.85231   -891.66105    278982.74   -75803.648    7502.2794   -83305.927    1922.6228 
   36500    296.03685   -570.62768    278692.54   -75809.247    7532.4192   -83341.666    1924.0309 
   36550    297.20079   -875.00271    279036.18   -75769.958    7562.0347   -83331.993    1928.8355 
   36600    300.28291   -1396.1885    279791.83   -75747.311    7640.4569   -83387.768     1933.808 
   36650    298.25969   -1289.0676    280229.47   -75759.431    7588.9775   -83348.408    1938.5333 
   36700    297.61671   -1185.4948    280133.15    -75750.66    7572.6174   -83323.277    1941.6396 
   36750    297.16957   -1107.7708    279641.54   -75794.659    7561.2403   -83355.899    1941.7837 
   36800    296.03789    -795.4183    279102.01   -75757.652    7532.4457   -83290.098    1940.6516 
   36850    295.61741    -1107.397    279107.83   -75771.532    7521.7468   -83293.279    1943.6465 
   36900    294.30447   -839.54535    279110.14   -75787.037    7488.3401   -83275.377    1947.0087 
   36950    297.94134   -876.59594     279195.6   -75828.115    7580.8774   -83408.992    1949.4771 
   37000    298.76212   -996.25885    279389.01   -75850.128    7601.7615    -83451.89    1952.3404 
   37050     290.5814   -722.51894    279522.94   -75848.795    7393.6096   -83242.405    1954.9761 
   37100     296.9849   -1170.9094    279756.25   -75804.301    7556.5417   -83360.842    1960.4488 
   37150    299.30395   -885.32744    279841.82   -75823.198    7615.5478   -83438.746    1963.4726 
   37200    296.86627   -1175.5828    279810.99   -75828.419    7553.5232   -83381.942    1964.4288 
   37250    302.28055   -1090.5927    279558.74   -75829.658    7691.2851   -83520.943     1965.748 
   37300    297.97081   -998.02353    279277.97   -75851.491    7581.6272   -83433.118    1967.6314 
   37350    294.54357   -783.42879    279105.53    -75846.17     7494.424   -83340.594    1972.3647 
   37400     298.5883   -1263.5177    279471.04   -75829.939    7597.3389   -83427.278    1973.5949 
   37450    292.21202   -1015.5213    279684.45   -75821.458    7435.0995   -83256.558    1976.3636 
   37500    297.23509   -1149.9757    279800.69   -75818.267    7562.9074   -83381.174    1978.5567 
   37550    296.90547    -850.8833    279471.85   -75811.097    7554.5205   -83365.617    1980.7179 
   37600    293.64843   -842.52179     279337.2   -75821.203    7471.6478    -83292.85    1983.2329 
   37650    298.62262   -1253.1016    279346.13   -75815.103    7598.2121   -83413.315    1987.1008 
[...]
   90850    300.40134    -1194.557    279969.97   -75642.897    7643.4702   -83286.367    4672.2695 
   90900    298.93983   -1351.6054    279860.16   -75648.145    7606.2833   -83254.428    4674.2764 
   90950    297.41601   -643.60914    279210.16    -75693.43    7567.5108    -83260.94    4670.6291 
   91000    303.13194   -754.63207    279058.76   -75672.902    7712.9481   -83385.851    4669.9922 
   91050    294.14749   -656.23798    279783.68   -75697.106    7484.3461   -83181.452    4682.0539 
   91100    295.92153   -1175.4984    280695.12   -75628.266     7529.485   -83157.751    4693.2893 
   91150    299.88642   -1276.1487    280800.51   -75638.349    7630.3683   -83268.717    4699.1511 
   91200    298.99168   -922.56419     279707.9   -75689.979    7607.6025   -83297.581    4690.5447 
   91250    298.29774   -321.71968    278605.77   -75716.239    7589.9457   -83306.185    4679.8815 
   91300    299.83199   -1001.5856    278823.76   -75722.891    7628.9836   -83351.875    4688.3822 
   91350    293.98486   -880.95397    279636.08   -75719.701    7480.2081   -83199.909    4703.8903 
   91400    296.76879   -1093.2225    280550.26   -75744.174     7551.043   -83295.217    4720.2268 
   91450    294.70424   -1392.0401    280597.32   -75766.349     7498.512   -83264.861    4725.2489 
   91500    293.97329   -1085.3499    279701.58   -75775.838    7479.9137   -83255.751    4716.7668 
   91550    300.40425   -724.27627    278884.55   -75774.672    7643.5442   -83418.216    4710.4016 
   91600    297.22579   -979.26807    278765.82   -75805.536    7562.6708   -83368.207    4714.0499 
   91650    295.46865   -948.60177    279332.13   -75857.309    7517.9618   -83375.271    4723.0183 
   91700    297.05362   -963.47591    279993.43   -75863.778    7558.2901   -83422.069    4731.2688 
   91750    293.95369   -1194.6688    280336.13   -75798.117     7479.415   -83277.532    4737.5052 
   91800    293.03946   -752.19571    279787.03   -75811.456    7456.1531   -83267.609    4735.6746 
   91850    299.05305   -989.53005    279056.25   -75849.511     7609.164   -83458.675    4730.6068 
   91900    295.38605   -899.27875    278718.29   -75834.573    7515.8601   -83350.433    4729.4904 
   91950    290.30393   -937.94065     278939.3   -75883.371    7386.5498   -83269.921    4735.0883 
   92000    294.24453   -799.21124    279383.62   -75838.405     7486.815    -83325.22    4739.9839 
   92050    296.12355   -1008.9693    279796.16   -75883.389    7534.6253   -83418.014     4747.735 
   92100    296.49281   -979.05699    279909.58   -75806.079    7544.0207   -83350.099    4756.2908 
   92150    294.04915   -861.35458    279506.55   -75808.667    7481.8438   -83290.511    4756.6287 
   92200    296.57421   -945.17264    279171.78   -75805.004    7546.0918   -83351.096    4752.0551 
   92250    293.40459   -1042.4164    279316.59   -75780.707    7465.4436   -83246.151    4753.5982 
   92300    296.89955   -1061.4366    279753.06   -75784.019    7554.3699   -83338.388    4757.5074 
   92350    296.08181   -892.06437    279809.61   -75787.916    7533.5632   -83321.479    4758.9662 
   92400    297.65031   -1085.2791    279608.83   -75794.345    7573.4724   -83367.818    4758.8229 
   92450     295.4847   -535.20843    279173.93   -75790.907    7518.3703   -83309.278    4758.8588 
   92500    297.82097   -1053.7642    279185.42   -75808.993    7577.8147   -83386.808    4763.3308 
   92550    295.99485   -893.11798    279658.65   -75818.715    7531.3505   -83350.065    4774.2915 
   92600     292.7576   -1248.0114    279935.09    -75840.08    7448.9812   -83289.061    4780.5369 
   92650    296.89811   -1044.8392    279547.49   -75827.334    7554.3333   -83381.667    4776.0153 
   92700     300.9367   -1073.4207    279317.15   -75826.121    7657.0921   -83483.213    4775.9642 
   92750    290.43145   -961.21015    279454.53   -75886.262    7389.7942   -83276.056    4780.6944 
   92800    293.75178   -1039.8035    279607.67   -75870.413    7474.2775    -83344.69    4785.8973 
   92850    293.93704   -999.65494       279425   -75851.311    7478.9914   -83330.302    4785.2332 
   92900    294.76687   -843.08313    279151.29    -75870.56    7500.1057   -83370.665    4787.2373 
   92950    292.89507   -850.40638    279283.31   -75852.129    7452.4791   -83304.608    4792.0158 
   93000     291.2368   -1179.5727    279945.11   -75806.052    7410.2858   -83216.337    4800.5978 
   93050    294.24626   -1244.6186    280014.91   -75778.406     7486.859   -83265.265    4806.3904 
   93100    294.47842   -938.51492    279612.49     -75742.5    7492.7663   -83235.266    4805.4564 
   93150     294.9183   -613.09265    279164.37   -75764.793    7503.9585   -83268.752     4801.767 
   93200    300.04414   -701.86094    279268.41   -75748.459    7634.3816   -83382.841    4806.8455 
   93250    299.90039   -1239.3726    279955.96   -75714.332    7630.7238   -83345.056    4820.6595 
   93300    293.82049   -1519.3123    280402.21   -75722.547    7476.0256   -83198.573    4827.3964 
   93350    292.63695    -1209.593    280070.04   -75767.069    7445.9115   -83212.981    4825.7682 
   93400    289.03012   -887.68634    279372.23   -75789.039    7354.1386   -83143.178    4824.6907 
   93450    297.50949    -1026.534    278971.82   -75795.545    7569.8893   -83365.434    4824.2485 
   93500    295.73188   -722.56929    279106.92    -75789.47    7524.6596    -83314.13    4829.8276 
   93550     297.6543   -884.78746     279803.7   -75774.556    7573.5739    -83348.13    4841.2133 
   93600    294.25868   -975.97123    280398.88   -75728.294    7487.1751   -83215.469    4850.8989 
   93650    292.13508   -1029.8275    280283.92   -75736.687    7433.1418   -83169.828    4851.6785 
   93700    297.38935   -1101.6209    279644.07   -75745.235    7566.8326   -83312.068    4847.2478 
   93750    299.90673    -885.8617    278931.21   -75742.118    7630.8852   -83373.003    4846.2312 
   93800    302.78544   -883.34927    278831.09   -75740.483    7704.1316   -83444.615    4850.0228 
   93850      294.276   -1077.6662    279603.24   -75734.087    7487.6158   -83221.703     4866.693 
   93900     299.7097   -1353.6495    280167.75   -75712.261     7625.872   -83338.133    4877.1849 
   93950    296.04059   -1106.7238    280091.43   -75703.509    7532.5143   -83236.023    4878.3482 
   94000    301.16429   -879.10892    279722.36    -75699.24    7662.8828   -83362.123    4878.5387 
   94050    298.68155   -1033.4134    279419.88   -75659.404    7599.7114   -83259.115     4877.045 
   94100    299.35887   -960.91496    279294.81   -75679.531    7616.9452   -83296.476     4876.736 
   94150      298.834   -931.29845    279463.37   -75674.848    7603.5905   -83278.438    4881.1438 
   94200    297.74861   -1127.6113     279678.9   -75666.759    7575.9737   -83242.733    4889.6916 
   94250    302.39182   -779.69788    279543.85     -75649.2    7694.1162   -83343.317    4892.8054 
   94300    299.80156   -883.53837    279696.83   -75622.255    7628.2092   -83250.464    4899.5963 
   94350    297.28512   -1236.3484    280080.85   -75623.208    7564.1805   -83187.389    4906.8332 
   94400    296.30031   -774.23767    280166.56   -75636.736    7539.1229   -83175.859    4911.5737 
   94450    303.40028   -1154.6452    280033.97    -75648.07    7719.7756   -83367.845    4913.2337 
   94500    301.28917   -1045.6311    279528.41   -75621.974    7666.0602   -83288.034    4908.7075 
   94550    302.17547   -923.67599    279187.64   -75672.192    7688.6115   -83360.803    4907.6732 
   94600    298.43737   -748.87133    279267.11   -75656.784    7593.4985   -83250.283    4913.7339 
   94650    305.96943   -1081.8603    279583.17   -75631.497    7785.1456   -83416.642    4923.3132 
   94700    301.43255   -947.55781    279819.49   -75587.301    7669.7084   -83257.009    4932.2264 
   94750    296.07119   -1201.6773    280194.26   -75629.024    7533.2931   -83162.317    4940.5342 
   94800    298.77451   -1206.7951    280145.76   -75640.929    7602.0766   -83243.005     4942.957 
   94850     301.3289   -1066.1279    279832.95   -75663.866    7667.0712   -83330.937    4941.8682 
   94900    298.24536   -728.21176    279578.02   -75672.237     7588.613    -83260.85    4940.9637 
   94950    298.17498   -851.73624    279456.36   -75718.012    7586.8223   -83304.834    4946.8195 
   95000    296.81988   -1014.8706    279503.72   -75731.376    7552.3429   -83283.719    4950.7076 
   95050    300.25798    -956.4265    279538.27   -75692.149    7639.8226   -83331.971    4957.7465 
   95100    299.98017    -1243.859    279637.89    -75711.95    7632.7539   -83344.704    4963.6995 
   95150    295.09332   -1127.6364    279657.33   -75725.115    7508.4119   -83233.527    4968.6866 
   95200    295.31525   -1044.8995    279478.48   -75731.805    7514.0587   -83245.863    4967.2509 
   95250     295.7912   -739.17297    279365.71   -75715.721    7526.1688    -83241.89    4967.7999 
   95300    295.75696    -789.6047    279353.22   -75755.966    7525.2976   -83281.263    4967.5613 
   95350    300.32779   -982.69939    279510.73   -75782.059    7641.5987   -83423.658    4969.0561 
   95400    299.33278   -1353.6026    279833.58   -75728.921    7616.2814   -83345.202    4975.2775 
   95450    298.42746   -1088.1849    279835.03   -75735.568    7593.2464   -83328.815    4977.0227 
   95500    298.44768   -1268.3034    279755.29   -75730.367    7593.7609   -83324.128    4976.3762 
   95550    300.46907   -1095.8487    279416.81   -75747.418    7645.1936   -83392.611    4973.4322 
   95600    295.79176   -615.23616    279032.93   -75754.311    7526.1831   -83280.494    4970.8381 
   95650    292.37053    -842.2758    279128.51   -75788.549    7439.1327   -83227.681    4974.7602 
   95700    299.65214   -1118.7169    279540.19   -75761.744    7624.4072   -83386.152     4982.291 
   95750    297.69297   -1221.1649    279896.09   -75748.234    7574.5579   -83322.791    4987.3214 
   95800    294.96254   -1209.5535    279869.99   -75779.869    7505.0842   -83284.953    4990.7522 
   95850       295.51   -975.80333    279465.29   -75769.186     7519.014     -83288.2    4985.1542 
   95900    293.38133   -910.05873    279127.57   -75769.848    7464.8515   -83234.699    4979.7883 
   95950    300.36744   -629.98652    279157.68   -75759.756    7642.6075   -83402.364    4982.2029 
   96000    296.58977    -1096.125    279658.55   -75757.023    7546.4878   -83303.511    4989.5812 
   96050    294.42746   -989.45369    280049.96   -75731.351    7491.4696   -83222.821      4994.89 
   96100    301.32893   -1144.2996    280007.92   -75661.778    7667.0719    -83328.85    4998.4872 
   96150    297.31298   -1159.2384    279700.82   -75693.648    7564.8893   -83258.537    4999.1245 
   96200    298.25775   -1002.5694    279438.72   -75647.403    7588.9283   -83236.331    4997.2847 
   96250    299.61827   -1231.9553    279431.28   -75648.271    7623.5456   -83271.816    4999.2963 
   96300    305.13824   -1045.2428    279759.95    -75653.38    7763.9968   -83417.377    5008.4198 
   96350    297.90027   -1132.9095    280040.47   -75656.195    7579.8326   -83236.027    5016.8156 
   96400     299.8371   -1168.3338    280015.14   -75695.317    7629.1136    -83324.43    5018.6549 
   96450    296.87744   -808.93347     279686.9   -75659.933    7553.8074   -83213.741    5015.9568 
   96500    305.25766   -959.56799    279388.21   -75658.936    7767.0354   -83425.971    5015.7335 
   96550    304.73464   -887.94859    279244.14   -75657.221    7753.7274   -83410.949    5014.1507 
   96600    297.96328   -1039.0113     279257.4   -75659.972    7581.4357   -83241.408    5014.7602 
   96650    298.88729   -1013.5308    279589.82   -75704.128    7604.9464   -83309.074    5018.5544 
   96700    301.06347   -1204.7961    279860.01    -75716.98    7660.3175   -83377.298    5026.8279 
   96750    297.19838   -987.10335    279789.28   -75698.039    7561.9735   -83260.012    5025.1386 
   96800    300.31129   -991.37391    279751.37   -75717.575    7641.1789   -83358.753    5025.1461 
   96850    303.02293   -1222.0992    279863.57   -75753.257    7710.1744   -83463.432      5027.72 
   96900    298.49862   -983.16654    279734.11   -75718.087    7595.0569   -83313.144    5028.0405 
   96950     299.2587   -696.10422    279399.39   -75725.941    7614.3966   -83340.337    5025.0407 
   97000    297.87909   -822.32747    279324.02   -75742.734    7579.2935   -83322.027    5030.2842 
   97050    292.03588   -836.23428    279608.23   -75713.933    7430.6177    -83144.55    5036.3168 
   97100    293.52214   -1144.5079    280238.73   -75730.793    7468.4345   -83199.227    5045.4539 
   97150    298.03569   -1124.6755    280256.63   -75742.984    7583.2782   -83326.262    5048.5894 
   97200    295.75899   -1106.9557    279398.47   -75739.413    7525.3494   -83264.762    5040.1754 
   97250    300.50105   -834.71084    278598.34   -75764.886    7646.0071   -83410.893    5036.7768 
   97300    298.45702   -893.64007     278570.5   -75795.363    7593.9986   -83389.362    5035.8271 
   97350    296.53559   -848.15541    279046.99   -75815.408    7545.1093   -83360.517    5044.7879 
   97400    292.32016    -974.7595    279881.72   -75808.455    7437.8509   -83246.305    5059.3178 
   97450    296.61891   -1179.2592    280300.71   -75830.288    7547.2292   -83377.517    5063.4936 
   97500    294.42784   -1435.4574    280008.87   -75828.541    7491.4792   -83320.021    5061.8306 
   97550    297.37671   -1061.4378    279454.42   -75810.979     7566.511    -83377.49    5058.2224 
   97600    293.54167   -893.14729    278958.08   -75790.082    7468.9313   -83259.014    5053.2014 
   97650    294.31173   -627.25566    278863.48   -75769.306     7488.525   -83257.831    5055.5675 
   97700    298.83488   -845.92877    279411.26   -75780.186    7603.6128   -83383.799    5066.4333 
   97750    300.56356    -1075.499    280023.64   -75746.315    7647.5978   -83393.913    5074.3714 
   97800    298.77405   -1159.6625    280146.24   -75786.601     7602.065   -83388.666    5078.8949 
   97850    290.89236   -1091.0015    279783.69   -75825.136    7401.5219   -83226.658    5074.4102 
   97900    299.19121   -1016.8087     279154.2   -75874.093    7612.6793   -83486.773    5069.0397 
   97950    297.37685   -930.38076     278757.6    -75857.89    7566.5144   -83424.405    5071.2636 
   98000    300.75345   -1119.4682     278903.4   -75875.606    7652.4292   -83528.036    5079.9392 
   98050    296.33251   -1060.7272    279226.57   -75860.694     7539.942   -83400.636    5089.0629 
   98100    288.64131   -1127.1816    279599.06   -75870.023    7344.2456   -83214.269    5096.2537 
   98150    291.37452   -1156.3525    279840.85   -75867.732    7413.7899   -83281.522    5103.4188 
   98200    291.45194   -1332.9035    279723.41   -75881.232    7415.7599   -83296.991    5104.2942 
   98250    296.62611   -1046.8151    279083.14    -75881.95    7547.4125   -83429.362    5101.3132 
   98300    295.15336   -957.96328    278764.57   -75931.836    7509.9396   -83441.776    5104.6807 
   98350     296.9541   -1056.1583    278992.96   -75936.406    7555.7579   -83492.164    5112.1806 
   98400    295.18977   -794.95299    279454.63   -75895.048    7510.8661   -83405.914    5122.1149 
   98450     289.6799    -1298.445    279948.59   -75850.047    7370.6717   -83220.718    5130.0451 
   98500    292.38507   -1027.2013    279860.08   -75861.383    7439.5026   -83300.886    5132.1941 
   98550    294.37269   -1515.3737    279528.78   -75899.632    7490.0759   -83389.707    5129.4178 
   98600     288.5523   -727.42445    278720.66   -75918.148    7341.9808   -83260.129     5122.886 
   98650    295.61454   -1029.6031    278425.55   -75921.706    7521.6738   -83443.379    5121.3622 
   98700    300.40186   -922.72698    279010.04   -75910.976    7643.4833   -83554.459    5126.9197 
   98750    292.95349   -1270.2429    279859.55    -75878.31    7453.9655   -83332.275    5138.7519 
   98800    295.54085   -1209.7415    280382.93   -75875.633     7519.799   -83395.432    5147.5446 
   98850    293.83085    -1480.293    280295.71   -75847.424    7476.2894   -83323.713    5147.4286 
   98900    300.30287   -977.64563    279529.08   -75868.799    7640.9646   -83509.763    5140.1991 
   98950    297.44201   -721.55345    279051.63   -75858.385    7568.1724   -83426.557    5136.5751 
   99000     295.2027   -803.63479    279115.27   -75848.325     7511.195    -83359.52    5140.0288 
   99050    293.44039   -1242.7423    279695.77   -75840.714    7466.3545   -83307.069    5150.0829 
   99100    298.56658   -1377.6579    280123.65   -75837.755    7596.7863   -83434.541    5158.8987 
   99150    299.16662   -1107.3225    279782.63   -75846.961    7612.0537   -83459.015    5156.8573 
   99200    292.19423   -1109.6684    279202.16   -75881.122    7434.6468   -83315.768    5153.4227 
   99250    300.14644   -974.72147    278968.69   -75904.648    7636.9844   -83541.632    5153.2839 
   99300     291.2101   -1125.3483     279447.4   -75927.757    7409.6065   -83337.363    5163.7562 
   99350    294.40341   -1357.4014    279761.78   -75935.361    7490.8577   -83426.218    5165.2561 
   99400     294.9371   -1063.4817    279652.85   -75926.396    7504.4371   -83430.833    5163.8428 
   99450    294.51362    -1091.175    279467.81   -75921.701    7493.6618   -83415.363    5164.8844 
   99500    292.91884   -914.77703    279169.56   -75942.176     7453.084    -83395.26    5164.9838 
   99550    294.30307   -1109.3328    279075.28   -75902.802    7488.3046   -83391.106     5169.296 
   99600    292.09946   -1050.6296    279395.01   -75901.666    7432.2355   -83333.901    5175.7477 
   99650    294.58747   -1074.4024    279771.63   -75906.818    7495.5408   -83402.358    5183.8636 
   99700    291.54043   -999.77383    279905.72   -75878.328    7418.0115    -83296.34    5186.5103 
   99750    298.51395   -1304.2193    279866.72   -75904.694    7595.4471   -83500.141    5187.3854 
   99800    295.53907   -1207.0463    279590.53   -75899.211    7519.7536   -83418.965    5187.2704 
   99850    289.93069   -785.55513    279269.63   -75887.866     7377.053   -83264.919    5188.2172 
   99900    293.42275    -1066.217    279205.08   -75904.969    7465.9056   -83370.875    5192.0131 
   99950    295.68673   -852.45394    279433.45   -75888.036    7523.5106   -83411.546    5196.0199 
  100000    297.87003   -1263.1418    279847.05   -75850.634    7579.0631   -83429.697    5203.6988 
Loop time of 246.144 on 6 procs for 100000 steps with 8537 atoms

Performance: 351.014 ns/day, 0.068 hours/ns, 406.266 timesteps/s
99.4% CPU use with 6 MPI tasks x no OpenMP threads

MPI task timing breakdown:
Section |  min time  |  avg time  |  max time  |%varavg| %total
---------------------------------------------------------------
Pair    | 71.784     | 127.39     | 192.85     | 437.6 | 51.76
Neigh   | 31.161     | 36.406     | 40.262     |  63.0 | 14.79
Comm    | 6.7907     | 76.095     | 136.94     | 606.2 | 30.91
Output  | 0.13428    | 0.13671    | 0.14589    |   1.1 |  0.06
Modify  | 5.0075     | 5.0731     | 5.1289     |   1.6 |  2.06
Other   |            | 1.041      |            |       |  0.42

Nlocal:        1422.83 ave        1463 max        1385 min
Histogram: 2 0 0 0 1 1 0 0 1 1
Nghost:        1993.50 ave        2023 max        1964 min
Histogram: 1 0 1 1 1 0 0 0 0 2
Neighs:        0.00000 ave           0 max           0 min
Histogram: 6 0 0 0 0 0 0 0 0 0
FullNghs:      39317.3 ave       39937 max       38818 min
Histogram: 1 0 3 0 0 0 0 0 1 1

Total # of neighbors = 235904
Ave neighs/atom = 27.633126
Neighbor list builds = 20895
Dangerous builds = 0

# Create data file for import to other simulations
#
write_data data.${NAME}
write_data data.coexist_296K_-1000atm_ML
System init for write_data ...

Total wall time: 0:04:06
