
# Import phase coexistance setup
#
read_data           data.coexist_${TEMP}K_${PRES}atm_ML
read_data           data.coexist_296K_${PRES}atm_ML
read_data           data.coexist_296K_-1000atm_ML
Reading data file ...
  orthogonal box = (-0.25366367 -0.25980015 -0.25980015) to (104.73629 51.368342 51.368342)
  3 by 1 by 2 MPI processor grid
  reading atoms ...
  8537 atoms
  reading velocities ...
  8537 velocities
  read_data CPU = 0.051 seconds

# Define potential
#
pair_style 	    sw
pair_coeff	    * * /data/emrosky-sim/Freezing_Simulations/Melting/MLmW_fancy/ML_mW.sw mW
Reading sw potential file /data/emrosky-sim/Freezing_Simulations/Melting/MLmW_fancy/ML_mW.sw with DATE: 2019-02-27

# Reset velocity/set timestep
#
velocity	    all create ${TEMP} 120598 rot yes dist gaussian
velocity	    all create 296 120598 rot yes dist gaussian
timestep	    10.0

# Define output
#
compute	            1 all msd
compute             2 all orientorder/atom nnn NULL degrees 2 4 12
thermo              1000
thermo_style        custom step temp press vol etotal ke pe c_1[4]

# Neighbor lists
#
neigh_modify        delay 0 every 1 check yes

# Set fixes
#
fix                 1 all momentum 10 linear 1 1 1 rescale
fix                 2 all nph iso ${PRES} ${PRES} ${PCOUPL}
fix                 2 all nph iso -1000 ${PRES} ${PCOUPL}
fix                 2 all nph iso -1000 -1000 ${PCOUPL}
fix                 2 all nph iso -1000 -1000 10000.0
fix                 3 all temp/csvr ${TEMP} ${TEMP} ${TCOUPL} 837492
fix                 3 all temp/csvr 296 ${TEMP} ${TCOUPL} 837492
fix                 3 all temp/csvr 296 296 ${TCOUPL} 837492
fix                 3 all temp/csvr 296 296 5000.0 837492

# Run very short equilibration
#
dump		    1 all atom 50 eq.${NAME}.dump
dump		    1 all atom 50 eq.melt_296K_-1000atm_ML.dump
run	            500
Neighbor list info ...
  update every 1 steps, delay 0 steps, check yes
  max neighbors/atom: 2000, page size: 100000
  master list distance cutoff = 6.0032907
  ghost atom cutoff = 6.0032907
  binsize = 3.0016454, bins = 35 18 18
  2 neighbor lists, perpetual/occasional/extra = 1 1 0
  (1) pair sw, perpetual
      attributes: full, newton on
      pair build: full/bin/atomonly
      stencil: full/bin/3d
      bin: standard
  (2) compute orientorder/atom, occasional, copy from (1)
      attributes: full, newton on
      pair build: copy
      stencil: none
      bin: none
Per MPI rank memory allocation (min/avg/max) = 4.599 | 4.600 | 4.601 Mbytes
Step Temp Press Volume TotEng KinEng PotEng c_1[4] 
       0          296   -1270.9141    279847.05   -75898.216    7531.4816   -83429.697            0 
     500    346.14817   -390.05146    274176.63   -77678.501    8807.4613   -86485.962    14.644614 
Loop time of 1.16965 on 6 procs for 500 steps with 8537 atoms

Performance: 369.342 ns/day, 0.065 hours/ns, 427.480 timesteps/s
100.0% CPU use with 6 MPI tasks x no OpenMP threads

MPI task timing breakdown:
Section |  min time  |  avg time  |  max time  |%varavg| %total
---------------------------------------------------------------
Pair    | 0.40431    | 0.65135    | 0.94718    |  26.7 | 55.69
Neigh   | 0.12968    | 0.14786    | 0.16078    |   3.3 | 12.64
Comm    | 0.024695   | 0.33336    | 0.59794    |  39.3 | 28.50
Output  | 0.0077947  | 0.008346   | 0.0088738  |   0.4 |  0.71
Modify  | 0.023508   | 0.023991   | 0.024545   |   0.2 |  2.05
Other   |            | 0.004739   |            |       |  0.41

Nlocal:        1422.83 ave        1457 max        1393 min
Histogram: 1 0 1 1 0 1 1 0 0 1
Nghost:        2014.67 ave        2045 max        1988 min
Histogram: 1 1 1 0 0 1 0 0 0 2
Neighs:        0.00000 ave           0 max           0 min
Histogram: 6 0 0 0 0 0 0 0 0 0
FullNghs:      39761.7 ave       40887 max       38613 min
Histogram: 1 0 1 0 0 1 2 0 0 1

Total # of neighbors = 238570
Ave neighs/atom = 27.945414
Neighbor list builds = 84
Dangerous builds = 0

reset_timestep      0
undump              1
unfix               2
unfix               3


################################################
#######         Run Simulation         #########
################################################

log                 log.run_${NAME}
log                 log.run_melt_296K_-1000atm_ML
