LAMMPS data file via write_data, version 29 Oct 2020, timestep = 100000

8538 atoms
1 atom types

-0.2297772391190449 104.66393953734628 xlo xhi
-0.28185283993912336 51.36332865715963 ylo yhi
-0.28185283993912336 51.36332865715963 zlo zhi

Masses

1 18.015

Atoms # atomic

2177 1 0.12698543882437058 2.026659997805392 0.8385775431786873 0 1 0
87 1 6.180111516516605 1.5622543650723255 1.909372291943233 0 1 0
94 1 11.068452201710953 2.667469153896482 2.834118517286644 0 1 0
2180 1 12.773694693528794 1.5450716665092266 0.8307136903383803 0 1 0
2181 1 17.234262690090794 0.05668356098098981 -0.13275012219416127 0 1 1
2772 1 19.194193026725785 1.6365892487868472 1.136870370448213 0 1 0
2774 1 23.582505574610952 -0.14358919927205807 -0.2599354797416507 0 1 1
851 1 25.226685641560174 1.1830979637197183 1.9245673866595223 0 1 0
854 1 31.64711259401089 1.6793567804557576 1.7300166528406553 0 1 0
855 1 33.58590758016171 0.2428110984108618 2.929566578715483 0 1 0
1437 1 3.143761725690539 5.283040346151645 0.9883999352772326 0 1 0
1460 1 9.392003349335102 4.3932623336721 1.123708619118412 0 1 0
97 1 15.971040020834643 4.759713619676935 1.7565679287997593 0 1 0
856 1 22.06429753344264 4.766893623625133 1.6722131440521857 0 1 0
2779 1 26.62446984073198 3.2622826615734972 -0.1960334411978217 0 1 1
2780 1 28.49304745113363 4.65930146336867 1.0351662551412353 0 1 0
4964 1 34.71444059664796 5.040261233223741 1.0635850981038948 0 1 0
99 1 7.988412155170272 6.5703173051187065 2.695134389333578 0 1 0
100 1 12.59012928668762 7.761368271362787 1.71082914562778 0 0 0
2782 1 19.224505738749254 7.847430507845271 1.1751399208883466 0 0 0
2783 1 23.61334313289852 6.589644018774065 -0.20994787267956228 0 1 1
861 1 25.419391793247083 7.8600027998884965 1.8542295676809064 0 0 0
2785 1 31.43286833195805 8.060085726730449 1.121699245753374 0 0 0
2104 1 2.937335574383572 11.868590253488101 1.0757009670689268 0 0 0
4 1 6.087259264554112 8.915996036416757 1.909875170026618 0 0 0
2101 1 9.410307437119007 11.34206188088596 1.0859442196883384 0 0 0
2102 1 13.989202100350331 9.887991164116452 -0.14742296522490195 0 0 1
8 1 15.986757274264424 11.135463675311845 2.0760378583903787 0 0 0
2704 1 20.735224321129888 10.313396332312477 -0.18690097196895783 0 0 1
791 1 22.234859456781543 11.866779574316732 1.9092914059268726 0 0 0
2707 1 27.014200271536414 10.134901290738862 -0.10567757248649359 0 0 1
793 1 28.779788136168563 11.783553137703956 1.914447956544362 0 0 0
2708 1 33.228725075404206 10.239880175222712 -0.23423018519577105 0 0 1
19 1 12.265077230240879 14.552191199089464 1.820531212849521 0 0 0
2108 1 17.551513622145194 13.129517844143134 -0.24688014551396442 0 0 1
795 1 18.93944697809839 14.789498416092442 1.9741386347521948 0 0 0
2709 1 23.837866106133127 13.24342329086652 -0.14983590452819645 0 0 1
2109 1 1.56805786666681 16.57292933457566 -0.15800788905493393 0 0 1
2111 1 7.720639801605553 16.67848268933188 -0.20587953184896818 0 0 1
17 1 6.247944007933149 14.977075510467742 1.8310992097445808 0 0 0
2121 1 15.858939583770066 17.78966697844076 1.0969150108801826 0 0 0
2713 1 20.282236675341647 16.466213956571423 -0.07280679173220628 0 0 1
2715 1 26.845078123363862 16.54630274138529 -0.24932607889437605 0 0 1
797 1 25.225822801262794 15.106823951162928 1.7036699390734895 0 0 0
799 1 31.429655352535757 14.949091791949817 1.8383513184622706 0 0 0
2717 1 33.113294988236476 16.449077035483917 -0.2711222355061936 0 0 1
22 1 3.156575862468789 18.05753267957544 1.8296345243176035 0 0 0
2119 1 9.323780338997379 18.24351315420539 1.118155598391553 0 0 0
2118 1 10.673368723586158 19.93208675498334 -0.2612463925523974 0 0 1
801 1 21.87809383702245 17.946649154387462 2.0676110535315413 0 0 0
2720 1 23.23550482174535 19.684432098399412 -0.02608241660212951 0 0 1
803 1 28.59527215374497 18.266520481752025 1.7666873241864014 0 0 0
2123 1 0.02484605768920095 21.185290848093178 1.1963737062758109 0 0 0
2125 1 6.084078402898758 21.328063979161968 1.15541617418981 0 0 0
2126 1 12.189008992476376 21.747000645642682 1.06088429283138 0 0 0
2724 1 20.427614197937167 23.070985258640228 -0.13718203412167196 0 0 1
805 1 19.078247134526684 21.62163025173717 1.9293313651484976 0 0 0
807 1 25.183485702147852 21.353134500167627 1.8140747516757556 0 0 0
809 1 31.409972727797843 21.49778471096564 1.7825646652132048 0 0 0
30 1 2.769890877996052 24.301343114006897 1.737409489484004 0 0 0
2131 1 9.129170229302515 24.429835016789223 1.0385031982912067 0 0 0
2133 1 15.415489115417758 24.854417972847628 0.9322490754949826 0 0 0
2729 1 23.763119441417576 26.28444381521167 -0.18821963211796033 0 0 1
2730 1 22.230799631004167 24.601627820998733 1.1446725413948615 0 0 0
2731 1 28.196785550942355 24.44014011330236 1.0214140416351858 0 0 0
2733 1 34.38215280991254 24.365669326630655 0.9381551211954229 0 0 0
813 1 33.095401261608735 26.088361747223978 2.6798433101792853 0 0 0
7731 1 0.18032547781230784 28.467874504005138 2.613980101608115 0 0 0
34 1 6.216595348019251 27.647853830517867 1.644898141481206 0 0 0
37 1 12.382433327026813 27.497164443531517 1.665224563092336 0 0 0
2138 1 18.46273290003865 27.591008493816865 1.1354972028128578 0 0 0
2735 1 19.966296730100144 29.313266313526203 -0.13361443651488913 0 0 1
2737 1 26.889551112191654 29.482932806283088 -0.1830685046228085 0 0 1
815 1 25.50071411952245 27.85236439245892 1.8784215152594301 0 0 0
2738 1 31.46257167800248 27.572684498058486 1.0251256336895656 0 0 0
40 1 2.739230597538983 30.65100154438776 1.93616147816225 0 0 0
2140 1 4.129007699774927 32.33479048552006 0.058876558549154356 0 0 1
43 1 9.432160340337873 30.574255491757448 1.6441814794575922 0 0 0
44 1 15.157348193938232 31.05461416216591 1.8243757472902873 0 0 0
2142 1 16.983348773459227 32.49592710599542 -0.14822076182607874 0 0 1
2741 1 21.687129521827192 30.644679855165457 1.0745185637207133 0 0 0
2743 1 23.332277978447912 32.51780750005257 -0.11860504557470941 0 0 1
2748 1 30.247485387387464 32.739322513221296 -0.21481672292082207 0 0 1
2744 1 28.797882251066955 31.06967700107673 1.1844213912827848 0 0 0
48 1 6.089621728321214 33.649884244265124 1.6663377356332874 0 0 0
50 1 12.430762956356533 33.842781358241524 1.760702693272389 0 0 0
2149 1 13.7404168347264 35.62017164199008 -0.15119794726148536 0 0 1
52 1 18.264033185867486 34.0373056521978 2.1820677362462053 0 0 0
2746 1 19.74758015505074 35.52902304146323 -0.10489063376426311 0 0 1
822 1 25.122556347651503 33.88361122536972 2.052444538506468 0 0 0
2751 1 26.56615137025749 35.789835999180426 -0.11441816994720347 0 0 1
824 1 31.679652143083878 34.60050646851714 1.837173536157175 0 0 0
54 1 2.881134412571295 37.093142654150654 1.6532976409527678 0 0 0
55 1 8.925161221097914 37.02900555993651 1.8378498066186064 0 0 0
57 1 15.018806304588844 37.25335247979224 2.2090385096649268 0 0 0
2158 1 16.62395818237534 39.01107849334832 0.42452755282486476 0 0 1
825 1 21.69486639385907 37.000030112003245 1.829133683143397 0 0 0
2749 1 23.794905311499264 38.46940281994908 0.058373965317495335 0 0 1
828 1 28.47130657744568 37.528067045589225 1.6728506745455003 0 0 0
833 1 33.10878336307972 38.79268855032569 2.8239999912051688 0 0 0
60 1 -0.14794358219091497 40.43195521673121 1.7459696927600046 0 0 0
2153 1 5.888310097068415 40.36570988853053 1.0513264101015223 0 0 0
2157 1 12.493247077093505 40.33217620875749 1.0039802462624148 0 0 0
66 1 18.75815817745878 40.795279913274655 1.934848517044033 0 0 0
2759 1 20.582181397003755 42.00117761867001 0.047751626310287176 0 0 1
2760 1 26.390276653133736 42.15826449613742 -0.12740241773729907 0 0 1
831 1 25.224221776959823 40.26443912974567 1.9563810177229608 0 0 0
832 1 31.48304356718657 40.54709055186191 1.782649916392189 0 0 0
2761 1 32.881258326556576 42.135176773585414 -0.0922377145342532 0 0 1
67 1 2.6705037243781033 43.691221781360625 1.6395475764796348 0 0 0
2161 1 9.243100708848237 43.721530222153945 1.0869083245303004 0 0 0
2163 1 15.259023925662484 43.88691278689653 0.8317464551133025 0 0 0
836 1 22.181418861149208 43.770958787956275 1.9972200988373348 0 0 0
837 1 28.163222517713393 43.84172046474055 1.8848795149303874 0 0 0
839 1 34.470979518073676 43.725671154985534 1.771261824623013 0 0 0
73 1 5.731643017379095 46.86839446704168 1.7261184993915006 0 0 0
2167 1 12.284704768528824 46.799523265962236 1.0855229562347604 0 0 0
2176 1 14.48175276332608 48.221850306200636 -0.1477329194956037 0 0 1
2169 1 18.750610004565694 47.016567606514585 1.1152609058560412 0 0 0
2763 1 23.87305959392369 45.6160347387798 -0.23716635039808193 0 0 1
844 1 25.290947695376428 46.90020818517239 1.810396759293686 0 0 0
2764 1 31.28456420058889 47.179820923298635 0.5702992620621473 0 0 0
80 1 2.886924855840011 50.531679663583134 1.71201501211917 0 0 0
2172 1 9.115809047354354 49.91928084892871 0.8271085789282473 0 0 0
83 1 15.730056504699192 50.15631693017163 1.8600769699468058 0 0 0
2766 1 22.01374449169236 49.939327774092476 1.1495590025843665 0 0 0
2769 1 26.756531645692643 48.44500361698027 -0.27190926437885193 0 0 1
2770 1 28.456654538386786 50.37777204704149 0.9881088540318896 0 0 0
85 1 1.1531795546860322 0.48052066894834644 3.411996700336322 0 1 0
92 1 3.125869918115225 2.1242216783879675 4.824057795962428 0 1 0
88 1 9.343084735245387 1.4164908156319593 4.546336598771296 0 1 0
89 1 13.974961031211418 0.0738167509794247 3.0009451798150546 0 1 0
90 1 15.884579873760714 1.3557932733520677 4.512318352073096 0 1 0
850 1 22.146428748099233 1.5396735093043856 4.664154198042566 0 1 0
853 1 28.202115049453056 1.904157988153961 4.783298966153508 0 1 0
852 1 26.903034416762388 -0.19110204481862175 3.43617364652377 0 1 0
931 1 29.908045203339277 0.026947831738733496 6.018823082125103 0 1 0
2872 1 34.72826292792531 1.9428196849694146 4.648047176961416 0 1 0
91 1 4.520223522134061 3.603938544393357 3.0267765333704744 0 1 0
93 1 6.426017803270686 4.8439074946154275 4.474541370760504 0 1 0
185 1 7.785057608526273 3.122744482389872 6.069856098232385 0 1 0
95 1 12.81944576540338 4.7583122821341615 4.503775030569316 0 1 0
188 1 14.506573150331771 3.2325062856735998 6.129453987880295 0 1 0
96 1 17.735260085372126 3.1202676762872272 3.3230740482237837 0 1 0
934 1 19.197278150477523 5.02108991483045 4.908994836044523 0 1 0
857 1 23.447267711551387 3.1331342606256745 3.1967004670725903 0 1 0
935 1 24.81239314667205 4.492114073371702 5.225738065228521 0 1 0
858 1 30.07732204069869 3.2805407771447537 3.1518809347384047 0 1 0
937 1 31.252048996549377 4.937841979486403 5.058318296319138 0 1 0
98 1 1.401842700722531 6.843615872391124 3.081739987676621 0 1 0
3 1 3.015405838390734 8.644279612766027 4.735016494043427 0 0 0
190 1 4.663737994898713 6.547154665126527 6.069046825621109 0 1 0
6 1 9.65525809855751 8.52584017578258 4.530902098588893 0 0 0
192 1 10.95322473168582 6.277949985591841 5.870593852835038 0 1 0
101 1 14.462179188153623 6.547654714212082 3.292746498145532 0 1 0
106 1 15.944459468384316 8.520315428913717 5.193969025057035 0 0 0
859 1 20.895155770445466 6.661277888442471 3.3619708472195478 0 1 0
864 1 22.431638413924095 8.746170480221725 5.0944799322465855 0 0 0
860 1 26.57071120734275 5.834942786391458 3.3980223491347066 0 1 0
940 1 28.159515729296114 7.501909975611826 5.017466601585506 0 0 0
862 1 33.08010616808331 6.45812605616844 3.2487391800346166 0 1 0
2 1 4.450102196972681 10.522116197394073 3.164845653369078 0 0 0
108 1 6.272370287612867 11.671239660081962 4.902919072747543 0 0 0
5 1 11.331227531956971 10.143174930229325 3.0016633143639293 0 0 0
7 1 17.844578461845334 9.736237693369914 3.471503473232522 0 0 0
868 1 19.139964890066334 11.565365856016864 4.880417885796774 0 0 0
788 1 23.90391094132067 10.102596776763152 3.378410739137642 0 0 0
870 1 25.57558273170025 11.64012854728652 5.074548308329348 0 0 0
789 1 29.93501385997043 9.943233008104627 3.7066348722996874 0 0 0
866 1 31.724847644960978 11.26071507141786 5.229157124389794 0 0 0
9 1 1.3204363951547062 13.666298358013194 3.133114492589579 0 0 0
10 1 -0.2014922055426211 11.99310872544536 4.55495512355368 0 0 0
11 1 7.806182577497411 13.293817448778102 3.063095561372733 0 0 0
12 1 14.577687875887595 13.314493995414226 3.1477887938721634 0 0 0
13 1 12.692964560811157 12.01435989027614 4.690352982738336 0 0 0
115 1 15.90473076627567 14.821639261693871 4.850157908504527 0 0 0
790 1 20.73710065569797 13.293844686684873 3.5755572295270825 0 0 0
873 1 22.456421800989887 14.692939639562134 5.384906728186127 0 0 0
792 1 26.67364188976421 13.169563518718801 3.2738058125743033 0 0 0
875 1 28.48821165411091 14.777986874845473 4.922808652693233 0 0 0
794 1 33.2231005786903 13.054276836195278 3.5401513035021903 0 0 0
14 1 4.913974099951403 16.71731160598304 3.168499205386519 0 0 0
15 1 3.1217976535516927 15.106781295895752 4.774760444815555 0 0 0
16 1 9.152331299992845 15.034483638316688 4.814979040966574 0 0 0
18 1 10.893603498422076 16.578620743707763 3.364528319446064 0 0 0
20 1 17.725405090007257 16.891589620260746 3.4476799327831955 0 0 0
796 1 23.569267210831942 16.30715835283929 3.5257506179916396 0 0 0
879 1 25.353029339340367 17.931358266001084 4.976337519369954 0 0 0
798 1 29.96294157238282 16.522494671552188 3.57226478173723 0 0 0
21 1 1.614524946829863 19.505250108479757 3.3251183256282077 0 0 0
23 1 7.804947433753567 19.784532993919367 3.3423198986722578 0 0 0
118 1 6.336132232643815 18.282353557471755 5.259871430786515 0 0 0
25 1 14.286075138772985 19.809927350877867 3.121136282424392 0 0 0
24 1 12.882686815769063 18.117061197548015 4.639272423215596 0 0 0
800 1 20.622961182063804 19.94347457387288 3.4133853962476186 0 0 0
877 1 19.354506316240645 18.30580065902621 5.324383204617884 0 0 0
802 1 26.653063198657247 19.72417407331429 3.280095702930414 0 0 0
880 1 31.510879705514547 18.143000275303628 5.055001521400258 0 0 0
804 1 33.28770048913869 19.649121556379505 3.5206813098437295 0 0 0
26 1 4.523095862210015 22.94743874881443 3.237663408498871 0 0 0
124 1 3.1186334525174195 21.428640101678752 5.064074278232578 0 0 0
27 1 10.670740486099696 23.063697015734153 3.441017550806773 0 0 0
126 1 9.51843846661253 21.052314019669648 5.09720121953693 0 0 0
127 1 15.549615705455393 21.3891960010825 5.192442169372543 0 0 0
28 1 16.990538313142352 23.124615896332298 3.211366464944768 0 0 0
806 1 23.807221167762947 23.217638934894065 3.3895276376633894 0 0 0
884 1 22.104619284061148 21.568858518206643 4.98704408803086 0 0 0
885 1 28.164993792683095 21.377487735121665 5.166350803241216 0 0 0
808 1 29.53186315231192 23.081941619801473 3.2376415047320806 0 0 0
2812 1 34.67020634110052 21.522811692233955 4.759983571529182 0 0 0
29 1 1.4217756605075789 26.111940911524304 3.4369668977020007 0 0 0
129 1 -0.22287052494606924 24.42843847946836 5.0637426111792845 0 0 0
31 1 7.721232843724332 25.94825127679567 3.2320530538164043 0 0 0
131 1 6.19598194096712 24.240618872550534 4.968010042636045 0 0 0
132 1 12.429970589328196 24.704234473507178 5.23863932065325 0 0 0
32 1 14.01912059856065 26.18340757364188 3.2105561742789193 0 0 0
135 1 18.682558729928697 24.78490610279154 4.985245923116209 0 0 0
810 1 20.253898855256644 26.180359870824894 3.230904028353872 0 0 0
811 1 27.00049480315319 26.272702435479594 3.2475304742709565 0 0 0
887 1 25.358983008303404 24.70995828413839 5.316159451509969 0 0 0
812 1 31.523048324261694 24.731704094754356 4.604087082625215 0 0 0
33 1 4.496688488660721 29.13771795091916 3.280806628753286 0 0 0
138 1 3.1308749968194345 27.49290986321846 5.028152237290607 0 0 0
35 1 11.089059370605598 29.08655437652653 3.233221817102803 0 0 0
36 1 9.469051039289615 27.500883802912742 4.740643995911719 0 0 0
45 1 17.086250325977943 29.623559745726478 3.2799819896581086 0 0 0
38 1 15.785319144266445 27.72969510566408 4.764181642971987 0 0 0
891 1 21.755757127355512 27.685726362201855 4.915459566121985 0 0 0
814 1 23.4127302287049 29.55610288844483 3.2805147946221673 0 0 0
817 1 30.254597859528555 29.50783973848953 3.1425879244222856 0 0 0
816 1 28.569825703862115 28.008154050298543 4.803553674213719 0 0 0
899 1 33.41820943278986 29.729070641387604 6.154465808008502 0 0 0
39 1 1.2583294049033145 32.46528207523883 3.4350189427715003 0 0 0
42 1 7.903464209922792 32.35845328915211 2.9577580487383215 0 0 0
41 1 6.2946086815343305 30.575418643371425 4.755851222715143 0 0 0
143 1 12.282059827680792 30.65825245409201 5.325188426857893 0 0 0
51 1 14.017948950941506 32.675018432963526 3.7043165333960957 0 0 0
820 1 20.396759597288067 32.629112964237365 3.1909900824026054 0 0 0
895 1 18.997568192170778 31.048482475964914 4.885236482434419 0 0 0
819 1 27.103287799189513 32.538534720623815 3.2666070296402165 0 0 0
818 1 25.32722356102395 31.212126425818866 4.609512050612199 0 0 0
823 1 33.020169461863546 32.689316282663 3.06722733550006 0 0 0
898 1 31.60479249506381 31.24328573062404 4.864631021405344 0 0 0
47 1 2.883591356453889 33.97449680432679 4.740126387800756 0 0 0
46 1 4.654319335284686 35.59754673366628 3.3769375689558143 0 0 0
148 1 9.251689481744206 33.81250341976357 4.847951319475868 0 0 0
49 1 10.583191144394991 35.4932812911256 3.0936913023861767 0 0 0
150 1 15.902630354537745 34.38306281395255 5.11573767091416 0 0 0
900 1 21.76810553432849 34.3337273046555 5.0739335518095245 0 0 0
821 1 23.46399998054934 35.57529231625401 3.5218657269005877 0 0 0
827 1 29.915186598738337 35.91515962922966 3.4437730450570845 0 0 0
901 1 28.44404113491049 34.47953483966525 4.977155489104674 0 0 0
59 1 1.5794128212235021 38.79027573093515 3.293698678762137 0 0 0
151 1 6.043530293849653 36.91963932956304 4.937110812323517 0 0 0
62 1 7.355086992893932 38.71423632977957 3.277148429741678 0 0 0
56 1 12.141649001536877 37.26339038183416 4.822858064200372 0 0 0
64 1 13.671558544530173 39.190289356920175 3.5983604657948933 0 0 0
58 1 17.238236815867584 36.274102421778466 3.6133324805424447 0 0 0
155 1 18.559614507459724 38.01885472847741 4.9848467347390475 0 0 0
830 1 20.26546333477996 38.90505738578372 3.2717424363934677 0 0 0
906 1 24.95407867983011 37.23885274986931 4.955075540858133 0 0 0
826 1 26.82149359766559 38.54929926524599 3.6332960019268077 0 0 0
829 1 32.00500211157393 37.21231708996109 4.8301740067964785 0 0 0
61 1 2.9389732865922635 40.47589466560646 4.627839059499346 0 0 0
68 1 4.4139953501307225 42.15006286109569 3.006084368576283 0 0 0
63 1 9.24873901661196 40.415866772447885 4.651390894436522 0 0 0
69 1 10.996942243718994 42.124007403225605 2.967274914784048 0 0 0
65 1 15.343060217086192 40.84143599748785 4.825377472739834 0 0 0
835 1 23.491169897172618 41.78558489571748 3.492559541282483 0 0 0
910 1 22.045230886189852 40.298833365398906 4.98298647374791 0 0 0
838 1 30.125645991267184 42.20666201609636 3.2602083366356185 0 0 0
913 1 28.709261900407 40.328851400069 4.8343048412544585 0 0 0
834 1 34.19824066454809 40.420507350276765 4.706556880752077 0 0 0
74 1 7.378901250723389 44.969411106026485 2.973599993482122 0 0 0
164 1 6.135030041263817 43.6722840944543 4.906036040084127 0 0 0
167 1 11.917106345453776 43.62024984316075 5.011991744183342 0 0 0
76 1 13.430630202610375 45.1612550660703 3.2402142161669594 0 0 0
70 1 16.794442525695484 42.63315008208491 3.020538085563912 0 0 0
71 1 18.584813198393405 43.57841539315872 4.7805091190001034 0 0 0
840 1 20.095982165965125 45.23430246988329 3.285646889136239 0 0 0
917 1 24.95471341346286 43.49247936854941 4.976179537585324 0 0 0
919 1 31.597345553010182 44.10894618270275 4.8547461597749 0 0 0
72 1 1.2693861735365424 45.69116396507111 3.2309759605266444 0 0 0
169 1 2.69594347431767 46.89090037742113 5.170807766788712 0 0 0
75 1 9.28206616312064 46.80840713957542 4.776735644987554 0 0 0
77 1 15.237045776095274 46.76067033391547 4.801960214183481 0 0 0
841 1 21.879440245710217 46.773522721133034 4.42256459611438 0 0 0
846 1 23.476965994644438 48.287591208243484 3.263279165823751 0 0 0
842 1 26.694174504385163 45.378583975301694 3.4657260276322974 0 0 0
843 1 28.401906825252198 47.180444596810716 4.738215569815203 0 0 0
845 1 33.013085281516226 45.57991331825727 3.1807455535543205 0 0 0
78 1 4.098818422341914 48.594406462002325 3.086650528259193 0 0 0
79 1 5.907088164780204 50.02566932168183 4.767184011811523 0 0 0
86 1 7.609594972424297 51.31681999818662 3.229957782617284 0 0 0
81 1 10.810253649397303 48.48956596356723 3.0997318894154073 0 0 0
82 1 12.588896201591496 49.848194379025486 4.6363089815415375 0 0 0
84 1 17.027672179012104 48.33996433889176 3.354554310138609 0 0 0
179 1 18.56895633532471 50.03357141487572 5.04195697268904 0 0 0
849 1 20.680000519729905 51.20427493890756 3.5788525125608284 0 0 0
926 1 25.023619474807145 49.83520825127816 4.978136332071081 0 0 0
847 1 30.02186605310657 48.60562013894625 3.0803993722777987 0 0 0
848 1 31.870392680257467 50.03453692145125 4.738639624639474 0 0 0
279 1 -0.19985535743836516 1.7419441156834647 8.046242354103613 0 1 0
180 1 4.175577015100674 -0.11106422350102702 6.309409266425432 0 1 0
181 1 6.1406716473247585 1.7245669270601023 8.010101755338559 0 1 0
182 1 11.16983948592836 0.17561890309150652 6.3465400546951996 0 1 0
187 1 12.789106587011371 2.082058616446183 7.724823650537957 0 1 0
284 1 13.908718438893715 0.3716394202687088 9.348763703235909 0 1 0
183 1 17.17328672510866 -0.15202509876667528 6.840305184777939 0 1 0
285 1 18.817431370475816 1.7643778240337409 8.078296052635872 0 1 0
930 1 23.830708408281122 0.3872940232016766 6.438180996140691 0 1 0
1003 1 25.488710623768576 1.5905808188158135 8.366908474537679 0 1 0
932 1 31.642438956896193 1.153821711522 7.819605013007717 0 1 0
184 1 1.125491409609485 3.8055563604124956 6.553476727021368 0 1 0
191 1 3.276825194905955 5.210329824713017 7.956985451185133 0 1 0
186 1 9.42023169560879 4.963838561078926 7.477110362464827 0 1 0
287 1 10.94838633540051 3.478850885675145 9.287473697252475 0 1 0
189 1 15.779239738282765 4.81123977973426 7.873419998666506 0 1 0
933 1 20.31544125096296 3.056274593529998 6.344745797706265 0 1 0
1006 1 21.78429850173634 4.341454999532828 8.297398711288999 0 1 0
936 1 26.75468269351618 3.243717970028916 6.716136490403821 0 1 0
1008 1 28.67810037615605 4.560247581059695 8.23916143271373 0 1 0
938 1 33.02162461818208 3.0264698283451943 6.278831433893028 0 1 0
291 1 -0.1519488075136329 8.030143986644827 8.171080525082797 0 0 0
104 1 6.384822802085866 8.587146504878687 7.898317420767556 0 0 0
293 1 12.60610550176119 7.705322442225654 8.048540058974485 0 0 0
193 1 17.757585921473733 6.873594512512004 6.720127498394951 0 1 0
939 1 23.488162259760443 6.198564180792887 6.802884960753778 0 1 0
1012 1 25.27109086668941 7.810211827203133 8.389465894848826 0 0 0
941 1 29.788858650157653 6.206765527743146 6.770461443189671 0 1 0
1014 1 31.679602914525645 8.020110336183475 8.153986999612984 0 0 0
102 1 1.241576527945661 10.084085863607559 6.47081177584008 0 0 0
199 1 2.9717652969859247 11.846442991898318 8.11896597380195 0 0 0
103 1 8.275062456788845 10.17871854034326 6.462965868344753 0 0 0
201 1 9.802687344769529 11.767441151619028 8.126735972394746 0 0 0
105 1 13.786920784358117 9.85803924249003 6.478173588696251 0 0 0
110 1 15.548791658331242 11.740830783359902 7.931031492936247 0 0 0
863 1 20.6041572123901 10.279301820736361 6.777967056566697 0 0 0
942 1 19.202058498065725 8.929341741158336 8.464030368400396 0 0 0
947 1 22.26827919703918 11.718729346355907 8.336345047365844 0 0 0
865 1 26.646211299298056 9.6884808320089 6.720163633141002 0 0 0
944 1 28.377956600847096 11.349503662189106 8.067507512026495 0 0 0
867 1 33.668520746225816 9.760158471155716 6.666226215506077 0 0 0
203 1 -0.043012709017369005 14.869262613274278 8.413288328169473 0 0 0
107 1 4.4764369748002055 13.336783418978891 6.313509521940145 0 0 0
205 1 5.960984613235936 14.579792818194594 8.23603275464596 0 0 0
109 1 11.006126506458207 13.671883598655953 6.350225842421188 0 0 0
111 1 17.407156027302054 12.98706690208554 6.385721516048 0 0 0
950 1 18.917082914046897 14.78171222233312 8.14087550239105 0 0 0
869 1 24.215492431115827 13.208833698453704 6.683555326211551 0 0 0
952 1 25.638223130367063 14.806546634831781 8.210342839542385 0 0 0
871 1 29.96436222721454 13.07198347520628 6.543827519138134 0 0 0
953 1 31.444443728729627 14.688193597150374 8.297078103375242 0 0 0
112 1 1.471420962439637 16.64524599141446 6.859937906694464 0 0 0
113 1 7.6987384269728985 16.500967935963367 6.563095934981464 0 0 0
114 1 14.37003110352124 16.35479683981988 6.502911475999392 0 0 0
208 1 12.592406097143073 15.301751912459071 8.151871093639347 0 0 0
215 1 15.97946069903847 17.93225455112264 8.15501403944501 0 0 0
872 1 20.73773989321971 16.31255879426269 6.786112254448128 0 0 0
874 1 27.14890374165068 16.632324845738136 6.519313188227549 0 0 0
876 1 33.03849281601588 16.38798510670597 6.646350909625562 0 0 0
962 1 34.465385299865396 17.748350042890973 8.529939784567249 0 0 0
212 1 2.803467543542621 18.37693413698457 8.373224260336109 0 0 0
117 1 4.687465696107966 19.904941250728502 6.819605423698524 0 0 0
119 1 11.447923103237592 19.579010947363738 6.330312456552698 0 0 0
120 1 9.610127845956857 18.137321202783593 7.916063707443088 0 0 0
121 1 17.234705322665338 19.740147505448576 6.620403491948017 0 0 0
957 1 22.36063120458973 17.964452004029518 8.186317743727516 0 0 0
878 1 23.64171126449478 19.682449606685854 6.587011028445249 0 0 0
881 1 30.087876614754954 20.040818553414553 6.540434884716778 0 0 0
960 1 28.676499281009907 18.28599322662313 8.199529641725706 0 0 0
122 1 1.4734810108075902 23.013680156730246 6.814478354872349 0 0 0
125 1 7.944284368525706 22.51601979548444 6.736152293946052 0 0 0
217 1 6.210984970987207 21.33636500826034 8.28947301723302 0 0 0
128 1 14.070000507171748 23.243226544118297 6.662404210704091 0 0 0
219 1 12.642474100922078 21.2012239810604 8.106463438520306 0 0 0
883 1 20.722237675971765 23.386143292993395 6.689091779118543 0 0 0
882 1 18.995932473243247 21.49035095837155 8.010325027686823 0 0 0
886 1 26.90450305028255 23.081186227901497 6.637856372086303 0 0 0
964 1 25.31593006128135 21.31097919153616 8.33881122351932 0 0 0
890 1 33.260439494656865 23.593316359969638 6.3894430038305305 0 0 0
966 1 31.83787006578858 21.677514200238765 8.303032830796692 0 0 0
222 1 2.759879035980329 24.56772525189705 8.402748428051922 0 0 0
130 1 4.5012016580736605 25.652808682527517 6.435076070445189 0 0 0
133 1 10.594693213248991 26.222662542094415 6.835103785773582 0 0 0
226 1 9.44920726511734 24.45324841179776 8.273038264932092 0 0 0
227 1 15.639425140036524 24.563957960428688 8.359189386907513 0 0 0
134 1 17.190771035547407 26.21598768969626 6.647486410500961 0 0 0
893 1 23.871520419202792 26.833974481587603 6.533124965227864 0 0 0
969 1 22.610509196125655 24.80449415510024 8.204032272802268 0 0 0
970 1 26.982967043017275 26.224452809887485 9.247319215154862 0 0 0
889 1 30.020953613754678 26.1633481819726 6.416792659222554 0 0 0
888 1 28.6149716359566 24.50760065242529 8.020468069060117 0 0 0
972 1 32.9944547547863 26.383774356360753 9.18400208210088 0 0 0
136 1 -0.22205968368240286 27.501968307411936 7.880794209091899 0 0 0
137 1 1.4645677798539487 29.046383760878378 6.273353702786027 0 0 0
139 1 7.9212831552407525 29.30512240491617 6.487802287565752 0 0 0
140 1 6.214056029518007 27.40611786890847 7.852426869641594 0 0 0
141 1 14.398231408940633 29.291153260858266 6.698067811045085 0 0 0
232 1 12.784570925728536 27.570624006742733 8.240688354842344 0 0 0
233 1 18.707033135119065 27.955420103963874 8.13069223716473 0 0 0
892 1 20.45743308008074 29.552906071279715 6.667806775281832 0 0 0
897 1 27.175984008825516 29.713260970608502 6.392950829864896 0 0 0
973 1 25.575668818538507 28.170164859354607 8.075537306820687 0 0 0
894 1 31.587912920475198 28.23633092306488 7.734698290245584 0 0 0
4412 1 0.06502633031682326 32.65232095235794 7.007832356014847 1 1 2
235 1 1.7131908752756868 32.452527648854385 9.364135552785068 0 0 0
147 1 4.495068038065244 32.61762167511549 6.374161832313968 0 0 0
142 1 3.5827093458738446 30.545088589003395 7.836465202248107 0 0 0
237 1 9.257401210588858 30.910705950299125 8.113454207133326 0 0 0
144 1 10.760300116525187 32.38843586512208 6.568965146028342 0 0 0
145 1 17.53689684299461 32.54655166866162 6.6872913063355135 0 0 0
241 1 15.68851477987563 31.210677193396336 8.192596036447464 0 0 0
896 1 23.44994677485493 32.47297499545185 6.432004833725511 0 0 0
976 1 22.036993334625816 30.96763422902576 8.339960946230736 0 0 0
903 1 30.117814555302495 32.81954282929459 6.526737017771118 0 0 0
979 1 28.63088921393806 31.128402402462925 8.1204511885258 0 0 0
146 1 1.212382923009662 35.58440281166408 6.208508348038322 0 0 0
242 1 5.951601669436883 34.241312297420976 8.25653923484203 0 0 0
153 1 7.646344994134235 35.64239871890956 6.530559773203222 0 0 0
149 1 12.376173951290989 34.0476609878406 7.911965003183575 0 0 0
154 1 13.920137940057705 35.76566720645744 6.688169859318625 0 0 0
246 1 18.834453153714264 34.30747109942418 8.095445503934902 0 0 0
905 1 19.995885719212225 35.94553238031406 6.535196293115509 0 0 0
907 1 26.725794098107993 35.86469327215292 6.468418213523688 0 0 0
902 1 25.343975489281124 34.21320913279564 7.979514052790545 0 0 0
985 1 30.185945679429548 35.97409710461332 9.25748882326882 0 0 0
909 1 33.61599975815193 35.86229420143913 6.356169466336728 0 0 0
904 1 31.951521374280297 34.10204605554776 7.921037164858861 0 0 0
152 1 2.8937467670981882 37.305105436587326 7.953996097104614 0 0 0
157 1 4.4514309958886304 38.86618449685007 6.467671869925854 0 0 0
158 1 10.539033737499413 38.86776559965237 6.572557330436835 0 0 0
249 1 9.417783929346092 37.273478666252515 8.114638266696087 0 0 0
159 1 16.701791928289463 39.16085346087051 6.643148466467957 0 0 0
251 1 15.684709727687101 37.46985317844364 8.464702436163549 0 0 0
987 1 20.737509039136533 39.12698714089815 9.314429338765489 0 0 0
911 1 23.601211506152577 39.02241901054154 6.792458704270744 0 0 0
984 1 22.22982831494454 37.329430871357516 8.220649553304089 0 0 0
912 1 30.260139867942804 38.70276682573606 6.31716616340521 0 0 0
908 1 28.480431327687835 37.47804118856514 7.984818579971831 0 0 0
162 1 1.3784787801947502 42.19693292887939 6.193619465087662 0 0 0