LAMMPS data file via write_data, version 29 Oct 2020, timestep = 200000

4608 atoms
1 atom types

-0.09807514718508159 57.368585147184206 xlo xhi
-0.08717790860902852 50.99429790861084 ylo yhi
-0.08717790860902852 50.99429790861084 zlo zhi

Masses

1 18.015

Atoms # atomic

31 1 -0.007376966247024289 0.27053802190189086 -0.07161222051708228 0 0 0
29 1 4.6788257916505795 1.917890039796038 1.4422657204632814 0 0 0
25 1 3.247732175301848 0.044768990360922606 3.008493621736643 0 0 0
287 1 6.311871707158245 0.31580309246731025 0.19044666016211664 0 0 0
285 1 11.54267156729947 1.539900352174978 1.2794931572974553 0 0 0
281 1 9.870910749767528 -0.07337302706111615 2.8048917887824087 0 0 0
541 1 18.039666475696002 1.133984997026646 1.7481534755865478 0 0 0
544 1 16.186510561580853 2.5296973082828558 0.3561920885725329 0 0 0
30 1 1.5570190598670561 5.054176677581133 1.410614241487702 0 0 0
26 1 0.03891225491963349 3.385188680374699 2.828884412918248 0 0 0
286 1 8.026478540466359 4.682631124942432 1.340771138527758 0 0 0
542 1 14.780979552217312 4.7032557496040095 1.425251693352179 0 0 0
538 1 12.900989065968488 3.4063864802765167 2.9639422673470666 0 0 0
61 1 5.141532841254289 8.097528364122631 1.4459100978524944 0 0 0
57 1 3.3538568243246907 6.49104234224383 3.0481377693627367 0 0 0
313 1 9.36924687740104 6.418926235153393 3.08825537046023 0 0 0
319 1 6.472152946543161 6.36166226790271 0.11186851837835893 0 0 0
317 1 11.10614647472009 7.959185775838954 1.6414469527907747 0 0 0
575 1 12.474176226002175 5.937844906088134 0.10132705934142905 0 0 0
573 1 17.92079236644185 8.271368739621067 1.7243897596947024 0 0 0
62 1 1.850369110158846 10.878465926157661 1.60213592350198 0 0 0
64 1 3.388547699833899 9.434383937387874 0.11040751100069457 0 0 0
318 1 8.025246498357236 11.157047489509944 1.619294300762512 0 0 0
570 1 13.090234899294185 9.493762970137428 2.9129899789304474 0 0 0
574 1 14.490099099336632 11.18237807734933 1.398666110441692 0 0 0
93 1 4.751636158617826 14.312010703758279 1.5149006190603513 0 0 0
349 1 10.883843105546292 14.427977028367733 1.717744107979614 0 0 0
605 1 17.18777095257489 14.488742932330156 1.4886697111582183 0 0 0
94 1 1.6581038468078164 17.468566316996757 1.7137036266853347 0 0 0
96 1 3.002833740565365 15.662515207783624 0.01841406735043112 0 0 0
350 1 7.94174212848168 17.305287732005322 1.5093043528373122 0 0 0
606 1 14.223814922849668 17.539853515383047 1.487861455256257 0 0 0
125 1 4.725295098026909 20.486745166948747 1.557935500082856 0 0 0
383 1 6.440883007914413 19.000622323475216 -0.0738649704920249 0 0 0
381 1 11.301111527280833 20.43571007212349 1.510470181180605 0 0 0
377 1 9.685171284936757 18.854021360113443 3.014106992086018 0 0 0
639 1 12.591237623660248 18.850311340613132 -0.05358959163773136 0 0 0
633 1 15.985578273572042 19.08225808264885 3.0375855325101173 0 0 0
126 1 1.4950680297778531 23.805953268243627 1.71176056336802 0 0 0
128 1 2.972250452766989 21.996228673601895 0.2166669593526801 0 0 0
378 1 6.518700438003817 21.92083557282487 3.0292760312145512 0 0 0
382 1 8.123515883817248 23.699392745596175 1.2356981445165591 0 0 0
384 1 9.64837322417813 21.91967534206301 -0.07457983286698067 0 0 0
640 1 15.359184254453206 22.398827758297422 0.10516193956739875 0 0 0
637 1 17.28324261789027 20.971366938617606 1.5571129317827401 0 0 0
157 1 4.8825301094592595 26.930352330508665 1.653825040775415 0 0 0
153 1 3.1162486997122527 25.311378128060454 3.0135906837681 0 0 0
415 1 6.314228238417429 24.987580719840153 -0.052479214443098436 0 0 0
413 1 10.796513613644164 26.826348714462004 1.3712900489506248 0 0 0
671 1 12.639445889890478 25.17999343962578 0.04164877833752856 0 0 0
638 1 14.222646217417445 24.01516294585958 1.980381906508414 0 0 0
1695 1 18.458067884679764 25.37402925329314 0.4619557091706713 0 0 0
154 1 -0.019852663207686305 28.862462783308487 3.0555618225381047 0 0 0
160 1 3.11379792559196 28.422192580635503 -0.06548656344999693 0 0 0
416 1 9.142647257357309 28.35821654448425 0.11860216346953933 0 0 0
666 1 12.351057944479216 28.59201279020606 3.096114608260568 0 0 0
672 1 15.220990265000706 28.582000094875852 0.48885875484711916 0 0 0
669 1 17.434847446432812 27.605209083697545 1.8896263285421326 0 0 0
158 1 1.8153451564761942 30.115063896404664 1.5707951761798824 0 0 0
191 1 0.09232640947890047 31.75262087364195 0.026952774644663127 0 0 0
185 1 3.1714915573441695 31.796449983833543 2.9015853261411464 0 0 0
414 1 7.576515725946128 30.03921544183073 1.5542864873687767 0 0 0
441 1 9.465412499481026 31.736572829904294 2.9250780188142063 0 0 0
670 1 13.877125650354674 30.51407302692519 1.8746919108166888 0 0 0
697 1 15.544429926275516 32.161073385456376 3.098627690179288 0 0 0
1727 1 18.950952052758637 32.11503320624043 0.21535729528159397 0 0 0
192 1 2.903696163308077 35.003702920877835 -0.07920209940472489 0 0 0
189 1 4.642809614629743 33.466414086636405 1.2839031095661473 0 0 0
445 1 11.209225720604826 33.44042405801293 1.2451911122548118 0 0 0
701 1 16.99216759167595 33.94828820164833 1.2983205310568389 0 0 0
1722 1 18.778042369477042 34.8911798067874 3.053872007745424 0 0 0
190 1 1.5060970331719978 36.99862294353934 1.5082299642938606 0 0 0
479 1 5.957148466830905 38.17289723946513 0.007151430663576264 0 0 0
446 1 7.600270182527948 36.27868251643922 1.2515003077115405 0 0 0
473 1 9.498655956422493 38.113060549363944 3.050108009504438 0 0 0
702 1 13.636802316392089 36.47004472692282 1.517445021259786 0 0 0
729 1 15.438681703779082 38.06544361813152 3.0752692359446185 0 0 0
221 1 4.328424144365702 39.89457495402406 1.3642669552856266 0 0 0
474 1 6.132153044603073 41.32224369350939 3.040580361942014 0 0 0
224 1 3.1195738281710605 41.826983365965624 -0.006916640591804635 0 0 0
477 1 11.023005929928557 39.789997726132555 1.3773154671411771 0 0 0
730 1 12.797182038334183 41.14521441761084 2.910033978912533 0 0 0
736 1 15.93045440695387 41.45256322585282 0.14077351098768276 0 0 0
733 1 17.224811569620567 39.6407717740425 1.6314979897484105 0 0 0
222 1 1.3901822269346855 43.41700303385471 1.6887961333088861 0 0 0
478 1 7.830384596970167 42.61015209297047 1.5072143431851057 0 0 0
511 1 6.404490792898998 44.496020331033336 0.18994504488296116 0 0 0
505 1 9.559521301569347 44.35062281618522 2.8202875305711066 0 0 0
734 1 14.179766246935577 43.01132041169453 1.278776826094724 0 0 0
761 1 16.084589744176057 44.2900776947258 2.78635470889946 0 0 0
253 1 4.748771031427842 46.532577528763525 1.30454331316585 0 0 0
249 1 3.3579188628079986 45.0565764583771 3.0973113273124375 0 0 0
506 1 6.649779571314453 47.769432727090496 2.7486725913714714 0 0 0
509 1 11.280556106142829 45.59845975629506 1.1123690908596255 0 0 0
762 1 13.027152656889593 47.68405245729382 2.777832840983881 0 0 0
765 1 17.930622614404733 46.05012123226608 1.60009677959102 0 0 0
768 1 16.170832776580834 47.68545027586408 0.03752439689161946 0 0 0
254 1 1.638220941736845 49.7641195309393 1.3593687458221004 0 0 0
510 1 8.208250511767071 49.4915072582164 0.9737339733332164 0 0 0
543 1 12.798412026964524 50.679567313113814 -0.008099529192016897 0 -1 0
766 1 14.665760924484323 49.4689015765454 1.5698453866345183 0 0 0
27 1 1.4783572218593617 1.4809596672479108 4.739930055800125 0 0 0
283 1 8.494180990586958 1.5753547068424072 4.732103850579948 0 0 0
279 1 6.6086880170851465 -0.012220647544325378 6.163851015477156 0 0 0
539 1 13.992198197934874 1.255480683807759 4.747273382016909 0 0 0
537 1 16.144318971968033 -0.07888390044505655 3.466293652671526 0 0 0
28 1 4.705094438818706 4.725489201012758 4.5830228119454475 0 0 0
282 1 6.496517888094798 3.064127877517854 3.175974571356643 0 0 0
284 1 11.218386920254671 5.059747892828863 4.6196469321238744 0 0 0
536 1 15.749644744369922 3.133544246830111 6.19648293760197 0 0 0
540 1 17.6033424758636 4.376650875840639 4.655053470679435 0 0 0
59 1 1.7076244817852078 8.025643717346568 5.12807903135855 0 0 0
315 1 7.919304198654796 7.881727966184112 4.8319824752882 0 0 0
571 1 14.573844237802197 7.7359239280439835 4.7719491486974155 0 0 0
569 1 16.104690034713407 6.206616343349628 3.123345898475631 0 0 0
58 1 0.0036225635701134795 9.688066742819807 3.2947259480096363 0 0 0
60 1 4.915593234695194 11.277153382749635 5.087847829402164 0 0 0
314 1 6.560119717118734 9.658640255637316 3.532030567369096 0 0 0
316 1 11.65907409813239 10.952041540281867 4.59978355181699 0 0 0
312 1 9.825893826140225 9.513972099397765 6.181552738510352 0 0 0
572 1 17.431324821350632 11.112773459796172 4.889146124204137 0 0 0
91 1 1.7096793570562754 14.378085769356433 5.082733635431429 0 0 0
87 1 -0.0014383913866641285 12.622549491905355 6.225546624777407 0 0 0
89 1 3.3507005690837115 12.797025992580389 3.336725091444998 0 0 0
347 1 8.164233536751329 13.881675109477763 5.004604263236984 0 0 0
345 1 9.734434692867465 12.421644922985577 3.369768845927434 0 0 0
601 1 15.750466722186458 12.757680942160679 3.4647706311551927 0 0 0
603 1 14.274567064219728 14.607055730617567 4.931041372724101 0 0 0
90 1 0.017587619749349415 15.789291417322014 3.3363942572582115 0 0 0
92 1 4.729796934180723 17.0105870393281 4.704284088233443 0 0 0
346 1 6.420321364283595 15.60194345419478 3.240902087853248 0 0 0
602 1 12.638655512616847 16.06439484539067 3.51085177431574 0 0 0
348 1 10.807986799041807 17.579009908599712 5.1033072727174265 0 0 0
604 1 17.387500859954937 17.57235181777698 4.916161033401656 0 0 0
1626 1 18.875542447016755 16.144863895862205 3.258094686398412 0 0 0
119 1 0.018396424866214872 18.85510314125541 6.14637180726946 0 0 0
123 1 1.7007885085902839 20.395640331042234 4.542967830201769 0 0 0
121 1 3.3629113729934925 18.846067444204042 3.300893256248223 0 0 0
379 1 8.141290083035075 20.653729242727593 4.756877901749896 0 0 0
375 1 6.438350066030573 18.759493397879794 6.118075702552469 0 0 0
635 1 14.601973727937366 20.639795177328992 4.96661541630398 0 0 0
120 1 3.813611096813788 21.890581681865957 6.102154117349406 0 0 0
634 1 12.491116177539359 22.00346137516251 3.597183542461693 0 0 0
380 1 10.973177838026285 23.729300030726236 4.83783694784763 0 0 0
636 1 17.73275749250053 23.88701878127288 4.955865973047822 0 0 0
155 1 1.4492369265354699 26.91724141490655 4.478285312068811 0 0 0
124 1 4.72367871663124 23.95791032005868 4.6435228150810826 0 0 0
409 1 9.46835555554414 25.149791533688386 3.121144850529829 0 0 0
663 1 12.584993966175137 25.38435858510422 6.177464326724701 0 0 0
665 1 16.102594897430436 25.718918165875262 3.3882587494370875 0 0 0
410 1 6.268252546595193 28.249124949461173 3.2100804502392717 0 0 0
152 1 3.1263786085655028 28.633623092070273 6.2193898741330935 0 0 0
411 1 7.867042333748873 26.97509168555026 4.799528016793109 0 0 0
667 1 14.125080824958061 27.098050627050647 4.956742319850273 0 0 0
1690 1 18.752906956314998 29.34558005020047 3.2576965004440206 0 0 0
183 1 0.14580935172788942 31.96890281875271 6.180333494129063 0 0 0
156 1 4.680151253749136 30.190782043785685 4.736798034671071 0 0 0
412 1 10.752467092758591 30.192359176195804 4.841420111730478 0 0 0
668 1 16.899749654105165 30.484711048917035 4.9118339826104265 0 0 0
1719 1 19.029685418596742 31.68351904894092 6.164934121266914 0 0 0
186 1 -0.06110563270761763 35.324777784336 3.126794393931177 0 0 0
187 1 1.614915691590918 33.51316645650555 4.463433817382365 0 0 0
184 1 3.056824691766552 34.92507755203641 6.244023824750975 0 0 0
442 1 6.359522524133079 34.984812789402035 3.179083711510726 0 0 0
443 1 7.867299738257207 33.18845242997434 4.601073086894131 0 0 0
440 1 9.311559410257319 35.076321777219206 6.140033595965094 0 0 0
698 1 12.127079149387336 34.93290920408567 3.2847733446134804 0 0 0
699 1 14.064821297375198 33.41439953563587 4.832657213753112 0 0 0
217 1 2.9290720301401127 38.1953466340578 3.4431905558682767 0 0 0
188 1 4.82823989819618 36.68304350837736 4.859195350766391 0 0 0
444 1 10.917500432082857 36.666371723416006 4.753058771019786 0 0 0
700 1 17.113504009103398 36.49218857281573 4.7790580652197185 0 0 0
1751 1 18.87116440371294 38.55338970004577 6.149125164186306 0 0 0
218 1 -0.012870772634038782 41.47801392158656 3.1066429351900093 0 0 0
219 1 1.3540454416169723 39.68381153556244 4.845384137699866 0 0 0
475 1 7.863185209606316 39.73032370303049 4.716910103185902 0 0 0
472 1 9.590229764173454 41.34374803529094 5.959693594733321 0 0 0
731 1 14.182505814257988 39.3595941941051 4.9355309704613255 0 0 0
1754 1 18.762225325420605 41.330125943341734 3.3146633258426763 0 0 0
220 1 4.404989984544931 42.826903701649734 4.578932852800761 0 0 0
503 1 6.365149963257517 44.65792530132576 6.275354642468423 0 0 0
476 1 11.381688791365136 43.11286692301606 4.615970399975876 0 0 0
732 1 17.37006045529596 42.786045685413704 5.10849561021284 0 0 0
251 1 1.3625636110299062 46.73368905157651 4.822387422632166 0 0 0
507 1 8.00540661952688 46.0525918187296 4.339981239291939 0 0 0
504 1 9.636474534103115 47.889062628284435 5.743701672592195 0 0 0
759 1 12.996889664820674 45.014519274342966 5.9907929146700525 0 0 0
763 1 14.710043406626347 46.16207799331817 4.3994294695135965 0 0 0
760 1 15.979514133907443 47.73684704584177 6.139016114615526 0 0 0
252 1 4.891925117376942 49.46840278316098 4.339173998888064 0 0 0
248 1 3.5084950677851965 48.13493491461241 6.2223717214878365 0 0 0
508 1 11.16561798993855 49.199874117795474 4.141219371903185 0 0 0
764 1 17.952892386912048 49.79402289010633 4.9886197084010675 0 0 0
21 1 4.589541256418479 1.317123024450493 7.85054893045347 0 0 0
277 1 11.491147888812645 1.250446164793076 7.869977114245466 0 0 0
273 1 9.494324619027072 -0.03013569146025219 9.38752965684381 0 0 0
533 1 17.45351991956343 1.9504598469113157 7.941942532731741 0 0 0
22 1 1.8207685110081915 4.83915001255225 8.178728060008986 0 0 0
24 1 3.204201221978738 3.2388912469417512 6.383945486209968 0 0 0
278 1 7.855852281051354 4.1688706450779085 7.859900266021301 0 0 0
280 1 10.017969778568204 3.160087792380303 6.3916959731469145 0 0 0
534 1 13.936219713065949 4.874069963830525 7.775882446001431 0 0 0
55 1 0.19699378516316834 6.254120105402542 6.677528752080202 0 0 0
53 1 4.475251310529505 8.128519225669594 8.065636511039932 0 0 0
311 1 6.185914150824345 5.965377213300429 6.500718294442433 0 0 0
309 1 11.046597494749166 8.011337495928515 8.095845185500457 0 0 0
305 1 9.622120698114808 6.101296986262453 9.415079698131812 0 0 0
567 1 12.800683119999634 6.685523357735566 6.416767976253504 0 0 0
561 1 15.653680312525196 6.38066484733855 9.341271535209698 0 0 0
565 1 17.679188619082833 7.750224837972904 8.095510474730117 0 0 0
54 1 1.501401362390569 11.33637157831288 7.898886285048174 0 0 0
56 1 3.0363260899635116 9.752983328831974 6.637565291254963 0 0 0
310 1 8.361429142699622 11.261706427385501 8.184079045036817 0 0 0
566 1 14.438766634359483 10.904955427068591 8.04345126083153 0 0 0
568 1 16.179232309173454 9.309420401498674 6.41990302964094 0 0 0
85 1 4.770439243754821 14.335715815776869 8.046286791686951 0 0 0
343 1 6.435286719398017 12.704982616049588 6.554024360347346 0 0 0
341 1 11.315169338865203 14.328895688722978 8.06292444278349 0 0 0
599 1 12.850625395355033 12.57018094866212 6.371474346708884 0 0 0
597 1 17.756591371441132 14.291141091201773 7.893996657339537 0 0 0
82 1 0.011793042845098967 15.666152293167988 9.440773652096462 0 0 0
88 1 2.9928470398180247 15.92822841933847 6.667015319265058 0 0 0
86 1 1.4148622029040918 17.49086881246092 7.993815580487357 0 0 0
342 1 8.247495143218565 17.56627966556868 8.07713739361376 0 0 0
338 1 6.589152406416398 16.051588867204885 9.356089904647572 0 0 0
344 1 9.665377341519367 15.814039048112148 6.537630878226369 0 0 0
600 1 15.840050631525525 15.924470588114232 6.623565661542879 0 0 0
598 1 14.385642931169352 17.439941459565784 8.439363890022122 0 0 0
117 1 5.035846007009981 20.34823718631292 7.984302834219617 0 0 0
113 1 3.381372505595352 18.825916549549657 9.41700292701352 0 0 0
369 1 9.705627343516671 19.244723367606124 9.44811162327151 0 0 0
631 1 12.992365393276971 18.923586435614272 6.505362203714305 0 0 0
1655 1 18.89995539323 19.30741625091585 6.395642303130439 0 0 0
114 1 -0.011066582638783296 22.160618399451995 9.23209407233048 0 0 0
118 1 1.948787273350859 23.793230870178498 7.625988253723492 0 0 0
374 1 7.689240215536709 23.775208448259143 8.080482123911796 0 0 0
376 1 9.474052941362933 22.255280921984664 6.3784475604317725 0 0 0
373 1 11.234927790269358 20.966411641261285 7.878298108963712 0 0 0
626 1 12.776525777596763 22.310672491732877 9.488674583312589 0 0 0
629 1 17.52553172477825 21.029245006374037 8.372371609976216 0 0 0
632 1 15.889016999762344 22.554498891360186 6.457390652494231 0 0 0
407 1 6.176554769033712 25.577523606597257 6.521173279727031 0 0 0
405 1 11.159361243379688 26.85873845333715 8.020036096340146 0 0 0
630 1 14.22130119288066 24.04878718312876 7.838079653255827 0 0 0
661 1 17.325132589002152 26.758414303675465 8.019201214033226 0 0 0
1687 1 19.02705544064629 25.64351627371671 6.360484079844543 0 0 0
149 1 4.495987459354426 27.042462498994123 8.038195861144828 0 0 0
402 1 6.282264300235904 28.534764642017834 9.462617901120968 0 0 0
408 1 9.634032914556096 28.602075741396842 6.379628646639413 0 0 0
658 1 12.653250626522295 28.712613241815742 9.487077850400793 0 0 0
664 1 15.88522150264232 28.79795712712065 6.728813751376458 0 0 0
1682 1 19.040709855166597 28.622594635140434 9.03844733956598 0 0 0
150 1 1.5671999271999482 30.30096959258499 7.762126740924715 0 0 0
177 1 3.354935137336249 31.841192094728708 9.22809495051932 0 0 0
439 1 6.347970927623691 31.70899147890854 6.472484402836988 0 0 0
406 1 8.014800692860144 30.096632330922898 7.923695504467629 0 0 0
695 1 12.396795888278556 31.78921678317918 6.417977583377115 0 0 0
662 1 14.061510112283669 30.465889476739054 7.926229445951238 0 0 0
181 1 4.842080086540115 33.783958979828725 7.824357399870879 0 0 0
434 1 6.490638678986319 35.24305116588098 9.34198636131181 0 0 0
437 1 10.561544480368015 33.45099397955692 7.834009599757334 0 0 0
696 1 15.85142830960325 34.7573467668242 6.3992873125983945 0 0 0
690 1 13.058595498059802 34.441673435604 9.216844505736464 0 0 0
693 1 17.359658085189153 33.26209181059091 7.839252548914897 0 0 0
1714 1 19.023745187442533 35.15074616760164 9.379497600281653 0 0 0
182 1 1.4241209161233976 36.478396368716545 7.617047101209306 0 0 0
209 1 2.843116926570749 38.22030001625265 9.360990757905652 0 0 0
471 1 6.335752674437879 38.24436503366146 6.302217245589501 0 0 0
438 1 8.036203481044994 36.753954236952055 7.7383780032097675 0 0 0
727 1 12.53295058486498 38.03835406538645 6.3415878009921265 0 0 0
465 1 9.537788645052547 38.33273146402854 9.289498082563869 0 0 0
694 1 14.356999998222937 36.52159155302041 7.938576931140098 0 0 0
721 1 16.1725195495414 38.11400534144295 9.373248401155216 0 0 0
216 1 2.8566879210225653 41.20251178512961 6.436777584343814 0 0 0
213 1 4.984031543135456 39.52561605546233 8.292404679263713 0 0 0
469 1 11.388117991164213 39.735730508063924 7.695674765186253 0 0 0
728 1 15.596520887382184 41.318531583359 6.396624271675545 0 0 0
725 1 17.499136660324805 39.93701056146524 7.94204936610932 0 0 0
247 1 0.040544992647676276 44.67525885316752 6.31140448665561 0 0 0
214 1 1.461343629021682 43.09257465149306 8.004235383842918 0 0 0
241 1 3.5685661987827033 44.53597073513476 9.250585080920557 0 0 0
470 1 8.15480278545911 43.04839037137755 8.016501549714967 0 0 0
497 1 9.85286489042804 44.75914483758757 9.436341218854773 0 0 0
726 1 14.113689999910145 43.30839520266017 7.610655005241874 0 0 0
1783 1 19.01007640171396 44.697636227040505 6.343377693443134 0 0 0
245 1 4.962958995885148 46.418850959441585 7.796783928412622 0 0 0
501 1 11.160791743607392 46.40780398430815 7.549518907848463 0 0 0
754 1 12.640887956081603 47.48109858123736 9.468127689949117 0 0 0
757 1 17.35567249697373 46.34581001826568 8.154750082019142 0 0 0
246 1 1.6498864386173937 49.33097761427544 8.076945104724206 0 0 0
23 1 0.08833124189023367 50.947668091420766 6.4359291698736385 0 -1 0
502 1 7.877038105774641 49.31705181771743 7.908924575832801 0 0 0
535 1 12.814348123315357 50.62366222363476 6.31369642163781 0 -1 0
758 1 14.258770982203847 49.23464337864905 8.000305398465844 0 0 0
19 1 1.4245692798800056 1.588606202069799 11.384083276641583 0 0 0
274 1 6.179938660955587 2.781405973474254 9.607801212601991 0 0 0
275 1 7.708862456994756 1.2117283462889377 10.733962320922737 0 0 0
272 1 9.074334266280148 2.7834429850960287 12.442990402291118 0 0 0
530 1 13.03321398079046 2.8989319971742926 9.540748144602944 0 0 0
531 1 14.11050984006399 1.1893899567524215 11.246208627446071 0 0 0
18 1 0.08275550948908972 3.0822747940724353 9.699428843492441 0 0 0
20 1 4.589133662872438 4.511019056433027 11.12268463341423 0 0 0
276 1 11.072958545212249 4.318181149766482 10.976153386343407 0 0 0
532 1 16.886443666029354 4.651894304140744 11.237420739873066 0 0 0
51 1 1.3934451989685637 7.946714273356484 11.184830592141454 0 0 0
49 1 3.2000197486836846 6.561145940097484 9.927158411674469 0 0 0
303 1 6.168839321499309 6.4647846445699555 12.596353477864579 0 0 0
307 1 8.136812563693207 8.070084548020294 11.044052482935147 0 0 0
563 1 14.296372804456013 7.578534852932741 11.521193944484338 0 0 0
52 1 4.918518220576041 11.35021961500209 11.453691930547366 0 0 0
306 1 6.268232861289499 9.634198850608357 9.83784218032668 0 0 0
308 1 11.46750984665266 10.943160961141512 11.254404578722678 0 0 0
562 1 12.845757513547118 9.088684217482733 9.94692953924547 0 0 0
564 1 17.343800097487758 10.874894487695345 11.327485828287443 0 0 0
83 1 1.624455057737289 14.269848241495534 11.004440759899934 0 0 0
81 1 3.1020343372649246 12.753399064526981 9.65291319442095 0 0 0
339 1 8.19428331725425 14.39860646908569 11.094666898436806 0 0 0
337 1 9.847493235782686 12.795297781822985 9.787953716460141 0 0 0
595 1 14.666132371995037 13.910676058886482 11.202522252334061 0 0 0
593 1 16.12043017796364 12.481480914640931 9.603714148873587 0 0 0
84 1 4.650243875726802 17.352718097702308 11.123990799397808 0 0 0
340 1 11.214887662472954 17.571677801541117 11.265600389469073 0 0 0
594 1 12.870104883927873 15.67795819065476 10.014527346329832 0 0 0
592 1 16.030395994253055 15.75145089846386 12.627419032411959 0 0 0
596 1 17.870248586473245 17.23293511076512 11.367013545106625 0 0 0
115 1 1.6472714178928052 20.454113231407934 11.00536163160936 0 0 0
371 1 8.118528344228388 20.743404223492934 11.137750298186722 0 0 0
627 1 14.313907304076979 20.55915053310349 11.220666531373245 0 0 0
625 1 16.194054383672622 18.782488271600645 9.794998680825152 0 0 0
370 1 6.1913670623799195 22.115400147627156 9.702483279651691 0 0 0
372 1 11.282359523175188 23.840495764361656 11.107837181814325 0 0 0
628 1 17.379703100570143 23.88961185976231 11.676176818466613 0 0 0
1650 1 18.933224920833286 22.617308399069746 9.933275735650293 0 0 0
145 1 2.788935238506275 25.440736699783752 9.512268794211192 0 0 0
116 1 4.55636342631568 23.96073138128257 11.167077296034476 0 0 0
401 1 9.551910026596174 25.336984080470447 9.850157488995016 0 0 0
657 1 15.859480494453514 25.28876664427433 9.764823919906233 0 0 0
147 1 1.383960093319397 27.057613265123486 10.905386445312574 0 0 0
144 1 2.974784675375321 28.834825725178185 12.576848928102317 0 0 0
403 1 8.105218281133 27.15549579661741 11.211741930253893 0 0 0
659 1 14.300150863046076 26.96012581300413 11.099307288376258 0 0 0
148 1 4.633339331200892 30.172444670190348 11.053969517069817 0 0 0
431 1 6.24986060520408 32.005446783340474 12.449750364925055 0 0 0
433 1 9.325098017169273 31.806135088040527 9.817471277292343 0 0 0
404 1 11.071194765995743 30.3947926480695 11.250517991761999 0 0 0
689 1 15.649089037670738 32.06736660274175 9.624977139569415 0 0 0
660 1 17.38336343938721 30.37625118444794 10.96442534058531 0 0 0
1711 1 18.9524964495486 31.86343198150927 12.43791425860011 0 0 0
179 1 1.508815898999547 33.520229334387466 10.83081101614382 0 0 0
176 1 2.8591453385827057 35.390803551455654 12.358510496709211 0 0 0
435 1 7.869190632031044 33.592311297601526 11.083144351201298 0 0 0
432 1 9.57681542591711 35.19070052269701 12.338653566882687 0 0 0
691 1 14.363699964499508 33.56679244188674 11.53393190205769 0 0 0
180 1 4.690813514152272 36.589982340733805 10.800221688498016 0 0 0
463 1 6.576742193340701 38.194192440466026 12.442249455412671 0 0 0
436 1 11.409139017801857 36.2135652636067 10.558537196042687 0 0 0
719 1 12.24655309025101 38.11833281677241 12.636056059630484 0 0 0
692 1 17.44469271488929 36.46078956556984 10.880705042644662 0 0 0
211 1 1.3519363771293487 40.04908235443515 11.061331573349772 0 0 0
208 1 3.2968189906153222 41.7192190418178 12.487104012348784 0 0 0
466 1 6.340269199142662 41.52705603180134 9.672732248584216 0 0 0
467 1 7.866166627785931 39.91461578903018 10.96430005366326 0 0 0
464 1 9.252962054293693 41.698265697058524 12.58057235483169 0 0 0
722 1 12.945910501432385 41.51701185868111 9.5010134882059 0 0 0
723 1 14.44065911504782 39.24824746735449 11.43078006618983 0 0 0
720 1 15.945634530019198 41.31448489608449 12.501803828604027 0 0 0
239 1 0.10103920994262736 44.68245824646391 12.596074027034343 0 0 0
212 1 5.205844187311081 43.21067754745303 11.014617554359424 0 0 0
468 1 11.164528328147435 42.99975234758187 11.266973148917497 0 0 0
1775 1 18.89384740277908 44.32764045761566 12.60793332510474 0 0 0
753 1 15.913513816123402 44.479014517881545 9.81718452452014 0 0 0
724 1 17.484318128163174 42.810093306076276 10.979128318304173 0 0 0
242 1 0.15789924045164128 47.64422964328961 9.74005942914901 0 0 0
243 1 2.1257887099919017 45.969260339486915 11.12966817045484 0 0 0
498 1 6.239634550734007 47.654002924762494 9.734376253145228 0 0 0
499 1 7.944914627021239 45.95770446291319 11.261398503724951 0 0 0
755 1 14.169948139092373 45.91554536268339 11.288348260377955 0 0 0
752 1 15.87214294802781 47.80931345101873 12.549208000475877 0 0 0
17 1 2.975684954468508 50.90110728724759 9.669714131843408 0 -1 0
244 1 4.85954356000483 49.41411244890885 11.07811028036346 0 0 0
240 1 3.467758126987333 48.063162825367 12.592299939227036 0 0 0
271 1 6.244923892665305 50.905573871776035 12.609684423428408 0 -1 0
500 1 10.983455014014778 49.21797512542574 10.882047748334601 0 0 0
529 1 15.863403696124923 50.886758892790084 9.532674895491851 0 -1 0
756 1 17.708598839507086 49.363962895846186 10.94667890870885 0 0 0
13 1 4.576960060072488 1.0542297734068744 14.19736867870186 0 0 0
266 1 5.951261945211282 2.4949790537891263 15.85815425779889 0 0 0
269 1 10.955400129577098 0.9206371097263135 13.768763581959087 0 0 0
522 1 12.461239481024059 2.3457840447568334 15.448095181400486 0 0 0
525 1 17.289088305885965 1.2709674657859835 14.5193091817189 0 0 0
528 1 15.871242876373737 2.613579133987697 12.941134771529622 0 0 0
16 1 3.087060244110921 3.0575150383799836 12.779083444872025 0 0 0
14 1 1.5111237304080407 4.858004483572156 14.499870609619371 0 0 0
270 1 7.363562498041527 4.253475490889009 14.140835709109473 0 0 0
559 1 12.728614992859793 5.826010460190438 12.70247380140196 0 0 0
526 1 14.393867964072335 4.485578763598061 14.438362108063327 0 0 0
47 1 -0.08816312402534265 6.285796018745382 12.829402653640182 0 0 0
45 1 4.998998343572916 7.929797359621167 14.444934861569712 0 0 0
297 1 9.21824416981332 6.214150936780421 15.473780546214549 0 0 0
301 1 10.98683987976535 7.602397790128251 13.994772016464715 0 0 0
557 1 17.777744852393223 7.604057359014216 14.159705683046921 0 0 0
46 1 1.6176830701035212 11.426797451312028 14.546868952518063 0 0 0
48 1 3.194293438502233 9.715362279589746 12.837184303256558 0 0 0
302 1 8.104784723003398 11.276418693426965 14.408945392127242 0 0 0
304 1 9.496347138342873 9.69690997380778 12.741874944789286 0 0 0
554 1 12.923289958198623 9.132966420814965 15.795672744863925 0 0 0
558 1 14.534368310567885 10.919833296223988 14.718796415216048 0 0 0
560 1 16.007977977093162 9.398561881895484 12.883547085580595 0 0 0
77 1 4.819082386910715 14.569259842961145 14.378369819352262 0 0 0
335 1 6.286285392519257 12.987364219501423 13.035357540400978 0 0 0
73 1 3.4477710118848672 12.733785058709135 15.75918454046241 0 0 0
333 1 11.285633581293004 13.92569661550679 14.392641593237348 0 0 0
591 1 13.167348909105334 12.430427029367609 12.953120812664906 0 0 0
589 1 17.597240998533866 14.162655751482875 14.33035278101392 0 0 0
74 1 -0.05007036295603484 16.09454742023666 15.845476899809269 0 0 0
78 1 1.6291129312680948 17.55824964489433 14.408890205701447 0 0 0
80 1 3.164946644660489 16.05303419957368 12.805694502997609 0 0 0
334 1 8.133922632401925 17.387430709887248 14.174717484185397 0 0 0
336 1 9.943246885501344 15.866790700937143 13.045837636507029 0 0 0
590 1 14.273811128821352 17.110290599508758 14.28877980637323 0 0 0
367 1 6.280314870226337 18.93192250394061 12.755554315822875 0 0 0
109 1 4.902667235434025 20.797597031793202 14.176932944049419 0 0 0
105 1 3.32164096408102 19.455649040485493 15.778524717013145 0 0 0
365 1 11.100747405976813 20.824654285220316 14.169850991267891 0 0 0
361 1 9.709845733298168 19.10127200720391 15.760775011150468 0 0 0
623 1 12.772960187949863 19.07174079476035 12.889587735849965 0 0 0
621 1 17.18823008832398 20.478449194459404 14.524245393299145 0 0 0
1647 1 18.953402649717574 18.996042841995926 12.826448923920925 0 0 0
112 1 2.9609433066585185 22.491758681908188 12.936327782300213 0 0 0
368 1 9.453513698363173 22.572549774218245 12.859473080344788 0 0 0
618 1 12.560048793445606 22.5274079787551 15.83864978646442 0 0 0
624 1 15.74425096208647 22.43051786788123 13.16084302279644 0 0 0
143 1 0.040591434539052784 25.659560295540505 12.867387727371998 0 0 0
110 1 1.4192491565602512 24.147620131724512 14.655421935036427 0 0 0
399 1 6.248428055266566 25.419023723402983 12.776401621916888 0 0 0
366 1 7.982370882147327 23.98314768580324 14.397388665312905 0 0 0
655 1 12.582532623885927 25.859787037608584 12.694338665971868 0 0 0
622 1 14.116442477579122 24.284351423039617 14.587754895529663 0 0 0
1679 1 18.82759786216002 25.613203930384596 13.04773762540804 0 0 0
141 1 4.930992121045233 27.1241458047563 14.321353729986368 0 0 0
400 1 9.4651128977416 28.8113341344467 12.929377240493565 0 0 0