LAMMPS data file via write_data, version 29 Oct 2020, timestep = 200000

4608 atoms
1 atom types

-0.13793953680142224 53.53793953680053 xlo xhi
-0.30418626929374426 51.21130626929549 ylo yhi
-0.30418626929374426 51.21130626929549 zlo zhi

Masses

1 18.015

Atoms # atomic

297 1 0.10855386033899442 43.5322868182979 17.294708651786927 0 -2 0
2511 1 7.608579525891997 2.254686133933111 4.183389815637953 0 0 0
1925 1 13.749171715437795 2.0237080270054704 1.7842974345906661 0 0 0
628 1 0.4609743503757592 5.781577101314812 5.120045525860038 1 0 -1
1139 1 11.457565774374956 42.79112108492297 1.5199523576123763 1 0 0
2873 1 14.488054530836939 -0.22567313501686243 -0.19442406711473956 0 1 1
347 1 0.44259539606758336 26.056121176047363 12.76293571907288 0 0 0
2715 1 4.836815227606343 2.10073503463642 4.3428661949184955 0 0 1
3677 1 7.206877546492198 3.4615038775315896 1.6928089125979102 1 0 0
427 1 13.58443073884387 4.617432339695243 0.8635775392655032 0 0 -1
362 1 17.1740245428716 6.647987718112712 0.8677617914153335 1 -1 1
1245 1 7.840813052692416 30.56260850371798 0.3587733232171848 0 0 1
3463 1 3.217139542773014 8.80913593150593 1.3078126204773408 1 -1 1
776 1 3.633976091276324 5.80324613135736 4.379430359933531 0 0 0
2955 1 0.02585228519461294 15.331804882387612 10.43410680623157 0 -1 1
2600 1 16.617030598813066 48.38927281911076 11.356173324549994 0 0 1
1737 1 1.5759015076859801 20.521974759452217 25.13912627531954 1 -1 0
177 1 0.20862815494609466 31.685704231290632 19.686538830746276 0 0 0
4287 1 0.5399915578315235 34.702152931523436 19.66655231041514 1 1 -1
2196 1 8.190200754615725 11.178772078024691 1.2478941142845945 0 1 1
1685 1 1.7433879332433735 18.245628171933344 14.804662429741608 2 0 0
2791 1 -0.01567497458278827 10.271158987568331 8.717752982889998 0 1 0
325 1 10.60132570182682 28.900288609011167 25.018721995459064 1 0 -1
435 1 2.0058647344680836 3.0051205034730177 18.901195548471836 0 0 -1
3305 1 12.356174748301052 12.659232307821771 4.0662324123517815 2 0 0
3876 1 10.90743928969128 33.643352871940024 4.300610016465095 2 1 0
4464 1 1.3306534890536628 11.573496374515246 23.11307470996979 1 -1 0
793 1 3.9274120338558456 14.974572974383658 3.638874486774246 1 0 0
1329 1 2.1463026679658186 50.00554057709334 12.492649274170484 0 1 0
4213 1 10.039293506630306 15.943607438061335 1.2918561114085374 1 0 2
1577 1 16.417497546542936 15.706154324289411 2.0569443581704547 1 0 1
3553 1 0.017584342589543667 47.823437708926306 0.6147000583880465 0 0 0
1387 1 6.147953598136299 18.27577444240379 1.7685391303118632 0 1 1
1125 1 8.361485463526323 17.184385354633452 3.2585973836949393 1 0 1
1426 1 -0.05428689024427058 5.108609578081467 19.384996549528143 1 0 2
734 1 15.678231714212448 19.32993524844981 1.8034689783631537 0 1 1
354 1 0.31237390378656094 7.3604205004524665 24.987636855529153 0 0 0
3887 1 2.577299102655713 18.785147400862773 2.1212344352118024 1 -1 1
1754 1 5.127119496661798 29.630665099528265 1.532465502292401 0 1 0
2639 1 3.031004448795613 21.457880611573334 1.6768535518896082 -1 -1 0
265 1 4.479039098214666 17.65562537510013 3.6719767033256208 0 0 0
815 1 14.106085570877077 7.7001702364272155 1.1023369357646786 0 1 1
1202 1 9.549462898086878 20.69700604049806 1.7164513212288361 0 0 1
3781 1 13.186641377000743 22.820545712659754 2.7205067532437437 0 1 1
1289 1 12.131686540958556 25.921915112470817 4.599827349660376 -1 -1 1
284 1 13.592602746230876 25.22456001262686 1.6955025028414505 1 -1 -1
4465 1 11.417207066558285 22.669998258064478 0.47544324928418513 0 1 1
3037 1 12.944555055685488 23.898193902614466 23.150203000773875 0 0 0
4503 1 15.731161608568918 25.268424280928688 -0.10513237530442357 1 -1 0
1156 1 5.223563314457882 26.076628614615565 3.1430136373762587 0 0 0
3668 1 9.101015695697862 32.08002449674974 24.233088311356624 1 0 0
3936 1 3.3238246929895876 3.822617291844704 2.4343081146123824 1 0 0
241 1 9.351112242529835 25.161855197539204 4.13399727853951 0 0 0
1244 1 11.269227732659138 30.179213894809966 2.6370172583357094 0 1 0
3743 1 0.6083663713199053 32.70858817659764 24.38771284701281 1 0 0
899 1 3.873315708361277 27.664150889414962 4.971600805955644 0 -2 1
1319 1 6.488113607250438 31.592146476106628 5.283628302685101 -1 -1 2
881 1 13.078272575671678 39.791171224535624 1.7144814967743858 0 0 1
4361 1 0.05093677390102988 5.365158116633811 8.804813305039945 1 1 1
3839 1 5.663307734628374 27.100935385796227 0.5373123636247235 1 0 1
572 1 2.314623391162862 31.54546234709646 1.771242917697624 -1 0 -1
2668 1 5.0160085664612994 32.976187452043604 1.6191764072142487 0 1 0
608 1 8.646786642870062 30.099315389647053 4.000174070082449 -1 0 0
456 1 9.416139271482034 31.638434087227882 5.927573670093938 0 0 0
1766 1 13.831145445901834 33.56893182564304 3.2373372221731103 0 1 -1
3132 1 15.290232414939185 30.78760345701292 5.84862586373117 1 0 0
1180 1 6.912635254527029 33.04746658825412 7.407502248348988 0 -1 0
1063 1 10.962039285979177 37.04216783353516 1.5376800849801742 0 -1 1
298 1 8.996475835575733 35.226491771955835 2.902093371262555 0 0 1
1958 1 0.4425222309597304 19.626285082895414 8.279488951885881 0 0 0
3285 1 14.763337823177974 35.803114105613524 4.538351217018593 -1 1 1
35 1 4.411384887544226 38.46179699192851 3.125591252664148 -1 1 0
317 1 2.1083168663533085 36.724525299464005 2.6724109525327413 1 0 0
1385 1 6.565226970144643 36.507152093099755 3.6503589086515644 0 -1 2
476 1 10.124993317990347 39.56734973788424 2.8208588923753153 0 1 0
3894 1 14.867479111946793 37.5450910377129 1.9737090370333803 1 1 0
1155 1 4.711458175618133 42.88007202224309 4.202704200817257 0 -1 1
2875 1 7.939808268392772 45.12298388700293 1.3356869551455457 0 0 0
1680 1 7.368411624592925 41.14590281174326 7.094958535254081 1 -1 -1
3758 1 3.2845560446803757 4.7826153580173125 -0.07489263256382273 1 0 -1
3708 1 5.450280244941324 45.31885856161196 2.5385072192859304 1 0 -1
3447 1 15.325059351602375 4.160302925716652 24.961891219603267 -1 1 0
2371 1 3.34101656510908 46.27831789705092 24.480617363088644 0 0 -1
3767 1 9.042585635451994 44.52321028954218 3.9845618623311765 1 0 2
3656 1 16.44793261763743 47.428343128603686 5.622538379188308 1 0 0
3662 1 15.496405947181621 42.81286372934278 4.695420423166962 0 0 1
2554 1 17.240710064504267 41.67465344550722 2.5777109521372115 0 0 1
3023 1 -0.13210850909377184 47.977860117555736 15.872238253185728 0 0 1
4094 1 6.161928067551083 49.490946730694425 3.8787956525742793 0 -1 1
3329 1 8.016227849826002 40.51739529317699 1.148539480650222 1 0 0
4338 1 8.488224804460407 47.56411741840292 -0.16883008720399012 0 0 1
2788 1 1.8159070608914063 37.089819310556976 -0.15181623386940793 0 -1 0
2394 1 10.918734872635481 47.53110123700349 2.954325683331374 1 0 0
2248 1 7.511666063766337 34.296662369229516 23.571769121989302 1 0 0
4246 1 1.5777535327604835 50.68915283873148 3.9812123608328953 1 0 1
790 1 16.042132530661476 21.15160900052905 11.822279660085846 0 -1 1
569 1 9.023461846342904 0.7100467192234383 1.9152970773379194 0 1 1
1856 1 11.159402385125368 2.726335106700402 2.8835783234456582 1 1 1
4227 1 3.983973610948401 44.69193005774332 0.3036101195146752 1 -1 1
81 1 15.894563678947353 49.12807864862765 1.9462559111730338 0 -1 0
2680 1 6.243779131959683 36.88460971029662 0.9303637815606376 0 0 1
831 1 8.58505204653184 0.7929836168692721 6.419984444164723 0 1 1
4037 1 15.7874294076642 50.332884273522495 9.335314222524318 0 -1 1
3055 1 11.28850986500672 3.2710367633284467 5.654145912932169 0 1 0
2055 1 -0.08344178993975504 36.3012381317957 6.089043321490062 1 0 0
3347 1 10.911286462393186 45.662397324147086 1.0383416981356712 1 1 1
3879 1 0.5003999402098548 3.704860680247208 3.2624272749893453 1 1 1
3594 1 5.349106171321499 7.108467532445803 0.25123169416532154 0 0 0
3918 1 9.272095503725671 4.471267265283374 8.894156280220892 0 0 0
3184 1 8.547870921610455 5.058141651828585 5.247108484837735 1 -1 -1
2643 1 14.000946860705868 3.305743248465451 6.384988742495013 1 0 0
2544 1 16.043176928966876 2.2859252133175123 3.8707288727012763 0 1 0
3314 1 1.3416901610436016 7.965869032891192 3.3752148756760447 0 1 0
1184 1 2.4801996876092263 6.814973148679564 7.157101642806046 0 1 0
3709 1 5.949471061639027 6.190184112244916 5.547115577788618 1 0 0
1365 1 11.23895721601001 6.866372194379659 1.9328501015158572 1 1 1
506 1 15.466833929114157 5.2661924743279185 3.1414743142148294 -1 1 0
1435 1 9.94584715287107 6.35845648938049 23.335509135609026 0 0 0
4426 1 1.190578520445907 29.20392499741537 3.270924219728018 1 -1 0
4430 1 16.47769237007923 10.140845492136508 3.743536299233739 0 2 1
4231 1 14.564173354555564 43.18674579195613 1.5772190757099716 0 0 2
4471 1 8.550591538050652 7.547355839113333 3.3223196804412023 0 0 1
3163 1 11.18216688629269 6.011162380422106 6.691465878588327 0 2 0
2946 1 14.40416064694828 8.430204902831774 3.605164600468124 1 1 0
4500 1 4.19008275674574 51.020047939211736 0.23275562399337035 1 0 1
2868 1 5.002465413450316 10.693698905640527 3.147490429067946 0 1 2
3308 1 5.896719684659547 14.371555325105952 1.1899683231986342 0 0 0
3557 1 7.711028612874803 11.880829540398965 3.891541241908338 0 0 0
2669 1 10.736676241907324 10.954970954605772 2.1507761088261272 1 0 1
2075 1 9.804150685507429 8.256763077191215 5.776754078830218 0 -1 0
2701 1 11.791444438253205 9.179325320242375 4.098603814979233 0 0 1
684 1 1.0015515661611536 15.815170849596672 3.1610905153758546 1 0 0
2848 1 3.0540670779703 13.85569567681066 1.2137219533298846 1 0 1
3090 1 0.7631145315652361 18.536292427686497 4.572875399890644 1 1 -1
999 1 7.068053200290801 14.661848833537753 3.888323729999845 0 0 1
3239 1 8.557122590863628 13.664750696761955 0.16769417691659133 0 1 0
4463 1 9.359957295651874 18.00386784115919 6.000833080695232 0 -1 1
3581 1 12.52268239620184 17.240393969034766 1.894722653721797 2 1 1
3986 1 14.284828094248825 15.280139281832774 3.40703848760571 0 0 1
1911 1 2.886318500048476 13.620023975933218 6.018649876665093 1 -1 0
3325 1 5.012990202811096 19.512877437213785 5.89294696001123 0 0 0
1646 1 15.744038507216628 21.957730525058892 2.879546872725415 0 1 -1
3584 1 1.1870337447834787 22.177548338737417 6.736138264508939 1 0 1
4398 1 3.5347824277106072 21.637970897949806 5.04886460711051 0 0 0
2059 1 5.194551933958897 23.189717592595127 2.8814288728752566 0 1 0
110 1 12.169705810913317 20.802751954772212 4.637343989815659 0 0 -1
988 1 16.490118904361772 22.190089692014435 5.7232615934059785 0 -1 1
118 1 5.172694320503318 24.141495949371922 6.0396247028356225 0 1 0
3215 1 8.098027200541317 23.67298142537058 6.643593580810139 1 0 0
4359 1 12.418304017153545 23.510861922209997 6.220109880391889 1 0 -1
3481 1 16.706205635852406 22.15328693650601 21.87094280172085 0 0 -1
3014 1 0.9278130686304362 29.254685267852086 5.943630673776827 1 1 2
474 1 2.8234014290837712 26.991084924757423 7.765246549977933 0 1 -1
420 1 5.361177702187929 30.684384855181012 8.348827865636942 -1 0 0
2813 1 8.980552653593547 27.867209824717026 5.6134600971174295 -1 0 1
845 1 8.785210644027947 28.723179923278742 9.645538049744333 1 0 0
954 1 16.949236739855266 25.582934688099407 14.302676248980578 0 -1 1
1660 1 16.656051270535716 26.322941862370357 2.6227006038379455 0 0 0
826 1 1.3901575846150962 33.576361804849526 5.920623417844508 0 -1 0
1242 1 5.297020674078201 34.53104233405843 5.228384828915594 0 -1 1
1114 1 2.581776093648017 29.753092912846974 8.050734656652546 -1 0 0
2682 1 4.121499518236819 30.453729210354705 3.8419192757067027 0 0 1
2820 1 7.213890624315145 28.452736962901938 7.509187253643511 1 0 1
250 1 13.046238993548657 36.49613950241526 8.947978454333116 1 1 1
846 1 14.191408229892541 28.003231428590432 6.094376978018064 0 1 0
775 1 16.46069190225524 10.409396522535292 8.919807463159218 0 1 0
1059 1 3.2530588043643895 35.69623545029099 7.160993116994436 1 1 0
1842 1 9.913921258678032 36.50356170265261 6.696845184654886 1 1 0
3266 1 12.312150901223575 35.08725198446212 6.016802265142856 0 0 2
2628 1 16.73418263286203 11.392459614350193 13.244455167668772 0 0 0
138 1 2.2045610711289663 38.03060745267709 7.944553377203874 0 0 0
3988 1 3.556021803781125 39.176787794098445 5.4271017289063925 1 -1 1
618 1 8.568268215914568 38.34819971842038 4.9237701605644775 0 0 0
2602 1 10.741195613059718 38.6041921081411 8.506415330871953 0 0 0
633 1 15.442052481532494 38.5694821433265 4.843196755453864 1 -1 0
219 1 16.874427618666502 36.45014989671895 8.332212562680825 -1 0 1
121 1 1.0552278803116337 40.270952024272454 4.61509776544606 0 1 -1
329 1 7.194392610912799 43.850052769181424 5.646988044350216 -1 0 0
429 1 10.540444206423402 41.914383582381454 3.957324623022993 0 0 0
3632 1 10.106314587225008 40.45623626229014 6.682697125039624 1 1 -1
1513 1 13.232664921184627 39.01213247170553 7.279384032258163 0 -2 1
3080 1 0.39239125197214964 12.000950398649962 1.1375585723758128 1 -1 1
2408 1 5.028290109575047 47.05196528981648 4.74653286983874 1 0 0
1930 1 7.054032720913017 46.440060413861836 6.475813968934037 -2 0 -1
4347 1 10.155311632151786 46.62640458515477 5.667991531135357 1 0 1
918 1 13.982056506406531 45.39055381369574 9.333964709947512 0 0 1
3782 1 13.884471939142818 41.56756314736017 8.991964666863412 0 0 0
3421 1 7.336012324508895 32.61452053048451 2.4413149232364 1 -1 1
1632 1 2.1541781770113246 43.17118540976002 5.142401795654889 0 -1 0
1514 1 4.626321741333347 47.7572336177923 7.931666763297816 0 -1 1
162 1 8.893813567633073 49.257083661178925 5.622841588704688 0 0 -1
3772 1 13.164785424760376 45.47972543706145 6.675133240573862 0 -1 0
2074 1 1.5041714506575246 1.527840073825146 7.236091855751335 0 0 0
1047 1 6.076489250181168 50.18471307512171 6.938841614519 0 0 0
3111 1 12.92816831208545 49.99674908434306 5.681271721883995 1 0 0
1196 1 12.187808298767576 47.99191394911405 7.467593967555274 0 -1 1
385 1 14.743922435613248 45.57114276113076 4.5117060600522665 0 1 1
4215 1 13.554761078047786 48.26467654552461 3.4147661605095316 1 0 0
4006 1 17.348696524269915 49.52572450652139 4.268180600609149 1 0 1
124 1 4.255726769280777 0.4511522999984987 7.722627898855103 1 0 -1
1703 1 3.33402184945565 5.4631716678965345 12.007417046222757 -1 0 0
80 1 2.5863486580826627 1.1467136943448089 10.959303654392174 -1 0 1
944 1 7.261359263500527 3.4284036735312133 7.3455314383540875 1 0 1
1522 1 14.538242023809254 0.23995946895786346 7.466041530191288 1 1 1
4502 1 6.220397620745221 5.877206886028098 2.5982501868378267 1 0 2
3472 1 16.099578690886172 0.6777298539912456 11.420109041698 0 -1 0
485 1 2.3480031487958732 4.298763272144838 9.678017320577045 0 0 0
3404 1 5.356726379079599 2.2568462262615787 9.51254734889111 1 1 1
1351 1 13.465476372581431 3.300948727594372 9.077606048786466 1 1 1
335 1 10.781220534317981 2.2733059925768306 9.916788644366958 1 0 1
1267 1 12.793787568126152 50.914893216995225 10.044118322303103 0 -1 1
2948 1 13.765409796790735 6.094067134780969 5.369980137118538 0 1 1
3978 1 0.9937625963958816 8.731982123289056 22.71817067501088 1 -1 0
4030 1 3.4120471428268795 3.125947422290204 6.104052577292269 1 0 1
251 1 9.2834885626813 7.204068380094161 9.843065152470075 0 1 0
3884 1 14.092075961537448 7.873486760490639 9.455230988258261 2 1 1
1252 1 2.25365886132687 12.449165795100601 8.777681938742939 1 0 1
3613 1 6.730509009903282 9.31355803658456 5.315444846925098 0 -1 0
4285 1 3.727984198400229 8.379462481720603 9.461757145670747 1 0 1
425 1 10.116284588028744 9.365160532769703 8.34452297838674 0 0 0
2146 1 16.354623809058282 11.741547774180644 6.19429854356582 0 1 0
816 1 7.450901622290634 11.356620549369282 7.365944109429763 0 0 1
4608 1 3.846821238412878 10.619975536640741 6.001825240788999 0 0 0
268 1 9.693489703881598 13.381172616152506 7.4221014276456465 0 -1 1
2484 1 13.530450467242881 11.104246616019005 6.12568174332944 0 1 1
917 1 14.801357159011204 13.05894953813677 9.21696277875703 -1 0 0
1398 1 4.176058349965397 51.144336586664224 2.9674679617946644 0 1 1
193 1 4.608387734516564 10.987989566289519 8.897775577842967 0 0 -1
1148 1 8.301026242155446 15.712488949681546 6.40465261822364 -1 0 2
3835 1 12.179328078607668 14.295993307861053 6.300747951636197 1 -1 1
4061 1 3.582645285449875 19.48979591352813 10.888232573701357 1 0 0
1409 1 5.630100186480889 13.790200236726571 6.604245658013288 0 0 0
1343 1 2.507313817109398 17.998169672564934 6.961656665269378 0 0 1
2939 1 7.69931630613306 20.215049418549118 6.38355874922216 0 0 1
4052 1 10.412057166278508 17.714577343880553 8.79909933682041 1 0 0
1228 1 11.680151472193689 18.13854333423916 4.515862004138972 0 1 0
2673 1 3.6216435908645854 23.525868603912233 8.497574709815181 0 -1 1
40 1 1.3741816536797742 36.924894021631914 24.134722758460224 0 0 0
1683 1 9.324484154335485 21.906287807713543 4.450388480159502 1 0 0
3364 1 5.346492701010747 21.74438876989919 9.86747132201678 1 -1 0
1771 1 14.549860906984986 19.75710703148082 5.604580105002621 0 1 1
2154 1 14.959120267342197 23.760231351868345 7.731176821720208 0 0 -1
4475 1 15.897863625251055 20.981157144338724 8.965490433696457 0 0 0
3875 1 0.015246011068526855 28.43403704042114 11.13079235660407 0 1 1
3245 1 10.584554472475665 25.013188008762747 7.568362481321335 1 -1 0
989 1 11.483689235607308 27.84286668615489 6.923157683642195 1 0 0
3085 1 16.229964726141255 26.193191248321604 7.3289003413079525 1 0 -1
1588 1 0.6223392683229896 20.41573811920691 11.716892025286286 1 1 0
4198 1 4.309040406107925 26.33538347660831 9.938909588199127 1 0 2
3626 1 6.611302158151912 25.94875348147566 8.113287663495385 1 0 -1
1189 1 11.75663753402727 32.11849368711334 10.563235282492759 0 1 1
2292 1 11.042940196755225 30.401757715336288 7.816064224483938 0 0 0
1949 1 9.86150272247404 30.281879844141834 12.024196283132119 0 0 1
2187 1 1.5695541415485084 46.76503414599756 13.776888477410491 0 0 1
909 1 1.8241821650614756 32.312089695354814 8.901574617358662 0 0 0
1668 1 4.268429169278691 28.530982523641736 11.835284284399808 1 1 0
3905 1 10.781192163301338 34.23960568059198 14.966958941860648 0 -1 1
4369 1 12.774057320775762 32.95258487842436 7.862733488945093 0 0 0
1705 1 2.147774511398517 23.13067685455316 21.53152732796059 1 0 0
3829 1 3.1825209293370893 34.17740481652342 3.3904899875064802 1 -1 0
2932 1 10.796442988868108 34.63644442289808 10.025160393785267 0 1 1
434 1 8.559055278885507 35.35663869599175 8.58442468043127 -1 0 0
2994 1 16.001703380513852 33.65059220306289 12.757879174875946 0 2 1
2351 1 17.005332957448612 39.768246781385045 23.65599456430704 1 1 1
963 1 3.142506572613671 39.163581774411014 10.18952346670122 1 0 1
1762 1 10.223251558676274 4.397291279915835 1.0216900423703705 0 1 0
2620 1 6.536621871472186 36.86546915976534 10.594728168255779 1 0 0
504 1 8.641396205378436 37.26681148913028 12.248874903878292 1 -1 0
4513 1 14.3109380850301 37.870307008969554 11.527903932466042 0 0 1
1212 1 2.023760722910235 41.38141814642098 8.970261209789275 0 -1 -1
1657 1 4.183059205015142 41.34487397804617 7.015850649851777 0 0 0
2308 1 6.327826176048214 39.57903206167921 9.619258893445553 1 0 -1
2704 1 8.412904070029422 41.25336065780452 10.87299443247583 0 0 1
1734 1 0.5017386686993927 23.442715002295774 1.2144860857464892 1 0 1
1808 1 5.542955276447013 43.315986329057495 9.144704193709345 0 0 1
3471 1 8.407170969265591 43.27416612845582 8.60273641328675 1 0 0
2117 1 12.458658945045507 42.65403413965033 6.653911761136134 0 0 0
3598 1 10.925683197213392 44.29092198064258 9.210021695667903 0 -1 0
1099 1 12.905350656994594 40.278888608510016 11.426225274226152 0 0 0
3066 1 11.880629389022971 46.89611826562242 11.072301951992602 -1 1 0
2730 1 16.81424207862451 43.58663834876737 7.139517067068 -1 0 0
3607 1 17.624123364069384 16.284098756713902 25.173544175315524 0 -1 0
2935 1 2.570471031238394 44.187614471654065 7.968027179887477 1 0 0
59 1 7.182585478026149 45.82676481304077 10.315393366492208 0 0 -1
2334 1 9.750402851800178 46.56753213440945 8.64021164492596 0 0 0
3687 1 16.439780421774152 47.20334356930072 8.494046193226328 1 0 -1
2201 1 0.004561181663220282 1.927413268802745 11.083741796936756 1 1 0
2061 1 12.513239392417205 31.337080302140894 5.141282896458089 1 0 0
3039 1 1.4904566784707856 49.65508670200131 6.643068265711421 -1 1 1
1698 1 7.887582776635657 50.655672592711056 9.400945300180018 0 0 1
2525 1 13.98116140050007 48.55881053694012 11.838185751715598 1 0 0
1092 1 0.6431330874825644 28.309592553442283 0.023750575807067575 0 0 1
3321 1 6.744601390826773 2.21537404627204 11.856073260891883 0 0 1
2166 1 9.929489321850037 50.486500910680995 13.224309161750444 -1 -1 0
2438 1 15.628216527322444 29.86906487364384 24.414298271066183 0 1 1
2729 1 13.446063059672813 1.6804531378571035 11.5561214966451 1 0 0
4504 1 12.414110261648604 19.25999867585713 25.39636210683485 0 0 0
4438 1 1.690366070552556 6.537493564127605 14.039566470079302 0 1 -1
717 1 11.319497975167705 0.7961014834902345 7.366836763883595 0 0 0
3350 1 10.169458723882205 4.508105335746937 11.852300226370252 0 1 0
4306 1 12.047508928758349 3.3808560181332044 13.916478252610402 1 0 1
1054 1 15.364319517570586 3.2576609559715943 13.356904680988697 1 0 0
4222 1 4.509599855090276 4.7457147762011775 7.6636284268660155 0 0 1
2699 1 5.563302299754026 8.75692228128108 11.546066583009768 1 1 0
2698 1 8.264914208196876 8.421132744343517 15.947025095595091 0 1 -1
1078 1 1.542473642072465 8.021643756882677 11.444672331480401 0 0 1
4348 1 7.833687057776585 9.758594588152521 10.507564264460271 1 0 0
2023 1 11.327811929059127 7.566235082118984 11.727146602211656 0 1 0
3129 1 12.201634142801002 9.47973901978398 9.946546962784199 1 -1 0
328 1 8.042663318531037 23.536230266594703 2.079371187008629 0 0 0
3803 1 16.041917044758346 39.67681671550772 0.20812484462170144 0 -1 0
1600 1 1.7876445657099287 11.206473524643332 11.409304903205827 0 0 0
587 1 2.1463848679956903 15.66962180457394 8.187123877354816 1 0 1
4433 1 8.012748769104922 13.07801758494482 9.932459964584217 1 1 1
1357 1 11.127070331518988 12.870016082350835 11.01779309058781 0 2 1
391 1 12.288072546632197 12.081316367579058 8.353143575689302 0 1 1
4177 1 15.034906068805924 8.547378293242163 7.2164424457566145 1 0 0
4333 1 12.228780229332774 11.178920615309728 15.952355867521852 2 1 1
1438 1 16.074708472575594 14.706133397987202 11.103676613396619 0 1 1
3262 1 14.572206751096765 30.32158903025773 2.7630330260694826 -1 0 1
600 1 4.976944050260687 12.445228538787713 11.16638588322138 1 0 0
4600 1 6.128742785668303 15.762434714831034 8.878902396285195 1 1 0
4382 1 7.0239654981268345 13.3615064783526 13.2765151785425 1 1 1
2345 1 15.545376735915216 16.758190384670304 8.426991751038521 0 0 1
1459 1 3.7277477380958786 14.898285116087836 10.375796707637715 1 0 0
548 1 5.0640162170948475 18.326960696228575 8.398837722155674 1 0 -1
990 1 7.159041113493697 16.61933597163017 12.697721682317066 1 0 0
3744 1 8.503880394250086 16.23883448419554 10.158248013410144 1 0 -1
2687 1 11.201406833715453 20.941138026978162 8.875592247189237 1 0 0
3217 1 10.137818961407142 19.881775676553023 11.500953374200561 1 1 0
191 1 13.733012766572791 19.316989236526453 8.693229290693775 1 1 1
4113 1 12.539860460300503 18.38570239169333 10.936443711349122 1 0 0
819 1 13.716783841535038 16.670245450002813 6.2906347766912605 -1 0 0
2796 1 0.9196338572623395 22.52850535604337 9.464072911822148 0 1 1
1590 1 7.75256652535265 19.115788299908736 9.771599895155754 -1 -1 0
289 1 8.496008596125712 21.947276318605827 8.992080412706931 0 0 -1
3910 1 10.398968603227729 22.642988055805453 12.505819999429534 -1 0 1
2384 1 15.932981735900878 43.45807695610364 10.2867951142471 0 0 0
3040 1 17.172811607477836 41.314222662913885 11.384376653085987 0 1 0
4054 1 4.1911127926727065 22.9721368786685 12.390905897836497 1 1 1
1229 1 6.473009671827653 23.848877968286374 13.792435514164747 1 0 0
1414 1 6.755138827006085 26.247398079751747 15.34327937037561 1 -1 1
1602 1 8.021520911836808 23.797395084514754 11.213317203983024 0 0 0
957 1 11.015446555135547 25.046468324259376 10.393432823078548 0 0 -1
4069 1 12.798940667637464 27.17523861410586 9.891602382971667 0 0 0
1882 1 12.802978532734073 22.9622773814809 9.946582935384463 0 0 0
2437 1 1.7714102170006973 9.451740403739961 17.509693410092 1 0 0
1777 1 8.555375468258655 26.631990071673144 11.40766323790519 1 0 0
646 1 7.263997517570085 29.008167110225756 13.745188110270732 1 -1 0
3268 1 16.520453908601432 26.88084554805385 11.607438550504664 0 0 -1
3126 1 1.9759619757681701 32.904543027718205 12.154155846788319 0 0 -1
4413 1 2.0559413995011657 30.07924515683147 11.024295843226515 1 0 -1
178 1 6.641886062523953 30.054905247571867 10.937651545215177 -1 0 -1
2605 1 4.248978453364634 33.601515132206345 8.911431576739384 0 0 0
2719 1 15.296998814639622 31.97071292958683 8.550924179144715 0 0 1
4211 1 12.040534544765189 36.1359051843097 24.962411177587597 1 0 -1
1350 1 5.774962197928929 34.26163301540788 10.981069748292397 0 0 1
3065 1 4.0245642453084285 34.53203985401907 13.061231403390837 0 0 0
3641 1 7.449806400888833 37.8523392236225 14.810854198445861 1 -2 -1
91 1 7.894566590717373 32.50711715340151 12.075777917794266 1 -1 0
14 1 13.6978588149245 32.0337136162829 12.502389999210312 0 0 -1
4559 1 5.464286979546868 16.256107214797222 24.71266977317863 1 0 0
2165 1 1.5734848637887966 38.885614423889386 12.61972396612609 1 1 0
3341 1 1.1848085219861535 43.81467527736001 24.996158738532287 1 0 -1
1527 1 9.431368330188374 34.895984855990754 12.5133079973715 0 0 0
3220 1 10.592828697753413 41.86436378168142 13.627436411823798 0 0 1
3965 1 15.30569871980185 40.58497761471299 13.578236800954395 0 0 0
139 1 16.74602899638302 38.233662269116635 13.929883175618778 0 -1 -1
766 1 0.653710576384934 20.765973607275352 22.510330953292772 0 1 0
1559 1 4.402348615740072 37.34967497718341 12.374386090087622 0 -1 1
2289 1 4.919096476921077 38.859457763165594 15.188508489378906 0 0 0
1695 1 4.699840557568614 41.432316969160965 14.388518330145393 1 0 -1
417 1 7.784948854415013 41.66701483730477 13.793641931733287 0 1 0
8 1 10.368057641019732 39.41052170342994 11.264817261042962 0 -1 -1
3208 1 3.119176540623423 43.10434956061519 11.356283641373311 1 -1 0
3792 1 4.280857955109683 45.819478377161985 9.92941773758382 1 1 1
3816 1 9.380344805778103 44.66911716898602 11.89415687103802 0 -1 1
1653 1 15.232126585713141 42.8273277371699 15.152608214701695 1 -1 1
3796 1 0.33173158913353773 14.264732691287604 5.534024074171427 1 1 1
3686 1 6.245435680987425 49.60021167622706 11.29997647994231 0 1 0
3753 1 17.677858952443124 29.996494695409414 19.475138166329703 1 -1 -1
3942 1 7.094557711316747 44.30304452666659 13.569107940485209 0 0 1
4427 1 16.80522156244394 45.4213733746243 12.011688613831575 1 -2 1
208 1 17.200559497511513 27.257443071924133 19.495132936204875 0 1 0
2304 1 2.2614854260948802 46.82942624344355 6.311523635808804 0 -1 1
2286 1 9.047230751170892 0.5726923212173917 11.371289102705948 0 0 0
859 1 10.750874273303795 51.16337754361193 4.175205587615862 0 -1 0
1969 1 10.198470179281793 47.521594987071346 13.527470107185005 1 -1 0
3748 1 3.7196489802401818 2.829148619753531 13.203702736395723 1 0 0
639 1 3.3900030406920374 -0.009009571466530863 14.579351002861136 0 2 0
299 1 8.34202068273271 48.63404135091457 16.472853502889336 0 0 0
2714 1 12.057260913970183 0.6303657569136035 13.825839895062124 1 1 0
833 1 13.827106020888904 48.49425405700118 14.57609614673758 0 -1 1
2439 1 12.256259719273757 50.24225442101997 18.114481254443056 1 -1 0
1349 1 5.476826192707809 40.907525057725415 2.261375551878893 1 -1 1
2969 1 5.9033244837869026 6.2841943081386695 12.93540421889847 0 1 0
745 1 6.626331818958769 2.662094351939691 15.599386819201673 0 0 -1
2385 1 8.43299554913325 5.467720507027218 15.83943355284207 1 1 1
2429 1 9.220260216679563 2.3757906501663935 17.245455667350925 1 0 1
4064 1 11.162406029469615 4.4555544182745646 16.394517547077452 1 0 2
4232 1 0.3234304871047433 26.02216238534797 18.651734662970686 1 -1 0
726 1 0.48494234342465325 21.643783366466128 17.7378260043922 0 0 -1
1299 1 13.392763896873321 18.001401944625034 22.31324351358216 0 1 -1
3754 1 7.864662637791746 4.507759276024401 13.19066850000728 1 1 -1
3808 1 13.281813226411149 5.605499490314868 12.503517017414788 1 0 0
906 1 14.151100778582922 11.228773264112498 11.295527552933121 0 1 1
1888 1 9.237779097635173 48.25624133587155 21.35541604141203 1 -1 1
1631 1 2.893205082545702 8.728348674607307 15.090376726461463 0 0 0
2539 1 5.337421928287427 6.988127610799495 15.78550760510101 1 1 0
2521 1 10.772907223351531 8.946193035818204 14.525822029012856 1 0 0
3081 1 12.94753767799154 8.302254522462635 16.22835401053166 0 0 -1
1153 1 3.963286020057204 10.259223046560523 13.108164959209798 0 1 0
3124 1 10.053629783458197 10.472363192673484 12.16115708272908 0 1 0
448 1 9.125994177621381 12.021283914417817 14.558474280500837 1 0 -1
3238 1 12.549893217478116 12.547029032946881 13.455639413444404 0 1 0
1860 1 14.695016514004402 12.157833301500725 17.550696600706793 0 0 0
88 1 11.19555192348121 28.133559945766034 0.4386512052348749 -1 0 0
4346 1 1.7386933272864555 13.947947625037134 12.336462352900437 1 0 0
149 1 12.034431303272703 18.172905638504318 14.357516040118664 0 1 1
1233 1 11.968071352231325 32.58861373410565 0.9920881676545081 -1 1 1
547 1 14.64918768179573 14.230063626737916 13.369299221029523 0 0 0
2469 1 2.75433407216713 15.63819674345981 14.209228295476924 1 0 0
3445 1 4.10482834590693 17.113234764995564 12.209353041949445 1 -1 1
852 1 15.455287305426097 18.624914916491647 13.609797479999841 0 -1 0
1820 1 1.3817234584745932 37.81394167351393 18.962292438782264 1 0 0
3028 1 1.4849056063552124 25.708557042605847 15.718454480073817 1 1 1
1260 1 2.5616331164286557 21.431194443608334 13.500323370142834 0 0 2
4447 1 4.989280586462314 20.296281102348928 16.828136582887815 0 0 1
1144 1 8.745278918684766 19.975581742268485 13.988600504400088 0 -1 0
3092 1 7.077264827932156 21.68648570137385 15.331092122349638 1 0 1
3878 1 9.536426710620551 22.151251262185053 16.67955087879673 1 1 0
1626 1 3.31931327490805 25.470190780936573 12.516573615563589 0 1 1
3151 1 2.389900707505612 28.349692355913213 18.858500605177976 2 1 -1