

read_data data.ice_${TEMP}K_${PRES}atm_ML group ice
read_data data.ice_296K_${PRES}atm_ML group ice
read_data data.ice_296K_-1000atm_ML group ice
Reading data file ...
  orthogonal box = (-0.098075147 -0.087177909 -0.087177909) to (57.368585 50.994298 50.994298)
  3 by 1 by 2 MPI processor grid
  reading atoms ...
  4608 atoms
  reading velocities ...
  4608 velocities
  read_data CPU = 0.034 seconds
read_data data.liq_${TEMP}K_${PRES}atm_ML add append shift ${X_HI} ${YZ_LO} ${YZ_LO} group water
read_data data.liq_296K_${PRES}atm_ML add append shift ${X_HI} ${YZ_LO} ${YZ_LO} group water
read_data data.liq_296K_-1000atm_ML add append shift ${X_HI} ${YZ_LO} ${YZ_LO} group water
read_data data.liq_296K_-1000atm_ML add append shift 50.9942979086108 ${YZ_LO} ${YZ_LO} group water
read_data data.liq_296K_-1000atm_ML add append shift 50.9942979086108 0.0871779086090285 ${YZ_LO} group water
read_data data.liq_296K_-1000atm_ML add append shift 50.9942979086108 0.0871779086090285 0.0871779086090285 group water
Reading data file ...
  orthogonal box = (-0.098075147 -0.21700836 -0.21700836) to (104.53224 51.298484 51.298484)
  3 by 1 by 2 MPI processor grid
  reading atoms ...
  4608 atoms
  reading velocities ...
  4608 velocities
  read_data CPU = 0.030 seconds

write_data data.icewater_test
System init for write_data ...
WARNING: Communication cutoff is 0.0. No ghost atoms will be generated. Atoms may get lost. (../comm_brick.cpp:167)

# Define potential
#
pair_style sw
pair_coeff * * /data/emrosky-sim/Freezing_Simulations/Melting/MLmW_fancy/ML_mW.sw mW
Reading sw potential file /data/emrosky-sim/Freezing_Simulations/Melting/MLmW_fancy/ML_mW.sw with DATE: 2019-02-27

# Delete water and ice atoms that are overlapping
#
delete_atoms overlap 2.5 water ice
System init for delete_atoms ...
Neighbor list info ...
  update every 1 steps, delay 10 steps, check yes
  max neighbors/atom: 2000, page size: 100000
  master list distance cutoff = 6.0032907
  ghost atom cutoff = 6.0032907
  binsize = 3.0016454, bins = 35 18 18
  2 neighbor lists, perpetual/occasional/extra = 1 1 0
  (1) command delete_atoms, occasional, copy from (2)
      attributes: full, newton on
      pair build: copy
      stencil: none
      bin: none
  (2) pair sw, perpetual
      attributes: full, newton on
      pair build: full/bin/atomonly
      stencil: full/bin/3d
      bin: standard
Deleted 678 atoms, new total = 8538

# set timestep
#
timestep 10.0

# Define output
#
compute 1 all msd
thermo 50
thermo_style custom step temp press vol etotal ke pe c_1[4]

# Neighbor lists
#
neigh_modify delay 0 every 1 check yes

# Set fixes
#
fix 1 all momentum 10 linear 1 1 1 rescale
fix 2 all nph iso ${PRES} ${PRES} ${PCOUPL}
fix 2 all nph iso -1000 ${PRES} ${PCOUPL}
fix 2 all nph iso -1000 -1000 ${PCOUPL}
fix 2 all nph iso -1000 -1000 10000.0
fix 3 all temp/csvr ${TEMP} ${TEMP} ${TCOUPL} 837492
fix 3 all temp/csvr 296 ${TEMP} ${TCOUPL} 837492
fix 3 all temp/csvr 296 296 ${TCOUPL} 837492
fix 3 all temp/csvr 296 296 5000.0 837492


# Fix ice atoms in place
#
velocity ice set 0.0 0.0 0.0
fix 4 ice setforce 0.0 0.0 0.0

# Run 1.0 ns equilibration of water
#
dump 1 all atom 1000 eq.all.${NAME}.dump
dump 1 all atom 1000 eq.all.coexist_296K_-1000atm_ML.dump
run 100000
Neighbor list info ...
  update every 1 steps, delay 0 steps, check yes
  max neighbors/atom: 2000, page size: 100000
  master list distance cutoff = 6.0032907
  ghost atom cutoff = 6.0032907
  binsize = 3.0016454, bins = 35 18 18
  1 neighbor lists, perpetual/occasional/extra = 1 0 0
  (1) pair sw, perpetual
      attributes: full, newton on
      pair build: full/bin/atomonly
      stencil: full/bin/3d
      bin: standard
Per MPI rank memory allocation (min/avg/max) = 4.591 | 4.598 | 4.603 Mbytes
Step Temp Press Volume TotEng KinEng PotEng c_1[4] 
       0      134.579   -1981.1767    277672.73   -83565.171    3424.6554   -86989.826            0 
      50    158.23768   -1268.6667    275912.88   -83223.479     4026.702   -87250.181   0.86610857 
     100    167.39273   -809.98459    272953.01   -82951.861    4259.6721   -87211.533    1.8568619 
     150    175.22074   -559.32909     271640.2   -82630.683    4458.8728   -87089.556    2.9995135 
     200    179.84797    -941.2276    272173.11   -82316.268    4576.6229   -86892.891    4.0678478 
     250    183.80374    -1080.185    273168.44    -82010.15     4677.286   -86687.436    5.3102907 
     300     188.9704   -1281.8554    273737.29   -81703.954    4808.7628   -86512.717    6.5178948 
     350    194.62017   -1080.5388    273925.52   -81381.448    4952.5336   -86333.982    7.8221979 
     400    196.12961   -894.00118    273958.58   -81177.669    4990.9446   -86168.614    9.1647594 
     450    203.15199   -829.93339     273853.5   -80945.032    5169.6443   -86114.677    10.636008 
     500    207.04639   -806.06048    274089.78   -80727.565    5268.7458    -85996.31     12.13918 
     550    206.54371   -1178.1567     274654.6   -80521.447     5255.954   -85777.401    13.672151 
     600    210.03191   -1081.6053    274934.51   -80298.218    5344.7189   -85642.937    15.508858 
     650    221.67366   -981.46103    275035.16   -80123.569    5640.9686   -85764.537    17.132679 
     700    217.34644   -1100.8402    275121.45   -79884.827    5530.8529    -85415.68    18.979485 
     750     222.0657   -798.94084     275190.5   -79723.325    5650.9448   -85374.269    20.871118 
     800    224.80158   -978.50346    275563.25   -79536.044    5720.5653   -85256.609    22.950861 
     850    226.50581   -1022.7221    275935.36   -79386.048     5763.933   -85149.981    25.168138 
     900    231.14463   -1033.8943    275952.29   -79238.588    5881.9779   -85120.566    27.611105 
     950    234.17062   -1087.7485    275793.84   -79093.552    5958.9808   -85052.533    30.102632 
    1000    240.74054   -829.21871    275852.62   -78906.895    6126.1667   -85033.061     32.48919 
    1050    240.49171   -1132.3177    276453.74   -78780.482    6119.8348   -84900.317    34.823179 
    1100    242.26425   -1383.5013    276951.99   -78603.491    6164.9409   -84768.432    37.277724 
    1150    241.51764    -1208.048    276850.06   -78435.558    6145.9418     -84581.5    39.660407 
    1200    248.28843    -1083.984    276371.13   -78353.231    6318.2391    -84671.47    42.102123 
    1250    250.39484   -947.45992    276183.55   -78241.883    6371.8413   -84613.724    44.796523 
    1300    253.29522   -853.43399    276309.18   -78172.245    6445.6479   -84617.893    47.588152 
    1350    254.40611   -899.16949    276719.34   -78003.514    6473.9169    -84477.43    50.415509 
    1400    254.75734   -835.08674    277093.82   -77889.984    6482.8546   -84372.838    53.058289 
    1450    263.35819   -1003.5205    277353.48   -77767.515     6701.722   -84469.237    55.999723 
    1500    258.33992   -1126.4381    277730.43   -77720.234    6574.0212   -84294.255    58.980205 
    1550    260.72608   -1224.8653    277718.11   -77604.132    6634.7424   -84238.875    61.793131 
    1600    262.92872   -969.17676    277323.16   -77521.922    6690.7932   -84212.715    64.625497 
    1650    264.37118   -998.06603    277189.75   -77455.604    6727.4999   -84183.104      67.1377 
    1700    262.60718   -799.17119    277153.01   -77388.384     6682.611   -84070.995    69.714431 
    1750    266.01801   -993.79638    277615.66   -77274.019    6769.4068   -84043.426    72.650934 
    1800    269.77243   -1010.7137     278149.2   -77226.208    6864.9464   -84091.155    75.219487 
    1850    268.54931   -1238.9093    278584.84   -77115.071    6833.8215   -83948.893    78.146904 
    1900    271.55713   -989.79393    278469.85   -77052.811    6910.3619   -83963.173    81.214796 
    1950    272.58767   -1088.1205    278225.44   -76982.854    6936.5862   -83919.441    84.100951 
    2000     273.4795   -889.62575    278100.13   -76880.302    6959.2807   -83839.583    86.511293 
    2050    276.33657    -977.3817     278358.6   -76839.148    7031.9852   -83871.133    89.507195 
    2100    275.71333   -962.27737    278775.59   -76790.856    7016.1253   -83806.982    92.549769 
    2150    276.81797   -1254.1261    279218.69   -76678.387    7044.2354   -83722.623    95.192224 
    2200    276.06451   -1175.2605    278923.81   -76614.726     7025.062   -83639.788    98.170522 
    2250    279.49113     -955.877    278230.03   -76598.936    7112.2597   -83711.196    100.86469 
    2300    280.92527   -624.29776    277968.54   -76585.031    7148.7546   -83733.786    103.68069 
    2350    284.90761   -995.08276    278610.35   -76506.329    7250.0938   -83756.423     106.8113 
    2400    279.91514     -1376.51    279408.11   -76501.967    7123.0498   -83625.016    109.83571 
    2450    280.31068   -1096.4915    279631.82   -76511.246     7133.115   -83644.361    112.85303 
    2500    282.26938   -1139.2069    279025.39   -76528.282    7182.9584   -83711.241     115.9337 
    2550    283.59394   -848.76389    277962.57   -76449.491    7216.6647   -83666.156    118.56309 
    2600    286.63269   -623.96615    277744.24   -76465.803    7293.9924   -83759.796    120.85914 
    2650    286.45428   -557.84428    278082.78   -76472.642    7289.4524   -83762.095    123.34711 
    2700    288.18501   -859.20159    278778.46   -76413.973    7333.4945   -83747.468    126.54039 
    2750    284.88186   -1104.5617    279275.75   -76357.073    7249.4386   -83606.512    129.98022 
    2800    279.19687   -992.33935     279323.5   -76382.745    7104.7718   -83487.517    132.66656 
    2850    287.99144   -853.58246    279143.65   -76336.946    7328.5688   -83665.515    134.81568 
    2900    286.42965   -916.70108    279204.29   -76295.469    7288.8256   -83584.295    137.29852 
    2950     285.2619   -1053.4609    279439.85   -76279.816    7259.1096   -83538.926    140.87552 
    3000    287.87384   -1000.9735    279269.08   -76277.726    7325.5761   -83603.302    144.09286 
    3050    286.63807   -610.33886    278812.27   -76250.855    7294.1293   -83544.985    146.81342 
    3100    286.08887   -860.35783    278801.45   -76178.341    7280.1535   -83458.495    150.60676 
    3150    288.37082   -1214.3567    279129.91    -76125.41    7338.2228   -83463.633    154.14539 
    3200    287.95369   -1069.9739    279030.86   -76089.569    7327.6081   -83417.177    157.37167 
    3250    294.01022   -1099.4148    279067.15   -76057.626    7481.7298   -83539.355     160.2818 
    3300    286.39862   -945.41808    279128.03   -76067.019     7288.036   -83355.055    163.35029 
    3350    289.43614    -729.1721     279156.7   -76093.854    7365.3322   -83459.187     165.8339 
    3400     290.3649   -1110.6868    279538.49   -76097.676    7388.9665   -83486.643    168.67949 
    3450    285.71243   -1331.8359     279824.9    -76148.17    7270.5744   -83418.745    171.46608 
    3500    286.44512   -1272.3117    279455.29   -76154.532    7289.2193   -83443.751    174.07594 
    3550    290.97332   -1042.5904    278549.76   -76151.783     7404.449   -83556.232    177.00412 
    3600    289.51564   -401.84543    277854.63   -76144.815    7367.3553   -83512.171    179.34291 
    3650    292.71851   -749.86112    278361.39   -76117.585    7448.8592   -83566.444    182.49273 
    3700     290.6184   -1133.3251    279514.03   -76049.134    7395.4175   -83444.551      185.983 
    3750    289.97564   -1377.8307    280117.41   -75938.079    7379.0609    -83317.14    188.99692 
    3800     292.5981   -1341.5972    280026.33   -75935.889    7445.7952   -83381.684     192.0312 
    3850     297.1204   -898.28218    279400.77   -75896.457    7560.8748   -83457.332    195.53712 
    3900    295.29342   -770.23271    279002.32   -75867.832    7514.3835   -83382.215    199.40321 
    3950    289.85889   -921.24997    279132.04   -75861.379    7376.0901   -83237.469    203.05062 
    4000    290.85023   -1071.3745    279446.24   -75916.472    7401.3169   -83317.789     206.7918 
    4050    291.80163   -995.01146    279532.44   -75917.169    7425.5273   -83342.697    210.40893 
    4100    290.17489   -1145.3294    279756.36   -75894.905    7384.1313   -83279.036    213.04345 
    4150    292.06536   -1352.6401    279728.57   -75940.316    7432.2384   -83372.554    215.51329 
    4200    290.61847   -1192.1128    279289.43   -75906.052    7395.4192   -83301.471    218.09299 
    4250    291.29623   -658.63436    278972.02   -75887.616    7412.6663   -83300.282    221.22974 
    4300    298.39536   -997.61229    279425.04   -75866.715    7593.3192   -83460.034    224.54015 
    4350    292.27275   -923.35103    280008.45   -75856.411    7437.5158   -83293.927     228.5348 
    4400    290.60582   -1187.9022    280060.25    -75869.74    7395.0972   -83264.837    231.61011 
    4450     296.2099   -839.86018    279390.58   -75863.642    7537.7053   -83401.347    234.70616 
    4500    297.14227   -928.42273    278836.29   -75850.357    7561.4315   -83411.788    237.62461 
    4550    293.68264   -834.16314    278954.51   -75840.874    7473.3937   -83314.268    240.67028 
    4600    293.90886   -816.91797    279764.82   -75801.028    7479.1503   -83280.178    244.03242 
    4650    299.68565   -1194.2543     280325.7   -75805.343    7626.1532   -83431.497    247.85134 
    4700    292.88448   -1288.9919    280023.26    -75798.04    7453.0828   -83251.123      249.947 
    4750    294.13998   -834.24678    279312.65   -75836.693    7485.0316   -83321.725    252.55833 
    4800    293.18746   -820.06977     278982.7   -75812.067    7460.7928    -83272.86    255.46967 
    4850     295.8555   -739.82516    279072.05   -75766.562    7528.6868   -83295.249    258.76674 
    4900    291.68091   -1017.3239     279433.3   -75762.764    7422.4553   -83185.219    262.25242 
    4950    292.82219   -842.83973    279733.25   -75762.074    7451.4977   -83213.571    265.54159 
    5000    295.34982   -1209.5595    279973.65   -75757.153    7515.8186   -83272.971    268.81713 
    5050    301.97484   -847.28917    279917.64   -75774.033    7684.4067    -83458.44    271.28614 
    5100    295.68904   -1080.6009    279712.45   -75752.776    7524.4509   -83277.226    274.58268 
    5150    296.36816   -889.15395    279532.81    -75785.05    7541.7324   -83326.783    277.39757 
    5200    300.28296   -1079.9151    279778.23   -75734.118    7641.3532   -83375.471    280.81695 
    5250    291.28243   -1045.5081    280016.85   -75696.531     7412.315   -83108.846    284.21402 
    5300    294.18746   -1080.1723    280088.53   -75643.864    7486.2398   -83130.103    287.71116 
    5350    295.57036   -801.14029    279897.58   -75637.054    7521.4307   -83158.485    290.52206 
    5400    297.94465   -945.01796    279540.51   -75654.958    7581.8498   -83236.808    291.89747 
    5450    303.44116   -1211.5946     279461.9   -75643.101    7721.7205   -83364.822    295.23203 
    5500    300.56623   -917.79382    279397.04   -75648.656    7648.5615   -83297.218    298.87947 
    5550    298.45413   -1068.0816    279592.76   -75683.192    7594.8147   -83278.007    302.16771 
    5600    299.38806   -744.72259     279973.5    -75647.66    7618.5804    -83266.24    306.43062 
    5650    295.96024    -1193.592     280542.7   -75626.712    7531.3521   -83158.064     310.2361 
    5700    300.66862   -1065.4095    280377.11   -75573.356    7651.1672   -83224.523    313.51349 
    5750    299.12878   -1089.2115    279941.69   -75606.752    7611.9825   -83218.734    315.76256 
    5800    300.77269   -1034.3447     279614.2   -75632.055    7653.8153   -83285.871    318.51109 
    5850    295.35658   -840.08211    279465.15   -75620.423    7515.9908   -83136.414    321.71275 
    5900    297.30332   -999.67402    279800.29   -75573.612    7565.5298   -83139.142    324.29323 
    5950    302.07245   -1161.8981    280075.19   -75545.818    7686.8905   -83232.709    327.47972 
    6000    298.58645   -1191.2265    280144.44   -75588.972    7598.1818   -83187.154    330.34404 
    6050    296.70014   -980.40108     280163.4   -75633.965    7550.1804   -83184.146    333.51809 
    6100     296.6968   -1147.6458    280041.94   -75636.508    7550.0956   -83186.604    335.73623 
    6150    300.65027   -985.40769    279702.84   -75610.353    7650.7002   -83261.053    338.72563 
    6200    293.80112   -728.84159    279539.66   -75599.311    7476.4087   -83075.719    341.79557 
    6250    298.31778   -1049.7143    279797.34   -75553.504     7591.345   -83144.849    345.80093 
    6300    299.50049   -1061.7209    280113.72   -75560.348    7621.4414   -83181.789    350.60053 
    6350    297.21521   -1279.8481    280387.71   -75586.404    7563.2875   -83149.691      353.931 
    6400    301.11254     -1075.83    280243.46   -75524.235    7662.4637   -83186.699    357.90002 
    6450    301.30306   -835.30313     279821.3   -75530.549    7667.3118   -83197.861    360.56505 
    6500    302.23084    -835.6732    279575.86   -75530.796    7690.9213   -83221.717    363.73767 
    6550    298.47984   -884.23192    279586.67   -75535.297    7595.4689   -83130.766     366.6815 
    6600    299.02341   -827.73274    279625.37   -75625.553    7609.3012   -83234.855    369.74288 
    6650    297.67884   -1229.6706    279804.42   -75650.462    7575.0858   -83225.548    373.57353 
    6700    300.21264   -924.57242     279506.4   -75675.198    7639.5637   -83314.762    376.43192 
    6750    296.30399   -894.72528    279420.72   -75704.872    7540.0996   -83244.972    380.85225 
    6800    299.43553   -1212.8124    279740.24   -75710.524    7619.7884   -83330.312    384.72953 
    6850    303.95638   -1129.0055    279668.82   -75718.576    7734.8313   -83453.407    387.89107 
    6900    300.04649   -1197.2383    279491.53   -75744.935    7635.3357   -83380.271    391.10323 
    6950    301.75263   -696.01462    279272.13   -75738.507    7678.7522   -83417.259    393.49451 
    7000    297.17158   -829.16766    279500.75   -75720.904    7562.1773   -83283.081    396.45293 
    7050    293.32821   -1150.2646    279760.47   -75700.315    7464.3744    -83164.69    400.91036 
    7100    298.27915   -1079.4356    279663.17   -75655.831     7590.362   -83246.193    404.71862 
    7150    297.16016   -841.10858    279518.72    -75675.45    7561.8867   -83237.336    407.51444 
    7200    298.48227   -803.15693    279545.46   -75643.691    7595.5307   -83239.222    409.91902 
    7250     300.1576   -1033.1516    279781.87   -75598.729    7638.1631   -83236.893    412.58637 
    7300    302.14059   -793.12867    279916.24   -75588.226    7688.6245    -83276.85    415.03472 
    7350    297.27367   -1100.7228    280211.52   -75604.656    7564.7752   -83169.431    417.53063 
    7400    300.79705   -1301.3395    280124.39   -75605.113    7654.4353   -83259.548    421.02702 
    7450    296.88398   -948.36825    279934.13   -75584.696    7554.8586   -83139.554     423.8245 
    7500    297.95495   -926.85911    279793.18   -75615.377     7582.112   -83197.489    427.04016 
    7550    298.03535    -1292.739    279730.33    -75663.69    7584.1578   -83247.848    429.24437 
    7600    296.64233   -825.31462    279695.04   -75670.789    7548.7093   -83219.498    431.51522 
    7650    299.15456   -1502.6625    279931.36   -75643.592    7612.6386   -83256.231    435.24272 
    7700    300.07461   -987.99293    279787.26   -75649.877    7636.0512   -83285.928    437.18649 
    7750    299.46636   -990.38337    279672.98   -75670.257    7620.5729   -83290.829    439.76837 
    7800     299.5409   -889.24094    279760.31   -75722.321    7622.4697   -83344.791    443.14993 
    7850    301.08798   -1074.5022    279601.26   -75702.811    7661.8386    -83364.65     445.8177 
    7900    301.10838   -936.14867    279387.65   -75667.324    7662.3577   -83329.681    449.05127 
    7950    298.98707   -765.61457    279503.49   -75682.523    7608.3763   -83290.899    452.16861 
    8000    295.97915   -1141.2706    280075.81   -75666.854    7531.8334   -83198.688    455.87278 
    8050    298.13889   -1093.6275    280367.46   -75677.728    7586.7925    -83264.52    458.32271 
    8100    298.28678   -885.76589     280002.2   -75716.706     7590.556   -83307.262    461.01857 
    8150    293.11078   -833.54823    279249.77    -75769.73    7458.8413   -83228.571    462.26389 
    8200    300.56396   -679.84372    279132.62   -75735.858    7648.5037   -83384.362    464.53671 
    8250    297.35493   -808.59028    279628.87   -75722.403     7566.843   -83289.246    468.54227 
    8300    298.64817   -1257.0892    280139.98   -75691.821    7599.7523   -83291.573    471.53798 
    8350    292.62844   -946.14568    280005.93   -75765.474    7446.5673   -83212.041    474.60621 
    8400    289.05447    -834.0568    279610.64   -75775.838    7355.6197   -83131.458    478.93105 
    8450     295.9802   -714.45279    279156.52   -75784.185    7531.8601   -83316.045    481.76584 
    8500    291.42641   -900.19783    279156.19   -75727.002     7415.979   -83142.981    483.25436 
    8550    299.11146   -969.52032    279434.22   -75693.412    7611.5417   -83304.954    486.21155 
    8600    297.17697   -1035.2528    279965.29   -75687.754    7562.3145   -83250.068    489.51178 
    8650    299.68138   -1145.8181    280386.24   -75628.075    7626.0446    -83254.12    493.29838 
    8700    299.81814   -1251.8381    280305.98   -75598.086    7629.5247   -83227.611    497.17904 
    8750    300.75189   -747.27464    279761.76    -75592.96     7653.286   -83246.246    499.01747 
    8800    302.00352    -1234.836    279729.86   -75582.427    7685.1366   -83267.564     501.4728 
    8850    302.00555   -633.35446    279766.71   -75558.311    7685.1882   -83243.499    504.40311 
    8900    295.60062   -801.75488    280004.57   -75551.594    7522.2009   -83073.795    507.15512 
    8950    301.62272   -1021.2796    279848.43   -75537.481    7675.4463   -83212.927    510.05652 
    9000    297.03316   -1074.3392    279695.29   -75553.572    7558.6549   -83112.227    513.67313 
    9050    303.19747   -800.66073    279502.03   -75539.328    7715.5191   -83254.847    516.89118 
    9100    297.96691   -1094.0549    279865.31   -75546.906    7582.4163   -83129.322    520.55506 
    9150    300.76148   -1039.4288    280234.51   -75563.423      7653.53   -83216.953    524.82465 
    9200    295.77897    -1162.967    280194.45   -75510.556    7526.7393   -83037.296    528.11168 
    9250    301.30125   -906.01418    279841.59   -75504.479    7667.2658   -83171.745    530.91978 
    9300     299.6436   -739.23698    279664.79   -75571.702    7625.0834   -83196.785    533.83421 
    9350    296.81602   -1210.0791    279857.82   -75566.217    7553.1294   -83119.347    536.36767 
    9400    305.08811   -1324.8627    279923.96   -75615.699    7763.6306   -83379.329    538.42045 
    9450    300.18931   -1030.9569    279564.67   -75622.641    7638.9699   -83261.611    540.40586 
    9500    300.33859   -805.96674    279142.35    -75623.33    7642.7688   -83266.099    542.97506 
    9550    299.32539   -1066.5303    279149.92   -75629.196    7616.9857   -83246.181    546.77231 
    9600    299.71445   -1090.9255    279684.02   -75625.174    7626.8863    -83252.06    551.64794 
    9650     305.7401   -1285.7884    279973.76   -75584.217    7780.2219   -83364.439    555.26091 
    9700    302.66083   -1002.0065    279904.76   -75584.824    7701.8631   -83286.687    558.23645 
    9750    300.23839   -1154.8005    279786.47   -75677.736     7640.219   -83317.955    561.51119 
    9800    297.12495   -1011.3784    279599.51   -75657.942    7560.9906   -83218.933    563.28204 
    9850    298.87489   -927.45203    279235.74   -75666.799    7605.5217   -83272.321    565.65305 
    9900    298.19863   -815.64115    279300.82    -75614.94    7588.3128   -83203.253    569.63173 
    9950    301.19328   -1190.6089    279769.17   -75620.165    7664.5182   -83284.683    572.41133 
   10000    298.79233   -1071.5644    280265.93   -75627.303    7603.4208   -83230.724    576.29628 
   10050    297.76517   -1173.7067    280645.86   -75618.734    7577.2824   -83196.017    579.72302 
   10100    298.77877   -1279.6708    280220.07   -75614.398    7603.0758   -83217.473    582.15814 
   10150    296.47557   -768.64388    279451.44   -75620.743    7544.4657   -83165.209    584.09269 
   10200    300.12059   -919.36842    279144.97   -75652.193    7637.2213   -83289.415     587.7921 
   10250    299.65188    -791.3129     279469.2   -75605.301    7625.2939   -83230.595    592.54439 
   10300    299.41849   -1217.3074    280343.45   -75558.055    7619.3549    -83177.41    596.29989 
   10350     292.9589   -1051.4957    280573.49   -75574.128    7454.9764   -83029.104    597.04923 
   10400    293.42686    -842.4477    280150.24   -75607.903    7466.8847   -83074.788    598.23364 
   10450    293.44813   -895.45245    279536.71   -75588.117    7467.4261   -83055.543     600.7723 
   10500    297.12911   -620.59965    279250.07   -75567.017    7561.0965   -83128.113    603.44688 
   10550     299.5331   -1303.0904    279623.45   -75545.388    7622.2713   -83167.659    606.66354 
   10600     297.7275   -903.10265    280010.23   -75530.712     7576.324   -83107.036    608.71994 
   10650    301.93191   -955.01396    280276.28   -75565.763    7683.3144   -83249.077    611.74163 
   10700    298.63859    -1211.253    280261.26   -75611.943    7599.5086   -83211.452     614.3433 
   10750    299.99072   -1266.4676    279731.32   -75615.591    7633.9165   -83249.508    615.65845 
   10800    298.24391   -698.17275    278982.79   -75631.905    7589.4651    -83221.37    616.99738 
   10850    298.02727   -821.56692    278923.86   -75641.631    7583.9521   -83225.583    619.19581 
   10900    304.04073   -831.48585    279607.27   -75640.629    7736.9777   -83377.607    623.34379 
   10950    296.54965    -1228.022    280461.96   -75662.295    7546.3509   -83208.646    627.92929 
   11000     300.4867   -1342.4619    280409.68    -75692.85    7646.5379   -83339.388    631.45372 
   11050    294.36248   -948.54764    279529.36   -75689.539    7490.6937   -83180.232    632.72995 
   11100    293.18705   -836.64005    279145.33   -75726.746    7460.7822   -83187.528     634.2456 
   11150    298.39691   -1016.0478    279355.74   -75732.862    7593.3586   -83326.221    637.96845 
   11200    294.73005    -1054.801    279671.42   -75738.708    7500.0473   -83238.755    639.48548 
   11250    292.64476   -1212.9289    279720.23   -75722.758    7446.9826   -83169.741    642.10755 
   11300    294.72628   -980.42076    279639.59     -75746.2    7499.9514   -83246.151    643.92609 
   11350    294.01405   -1205.0626    279758.07    -75753.72    7481.8271   -83235.547    647.11506 
   11400     289.0728   -1162.6374    279883.29   -75756.307    7356.0863   -83112.394    649.41549 
   11450    297.99454   -1250.1271    279868.22   -75715.287    7583.1193   -83298.406    652.65861 
   11500    300.30946   -995.49379    279620.68   -75644.423    7642.0274   -83286.451    655.52152 
   11550    299.72249   -829.60417    279483.94   -75636.616    7627.0909   -83263.707    658.72696 
   11600     296.0055   -1028.5954    279749.76   -75674.144    7532.5038   -83206.648    661.02169 
   11650    297.67513    -1185.069    279722.39   -75760.224    7574.9912   -83335.215    663.39469 
   11700    298.09499   -1240.3698    279463.27   -75726.644    7585.6754   -83312.319    665.86737 
   11750    297.95631   -993.01257     279227.4   -75769.406    7582.1466   -83351.553    668.88963 
   11800    295.70975   -1076.3648    279346.33   -75801.355    7524.9778   -83326.332    671.22376 
   11850    297.19919   -821.42802    279498.02   -75818.758      7562.88   -83381.638    672.89582 
   11900    294.72205   -1003.0954    279859.12   -75805.573    7499.8437   -83305.417    676.31748 
   11950    290.87901   -1152.7988       280098   -75778.064    7402.0491   -83180.113    680.57583 
   12000    293.08415   -801.24749    279888.85   -75801.208    7458.1638   -83259.372    682.24651 
   12050    288.32385   -1089.5942    279780.29   -75827.582    7337.0277    -83164.61    684.29547 
   12100    295.33337   -813.87255    279653.85   -75799.455       7515.4   -83314.855    686.81629 
   12150     297.7244   -1078.6834    279448.41   -75754.489    7576.2451   -83330.734    689.52379 
   12200    301.94448   -1064.0523    279446.01   -75724.581     7683.634   -83408.215    691.56491 
   12250    292.34323   -1136.0653    279659.06   -75755.976    7439.3095   -83195.285    694.44999 
   12300    300.39328   -911.52222     279732.9   -75664.924    7644.1606   -83309.085     697.2889 
   12350    296.42103   -758.86811    279872.82   -75708.629    7543.0779   -83251.707    700.47005 
   12400    297.59085   -790.56187    280164.64   -75680.247    7572.8466   -83253.094     704.7862 
   12450    292.94477   -970.77952    280145.81   -75652.297    7454.6169   -83106.914    707.37327 
   12500    297.87789   -1089.2528    279763.13   -75681.176    7580.1509   -83261.327    709.76298 
   12550    303.20975   -740.55363    279390.86   -75685.368    7715.8316   -83401.199    712.40168 
   12600    295.59697   -1051.7792    279614.29   -75702.224    7522.1081   -83224.332     715.1602 
   12650    300.12329   -1006.1285    279802.32   -75714.996    7637.2901   -83352.286    719.54277 
   12700     297.9858   -1126.6301    279776.56   -75728.268    7582.8969   -83311.165    721.64839 
   12750    302.12812   -1073.9928    279685.35   -75728.186    7688.3074   -83416.493    724.47689 
   12800    295.77176   -927.05568    279504.38   -75749.602    7526.5559   -83276.157    726.50298 
   12850    297.59859   -899.74958    279253.37   -75787.658    7573.0434   -83360.702    728.77643 
   12900    294.78482   -774.21611     279278.2   -75764.445    7501.4411   -83265.886    731.23181 
   12950    293.35599   -1028.6659    279538.88    -75755.31    7465.0813   -83220.391    733.59846 
   13000    299.10153   -1031.4585    279726.67   -75724.258    7611.2892   -83335.547    736.05632 
   13050     294.4014   -1030.1223    279941.58   -75698.528     7491.684   -83190.212    740.54661 
   13100    296.01484    -1138.504    279957.14   -75650.394    7532.7414   -83183.136    743.01711 
   13150     296.0857   -1115.4839    279756.05   -75671.677    7534.5446   -83206.222    746.00622 
   13200    292.92261   -1095.0402    279491.48   -75690.722    7454.0531   -83144.775    748.43928 
   13250    298.89654   -754.68244    279401.88   -75677.079    7606.0727   -83283.152    750.55008 
   13300    303.31669   -1102.1298    279640.83   -75685.426     7718.553   -83403.979      753.617 
   13350    297.60403   -1001.2858    279761.84   -75677.949    7573.1818    -83251.13      755.876 
   13400    295.87508   -1220.5694    279865.84   -75726.011     7529.185   -83255.196    758.95617 
   13450    299.36082   -1418.3208     279928.2   -75680.403    7617.8873    -83298.29    762.79229 
   13500    299.17083   -952.19951    279701.96   -75676.534    7613.0525   -83289.586    764.00129 
   13550    301.47928   -1042.3296    279564.21   -75669.093    7671.7962   -83340.889    766.74477 
   13600    294.79922   -815.02308    279494.38   -75686.038    7501.8075   -83187.846    769.34684 
   13650    297.07289   -1146.6242    279839.52   -75699.812    7559.6658   -83259.478    772.42798 
   13700    292.67269   -1141.0344    280260.35   -75705.384    7447.6934   -83153.077    775.17841 
   13750    300.10257   -1340.8346    280236.88   -75694.974    7636.7627   -83331.736    775.73167 
   13800    293.87001   -1076.5819     279762.3   -75673.047    7478.1616   -83151.208    778.18268 
   13850    295.23797   -721.06027    279419.95   -75676.144    7512.9725   -83189.116    779.83452 
   13900    300.66787   -962.96454    279717.17   -75704.081     7651.148   -83355.229    783.53482 
   13950     298.8213   -805.37878    280129.21   -75714.702     7604.158    -83318.86     786.3864 
   14000    297.87113   -1278.7572    280713.41   -75719.314    7579.9789   -83299.293    790.06892 
   14050    296.71884   -1390.6257    280382.19   -75726.805    7550.6563   -83277.462    790.69058 
   14100    298.92224   -752.06045    279062.05   -75706.554    7606.7266   -83313.281    790.01559 
   14150      296.419   -902.73296    278466.88   -75728.118    7543.0262   -83271.144    790.03994 
   14200    299.42173   -829.98618    279037.12   -75767.124    7619.4374   -83386.562     793.3523 
   14250      298.294   -1136.7167     280040.6    -75795.29    7590.7397    -83386.03    798.28526 
   14300    294.95277   -1129.6188    280535.05   -75779.466    7505.7149   -83285.181    801.39926 
   14350    294.59178     -919.291    280193.76   -75806.961    7496.5286   -83303.489    804.30029 
   14400    296.24817   -934.27376    279721.08   -75800.425    7538.6791   -83339.104    806.30865 
   14450    294.05021   -990.41217    279593.26   -75789.836    7482.7472   -83272.583    808.16545 
   14500    296.35008   -1211.9956    279522.05   -75752.125    7541.2724   -83293.398    808.96819 
   14550    297.36477    -967.2445    279143.19   -75777.225    7567.0934   -83344.319    810.42726 
   14600    297.67975   -591.99819    278957.79    -75795.68    7575.1088   -83370.789    812.95836 
   14650    298.75784   -1122.3187    279566.75   -75766.566    7602.5431   -83369.109    816.33301 
   14700    295.55681   -1189.0877    280016.94   -75709.481    7521.0859   -83230.567      820.067 
   14750     295.5136   -966.07459    279999.59   -75722.573    7519.9864   -83242.559    822.86268 
   14800    296.56627   -1073.7492    279623.13   -75726.032    7546.7738   -83272.806    824.58037 
   14850    296.98478   -948.20529    279148.15   -75737.919    7557.4237   -83295.343     825.5999 
   14900    292.89026   -940.29783    279286.59   -75731.082    7453.2297   -83184.312    828.69052 
   14950    301.37932    -1100.416    279628.18   -75788.282    7669.2525   -83457.534    835.35351 
   15000    296.95615   -1193.0328    279662.43   -75791.284    7556.6953    -83347.98    838.67202 
   15050    294.82446   -978.69602    279430.33   -75831.969    7502.4497   -83334.419    839.67446 
   15100    294.43488   -973.81223    279325.99   -75840.677    7492.5359   -83333.212     840.6601 
   15150    296.10866   -1189.8232    279360.35   -75866.519    7535.1291   -83401.648    842.98797 
   15200    295.23238   -1213.9324    279422.29   -75907.772      7512.83   -83420.602    846.63972 
   15250    294.15605   -814.74441    279510.37   -75886.163    7485.4407   -83371.604    849.77003 
   15300    290.64158   -1308.3937     279760.8   -75879.175    7396.0073   -83275.183    851.45816 
   15350    292.15605   -879.29289    279717.78   -75877.282    7434.5462   -83311.828    853.18689 
   15400    292.31826   -1090.0803    279559.93   -75897.521     7438.674   -83336.195    856.12897 
   15450    287.47382   -1024.0023    279394.33   -76005.127    7315.3967   -83320.524    858.98703 
   15500    292.91085   -737.31723    279101.94   -76021.532    7453.7539   -83475.286    861.38438 
   15550    292.30871    -913.3054    279171.76   -76042.263     7438.431   -83480.694    863.34585 
   15600     291.5352   -876.82208    279570.71   -75976.907    7418.7474   -83395.654    866.31974 
   15650    292.36396   -1086.0093    279821.18   -75920.135     7439.837   -83359.972    869.88504 
   15700    296.22064   -1275.8004    279588.79   -75876.796    7537.9786   -83414.775     871.0608 
   15750    294.85079   -911.21422    279160.55   -75843.114    7503.1197   -83346.234    871.74943 
   15800     290.3367   -903.16325    279142.82   -75856.871    7388.2488   -83245.119    874.35895 
   15850    295.46351   -1029.7624     279356.9   -75861.658    7518.7118    -83380.37    877.34161 
   15900    288.46241   -1084.1163    279525.38   -75855.672    7340.5536   -83196.226    879.88172 
   15950    292.84621   -1035.5519    279660.46   -75872.247    7452.1089   -83324.356     882.6947 
   16000    292.84141   -727.93092    279435.77   -75841.483    7451.9868    -83293.47     885.7025 
   16050    296.77625   -1169.1859    279576.76   -75854.028    7552.1173   -83406.145    888.89706 
   16100    288.98124   -827.69783    279496.31   -75856.026    7353.7563   -83209.783     891.4138 
   16150    298.38768   -858.45338    279402.97   -75842.877    7593.1236   -83436.001    894.60322 
   16200    297.19966   -925.14686    279408.42   -75758.835    7562.8919   -83321.727    897.37616 
   16250    297.21738    -1033.333     279659.2   -75752.122    7563.3427   -83315.465    898.86968 
   16300     299.0616   -853.31153    279663.84    -75735.85     7610.273   -83346.123    902.70174 
   16350    294.04189   -1095.5083    279766.82   -75682.806    7482.5355   -83165.341    904.37508 
   16400    296.33407   -1102.1192    279640.89   -75732.365    7540.8651    -83273.23    906.47575 
   16450    294.97573   -1025.6158    279631.38   -75716.108    7506.2993   -83222.407    910.12238 
   16500    296.87128   -770.83967    279499.89   -75719.134    7554.5356    -83273.67    914.32379 
   16550    295.14157   -1032.5871    279700.28   -75790.078    7510.5193   -83300.598    917.75431 
   16600    298.50758   -1291.1167    279979.99   -75765.727    7596.1747   -83361.902    919.34093 
   16650    294.77336   -1136.2171     279601.1   -75818.992    7501.1495   -83320.141    922.27765 
   16700    298.02605   -802.68437    279218.73   -75799.226    7583.9213   -83383.147    923.95926 
   16750    294.74806   -829.58526    279286.78   -75769.059    7500.5057   -83269.564    927.01195 
   16800    299.50982    -757.9654    279704.54   -75738.687    7621.6789   -83360.366    929.70897 
   16850     297.3245   -1108.2297    280143.81   -75712.539    7566.0688   -83278.608    933.10061 
   16900    293.45388    -1224.649    280242.88   -75720.582    7467.5723   -83188.154    937.20346 
   16950    296.32935   -1308.0592    279685.08   -75723.156     7540.745   -83263.901    937.57237 
   17000    296.47604   -687.19279    279081.09   -75747.312    7544.4778    -83291.79    939.10543 
   17050    295.71595   -605.10011    279128.36   -75723.377    7525.1357   -83248.513    942.77112 
   17100    296.10215   -950.31563    279732.98   -75703.053    7534.9634   -83238.016    945.94947 
   17150    295.82835   -1350.5056    280303.44   -75712.643    7527.9959   -83240.638    951.17542 
   17200    295.12061   -1151.7476    280200.69   -75730.193    7509.9859   -83240.179    952.52074 
   17250    297.53081   -977.34584    279907.13    -75745.19    7571.3188   -83316.508    953.71151 
   17300    294.88823   -972.49384    279649.66   -75771.822    7504.0724   -83275.894    955.15002 
   17350    295.39984   -895.93991    279376.36   -75805.389    7517.0916   -83322.481    955.85628 
   17400    295.33184    -1237.962    279259.41   -75819.085     7515.361   -83334.446    958.32533 
   17450    295.86872   -863.34964    279376.23   -75806.102    7529.0232   -83335.126    961.44003 
   17500    294.42444   -1106.4852    279548.37   -75874.607    7492.2704   -83366.877    963.54781 
   17550    291.10766   -844.65187    279578.25   -75871.634    7407.8677   -83279.501    965.54175 
   17600    299.89928   -993.77187    279648.83   -75877.374    7631.5896   -83508.964    968.17304 
   17650    289.15563   -1021.7665    279714.09   -75843.964     7358.194   -83202.158     970.9482 
   17700    290.49595   -1011.6584     279581.4    -75876.82    7392.3013   -83269.121    973.22991 
   17750    294.67281   -1078.5244    279304.74   -75896.803    7498.5907   -83395.394    974.66878 
   17800    290.12881   -825.16797    279168.03   -75915.364    7382.9588   -83298.322     976.4414 
   17850    290.33204   -802.67427    279443.64   -75946.628    7388.1304   -83334.759    979.48135 
   17900    291.98537   -1144.6984    279963.89   -75884.433    7430.2029   -83314.636    984.10557 
   17950    295.97354   -1135.5071    279847.42    -75925.37    7531.6905    -83457.06    984.75132 
   18000    295.36027   -922.08008    279388.52   -75926.985    7516.0847   -83443.069    985.69209 
   18050    290.52144   -843.01747    279054.16   -75973.628    7392.9501   -83366.578    987.35492 
   18100    294.06969   -986.33317    279130.04   -75981.736    7483.2429   -83464.979    990.34986 
   18150    287.12003   -899.81402    279445.56    -75987.16    7306.3938   -83293.554    992.99745 
   18200    293.91395   -1070.7676    279569.93   -75981.541    7479.2799   -83460.821    995.66842 
   18250    290.92086   -922.65077    279376.41   -76015.813    7403.1141   -83418.927    998.03887 
   18300    293.70005   -934.34048    279219.85   -75987.622    7473.8368   -83461.459    1000.0567 
   18350    291.03153   -1030.2791    279368.67   -75957.503    7405.9303   -83363.433     1003.866 
   18400    291.71906   -1160.5823    279413.59   -75987.191    7423.4261   -83410.618      1006.72 
   18450    293.10491   -757.49199    279391.17   -75963.915    7458.6919   -83422.607    1010.1358 
   18500    295.31037   -865.59495    279337.85   -75925.551    7514.8147   -83440.366    1012.0461 
   18550    293.23347   -1003.3096    279161.94   -75905.823    7461.9636   -83367.786     1013.607 
   18600      295.585    -1028.627    279051.71   -75907.819    7521.8034   -83429.622    1015.6143 
   18650    297.73948   -690.95091    279125.43    -75886.06    7576.6288   -83462.689     1018.822 
   18700    295.99548   -1077.4132    279700.63   -75809.446    7532.2489   -83341.695    1022.0789 
   18750    293.89235   -1252.9544     279984.4   -75792.677    7478.7303   -83271.408    1025.3755 
   18800    295.21979   -909.48299    279618.29   -75726.474    7512.5097   -83238.984     1026.501 
   18850    298.70929   -984.91396    279421.59   -75733.288    7601.3076   -83334.596    1028.3487 
   18900    293.35786   -995.28762    279534.84   -75779.581     7465.129    -83244.71    1030.7951 
   18950    293.57741   -944.71515    279902.38   -75829.859    7470.7159   -83300.575    1032.6952 
   19000     291.7773   -1240.0909    280030.42   -75798.332    7424.9082    -83223.24    1033.9958 
   19050    292.21079   -1011.9695    279709.73   -75825.674    7435.9391   -83261.613    1033.6605 
   19100    296.16595   -822.63365    279174.59    -75816.05    7536.5868   -83352.637    1033.6422 
   19150    294.58757    -964.2859    278964.92   -75800.013    7496.4215   -83296.434    1036.6907 
   19200    296.37678   -970.87219    279363.81   -75788.315    7541.9518   -83330.267    1040.2819 
   19250    298.48511   -960.41281    279795.29   -75773.377     7595.603    -83368.98    1043.9591 
   19300    293.25458   -766.57656     280027.6   -75766.291    7462.5008   -83228.792    1046.1493 
   19350    296.25729   -1145.7086    279911.89   -75756.258    7538.9113    -83295.17      1047.11 
   19400    295.26042   -828.35729    279603.14   -75742.306    7513.5436   -83255.849     1050.025 
   19450    300.28541   -923.20323    279545.95     -75719.8    7641.4156   -83361.215    1053.7269 
   19500    295.55828   -958.05178    279861.51   -75709.704    7521.1234   -83230.828    1057.7286 
   19550     293.4444   -1441.9615       280148   -75746.197    7467.3311   -83213.528    1060.1964 
   19600    298.21109   -1108.8861    279801.91   -75767.183    7588.6298   -83355.813    1059.9275 
   19650    294.97905   -826.83026    279225.59   -75764.281    7506.3836   -83270.665    1061.6123 
   19700    292.73494   -647.12778    279285.83   -75769.363    7449.2774    -83218.64    1065.4075 
   19750    293.18736   -1409.2644     279824.4   -75740.676    7460.7902   -83201.466    1069.7142 
   19800    297.55526   -1170.7986    280206.81   -75725.735    7571.9408   -83297.676    1073.8731 
   19850    296.04624   -1277.0789    280436.15   -75729.694    7533.5405   -83263.234    1077.0832 
   19900    299.66662    -1207.041    279742.56   -75725.726     7625.669   -83351.395    1078.3054 
   19950    298.40574   -748.57136    278940.98   -75748.057    7593.5831   -83341.641     1079.746 
   20000    295.62569   -726.76081    278837.14   -75765.477    7522.8388   -83288.316    1080.8444 
   20050    295.63423   -1174.3657    279312.26   -75779.171    7523.0562   -83302.227    1083.4421 
   20100     297.5348   -995.82265    279687.24   -75795.198    7571.4203   -83366.619    1087.6316 
   20150    297.60204   -974.35975    279772.72   -75852.025    7573.1314   -83425.156    1091.7594 
   20200    296.19246   -1119.5395    279937.65    -75826.82    7537.2616   -83364.082    1093.7961 
   20250    296.24021   -929.40527    279750.81   -75836.708    7538.4767   -83375.185    1094.6548 
   20300     299.9922   -926.24689    279424.27   -75843.816    7633.9542   -83477.771    1096.0627 
   20350    294.38714   -756.12407     279287.1   -75803.979    7491.3213   -83295.301    1096.8187 
   20400    296.89181   -927.00587    279507.92   -75803.335    7555.0579   -83358.393    1099.9796 
   20450    297.12636   -981.62651    279760.67    -75813.24    7561.0266   -83374.267    1104.1946 
   20500    289.67205   -1310.9519    280013.32   -75827.564    7371.3355   -83198.899    1107.5925 
   20550    295.38207   -1054.3906    279952.72   -75796.765    7516.6394   -83313.404    1109.6961 
   20600    295.09082   -815.27307    279248.08   -75801.024     7509.228   -83310.252    1109.8523 
   20650    296.46646   -952.24096    278901.72   -75832.608    7544.2341   -83376.842     1111.406 
   20700    292.73529   -936.79233    278911.06   -75849.094    7449.2863    -83298.38    1114.4331 
   20750    293.72251   -818.04148    279368.73   -75802.379    7474.4083   -83276.787    1119.5215 
   20800    295.60116   -1105.7254    280121.34   -75820.251    7522.2146   -83342.466    1125.0426 
   20850       297.16   -1234.3218    280341.43   -75787.108    7561.8825   -83348.991    1127.8666 
   20900    295.29352   -1142.2877    279665.11   -75790.693    7514.3859   -83305.079    1129.0931 
   20950     290.8978   -630.90516    279026.94    -75837.25    7402.5273   -83239.777    1130.0988 
   21000    295.26365   -796.02071    278932.32   -75810.791     7513.626   -83324.417    1133.5564 
   21050    292.57541   -963.87115    279289.69   -75822.599    7445.2179   -83267.817    1138.2946 
   21100    292.31625   -1010.1834    279591.51   -75817.695    7438.6228   -83256.318    1141.0323 
   21150    294.55922   -1280.9781    279717.17   -75809.477    7495.7001   -83305.177    1145.3376 
   21200    295.97815   -842.60584    279734.15   -75786.234     7531.808   -83318.042    1147.5027 
   21250    292.94622   -1283.5228    279603.13     -75791.9    7454.6539   -83246.554    1150.1312 
   21300    299.69593   -858.89307    279171.68   -75791.884     7626.415   -83418.299     1150.648 
   21350    298.22772   -850.49394    279032.94   -75804.498    7589.0531   -83393.551    1152.7679 
   21400    298.68252   -1211.8174    279247.32   -75790.561    7600.6264   -83391.188    1156.2836 
   21450    298.29209   -875.61799    279417.43   -75752.943    7590.6912   -83343.634    1157.9368 
   21500    294.94827   -1273.2311     279509.4   -75750.749    7505.6004   -83256.349    1161.3879 
   21550    300.23894    -979.6307     279455.6   -75741.253     7640.233   -83381.486    1164.2951 
   21600    294.47619   -1082.9895    279720.52    -75721.12    7493.5872   -83214.707     1169.358 
   21650     300.6459   -916.62199    279856.78   -75682.482    7650.5889   -83333.071    1170.9411 
   21700    297.73881   -778.33259    279789.18   -75645.961    7576.6116   -83222.573    1173.8582 
   21750    297.03924   -1182.7192    279747.43    -75671.79    7558.8095   -83230.599     1176.941 
   21800    299.95515   -842.47783    279816.02   -75648.907    7633.0114   -83281.919    1181.3806 
   21850    298.24061   -1123.5567    280065.65   -75623.755     7589.381   -83213.136    1185.9795 
   21900    299.55165   -1028.1536    280090.16   -75638.362    7622.7434   -83261.106    1190.1365 
   21950     297.9476   -707.74558    279992.53    -75642.56    7581.9247   -83224.485    1192.9099 
   22000    301.09752   -823.20843    279864.34   -75645.594    7662.0815   -83307.676    1197.1218 
   22050    302.07441   -879.51588    279643.83   -75616.118    7686.9405   -83303.059    1200.7516 
   22100    297.26101   -1177.2435    279431.67    -75608.34    7564.4532   -83172.793    1202.4971 
   22150    300.16702   -914.23607    279475.85   -75631.405    7638.4029   -83269.808     1204.895 
   22200    301.90672   -1276.9838     280108.7   -75574.079    7682.6732   -83256.752    1209.3506 
   22250    299.13651   -1242.5748    280311.07   -75561.955    7612.1792   -83174.134    1211.6167 
   22300    299.17939   -990.56045    279864.55   -75502.628    7613.2703   -83115.898     1213.543 
   22350    297.88792   -916.54498    279381.41   -75523.827    7580.4062   -83104.233    1213.4141 
   22400    300.16687   -901.25324    279330.78   -75561.334    7638.3989   -83199.733    1215.3273 
   22450    299.47706   -877.81139    279628.56   -75555.746    7620.8452   -83176.592    1221.0445 
   22500    302.41865   -896.44497    280118.58   -75524.747    7695.7004   -83220.447     1225.794 
   22550    301.70941   -1417.4594    280263.06   -75536.111    7677.6524   -83213.763    1227.9173 
   22600    300.00518    -1064.579     279898.9   -75599.612    7634.2843   -83233.896    1229.1024 
   22650    297.44967   -789.69668    279495.17   -75571.931    7569.2539   -83141.185    1227.8594 
   22700    301.74234   -865.63759    279441.58   -75593.171    7678.4903   -83271.661     1229.483 
   22750      301.545   -1014.9744    279514.74   -75586.205    7673.4685   -83259.674    1232.5341 
   22800    297.87811   -744.15033    279518.63   -75599.719    7580.1566   -83179.876    1232.7885 
   22850    297.90098     -913.128    279741.34   -75602.431    7580.7384    -83183.17    1235.5534 
   22900    297.91919   -1062.3168    280116.91   -75629.657    7581.2019   -83210.859    1239.7909 
   22950    294.12763   -1066.5412     280191.2   -75637.798    7484.7173   -83122.515     1243.432 
   23000    293.90187    -875.5527    279840.93   -75674.642    7478.9725   -83153.614    1244.3705 
   23050    301.37554    -730.9707     279447.2   -75626.296    7669.1562   -83295.452    1245.9673 
   23100    298.86473    -840.5439    279488.46    -75609.15    7605.2631   -83214.413    1249.0413 
   23150    299.80844   -991.66106    279849.36   -75614.982     7629.278   -83244.261    1252.8105 
   23200    298.93794   -1096.8437    280213.09   -75616.262    7607.1261   -83223.388    1257.9802 
   23250     297.5901   -1227.3073     280258.2   -75626.829    7572.8274   -83199.657    1261.0303 
   23300    292.47925   -1136.7022    279968.27   -75641.239    7442.7707    -83084.01    1263.7437 
   23350    300.41977   -931.15969    279492.38   -75660.295    7644.8345   -83305.129    1265.6057 
   23400    297.04031    -768.5341    279446.42   -75679.786    7558.8369   -83238.623    1269.1404 
   23450    299.57699   -972.37499    279546.95   -75683.727    7623.3882   -83307.115    1272.0681 
   23500    297.50873   -1326.9288    279828.51   -75721.913     7570.757   -83292.669    1275.8519 
   23550    295.55721   -1094.8242    279872.23   -75714.559    7521.0961   -83235.656    1279.5136 
   23600    294.40435   -704.34606    279668.49   -75686.669    7491.7592   -83178.428    1282.8351 
   23650    298.93928   -978.08815    279803.65   -75663.002    7607.1604   -83270.162    1287.8685 
   23700    299.49462    -969.1262    280134.86    -75606.42     7621.292   -83227.712    1291.0182 
   23750    302.62706   -1014.9245    280366.82   -75603.944     7701.004   -83304.948      1294.14 
   23800    299.84536   -1129.4793    280170.73    -75573.67    7630.2176   -83203.888    1296.7447 
   23850    299.59935   -845.38292    279733.16   -75609.322    7623.9572    -83233.28    1297.6379 
   23900     300.0088   -1014.9781    279730.15   -75621.391    7634.3766   -83255.768    1299.5931 
   23950    298.48523   -1172.2432    279747.39   -75674.284     7595.606    -83269.89    1303.7036 
   24000    299.69451   -814.64822    279391.84   -75705.337    7626.3788   -83331.716    1306.1455 
   24050    296.76823   -882.15374    279192.09    -75669.42    7551.9132   -83221.333    1307.6042 
   24100    298.35461   -1154.4428    279460.66    -75625.68    7592.2822   -83217.962    1311.0222 
   24150    296.68782   -1174.6883    280074.75   -75640.392    7549.8669   -83190.259    1315.8511 
   24200    294.64571   -1259.1634    280429.84    -75656.54     7497.901   -83154.441    1319.6677 
   24250     294.3195   -884.55029    279967.05   -75681.476       7489.6   -83171.076     1321.916 
   24300     295.8417   -812.59793    279518.17   -75669.833    7528.3357   -83198.169    1324.8178 
   24350     291.9655   -745.98681    279463.16   -75683.634    7429.6974   -83113.331    1329.9213 
   24400    297.15903    -838.0203    279656.07   -75653.823     7561.858   -83215.681    1333.9653 
   24450    292.57445   -1270.2686    279837.21    -75712.97    7445.1933   -83158.163    1338.3177 
   24500    295.26984   -902.62541    279785.18   -75723.402    7513.7835   -83237.185    1342.5483 
   24550    292.42175   -1025.5363    279710.23   -75694.483    7441.3075    -83135.79    1345.3742 
   24600    297.64106   -776.56122    279453.82   -75686.309    7574.1243   -83260.433    1349.9441 
   24650    297.56945   -948.55441    279615.87   -75672.017    7572.3021   -83244.319    1355.0715 
   24700    299.93814   -982.32563    279707.38   -75618.001    7632.5784    -83250.58    1357.6263 
   24750    295.79752    -718.1628    279739.05   -75594.036    7527.2113   -83121.247    1359.6474 
   24800    304.88514   -1134.6503    280092.36   -75523.711    7758.4656   -83282.176    1364.0824 
   24850    304.73322   -1003.4051    280221.05   -75502.314    7754.5997   -83256.914     1366.374 
   24900     302.0905   -794.58735    279954.79   -75480.899    7687.3499   -83168.249    1368.8792 
   24950    301.50331   -1039.6878    279717.62   -75522.683    7672.4076   -83195.091    1369.2198 
   25000    301.76142   -894.52783    279599.83   -75567.355    7678.9759   -83246.331    1371.6199 
   25050    298.52947     -577.131    279502.25   -75602.857    7596.7318   -83199.588     1377.372 
   25100    298.67339   -1010.0245    279699.06   -75543.075    7600.3942   -83143.469    1381.5715 
   25150    297.21319   -952.08073    279957.95    -75572.09    7563.2362   -83135.326    1384.5028 
   25200    298.67329   -1062.1536    280176.31   -75596.219    7600.3916   -83196.611    1387.1207 
   25250    297.13295   -1148.7489     279807.8   -75651.263    7561.1942   -83212.457    1389.8408 
   25300    300.17606   -657.14868    279254.06   -75704.934    7638.6329   -83343.567    1391.2807 
   25350    299.25466   -1203.6049    279018.35   -75757.602    7615.1857   -83372.788      1392.22 
   25400     294.0161   -534.82546    278997.67   -75777.133    7481.8793   -83259.012    1394.8305 
   25450    294.70055   -863.25823    279593.64   -75707.661    7499.2966   -83206.958     1398.196 
   25500    295.36779   -1489.5546    280228.77   -75699.789     7516.276   -83216.065     1402.846 
   25550    292.30264   -1178.9569    279983.98   -75734.088    7438.2764   -83172.364    1404.3349 
   25600    292.17511   -946.12117    279130.52   -75763.915    7435.0312   -83198.946    1404.4334 
   25650    294.97917   -695.00324    278471.27   -75779.567    7506.3866   -83285.954    1405.8624 
   25700    295.28469   -754.59346    278745.59    -75763.99    7514.1612   -83278.151    1412.0322 
   25750     292.9495    -919.6496    279981.16   -75743.189    7454.7373   -83197.927    1419.2726 
   25800    288.92668   -1143.2998    280775.34    -75724.31     7352.368   -83076.678    1424.0417 
   25850    294.10302   -1174.0987     280457.7   -75710.255    7484.0911   -83194.346     1425.931 
   25900     299.1434   -1000.1943    279659.83   -75679.664    7612.3546   -83292.019    1426.4378 
   25950    296.75141   -680.35185    279058.15   -75716.913    7551.4852   -83268.398    1426.9661 
   26000     295.2236   -983.35605    279360.89   -75696.074    7512.6067   -83208.681    1432.0278 
   26050    294.93328   -1336.5407    279905.15   -75764.702    7505.2189   -83269.921    1435.9065 
   26100    292.81525   -863.89378    280042.79   -75795.081    7451.3211   -83246.402    1436.8684 
   26150    294.34271    -1026.479    279926.99   -75800.818    7490.1905   -83291.008    1438.8397 
   26200    292.44332   -818.83668    279536.15   -75797.307    7441.8565   -83239.163    1437.9111 
   26250    293.77739   -1148.1146    279338.71   -75792.068    7475.8047   -83267.873    1438.0748 
   26300    293.93767   -677.37587    279336.52   -75819.062    7479.8834   -83298.945    1440.3289 
   26350    294.08154   -1090.8265    279659.13   -75827.517    7483.5445   -83311.062    1445.3888 
   26400    291.48303    -1050.237    279619.36   -75819.478    7417.4199   -83236.898    1446.8931 
   26450    294.41035   -1126.9474    279638.03   -75781.647    7491.9119   -83273.559    1448.4884 
   26500    292.31574   -910.39465    279875.18   -75785.977    7438.6098   -83224.587     1451.094 
   26550    299.97316   -926.41049    280011.61   -75780.577    7633.4697   -83414.046    1454.0983 
   26600    293.92271   -835.06484    279923.54   -75791.682    7479.5028   -83271.185    1454.4221 
   26650    295.73123   -1252.1787    279937.18   -75779.501    7525.5244   -83305.025    1457.6272 
   26700    296.17827   -1087.7634    279624.19   -75750.018    7536.9005   -83286.919      1462.08 
   26750    297.90705   -1017.7487    279252.16   -75762.397     7580.893   -83343.289    1464.5912 
   26800    289.98221    -1101.522    279272.62     -75811.3    7379.2281   -83190.528    1468.3269 
   26850    290.07749    -681.7276    279409.33   -75801.075    7381.6528   -83182.728    1471.4643 
   26900    293.83081    -1306.058    279738.82   -75755.238    7477.1642   -83232.403    1474.5874 
   26950    292.96003   -1009.2522    279830.11   -75777.586    7455.0052   -83232.592    1478.0904 
   27000    295.01771   -901.63766    279688.45   -75790.843    7507.3675    -83298.21    1482.7839 
   27050    295.82824   -1095.6279    279569.03   -75809.054    7527.9931   -83337.048    1485.0994 
   27100    292.67098    -1001.626     279466.1   -75779.035    7447.6499   -83226.685    1487.3717 
   27150    290.52285   -953.75286    279404.92   -75802.905    7392.9858   -83195.891     1488.371 
   27200    293.38784   -962.08934    279439.37   -75787.516    7465.8918   -83253.408    1491.4037 
   27250    295.44609   -1092.9852    279766.31   -75770.283    7518.2684   -83288.552    1497.2181 
   27300    293.34039   -1358.3086    280128.82   -75755.973    7464.6844   -83220.657    1502.2219 
   27350    294.59667   -1103.2099    280059.49   -75726.009     7496.653   -83222.662    1503.0035 
   27400      297.379   -789.33549    279561.75    -75703.54    7567.4557   -83270.995    1504.1895 
   27450    294.53636   -1167.3706    279059.66   -75737.313    7495.1183   -83232.431    1504.7022 
   27500    296.82747   -801.38072     278921.3   -75722.105    7553.4207   -83275.526    1507.3796 
   27550      298.081   -909.00651    279425.73   -75721.164    7585.3196   -83306.484    1512.7763 
   27600    296.27437   -995.64544    280062.92   -75710.173     7539.346   -83249.519    1517.5559 
   27650    295.32617   -1199.5808    280121.75   -75728.973     7515.217    -83244.19     1521.531 
   27700    299.25767   -892.40797     279629.1   -75749.611    7615.2625   -83364.873    1521.6233 
   27750    293.40896   -895.73436    279542.18   -75716.956    7466.4294   -83183.386    1524.2275 
   27800    298.02597   -925.02636    279514.59    -75733.76    7583.9191    -83317.68    1525.8459 
   27850    295.98089   -998.55586    279458.18   -75700.624    7531.8777   -83232.502    1530.2247 
   27900    295.67695   -1191.2692    279697.86   -75711.022    7524.1432   -83235.166    1533.2444 
   27950    302.04403   -1095.8257     279860.4   -75736.152    7686.1674   -83422.319     1536.502 
   28000    292.08461   -1061.3347    279832.61   -75733.883    7432.7284   -83166.612    1537.6906 
   28050    295.02415   -821.24525    279388.24   -75729.231    7507.5313   -83236.762    1536.6787 
   28100    297.16656   -1002.3763     279239.4   -75755.155    7562.0495   -83317.204    1536.4434 
   28150      301.324   -1197.7107    279557.74   -75734.785    7667.8446    -83402.63    1542.1798 
   28200    292.68114   -1102.9693    279932.78     -75730.5    7447.9082   -83178.408    1545.3901 
   28250    296.07027   -1265.5873     280015.6   -75787.011     7534.152   -83321.163    1549.6959 
   28300    295.55262   -1077.2537    279475.91   -75787.845    7520.9794   -83308.824    1547.5417 
   28350    295.51822   -762.70322    279008.71   -75787.256     7520.104    -83307.36    1547.5436 
   28400    295.06905   -616.41898    278979.96   -75744.985    7508.6738   -83253.659    1551.7906 
   28450    292.06174   -1248.3429    279756.77   -75728.792    7432.1462   -83160.938    1559.4894 
   28500    292.91439   -1301.0962    280386.57   -75716.161    7453.8439   -83170.005    1565.7536 
   28550    293.35579    -946.0839    280294.66   -75738.416    7465.0763   -83203.492    1569.0855 
   28600    294.73518   -888.13757    279731.84   -75727.229    7500.1779   -83227.407    1572.3953 
   28650    300.05302   -874.55427    279104.78   -75759.447    7635.5019   -83394.949    1573.8258 
   28700     293.9521   -832.97007    278910.73   -75767.379    7480.2506    -83247.63    1574.8336 
   28750    295.41067   -981.96251    279386.28   -75762.244    7517.3672   -83279.611    1576.7771 
   28800    296.17464   -903.29205    279699.11   -75770.577    7536.8079   -83307.384    1580.0049 
   28850    296.87626   -1015.4888    279845.91   -75747.985    7554.6623   -83302.647    1584.3403 
   28900     296.9967   -1016.3511    279725.98   -75797.528     7557.727   -83355.255    1586.6056 
   28950    293.89562   -1090.0836    279529.83   -75814.804    7478.8133   -83293.617    1589.1406 
   29000    294.41406   -1040.4865     279182.7   -75850.325    7492.0062   -83342.331    1591.9032 
   29050    295.08317   -933.34675    278836.99   -75843.559    7509.0331   -83352.592      1591.71 
   29100     293.3803   -1027.5383    278917.14   -75876.251       7465.7    -83341.95    1595.0386 
   29150    296.06265   -873.09183    279347.36   -75865.925    7533.9582   -83399.883    1600.0682 
   29200     294.2508    -945.2948    279753.16   -75869.733    7487.8518   -83357.585    1604.7382 
   29250    293.61506   -1214.8735    279683.52   -75887.145    7471.6738   -83358.819    1606.0401 
   29300    289.30072   -1112.9374    279525.73   -75907.813    7361.8862   -83269.699    1607.6461 
   29350    291.51621   -943.93896    279276.57   -75907.983    7418.2642   -83326.247    1607.4407 
   29400    296.07091   -719.66912    278949.08   -75888.795    7534.1683   -83422.963    1610.2226 
   29450    291.29583   -1033.2154    279118.45   -75853.482    7412.6562   -83266.138    1613.5327 
   29500    294.81061    -997.5616    279483.27   -75832.999    7502.0973   -83335.097     1615.594 
   29550     294.4487   -1236.5848    279916.22   -75768.821    7492.8876   -83261.708    1622.1189 
   29600    296.72329   -1077.7399    280103.93   -75768.807    7550.7695   -83319.577     1624.249 
   29650    298.80855   -1171.0029    279983.62   -75744.388    7603.8337   -83348.221    1625.8877 
   29700    289.99356   -952.83522    279719.66   -75749.375     7379.517   -83128.891    1627.2292 
   29750    298.65779    -818.6017    279445.11   -75709.672    7599.9972   -83309.669    1628.2283 
   29800    299.68012   -888.34826    279635.04   -75678.233    7626.0125   -83304.246    1629.3821 
   29850    296.55239    -993.8737    280089.98   -75639.258    7546.4208   -83185.679    1634.6505 
   29900    299.87119   -1231.7259    280251.31   -75639.706    7630.8747   -83270.581    1639.2903 
   29950    298.33822   -918.20089    279800.04   -75649.741     7591.865   -83241.606    1640.8862 
   30000    301.26601   -919.97052       279504   -75630.297    7666.3689   -83296.666    1640.8895 
   30050    299.60348   -870.93674    279495.09   -75619.901    7624.0623   -83243.963    1641.5723 
   30100    297.04545   -1174.8367    279857.04   -75623.565    7558.9676   -83182.533    1644.8709 
   30150    299.86704   -940.63983    280130.95   -75608.284    7630.7691   -83239.053    1649.0154 
   30200    297.14052   -757.43034    280181.82   -75637.919    7561.3869   -83199.306    1651.4125 
   30250    297.19946   -1057.4122    280088.32    -75663.18    7562.8867   -83226.067    1655.2455 
   30300    296.49073   -649.08756    279732.22   -75720.542    7544.8516   -83265.394    1656.3798 
   30350    297.50735   -917.52834    279501.56     -75748.1    7570.7218   -83318.822    1658.0322 
   30400    296.45121    -1191.089    279538.93   -75779.961    7543.8461   -83323.807    1661.8781 
   30450     295.0892   -942.42643    279488.78   -75811.386    7509.1866   -83320.573    1664.9877 
   30500    296.79563   -1001.0401     279641.4   -75795.671    7552.6104   -83348.282    1669.7953 
   30550    296.65142    -1110.456    279960.41   -75725.058    7548.9406   -83273.999    1672.9961 
   30600    299.54558   -1180.8244    280163.83   -75695.509    7622.5888   -83318.097    1674.8582 
   30650    303.42573    -1236.481    280013.42   -75655.443    7721.3279   -83376.771    1674.8686 
   30700    300.06521   -935.20931    279441.14   -75661.217     7635.812   -83297.029    1673.6435 
   30750    292.81863   -815.69878    279259.61   -75644.982     7451.407   -83096.389    1672.8039 
   30800    300.55607   -1142.2355    279485.35    -75651.73    7648.3031   -83300.033    1675.7405 
   30850    299.07288   -1152.2023    279850.41   -75608.594    7610.5601   -83219.154    1679.2134 
   30900    297.88715   -1393.8298    280452.72   -75583.439    7580.3866   -83163.825    1684.1439 
   30950    299.50228   -1207.9585    280266.93   -75616.847     7621.487   -83238.334    1688.5624 
   31000    294.84688   -982.24411    279491.89   -75632.457    7503.0204   -83135.477    1687.6075 
   31050    302.72107   -867.98156    278902.48   -75663.405    7703.3962   -83366.801    1687.7652 
   31100    301.69085   -659.28594    278921.36    -75641.32    7677.1801     -83318.5    1686.9177 
   31150    296.00511   -881.28768    279974.22    -75594.62    7532.4939   -83127.114     1691.268 
   31200    295.99947    -1291.093    280712.41   -75612.435    7532.3504   -83144.785    1696.3648 
   31250    296.87984   -1174.2946    280530.91   -75637.953    7554.7533   -83192.706    1698.7808 
   31300    292.69922   -771.99969    279792.81   -75630.059    7448.3684   -83078.428    1699.6386 
   31350    297.71808   -1052.4368    279111.88   -75659.198    7576.0842   -83235.282    1699.6338 
   31400    298.88456   -863.39933    278832.06   -75671.901    7605.7677   -83277.669    1701.5026 
   31450    294.46664   -860.86669    279364.71   -75673.471    7493.3442   -83166.815    1707.1811 
   31500    301.68101   -1299.5999    280329.43   -75711.276    7676.9296   -83388.206    1715.4576 
   31550    292.69116    -1621.284     280924.8   -75765.649    7448.1632   -83213.813    1720.5522 
   31600    293.95201    -1112.897    280158.14   -75721.011    7480.2483    -83201.26    1721.6118 
   31650    299.37433   -922.72534    279135.98   -75717.106     7618.231   -83335.337    1720.6424 
   31700    293.30721   -741.15026    278752.77   -75685.379      7463.84   -83149.219     1721.667 
   31750    299.64804   -1006.1099    279124.73   -75651.944    7625.1962    -83277.14    1724.7251 
   31800    296.60569   -988.08305    279972.94   -75696.424    7547.7771   -83244.201    1730.0435 
   31850    296.22958   -1258.6271    280472.13    -75664.96     7538.206   -83203.166    1734.0008 
   31900    302.99081   -1012.5007    280249.05   -75657.661    7710.2603   -83367.921    1736.5918 
   31950    297.20501   -1091.2753    279736.37   -75646.902    7563.0281   -83209.931    1735.3662 
   32000    298.41164   -1091.7322    279406.35   -75639.229    7593.7334   -83232.962    1734.9375 
   32050    297.47698   -966.88661     279579.7   -75660.331    7569.9488    -83230.28    1739.2507 
   32100    297.74922   -1046.1911    279929.11   -75675.965    7576.8767   -83252.842    1742.6132 
   32150    297.77009   -801.64485    279949.34   -75717.805    7577.4076   -83295.212    1743.8078 
   32200    294.73939   -1188.2507    280009.37   -75725.373     7500.285   -83225.657    1743.5791 
   32250    296.30044   -906.39052    279778.28   -75666.622    7540.0092   -83206.631    1744.5093 
   32300    303.13802   -930.00997    279460.64   -75669.075    7714.0064   -83383.081    1745.9728 
   32350    297.07792   -800.33324    279508.15   -75706.686    7559.7939    -83266.48    1746.4715 
   32400    293.97611   -1133.8025    279811.17   -75739.338    7480.8616   -83220.199    1747.9982 
   32450    296.48912   -1142.8932    279655.29   -75698.555    7544.8107   -83243.366     1749.187 
   32500    297.41045   -652.51055    279363.53   -75685.286    7568.2558   -83253.542    1749.5967 
   32550    298.15038   -1151.0136    279619.28   -75662.561     7587.085   -83249.646      1752.48 
   32600    292.67096   -908.49872    279884.23   -75679.972    7447.6493   -83127.622    1754.3773 
   32650     302.3307   -1031.6477    280133.89   -75669.961    7693.4624   -83363.424    1758.8291 
   32700    299.58775   -1183.3319    279959.09   -75684.263    7623.6621   -83307.925    1760.5056 
   32750    296.46502   -993.42342    279459.52   -75704.514    7544.1974   -83248.711    1759.5744 
   32800    298.98706   -901.78346    279157.37   -75681.566    7608.3761   -83289.942     1759.779 
   32850    295.58538   -979.06221    279343.21   -75670.317    7521.8131    -83192.13    1760.7165 
   32900    300.51489   -1118.5312    279496.26    -75648.28    7647.2551   -83295.535    1759.3553 
   32950    296.57518   -626.89299    279561.42   -75666.975    7547.0007   -83213.976    1761.3637 
   33000    297.09632    -855.4656    279955.38   -75671.346    7560.2623   -83231.609    1763.6247 
   33050    296.48019   -1418.4054    280286.82   -75650.694    7544.5833   -83195.277      1767.53 
   33100    300.29622   -1060.3004    279822.82   -75666.922    7641.6907   -83308.613    1767.9928 
   33150    294.34874   -976.99391    279456.87   -75656.942    7490.3441   -83147.286    1768.5014 
   33200    297.04062     -1013.19    279644.92   -75673.156    7558.8449   -83232.001     1771.705 
   33250    296.42617   -946.89739    279951.55   -75623.961    7543.2088    -83167.17    1774.9794 
   33300     295.2181   -1149.0027    280382.11   -75594.084    7512.4668   -83106.551    1778.1057 
   33350    297.17812   -1253.9737    280254.76   -75594.598    7562.3436   -83156.942    1778.1176 
   33400    301.89782   -908.51929    279555.94   -75609.204    7682.4467   -83291.651     1776.438 
   33450    300.07826   -1007.2308    279229.75   -75583.599     7636.144   -83219.743    1777.3201 
   33500     304.8873    -938.6447    279444.31   -75542.162    7758.5206   -83300.683    1780.2073 
   33550    301.73018   -1284.1249    280210.81   -75474.067    7678.1809   -83152.248    1784.4478 
   33600    305.43906   -1270.4645    280566.77   -75484.023    7772.5613   -83256.584    1788.3488 
   33650    304.17332   -1202.2416    280396.05   -75476.678    7740.3518    -83217.03    1791.6939 
   33700    303.55101   -927.33976    279694.66   -75503.879    7724.5158   -83228.395    1790.8685 
   33750    295.57063   -758.11494     279533.8   -75547.038    7521.4376   -83068.476    1792.7251 
   33800    300.74659   -1267.3562    279978.02    -75578.78    7653.1513   -83231.931    1794.6184 
   33850    301.29748   -957.40128     280216.5   -75629.449    7667.1697   -83296.619    1797.8932 
   33900    293.11598    -1271.349     280094.9   -75614.901    7458.9739   -83073.875    1798.6482 
   33950    296.81118   -1028.9339    279710.12   -75621.846    7553.0062   -83174.852    1797.6236 
   34000     299.9243   -1250.9413    279507.15   -75622.615    7632.2263   -83254.841    1797.0135 
   34050    300.87399   -697.77952    279255.91   -75675.593    7656.3933   -83331.986    1798.2007 
   34100     298.7024   -1152.2998    279435.51   -75683.193    7601.1324   -83284.326     1799.576 
   34150    295.85463   -587.42783    279543.43   -75709.655    7528.6648    -83238.32    1802.4692 
   34200    295.46671   -901.39266     280015.6   -75680.202    7518.7931   -83198.995    1807.0855 
   34250    293.45836   -1321.7861     280310.7   -75748.233    7467.6862   -83215.919    1810.1514 
   34300     294.1123   -1102.0403    279911.69   -75780.167    7484.3272   -83264.494    1807.2642 
   34350    300.18531   -983.66797    279163.37   -75777.906    7638.8684   -83416.774    1805.9652 
   34400    301.70082   -839.08406    279009.13    -75832.22    7677.4337   -83509.654     1809.099 
   34450    295.68394   -982.51635    279487.44   -75791.565     7524.321   -83315.886    1813.6856 
   34500    288.11767   -1244.7967    280070.44   -75819.589     7331.781    -83151.37    1819.2879 
   34550    293.69559   -1406.9446    280055.32   -75762.459    7473.7231   -83236.183    1821.7363 
   34600    298.26186    -942.1126    279390.29   -75758.326    7589.9219   -83348.248    1819.8389 
   34650    295.66696   -989.10389    279134.28   -75766.445    7523.8889   -83290.334    1820.9351 
   34700    295.07669   -478.11788    279276.08   -75749.375    7508.8682   -83258.243    1825.3758 
   34750    293.20589   -1040.6899    279865.87   -75839.486    7461.2618   -83300.748     1829.627 
   34800    299.10191   -1472.7047    280093.94   -75820.591    7611.2988    -83431.89    1832.5248 
   34850    294.45134   -892.74333    279466.44   -75865.993     7492.955   -83358.948    1834.0395 
   34900    296.77991    -955.5334    278903.05   -75843.578    7552.2105   -83395.788    1832.8881 
   34950    295.24312   -743.32863    279043.06   -75868.933    7513.1035   -83382.037    1834.2713 
   35000    291.82397   -1009.9206    279581.36   -75838.181    7426.0958   -83264.277    1840.1886 
   35050     294.1006   -1167.4573    279809.51   -75866.729    7484.0296   -83350.758    1842.8613 
   35100    293.36722   -1160.5366    279698.41   -75860.648    7465.3671   -83326.015    1843.6728 
   35150    293.26252   -1066.2429    279278.28   -75859.483    7462.7029   -83322.186    1842.2851 
   35200    296.63656    -796.4127    278853.04   -75843.241    7548.5627   -83391.804    1843.5121 
   35250    292.59634   -733.67399    279156.32   -75852.431    7445.7503   -83298.182    1847.2144 
   35300    291.10885    -1002.201    279637.55   -75775.897    7407.8978   -83183.794     1850.954 
   35350    294.25228   -963.42725    279910.15   -75773.259    7487.8895   -83261.148    1854.2343 
   35400    294.19979   -1265.0924     280125.7   -75736.224    7486.5537   -83222.777     1858.173 
   35450    290.55076   -726.58408    279741.14   -75774.776    7393.6963   -83168.472    1858.3759 
   35500     295.7856   -1040.2646    279341.82   -75774.473    7526.9081   -83301.381    1860.6979 
   35550    295.54827   -1059.9018    279328.39   -75783.214    7520.8686   -83304.082    1863.7779 
   35600    296.86825   -994.83177    279357.46   -75729.119    7554.4585   -83283.578      1867.07 
   35650    295.64567   -1024.6959     279620.3   -75728.743    7523.3473    -83252.09     1869.718 
   35700    295.93365   -1068.6726    280210.34    -75731.27    7530.6755   -83261.946    1875.5353 
   35750    295.87885    -982.5935     280180.9   -75711.951    7529.2811   -83241.232    1878.3856 
   35800    301.55617   -1245.8504    279653.93   -75710.124    7673.7527   -83383.877     1879.599 
   35850    298.06287   -930.38191    279164.61     -75723.4    7584.8582   -83308.258    1881.5197 
   35900    299.37103   -699.37622    279026.99   -75675.948    7618.1471   -83294.095    1883.8044 
   35950    295.83192   -640.41838    279522.91   -75698.415    7528.0866   -83226.502     1888.488 
   36000    296.71643   -1249.1648    280362.46   -75675.417    7550.5951   -83226.013     1896.166 
   36050    294.69896   -1171.0325    280300.36   -75741.702    7499.2562   -83240.959    1899.7646 
   36100    298.69618   -891.17154    279780.55   -75703.641    7600.9742   -83304.615     1900.593 
   36150    295.27658   -871.76445    279429.96   -75720.525     7513.955    -83234.48    1901.6522 
   36200    293.93092   -790.40463     279289.2   -75744.604    7479.7118   -83224.316    1902.3817 
   36250     296.7177   -1088.8302    279510.69   -75762.831    7550.6274   -83313.458    1906.1131 
   36300    295.60838   -1038.7463    279650.33   -75773.523    7522.3982   -83295.922    1908.2643 
   36350    295.59928   -917.09555    279624.09   -75794.134    7522.1667   -83316.301    1909.1537 
   36400    296.96267   -957.33092    279458.72   -75795.915    7556.8611   -83352.777    1910.5512 
   36450    296.58156   -927.96993    279363.06   -75743.423    7547.1631   -83290.586     1912.517 
   36500    294.30518   -1011.4451    279718.74   -75680.595    7489.2355    -83169.83    1916.9562 
   36550    295.85018   -943.07199    280146.16   -75685.369    7528.5515   -83213.921    1919.5746 
   36600    294.76655   -1187.8589    280467.81   -75738.994    7500.9761    -83239.97      1923.65 
   36650    299.66684   -1167.9036    280059.66   -75765.973    7625.6746   -83391.648    1923.7995 
   36700    296.10036   -957.08585    279136.02   -75815.791    7534.9177   -83350.709    1922.3783 
   36750      299.158   -1105.5803    278660.15   -75817.864    7612.7262    -83430.59    1921.1076 
   36800    296.57136   -673.82575     278697.9   -75824.685    7546.9033   -83371.588    1926.0352 
   36850    297.22083   -1043.3016    279448.65   -75799.097    7563.4306   -83362.527    1933.4715 
   36900    297.21504   -1449.1496    280013.84   -75782.468    7563.2833   -83345.751    1937.9942 
   36950    296.20363   -1271.0007    279894.42   -75789.388    7537.5457   -83326.934    1939.7337 
   37000    291.85573   -755.74228    279318.52    -75805.68    7426.9039   -83232.584    1939.1614 
   37050     294.6123    -1032.093    279355.17   -75799.143    7497.0509   -83296.194    1939.8215 
   37100     297.4931   -1024.5936    279708.57   -75724.213    7570.3591   -83294.572    1943.3065 
   37150    291.84246   -1014.5347    279826.43   -75700.226    7426.5662   -83126.793    1947.1981 
   37200    300.85324   -1112.5873    279762.89   -75715.228    7655.8652   -83371.094    1947.1751 
   37250    294.37086   -1020.3426    279642.09   -75741.711    7490.9069   -83232.618    1948.8044 
   37300    295.36592   -865.15136    279292.16   -75774.425    7516.2283   -83290.653     1949.696 
   37350    294.61381    -987.0053    279387.26   -75740.892    7497.0892   -83237.981     1952.854 
   37400    298.92305   -1041.6388    279629.19   -75703.277    7606.7472   -83310.024    1959.4844 
   37450    295.82254   -975.64004    279678.22   -75694.156    7527.8479   -83222.004    1963.2598 
   37500    294.65051    -918.9709    279893.85   -75651.752    7498.0231   -83149.775     1965.537 
   37550    295.12848   -865.63854    280093.81   -75710.807    7510.1862   -83220.994    1970.3327 
   37600    295.56919   -1011.5325    280142.87    -75729.93    7521.4011   -83251.331    1974.6198 
   37650    296.84925   -883.58619    279770.77    -75735.95     7553.975   -83289.925    1974.3831 
[...]
   90850     296.3936   -990.79453    279178.28   -75853.227    7542.3799   -83395.606     4758.559 
   90900    290.51032   -755.86525     279102.9   -75842.487    7392.6671   -83235.154    4762.5222 
   90950      296.223   -898.48394    279605.85   -75842.824    7538.0386   -83380.862    4771.6216 
   91000    295.28411   -1156.7861    280077.83   -75849.828    7514.1464   -83363.974     4775.841 
   91050     293.4997   -1303.6687    279857.72   -75887.569    7468.7383   -83356.307    4778.0634 
   91100    291.98076   -940.39875    279294.59   -75833.483    7430.0857   -83263.569    4772.6753 
   91150    296.67714   -790.38178    278989.79    -75810.99    7549.5952   -83360.585    4770.6595 
   91200    291.75372   -728.20869    279275.04     -75827.1     7424.308   -83251.408    4776.2058 
   91250    297.35121   -1124.3511    280060.44   -75784.704    7566.7484   -83351.452    4786.5165 
   91300    295.35781   -1255.0195    280520.45    -75793.21     7516.022   -83309.232    4792.6606 
   91350    291.47995   -1286.8125    280185.11   -75800.695    7417.3414   -83218.037    4792.2732 
   91400    298.51759   -862.62784    279408.69   -75842.619    7596.4294   -83439.048    4785.2082 
   91450    298.75196   -1105.1687    279109.43   -75795.784    7602.3936   -83398.177    4783.4034 
   91500    296.79514   -907.95928     279012.7   -75848.742    7552.5979    -83401.34    4782.6507 
   91550    293.54879   -1041.4563    279265.65   -75797.456    7469.9876   -83267.443    4785.6485 
   91600    291.59474   -1166.1414    279556.38   -75801.485    7420.2626   -83221.747    4789.0757 
   91650     293.4663   -1143.8739    279525.38   -75773.686    7467.8884   -83241.574    4786.2518 
   91700     295.3864   -910.61401    279526.37   -75794.089    7516.7495   -83310.838    4785.9089 
   91750    296.23299   -1154.2109    279908.95   -75766.044    7538.2929   -83304.337    4792.3974 
   91800    296.29187   -1500.8946    280256.45   -75779.876    7539.7913   -83319.667    4795.2996 
   91850    294.24832   -1151.4723     280023.6   -75781.965    7487.7886   -83269.754    4795.0965 
   91900    296.23675   -1150.1771    279485.57   -75766.999    7538.3884   -83305.387    4790.2955 
   91950    290.38405   -786.50089    279055.74   -75752.297    7389.4539   -83141.751    4790.2935 
   92000    299.51299   -890.71652    278908.62   -75818.263    7621.7596   -83440.022    4791.1428 
   92050    294.56066   -864.31536    279408.34   -75826.752    7495.7367   -83322.488    4801.0684 
   92100    293.27295   -1079.6914     280055.7   -75791.652    7462.9681    -83254.62    4812.3013 
   92150    295.21476   -1163.9363    280254.75    -75825.75    7512.3817   -83338.131     4816.869 
   92200    295.40046   -1031.2374    279903.83   -75801.047    7517.1074   -83318.155    4812.7452 
   92250    297.40865    -800.5249    279298.48   -75778.515    7568.2102   -83346.726    4806.1744 
   92300    291.80556   -893.70043    279237.95   -75771.776    7425.6274   -83197.404    4809.0147 
   92350    296.16883   -1118.9773     279759.8   -75734.096    7536.6602   -83270.757    4818.6387 
   92400    297.43652   -1156.7358    280245.17   -75750.344    7568.9194   -83319.263    4825.6695 
   92450    294.78625    -1002.405    280191.26   -75755.522    7501.4773   -83256.999    4826.2996 
   92500    298.65196   -1113.5102    279585.92   -75817.307    7599.8487   -83417.156    4821.3198 
   92550    294.69525    -767.5153    278909.37   -75857.145    7499.1618   -83356.307    4817.4725 
   92600    297.94735   -879.72709    278794.65   -75838.353    7581.9185   -83420.271    4820.1648 
   92650    292.48604   -848.42939    279336.39   -75795.128    7442.9437   -83238.072    4826.9394 
   92700    294.39454    -1240.337     280241.1   -75788.709    7491.5094   -83280.219    4838.4216 
   92750    294.17673   -1333.6602    280622.48   -75753.056    7485.9669   -83239.023    4843.4911 
   92800    296.72983   -1103.5268    280010.34   -75759.656     7550.936   -83310.592    4837.7224 
   92850    300.50027   -503.41331    279145.83   -75732.393    7646.8831   -83379.276    4830.8304 
   92900    295.28184   -962.75972    279269.29   -75716.142    7514.0888   -83230.231    4836.2554 
   92950    299.64585   -1027.1552    279664.02   -75684.519    7625.1404   -83309.659    4840.8963 
   93000    298.87381   -1264.1407    280122.13   -75608.686    7605.4943   -83214.181    4848.9968 
   93050    303.24172   -1041.5997     280256.1   -75584.336    7716.6453   -83300.981    4852.7842 
   93100    301.13104   -820.50883    279848.45   -75626.602    7662.9344   -83289.536    4851.3186 
   93150    298.64855    -789.6552    279526.78   -75662.666    7599.7621   -83262.428     4849.194 
   93200     296.0056   -696.97133    279711.29   -75706.813    7532.5064   -83239.319    4854.5515 
   93250    296.12765   -997.95749    280025.31   -75699.942    7535.6123   -83235.554    4859.4885 
   93300    296.66472   -1121.3514    280241.37   -75686.795    7549.2791   -83236.074    4860.7318 
   93350    296.69495   -1288.6287    280028.37   -75706.887    7550.0484   -83256.935    4859.5808 
   93400    295.05931   -1018.5817    279212.09   -75682.903     7508.426   -83191.329    4847.2425 
   93450    302.05262   -675.55419    278816.42   -75699.055    7686.3859   -83385.441    4843.2369 
   93500    295.98383   -1026.9808    279364.78    -75722.61    7531.9525   -83254.563    4853.6157 
   93550    297.64251   -895.40187    280084.26   -75671.461    7574.1611   -83245.622    4865.7881 
   93600    298.44608   -1013.9925    280403.76   -75659.992    7594.6098   -83254.602    4871.0068 
   93650    293.99404   -1083.3556    280171.91   -75637.428     7481.318   -83118.746    4872.2531 
   93700    297.73883   -986.39552    279763.26   -75604.653    7576.6121   -83181.265    4869.9219 
   93750    300.56957   -1122.7124     279600.8   -75662.697    7648.6465   -83311.344    4869.6182 
   93800    297.96821   -814.71447    279464.52   -75694.666    7582.4492   -83277.115    4870.6665 
   93850    294.58266    -909.2486    279527.98   -75692.042    7496.2966   -83188.338    4874.7553 
   93900    302.18792   -1098.8871    279697.24   -75685.713    7689.8289   -83375.541    4880.7943 
   93950    300.53319   -957.09985    279509.62    -75701.93    7647.7207    -83349.65    4880.3631 
   94000    299.49313    -1071.153     279360.8   -75749.888    7621.2541   -83371.142    4881.1495 
   94050    296.12618   -989.57942    279271.86   -75820.648    7535.5747   -83356.223    4883.3643 
   94100    293.24767   -1079.5447    279533.84   -75825.185    7462.3249    -83287.51    4889.9433 
   94150      293.646   -1193.5117     279731.8   -75847.136    7472.4613   -83319.597    4894.4938 
   94200    295.76986   -824.65979    279605.86   -75814.976    7526.5074   -83341.483    4898.8795 
   94250    294.82213   -1174.3959     279595.6   -75765.345    7502.3904   -83267.736    4902.2779 
   94300    295.81661   -1005.1373    279534.69   -75764.984    7527.6972   -83292.681    4902.9724 
   94350     294.7675   -1093.5789    279477.31    -75784.94    7501.0004    -83285.94      4906.55 
   94400    298.03176   -576.02846    279272.22   -75796.153    7584.0664   -83380.219    4904.9791 
   94450    294.25803   -952.48932    279163.94    -75791.45    7488.0357   -83279.486    4902.6564 
   94500    295.14613   -1345.7302    279268.08   -75813.341    7510.6353   -83323.976    4906.8622 
   94550     296.1356   -1070.8767    279385.97   -75793.368    7535.8146   -83329.183    4915.2084 
   94600      294.412   -1015.2954    279558.56   -75785.897    7491.9537   -83277.851    4920.8188 
   94650    297.86134   -1015.4541    279696.79   -75796.417    7579.7298   -83376.147    4926.3909 
   94700    295.85817    -861.1894    279619.01   -75777.916    7528.7547    -83306.67    4930.6458 
   94750    293.34884    -938.4286    279439.22   -75828.323    7464.8994   -83293.223    4931.4198 
   94800    296.99216   -659.67152    279429.16   -75872.925    7557.6116   -83430.536      4932.72 
   94850    291.37108   -1083.5671    279654.24   -75903.825    7414.5711   -83318.396    4938.9641 
   94900    292.79256   -1192.6026    279499.84    -75908.77    7450.7436   -83359.513    4940.0885 
   94950    298.16427   -1079.0382    279083.91   -75874.931    7587.4386   -83462.369    4937.8014 
   95000    294.13357   -1025.7415    279132.65   -75941.403    7484.8686   -83426.272    4938.9172 
   95050    295.31055   -1358.1554    279232.46   -75952.539    7514.8195   -83467.359    4943.1893 
   95100    294.07778   -1172.4582    279012.86   -75922.788     7483.449   -83406.237    4940.5267 
   95150    298.66212   -854.21338    278837.04   -75893.577    7600.1074   -83493.684    4944.4318 
   95200    293.39106   -1062.9315    279395.91   -75902.319    7465.9738   -83368.293    4955.9673 
   95250    292.89013   -1366.0443    279990.17   -75911.054    7453.2265   -83364.281    4965.9403 
   95300    292.20531   -1185.9217    279823.42   -75936.265    7435.7998   -83372.065    4963.6971 
   95350    291.69683   -825.65756    279221.01   -75939.628    7422.8603   -83362.489    4959.2625 
   95400    293.48379   -1059.6715    278820.88   -75890.351    7468.3335   -83358.684    4957.3395 
   95450    295.41817   -735.30287    278748.77   -75892.042     7517.558     -83409.6    4957.1381 
   95500    296.98286   -907.11066    279163.61   -75860.244    7557.3748   -83417.618    4963.0053 
   95550    292.40552   -769.56441     279643.1   -75801.606    7440.8946   -83242.501    4967.4435 
   95600    291.34329   -1224.9042    280150.52   -75795.412    7413.8637   -83209.276    4969.8462 
   95650    295.03427   -1371.2332    280092.12    -75762.85    7507.7889   -83270.639    4970.5658 
   95700     296.9752   -1177.5583    279721.19   -75759.741      7557.18   -83316.921    4969.8784 
   95750    295.89656   -785.36088    279379.51    -75754.78    7529.7317   -83284.512     4972.082 
   95800    293.52374    -805.8227    279261.21   -75744.795      7469.35   -83214.145    4968.9322 
   95850    294.06843   -868.51587    279596.88   -75737.639     7483.211    -83220.85    4975.5061 
   95900    294.59723   -1151.1419    279840.68   -75740.022    7496.6673   -83236.689    4983.6288 
   95950    294.13536   -894.69902    279568.23   -75724.709    7484.9141   -83209.623    4985.5588 
   96000    296.17574   -1049.5408    279124.92   -75721.568    7536.8361   -83258.404    4985.3203 
   96050    299.07666   -930.99604    279046.09   -75721.919    7610.6561   -83332.575    4985.5975 
   96100     293.0215   -1111.6993    279545.03   -75778.023    7456.5694   -83234.592    4992.5538 
   96150    294.73306   -1080.5451     279882.8   -75788.434    7500.1239   -83288.558    4999.4836 
   96200    295.02723   -1172.2408     279899.9   -75770.913    7507.6096   -83278.523    5000.6445 
   96250    293.64288   -1055.9724    279555.75   -75795.762    7472.3818   -83268.143    4995.4979 
   96300    298.99714   -951.51849    279094.72   -75778.182    7608.6326   -83386.814    4991.4348 
   96350    298.07646   -665.13614    279052.28   -75803.951    7585.2039   -83389.155    4990.8696 
   96400    297.11275   -1197.5108    279690.28    -75818.94    7560.6803    -83379.62    4999.1414 
   96450    294.45786   -1144.0015    279850.47   -75781.221    7493.1209   -83274.342    5002.2169 
   96500    292.48811   -884.65438     279552.5   -75767.909    7442.9963   -83210.905    5000.2903 
   96550    297.14985   -847.26246    279512.79   -75800.595    7561.6244   -83362.219    5002.6808 
   96600    296.50074   -991.36575    280027.89   -75853.189    7545.1063   -83398.296    5016.5853 
   96650    289.00924   -1360.8746     280249.2   -75871.547    7354.4688   -83226.016    5022.3098 
   96700    294.69581   -963.30354    279569.66    -75891.74     7499.176   -83390.916    5017.3681 
   96750    297.05503   -741.68862     279007.2   -75932.209    7559.2115   -83491.421    5010.1306 
   96800     296.1425   -772.07488    278930.18   -75966.835    7535.9902   -83502.825    5015.3991 
   96850    294.30779   -1044.4662    279529.26   -75946.378    7489.3019    -83435.68    5025.6254 
   96900     296.7743   -1082.9623    279735.85    -75916.94    7552.0677   -83469.008    5030.9615 
   96950     294.1328   -891.02353    279369.88   -75913.691    7484.8488    -83398.54    5026.9956 
   97000    294.39174   -1002.2583    279006.81   -75838.224    7491.4382   -83329.663    5024.4002 
   97050    292.87131   -802.57386    279020.86    -75837.28    7452.7475   -83290.028    5027.9689 
   97100    294.41686   -930.06701    279235.98   -75840.369    7492.0776   -83332.447    5030.7971 
   97150    298.67075   -1307.3631    279486.26   -75880.802    7600.3271   -83481.129    5041.7247 
   97200    295.61038   -988.72463    279510.31   -75854.932    7522.4493   -83377.381    5045.3665 
   97250    293.48021   -1071.4156     279404.9   -75856.413    7468.2425   -83324.655    5049.8702 
   97300    293.34732   -632.39734    279204.56   -75809.738    7464.8607   -83274.599    5048.4231 
   97350    296.86201   -919.19665    279360.45    -75770.37    7554.2997   -83324.669    5053.9955 
   97400    299.18708   -750.81237    279644.72   -75748.226    7613.4661   -83361.692    5060.8826 
   97450    295.87395   -1126.7431    280027.82   -75735.704    7529.1564    -83264.86    5069.4583 
   97500    298.11612   -1020.9017     279858.8    -75756.01    7586.2133   -83342.223    5068.4765 
   97550      294.784   -954.34949    279350.42   -75755.478    7501.4202   -83256.898    5065.0047 
   97600    299.39572   -1002.0507    279181.75   -75745.761    7618.7753   -83364.536    5068.0963 
   97650    301.25497     -1098.95    279334.51   -75731.094     7666.088   -83397.182    5072.6418 
   97700    298.41937   -1052.9628    279694.75   -75724.144    7593.9301   -83318.074    5082.2421 
   97750    297.52262   -1009.5973    279980.32   -75715.924    7571.1102   -83287.034    5089.4401 
   97800    295.97493   -1066.1514    279940.95   -75740.715    7531.7258   -83272.441    5094.3426 
   97850    294.67463   -1081.4357    279885.17   -75761.871     7498.637   -83260.508    5095.8238 
   97900    295.37035    -1249.828       279656   -75752.787    7516.3411   -83269.128    5095.2056 
   97950    301.43717   -901.58784    278836.92   -75756.579    7670.7245   -83427.304    5089.1713 
   98000    295.87218   -614.32889    278652.24   -75738.202    7529.1112   -83267.313    5090.6752 
   98050    295.70051   -1064.7895    279332.12   -75749.705    7524.7429   -83274.448    5103.3504 
   98100    294.60139   -1031.8117    280114.59   -75734.455    7496.7732   -83231.228    5115.7262 
   98150     299.0146   -1134.4724    280228.06   -75752.373    7609.0771    -83361.45    5120.9435 
   98200    297.29124   -962.64937    279623.14   -75726.096    7565.2224   -83291.318    5115.1904 
   98250    299.39319   -737.68912    279031.26   -75669.548    7618.7109   -83288.259    5108.9085 
   98300    301.23973   -759.36364    279107.47   -75665.127    7665.7001   -83330.827     5113.629 
   98350    298.76433   -938.38201    279773.05   -75598.595    7602.7084   -83201.303    5127.0451 
   98400    295.90015   -1136.0831    280146.27   -75624.393    7529.8231   -83154.216    5138.6206 
   98450      300.072   -1264.4304    279921.71   -75660.997    7635.9848   -83296.982    5139.2223 
   98500    292.42557   -1027.9556    279054.91   -75716.329    7441.4048   -83157.734    5129.0135 
   98550    303.81563   -864.50471    278434.72   -75730.466    7731.2497   -83461.716     5119.222 
   98600    299.28243   -800.77775    278585.06   -75722.713    7615.8925   -83338.605    5124.6974 
   98650    301.51296   -1177.5142    279622.58   -75657.475    7672.6532   -83330.128    5142.8162 
   98700    293.00012   -920.75317    280431.86   -75649.273    7456.0255   -83105.299    5156.9164 
   98750    294.28892   -1239.6554    280488.98   -75611.169    7488.8219   -83099.991    5157.3444 
   98800    299.59184   -1202.6948    279697.26   -75640.043    7623.7661   -83263.809    5151.1614 
   98850    298.89182    -691.8444    278781.34   -75670.907    7605.9525   -83276.859    5143.6621 
   98900    301.84144   -728.55666    278756.19    -75681.72    7681.0122   -83362.732    5144.5286 
   98950    301.71851   -920.26817    279529.91    -75657.88    7677.8839   -83335.764    5155.2339 
   99000    294.23473   -1239.7845    280186.07   -75652.411    7487.4427   -83139.854    5165.1064 
   99050    292.09141    -903.7966    280213.34   -75698.844    7432.9013   -83131.745    5168.5802 
   99100    297.73373   -886.26061    280015.63   -75655.387    7576.4826   -83231.869    5166.9992 
   99150    295.31441   -1006.9121    279609.27   -75724.564    7514.9177   -83239.482    5166.5591 
   99200    294.63516   -835.04522    279143.01   -75794.883    7497.6325   -83292.516    5165.3384 
   99250    295.34825   -805.59934     278969.1     -75827.9    7515.7787   -83343.679    5164.9845 
   99300    295.54158   -744.06019    279270.09   -75842.981    7520.6983   -83363.679    5167.7709 
   99350    297.47292   -1000.3074    279760.87    -75887.13    7569.8456   -83456.976    5178.2871 
   99400    287.54204   -963.47402    279839.77   -75916.437    7317.1328    -83233.57    5184.5616 
   99450    292.04356   -1193.0136    279714.33    -75911.52    7431.6838   -83343.204    5186.5125 
   99500    293.31733   -1045.2373    279242.57   -75912.344    7464.0975   -83376.442    5181.1977 
   99550    294.79802   -916.27218    278858.82   -75945.938    7501.7769   -83447.715    5176.8539 
   99600    292.70457   -1128.3807    278935.75   -75964.312    7448.5046   -83412.816    5179.8846 
   99650      294.995   -969.13177    279218.17   -75904.479    7506.7895   -83411.269    5185.8737 
   99700     289.8052   -1092.9746    279512.95   -75877.335    7374.7236   -83252.059    5192.5523 
   99750    294.95479   -1388.2133    279579.64   -75847.547    7505.7663   -83353.313    5196.1886 
   99800    298.49904   -985.87941    279148.55   -75876.152    7595.9575    -83472.11    5193.9327 
   99850     291.6723   -1122.7443    278825.22   -75918.164    7422.2362     -83340.4    5195.2667 
   99900    292.65121   -467.80965    278692.36   -75896.585    7447.1468   -83343.732    5196.0965 
   99950    296.42451   -1163.5154    279277.22   -75876.355    7543.1664   -83419.521    5202.8484 
  100000    291.57186   -1091.2635    279775.12   -75868.735    7419.6802   -83288.415    5210.0704 
Loop time of 247.789 on 6 procs for 100000 steps with 8538 atoms

Performance: 348.683 ns/day, 0.069 hours/ns, 403.569 timesteps/s
99.4% CPU use with 6 MPI tasks x no OpenMP threads

MPI task timing breakdown:
Section |  min time  |  avg time  |  max time  |%varavg| %total
---------------------------------------------------------------
Pair    | 72.599     | 127.94     | 193.79     | 439.0 | 51.63
Neigh   | 30.77      | 36.278     | 40.142     |  63.3 | 14.64
Comm    | 7.4591     | 77.159     | 137.99     | 605.2 | 31.14
Output  | 0.14634    | 0.14946    | 0.16285    |   1.6 |  0.06
Modify  | 5.1451     | 5.193      | 5.2585     |   1.5 |  2.10
Other   |            | 1.068      |            |       |  0.43

Nlocal:        1423.00 ave        1456 max        1382 min
Histogram: 1 1 0 1 0 0 0 0 1 2
Nghost:        1967.33 ave        2046 max        1930 min
Histogram: 2 1 1 0 0 1 0 0 0 1
Neighs:        0.00000 ave           0 max           0 min
Histogram: 6 0 0 0 0 0 0 0 0 0
FullNghs:      39400.7 ave       39918 max       38499 min
Histogram: 1 0 0 1 0 0 0 1 1 2

Total # of neighbors = 236404
Ave neighs/atom = 27.688452
Neighbor list builds = 20854
Dangerous builds = 0

# Create data file for import to other simulations
#
write_data data.${NAME}
write_data data.coexist_296K_-1000atm_ML
System init for write_data ...

Total wall time: 0:04:07
