
# Set production fixes - Nose/Hoover
#
fix                 2 all nph iso ${PRES} ${PRES} ${PCOUPL}
fix                 2 all nph iso -1000 ${PRES} ${PCOUPL}
fix                 2 all nph iso -1000 -1000 ${PCOUPL}
fix                 2 all nph iso -1000 -1000 10000.0
fix                 3 all temp/csvr ${TEMP} ${TEMP} ${TCOUPL} 837492
fix                 3 all temp/csvr 296 ${TEMP} ${TCOUPL} 837492
fix                 3 all temp/csvr 296 296 ${TCOUPL} 837492
fix                 3 all temp/csvr 296 296 5000.0 837492

# Define Order parameter
#
compute             2 all orientorder/atom nnn NULL cutoff 3.5
thermo              200
thermo_style        custom step temp press vol etotal ke pe c_1[4]

# Run 1ns simulation
dump		    1 all custom 400 prod.${NAME}.dump id type x y z vx vy vz c_2[*]
dump		    1 all custom 400 prod.ice_296K_-1000atm_ML.dump id type x y z vx vy vz c_2[*]
run                 200000
Neighbor list info ...
  update every 1 steps, delay 0 steps, check yes
  max neighbors/atom: 2000, page size: 100000
  master list distance cutoff = 6.0032907
  ghost atom cutoff = 6.0032907
  binsize = 3.0016454, bins = 20 18 18
  2 neighbor lists, perpetual/occasional/extra = 1 1 0
  (1) pair sw, perpetual
      attributes: full, newton on
      pair build: full/bin/atomonly
      stencil: full/bin/3d
      bin: standard
  (2) compute orientorder/atom, occasional, copy from (1)
      attributes: full, newton on
      pair build: copy
      stencil: none
      bin: none
Per MPI rank memory allocation (min/avg/max) = 5.821 | 5.821 | 5.821 Mbytes
Step Temp Press Volume TotEng KinEng PotEng c_1[4] 
       0    298.74501   -1001.3806    149944.85   -47381.462    4102.5432   -51484.005   0.15042154 
     200    294.62019   -979.45525    149969.78   -47370.777    4045.8989   -51416.676   0.15695781 
     400    292.48371   -1031.6057    149970.17   -47364.457    4016.5595   -51381.017   0.16477294 
     600    297.69018   -992.75118    149871.86   -47404.102    4088.0578    -51492.16   0.15763885 
     800     296.2875   -961.92001    149813.11   -47420.128    4068.7954   -51488.923   0.15019487 
    1000    289.33774   -1016.6349    149887.21   -47430.693    3973.3571    -51404.05   0.15843149 
    1200    296.76248   -1046.6666    149924.84   -47455.316     4075.318   -51530.634   0.15872354 
    1400    296.13549   -972.71373    149831.66   -47445.704    4066.7078   -51512.412   0.15033376 
    1600    296.07545   -972.85491    149854.66    -47448.64    4065.8834   -51514.523   0.15555902 
    1800    292.51235   -1081.8416    150013.39   -47451.453    4016.9527   -51468.405   0.15480451 
    2000     289.9054    -1023.501    149950.08   -47405.671    3981.1525   -51386.823   0.15756295 
    2200    296.31275   -876.71022    149771.64   -47377.134    4069.1421   -51446.276   0.15218463 
    2400    288.83279   -1006.7521    149885.42   -47393.583    3966.4229   -51360.006   0.16469075 
    2600    293.41494   -1156.8139    150071.71   -47437.495    4029.3476   -51466.842   0.16394353 
    2800    292.85356   -974.77647    149894.21   -47457.141    4021.6384   -51478.779   0.14994673 
    3000     291.1277   -830.41652    149679.08    -47471.68    3997.9379   -51469.618   0.15029269 
    3200    299.50293   -1021.7635    149937.44   -47414.773    4112.9515   -51527.724   0.15440083 
    3400    293.70952    -1212.895    150209.07   -47450.136    4033.3929   -51483.529   0.15421274 
    3600    290.36468   -999.41962    149855.81   -47484.925    3987.4597   -51472.385   0.15328951 
    3800    299.04704   -733.55239    149553.55   -47414.198     4106.691   -51520.889   0.15179568 
    4000    297.72034   -1071.7689    150057.23    -47402.88    4088.4719   -51491.352   0.15714232 
    4200    298.38682   -1320.8318    150386.76   -47413.458    4097.6245   -51511.083    0.1551673 
    4400    295.93824    -864.2257    149771.13   -47409.649    4063.9991   -51473.648   0.15022344 
    4600    296.10993   -682.50183    149490.08   -47392.639    4066.3569   -51458.996   0.15468222 
    4800    297.03224   -1207.2064    150175.52   -47374.182    4079.0225   -51453.204   0.16142618 
    5000    297.02851   -1302.6636    150382.39   -47347.818    4078.9712   -51426.789   0.15816873 
    5200    291.40453   -827.27488    149655.34   -47360.059    4001.7396   -51361.798   0.15473552 
    5400    294.76587    -705.3345    149558.44   -47322.501    4047.8994   -51370.401   0.15087545 
    5600    303.19978   -1242.8962    150330.55   -47296.478    4163.7188   -51460.197   0.15837035 
    5800    297.11349   -1281.9932    150326.99   -47283.795    4080.1383   -51363.933   0.16261675 
    6000    305.23566   -707.27986    149604.42   -47281.159    4191.6767   -51472.836   0.14911047 
    6200    301.42042   -789.11591     149711.7     -47273.9    4139.2837   -51413.184   0.15503043 
    6400    298.91853   -1288.6716    150391.65   -47230.966    4104.9261   -51335.892   0.16392137 
    6600    300.83583   -1140.0104    150211.27   -47273.245    4131.2556     -51404.5   0.15590238 
    6800    297.59727   -724.98742    149586.27   -47323.697    4086.7819   -51410.479   0.15731782 
    7000    298.05244    -894.4318    149834.99    -47325.23    4093.0326   -51418.263   0.15846435 
    7200    296.99532   -1280.3944    150369.05   -47263.157    4078.5155   -51341.672   0.16513986 
    7400    298.11271    -1056.463    150082.56   -47251.378    4093.8602   -51345.238   0.15598796 
    7600    297.24304   -699.21949    149633.02   -47290.892    4081.9173   -51372.809   0.15321231 
    7800    298.98198   -972.71241    149942.03   -47316.884    4105.7975   -51422.682   0.15790316 
    8000    297.30116   -1245.9498    150296.66   -47275.533    4082.7155   -51358.248   0.16349917 
    8200    293.32412   -1035.7034     149950.6   -47316.997    4028.1005   -51345.098   0.16146767 
    8400    297.72087   -750.55473     149649.1   -47348.065    4088.4792   -51436.544   0.15334981 
    8600    295.39754    -1029.584    150018.85    -47301.66    4056.5738   -51358.234   0.15718804 
    8800    301.43363   -1188.4924    150282.82   -47226.051     4139.465   -51365.516   0.15849659 
    9000     298.9329   -963.97626     149911.7   -47211.728    4105.1236   -51316.852   0.16158423 
    9200    305.07092   -794.30831    149710.62   -47199.748    4189.4145   -51389.162   0.15673742 
    9400    299.49026   -1106.0336     150082.8    -47244.02    4112.7775   -51356.798   0.15879526 
    9600    298.80302   -1175.3689    150187.75   -47231.494    4103.3399   -51334.834   0.16241793 
    9800    301.49906    -924.6986    149856.81   -47254.605    4140.3635   -51394.968   0.16162662 
   10000    301.16289   -927.03121    149828.37   -47252.146     4135.747   -51387.893   0.15577414 
   10200    295.74641   -1154.8118     150115.5   -47238.724    4061.3647   -51300.089   0.16112766 
   10400    302.09214   -1061.7812    150123.47   -47225.836    4148.5081   -51374.344   0.16019163 
   10600    299.41217   -921.37634    149897.13   -47210.816    4111.7052   -51322.521   0.16390491 
   10800    297.75652   -944.41912    149937.52   -47243.513    4088.9688   -51332.482   0.15832057 
   11000    299.37091   -1104.2946    150156.63   -47284.224    4111.1385   -51395.363   0.15739348 
   11200    294.58714   -1063.7989    150071.24   -47300.442    4045.4449   -51345.887   0.15897017 
   11400    298.69452   -886.56798    149851.02    -47330.71    4101.8499    -51432.56   0.15935174 
   11600     299.3111   -947.49254    149977.79   -47300.155    4110.3172   -51410.473    0.1542265 
   11800    296.50507   -1140.8871    150214.68   -47371.413    4071.7831   -51443.196   0.15428398 
   12000    299.95466   -1014.2119    150047.55   -47375.208    4119.1549   -51494.362   0.15130319 
   12200    289.58203   -861.52173    149799.19   -47356.154    3976.7119   -51332.866   0.15281057 
   12400     292.8525    -981.3071    149997.52   -47320.824    4021.6239   -51342.448   0.15690221 
   12600    297.72979   -1194.1606     150258.1   -47328.328    4088.6018    -51416.93   0.15684319 
   12800    294.52025   -1046.2411    150039.48   -47342.328    4044.5264   -51386.855   0.16185652 
   13000    300.16459   -835.03992    149805.38   -47326.488    4122.0378   -51448.526   0.15139519 
   13200     301.0786    -1006.535    149999.87   -47295.569    4134.5896   -51430.159   0.15204528 
   13400    294.12223    -1161.789    150206.93    -47311.73    4039.0606   -51350.791   0.16267121 
   13600    302.20219   -959.50066    149988.05    -47306.43    4150.0193    -51456.45   0.15752509 
   13800    297.50877   -891.45609    149835.61   -47303.102    4085.5665   -51388.668   0.15331341 
   14000    297.30397   -1076.8133    150075.96   -47320.333    4082.7541   -51403.088   0.15502437 
   14200    293.64155    -1144.586    150156.89   -47344.514    4032.4596   -51376.974   0.16367845 
   14400    297.44634   -942.15769     149899.6    -47373.56    4084.7092   -51458.269   0.15648345 
   14600    294.26869   -896.40529    149829.28   -47370.333    4041.0719   -51411.404   0.15044414 
   14800    294.60904   -1078.7666    150057.89   -47348.882    4045.7458   -51394.628   0.15621354 
   15000    291.78923    -1141.167    150098.53   -47401.961    4007.0224   -51408.984   0.16289364 
   15200     291.3141   -904.49257    149840.22   -47460.803    4000.4976     -51461.3   0.15321872 
   15400    295.65439   -862.37013    149828.94   -47477.812    4060.1011   -51537.913    0.1444015 
   15600    289.30873   -1103.3935    150073.39   -47511.645    3972.9587   -51484.604   0.15786766 
   15800    292.00662   -1064.7987    150048.71   -47462.308    4010.0077   -51472.315   0.15027786 
   16000    294.96958   -912.95469    149841.65   -47453.081    4050.6969   -51503.778   0.14803154 
   16200    297.20873   -925.04555    149931.83   -47398.501    4081.4462   -51479.947   0.14999668 
   16400    290.21742    -1145.088    150132.56   -47391.353    3985.4374   -51376.791   0.16370131 
   16600    292.66953   -1053.0016    150014.26   -47410.603    4019.1113   -51429.715   0.15554743 
   16800    298.27862   -897.57037    149807.15   -47367.682    4096.1385    -51463.82   0.14961489 
   17000    295.98216   -1017.2454     149941.4   -47389.181    4064.6022   -51453.783   0.15648396 
   17200    298.46479   -1122.9161    150094.05   -47368.228    4098.6952   -51466.923   0.16370987 
   17400    293.22072   -947.49229       149890   -47416.478    4026.6805   -51443.159   0.15683426 
   17600    294.27629   -904.03897    149727.94   -47459.162    4041.1762   -51500.338   0.14935582 
   17800    293.78133   -1028.5928    149939.65   -47474.636    4034.3791   -51509.015   0.15116022 
   18000    290.44359   -1137.1508    150083.34   -47504.831    3988.5433   -51493.374   0.15716285 
   18200    292.64048   -954.48835    149813.12   -47536.525    4018.7123   -51555.238   0.15622522 
   18400    294.34436   -869.16885    149696.33    -47559.07     4042.111   -51601.181   0.14793691 
   18600    290.18312   -1084.3785    150006.63     -47509.4    3984.9664   -51494.366    0.1526828 
   18800     295.9998   -1111.3795    150121.05   -47440.921    4064.8444   -51505.766   0.15833949 
   19000    292.36375   -893.77789    149781.71   -47474.884    4014.9121   -51489.796   0.15221168 
   19200    292.54102   -859.99301    149695.25   -47449.517    4017.3464   -51466.864   0.15451999 
   19400    300.69268   -1100.8989    150087.69   -47434.532    4129.2899   -51563.821    0.1583155 
   19600    291.23215   -1137.3535    150159.49   -47461.642    3999.3723   -51461.015   0.15695428 
   19800    287.68818   -853.30606     149730.5   -47464.564    3950.7044   -51415.269   0.15344944 
   20000    295.28816   -862.24358    149729.44   -47456.325    4055.0718   -51511.396   0.15626032 
   20200    291.35286   -1197.2267     150194.7   -47473.898      4001.03   -51474.928    0.1581608 
   20400    290.87326   -1168.4155    150095.14   -47453.793    3994.4438   -51448.237   0.15850484 
   20600    292.70075   -751.89158    149570.48   -47457.968      4019.54   -51477.508   0.15030206 
   20800    291.85975   -860.43662    149750.47   -47458.802    4007.9909   -51466.793   0.15541178 
   21000    295.82153   -1303.5611    150338.09   -47443.832    4062.3963   -51506.228   0.16318257 
   21200    293.23948   -1132.0708    150100.66   -47436.891    4026.9381   -51463.829   0.15506418 
   21400    297.65293   -672.13239    149520.27   -47440.839    4087.5463   -51528.385   0.14944387 
   21600    292.64366   -908.61522    149819.07   -47393.098     4018.756   -51411.854   0.15571603 
   21800    297.78472   -1318.8487    150418.88   -47333.322    4089.3561   -51422.678   0.16383876 
   22000    293.72165   -1067.4841     150069.6   -47344.897    4033.5596   -51378.457   0.15393849 
   22200    299.18187   -647.69595    149497.56   -47310.101    4108.5425   -51418.644    0.1462794 
   22400    294.82524   -950.23388    149965.86   -47280.925    4048.7147    -51329.64   0.15251863 
   22600    294.60065   -1408.4598    150534.13   -47277.673    4045.6304   -51323.303   0.16071536 
   22800    298.35842   -996.83138    149989.87   -47324.256    4097.2344   -51421.491   0.15671814 
   23000    295.54116   -642.12343    149461.72   -47350.268    4058.5461   -51408.814   0.15343136 
   23200    298.17444   -1014.1174    150040.54    -47337.63     4094.708   -51432.338   0.15251609 
   23400    295.59219   -1370.8116    150459.97   -47338.398    4059.2469   -51397.645   0.15677304 
   23600    295.64091   -919.18484    149841.98   -47365.926     4059.916   -51425.842   0.15701008 
   23800    296.83535   -696.62451    149549.26   -47307.696    4076.3187   -51384.015   0.15824652 
   24000    295.55618   -1116.8303    150180.91   -47338.904    4058.7524   -51397.656   0.15419485 
   24200    296.85423   -1268.3904    150410.17   -47317.234    4076.5781   -51393.812   0.15208719 
   24400    294.90019   -883.68298    149830.01   -47330.963     4049.744   -51380.707   0.14918735 
   24600    289.46949    -775.6054     149654.2   -47333.626    3975.1664   -51308.792   0.15862719 
   24800    296.33542   -1171.2954    150210.95   -47248.533    4069.4534   -51317.986   0.16027654 
   25000    297.54254     -1237.05    150331.38   -47244.931    4086.0303   -51330.962   0.16026252 
   25200    301.60671   -880.12331    149843.76   -47278.022    4141.8419   -51419.864   0.15229921 
   25400    296.91265   -798.18363    149740.16   -47342.841    4077.3803   -51420.222   0.15179468 
   25600    301.58087   -1111.7063    150154.99   -47360.512    4141.4871   -51501.999   0.15509304 
   25800    296.52886   -1168.5283    150182.52   -47336.274    4072.1098   -51408.384   0.16119372 
   26000    296.00785   -869.79376    149799.47   -47320.338     4064.955   -51385.293   0.15551406 
   26200    298.76748   -862.52825    149815.14   -47367.843    4102.8519   -51470.695   0.14582843 
   26400    298.55291   -1096.3785    150104.41    -47386.16    4099.9052   -51486.065   0.15152813 
   26600    293.84247    -1086.741     150024.9   -47396.114    4035.2187   -51431.332   0.15360837 
   26800    298.77165   -847.58444    149749.56   -47405.306    4102.9091   -51508.215   0.14849232 
   27000    297.12322   -943.37321    149855.56   -47404.634    4080.2719   -51484.906   0.15118686 
   27200    295.08707   -1122.2957    150123.31   -47393.614    4052.3103   -51445.924   0.15327081 
   27400    295.46279   -1051.7461    150006.77   -47359.912      4057.47   -51417.382   0.16016229 
   27600    299.12664   -811.62466    149766.44   -47368.239    4107.7841   -51476.024   0.14954778 
   27800    297.09923   -969.56806    149952.13   -47362.171    4079.9425   -51442.113   0.15379377 
   28000    292.67153   -1178.4737    150218.94    -47344.67    4019.1386   -51363.809   0.15870476 
   28200    292.97133   -996.51106    150010.45   -47366.395    4023.2557   -51389.651   0.15446847 
   28400    294.84177   -820.39618    149749.02   -47366.461    4048.9418   -51415.403   0.15305888 
   28600      297.502   -1019.2341    150026.09   -47385.209    4085.4736   -51470.683   0.14899499 
   28800    295.59097   -1201.4472    150266.08    -47392.58    4059.2302    -51451.81   0.14745699 
   29000    292.18453   -940.59875    149940.37   -47434.695    4012.4509   -51447.146   0.15081823 
   29200    291.28558   -850.57472     149693.3   -47475.237     4000.106   -51475.343   0.15328977 
   29400    287.83883    -1063.245    149995.61   -47472.111    3952.7732   -51424.884   0.15576083 
   29600    293.07327   -1223.2511    150221.14   -47428.012    4024.6556   -51452.668   0.15693916 
   29800    295.24959   -944.40831    149888.88   -47353.863    4054.5422   -51408.405   0.14923725 
   30000    295.19758   -808.67735     149730.4    -47346.08    4053.8279   -51399.908   0.14857758 
   30200    295.10866   -1077.5014    150086.54   -47350.042    4052.6068   -51402.649    0.1532021 
   30400    294.22632   -1201.9145    150189.65   -47402.142    4040.4899   -51442.632   0.15958818 
   30600     294.9877   -902.15322    149801.43    -47353.61    4050.9457   -51404.556   0.15244584 
   30800    299.21805    -842.3985    149752.66   -47321.981    4109.0393   -51431.021   0.14330825 
   31000    296.92756   -1169.4629    150174.02    -47301.94    4077.5849   -51379.524   0.15842235 
   31200    296.94593   -1201.1178    150201.54    -47304.15    4077.8373   -51381.987    0.1630341 
   31400     295.8151   -823.71638    149756.73   -47307.051    4062.3081   -51369.359   0.15403564 
   31600    299.07609   -836.21911    149730.58   -47370.981    4107.0899   -51478.071   0.15176915 
   31800    297.36609   -1133.1209    150159.31   -47335.997    4083.6071   -51419.604   0.15602369 
   32000    297.45569   -1158.3603    150163.91   -47305.406    4084.8376   -51390.244   0.15853455 
   32200    297.48084   -823.39461    149715.72   -47346.281    4085.1829   -51431.464   0.14878164 
   32400    295.61494   -866.27863    149768.05   -47340.287    4059.5593   -51399.847   0.15446516 
   32600    294.86907    -1195.134    150237.32   -47318.606    4049.3166   -51367.923   0.16167491 
   32800    300.52308   -1179.6073    150143.53   -47316.768    4126.9608   -51443.729   0.15329561 
   33000    296.50601   -745.65906    149590.47   -47313.076    4071.7961   -51384.872    0.1517228 
   33200    302.31813   -850.95208    149763.85   -47306.382    4151.6116   -51457.994   0.15358264 
   33400    300.81538   -1360.6574    150416.47    -47255.22    4130.9748   -51386.195   0.16067339 
   33600    301.22631   -1129.9881    150175.64   -47189.308    4136.6179   -51325.926   0.16330605 
   33800    298.87488   -640.96177    149495.65   -47235.239    4104.3267   -51339.565   0.15909103 
   34000    302.29177   -917.66829    149837.76   -47255.416    4151.2495   -51406.665   0.15976813 
   34200    300.11659   -1381.0649    150535.38    -47274.34    4121.3786   -51395.718   0.15841971 
   34400     293.7075   -1121.3234    150048.67   -47349.035    4033.3653     -51382.4   0.15868794 
   34600    299.89255   -529.14131    149301.34   -47332.759     4118.302   -51451.061   0.15086099 
   34800    294.32799   -980.76246     149926.1   -47367.757    4041.8862   -51409.644   0.15595614 
   35000     293.9287   -1502.7895    150637.04   -47378.661    4036.4029   -51415.064   0.15989158 
   35200    299.93104    -970.0142    149889.22   -47378.855    4118.8306   -51497.686   0.14930773 
   35400    293.67203   -499.20671    149293.05   -47346.339    4032.8782   -51379.217   0.14816847 
   35600     299.9887   -1093.6982    150098.54   -47332.572    4119.6224   -51452.194   0.15723568 
   35800    292.29523   -1424.2076    150563.52   -47322.177    4013.9712   -51336.149   0.16812238 
   36000    297.76241    -865.7912    149800.47   -47336.933    4089.0496   -51425.983   0.15186982 
   36200    291.35381   -638.59585    149502.86    -47355.84     4001.043   -51356.883   0.14564709 
   36400    298.68401    -1114.458    150159.55   -47376.786    4101.7057   -51478.491     0.148585 
   36600    296.84432   -1220.2856    150346.82   -47347.288    4076.4419    -51423.73   0.15485073 
   36800    294.79125   -879.51293    149850.16   -47399.847    4048.2479   -51448.094   0.14907266 
   37000    291.98786    -844.5946    149758.99   -47390.896    4009.7501   -51400.646   0.14976264 
   37200    298.77918   -1086.3338    150132.84   -47347.253    4103.0125   -51450.265    0.1523326 
   37400    294.34292   -1173.9314     150196.9   -47337.283    4042.0912   -51379.374   0.15610002 
   37600    295.73801   -884.87184    149872.21   -47369.474    4061.2493   -51430.723   0.14943439 
   37800    294.66531   -911.73445    149826.43   -47336.227    4046.5185   -51382.745   0.15798053 
   38000     291.8139   -1097.3231    150126.57   -47385.873    4007.3611   -51393.234   0.15524899 
   38200    296.02594   -1100.8943    150120.42   -47379.982    4065.2035   -51445.186   0.15229582 
   38400    293.95234   -878.56585    149820.78   -47349.438    4036.7275   -51386.165   0.15062031 
   38600    298.15466   -912.18561    149871.29   -47346.742    4094.4362   -51441.178   0.15106453 
   38800    296.58564   -1093.4094    150161.44   -47393.898    4072.8895   -51466.787   0.14923673 
   39000    292.40055   -1103.9335    150096.65   -47422.201    4015.4174   -51437.618   0.15252937 
   39200    292.90075   -905.15289    149801.96   -47447.778    4022.2865   -51470.064   0.15133015 
   39400    292.91519   -936.86921    149875.41   -47436.226    4022.4848   -51458.711   0.15378788 
   39600    288.34334   -1149.7024    150116.82   -47503.876    3959.7014   -51463.578   0.15728095 
   39800    294.46042    -1047.217    149960.15   -47494.787    4043.7048   -51538.492   0.15184631 
   40000    293.99388   -856.65711    149746.14   -47509.289    4037.2979   -51546.587   0.15052557 
   40200     290.7973   -1012.2705    149892.97   -47482.884    3993.4007   -51476.284   0.15515809 
   40400    289.08099   -1161.1334    150093.84   -47473.767    3969.8312   -51443.599   0.16048678 
   40600    291.86047   -964.23991    149926.54   -47504.448    4008.0007   -51512.448   0.14914383 
   40800    296.04958   -865.23172    149752.26   -47525.877    4065.5281   -51591.405   0.14138295 
   41000    290.25621   -1019.7193     149924.6    -47477.75      3985.97    -51463.72    0.1514835 
   41200    295.08505   -1121.0458    150053.74   -47509.594    4052.2826   -51561.876   0.15198388 
   41400    293.10085    -963.7414    149855.17   -47476.193    4025.0344   -51501.227   0.15420557 
   41600    288.05152   -882.38338    149753.65    -47471.87     3955.694   -51427.564   0.15352963 
   41800    289.62477   -1049.5739    150007.68   -47467.238    3977.2988   -51444.537   0.15472525 
   42000    294.96247   -1127.6492    150117.04   -47437.587    4050.5992   -51488.187    0.1566344 
   42200    292.71683   -940.14718    149845.78   -47468.589    4019.7608    -51488.35   0.15399717 
   42400    289.52293   -862.13702    149739.93   -47522.326    3975.9002   -51498.226   0.15423012 
   42600    292.17326   -1046.7673    150018.72    -47546.15    4012.2961   -51558.446   0.15290153 
   42800    288.87182   -1093.1909     150090.3   -47544.146    3966.9589   -51511.104   0.15165476 
   43000    290.36991   -877.77573    149762.41   -47502.574    3987.5314   -51490.106   0.15055516 
   43200    293.76972   -885.69798    149764.99   -47505.914    4034.2196   -51540.134   0.15233925 
   43400    293.66995   -1179.0515    150169.97   -47491.275    4032.8495   -51524.124    0.1561008 
   43600    292.09502   -1130.4895    150123.47   -47486.384    4011.2217   -51497.606   0.15276116 
   43800    292.38511   -749.23656    149644.77   -47466.464    4015.2053   -51481.669   0.15114877 
   44000    294.20644    -919.8115    149781.43   -47484.728    4040.2169   -51524.945    0.1517091 
   44200    288.46849   -1266.8245    150290.64    -47518.32    3961.4201    -51479.74   0.15517466 
   44400    290.66246   -1026.6037     150024.1    -47495.37    3991.5489   -51486.919    0.1528511 
   44600    290.49777   -685.83929    149509.67   -47438.431    3989.2874   -51427.718   0.15558035 
   44800    291.70895   -947.72039     149906.3   -47399.508      4005.92   -51405.428   0.14960402 
   45000    292.50038   -1369.0656    150454.56   -47426.225    4016.7884   -51443.014   0.15393131 
   45200     296.6983   -982.06845    149951.77   -47455.676    4074.4367   -51530.113   0.14964848 
   45400    289.70185   -641.33705    149429.62   -47512.116    3978.3573   -51490.473    0.1521257 
   45600     292.1017   -1069.3985    149982.16   -47495.057    4011.3134   -51506.371   0.15599372 
   45800    289.67037   -1374.4693    150462.47   -47459.006     3977.925   -51436.931   0.16024727 
   46000    295.52669    -930.3018    149865.68   -47465.688    4058.3474   -51524.036    0.1526526 
   46200    288.56604    -621.7367    149449.86   -47505.479    3962.7597   -51468.238   0.14750196 
   46400    287.99862    -1110.718    150067.05   -47479.834    3954.9675   -51434.801   0.15348227 
   46600    296.81734   -1343.2878     150397.4   -47471.319    4076.0714    -51547.39   0.15950069 
   46800    292.16786   -864.50091     149767.6   -47444.489    4012.2219   -51456.711   0.15208064 
   47000    295.49651   -709.66951    149544.87   -47427.463     4057.933   -51485.396    0.1508697 
   47200    297.25854   -1155.1682    150186.44   -47389.198    4082.1303   -51471.328   0.15737464 
   47400    301.99583   -1252.8744    150326.75   -47315.554    4147.1856    -51462.74   0.15615465 
   47600     297.7564   -821.73782    149740.69   -47296.793    4088.9671    -51385.76   0.15574894 
   47800    300.24487   -810.20631    149709.46   -47267.271    4123.1403   -51390.411   0.15723383 
   48000    299.13638   -1222.1326    150306.29   -47262.538    4107.9179   -51370.456   0.16475279 
   48200    299.71342   -1175.6643       150270   -47262.682    4115.8421   -51378.524   0.15939113 
   48400    302.15726    -784.8621    149756.45   -47251.461    4149.4024   -51400.863   0.14837711 
   48600    296.15833   -876.92857    149881.99   -47315.738    4067.0215   -51382.759   0.15428354 
   48800    302.20116   -1226.8039    150312.05   -47251.238    4150.0052   -51401.244   0.15971312 
   49000    299.36733   -1091.3017     150155.2   -47229.913    4111.0893   -51341.003   0.15962806 
   49200    301.25844   -807.41086    149766.95   -47271.143    4137.0592   -51408.202   0.15550454 
   49400    300.22617   -922.60195    149927.47   -47280.387    4122.8835    -51403.27   0.15299428 
   49600    293.53612   -1218.5321    150289.74   -47291.389    4031.0118   -51322.401   0.15392372 
   49800    297.12713   -1048.2461    150071.75   -47273.988    4080.3257   -51354.314   0.15942303 
   50000    308.54387   -741.54334     149694.8     -47281.7     4237.107   -51518.807   0.15238917 
   50200    297.09357   -978.21082    149930.66   -47315.893    4079.8648   -51395.757   0.15826296 
   50400    297.85054   -1209.6584    150261.83   -47314.986    4090.2599   -51405.246   0.15664506 
   50600    298.69872    -1028.705    150014.72   -47340.359    4101.9076   -51442.267   0.15387201 
   50800    295.81515   -774.14983    149720.99   -47355.741    4062.3087    -51418.05   0.15299943 
   51000    295.31168   -1012.1193    150007.88    -47286.81    4055.3948   -51342.205   0.15672534 
   51200    302.16856   -1210.8633    150254.23   -47315.185    4149.5575   -51464.743    0.1627302 
   51400    298.78978   -963.61341    149933.38   -47281.238    4103.1581   -51384.396   0.15627678 
   51600    296.16465   -824.98294    149744.88   -47284.888    4067.1082   -51351.996   0.15152908 
   51800    296.12139   -1099.9745    150107.27   -47276.206    4066.5141    -51342.72   0.16034987 
   52000    302.41239   -1200.2081    150281.82   -47233.957    4152.9059   -51386.863   0.15627647 
   52200    303.39995   -892.38714    149905.96    -47210.75    4166.4677   -51377.218   0.15436066 
   52400    300.65653   -858.48947    149805.14   -47193.247    4128.7934    -51322.04   0.16015686 
   52600    306.03579   -1106.9444     150196.4   -47227.486    4202.6646   -51430.151   0.15958045 
   52800    299.55654   -1153.6139    150248.04   -47245.592    4113.6878   -51359.279   0.15914136 
   53000    305.86165   -895.75713    149834.56   -47256.633    4200.2732   -51456.906   0.15005936 
   53200    298.16872   -840.54398    149789.82   -47266.419    4094.6293   -51361.049   0.15509878 
   53400    301.74633   -1155.0125    150176.89   -47291.355    4143.7593   -51435.114   0.15623707 
   53600    297.77148   -1137.0783    150184.73   -47317.253    4089.1742   -51406.427   0.15248017 
   53800    301.58415    -825.2559    149806.41   -47299.226     4141.532   -51440.759   0.15180852 
   54000    298.14991   -906.30816    149881.52   -47288.633     4094.371   -51383.004    0.1521643 
   54200    298.83207   -1192.2684    150273.46   -47291.609    4103.7389   -51395.348   0.15644794 
   54400     296.3595   -1095.2469    150145.67   -47320.299    4069.7841   -51390.083   0.16322387 
   54600    298.08438   -786.30117    149720.84   -47320.848    4093.4711   -51414.319   0.15491736 
   54800     299.7223   -858.94252     149904.6   -47261.709     4115.964   -51377.673   0.15128105 
   55000    297.61786   -1284.0412    150342.14   -47257.633    4087.0647   -51344.697    0.1625111 
   55200    297.15083    -1042.339    150066.67   -47291.563     4080.651   -51372.214   0.15567487 
   55400    300.79894    -751.0425    149641.49   -47321.827     4130.749   -51452.576   0.15243951 
   55600    295.50315   -982.60978    149940.99   -47355.743    4058.0242   -51413.767   0.15372005 
   55800    296.61871   -1207.2773    150299.51   -47320.717    4073.3437    -51394.06   0.15768284 
   56000    295.94905   -971.21607    149977.99   -47309.661    4064.1475   -51373.809   0.15284744 
   56200    301.21667   -729.36872    149650.24   -47349.669    4136.4856   -51486.154   0.14601129 
   56400    293.97745   -1017.8131    149984.76   -47347.852    4037.0723   -51384.924   0.15997466 
   56600    291.44547    -1250.717    150277.62   -47345.637    4002.3017   -51347.939    0.1668924 
   56800    295.36902   -929.62919    149854.81   -47301.722    4056.1822   -51357.904   0.15833941 
   57000    302.28472   -752.07504    149601.73   -47312.832    4151.1526   -51463.984   0.15145648 
   57200    291.61161    -1109.069    150110.06   -47335.409    4004.5832   -51339.992   0.15865353 
   57400    293.80703   -1270.3595     150322.7   -47350.374     4034.732   -51385.106   0.15899232 
   57600    303.04789   -839.14341    149765.91   -47349.372     4161.633   -51511.005   0.14848105 
   57800    296.90598   -695.35897       149638   -47363.988    4077.2887   -51441.277    0.1500949 
   58000    293.96597   -1209.3986    150266.26   -47368.336    4036.9146   -51405.251    0.1573329 
   58200    294.17986   -1286.5025    150283.47   -47408.069     4039.852   -51447.921   0.15803855 
   58400    296.07688   -729.95297    149593.01   -47409.691     4065.903   -51475.594   0.15173287 
   58600    291.38207   -749.60776    149611.17   -47388.013    4001.4311   -51389.444   0.15111886 
   58800    291.80574   -1294.8323    150320.52   -47411.016    4007.2491   -51418.265     0.160557 
   59000    287.87093   -1211.4874    150220.75   -47435.425     3953.214   -51388.639   0.16067663 
   59200    295.18152   -708.02733    149507.42   -47446.392    4053.6073   -51499.999   0.14482165 
   59400    299.82262   -811.18286    149713.32   -47385.403    4117.3417   -51502.745   0.14596902 
   59600    296.45944   -1321.5222    150416.77   -47368.643    4071.1564   -51439.799   0.15342486 
   59800    292.18314   -1161.2726    150169.15   -47357.755    4012.4318   -51370.187   0.16055205 
   60000    302.76019    -663.0875    149571.81   -47353.637    4157.6822   -51511.319   0.14334382 
   60200    295.97671    -925.4516    149896.01   -47322.874    4064.5274   -51387.402   0.15223264 
   60400    300.25654   -1280.3143    150431.95   -47281.014    4123.3006   -51404.315   0.16265711 
   60600    291.31195   -1074.4096    150078.69   -47327.794    4000.4681   -51328.262   0.15695612 
   60800    294.88032   -728.39262    149670.89   -47272.349    4049.4711    -51321.82   0.15629857 
   61000    300.29072   -988.19363    150046.04   -47310.557    4123.7699   -51434.327   0.15644199 
   61200    299.43328    -1219.527    150341.77   -47309.995    4111.9951    -51421.99   0.15869583 
   61400    297.16071   -973.27824    149971.89   -47312.623    4080.7868    -51393.41   0.14857042 
   61600     299.4472   -758.10814    149736.21   -47308.158    4112.1862   -51420.344   0.14629491 
   61800     300.7659   -1061.6575    150112.23   -47303.848    4130.2954   -51434.144   0.15337574 
   62000    297.14392   -1200.1002    150281.52   -47325.377    4080.5561   -51405.933   0.15954645 
   62200    298.19566   -944.50567    149911.59   -47342.934    4094.9993   -51437.933   0.14986536 
   62400    296.38216   -859.43572    149771.81   -47304.579    4070.0953   -51374.674   0.15681638 
   62600    298.69057   -1078.9196    150122.31    -47321.08    4101.7957   -51422.876   0.16183932 
   62800    299.19137   -1125.9531    150189.09   -47295.336     4108.673   -51404.009   0.15803704 
   63000    295.10422   -889.26616     149858.2   -47266.334    4052.5458    -51318.88    0.1608561 
   63200      302.496    -878.8429    149825.61   -47272.681    4154.0542   -51426.736   0.15452275 
   63400    301.55196   -1067.6184    150130.26    -47222.72      4141.09    -51363.81     0.155425 
   63600    302.31447    -1092.862    150158.98   -47202.956    4151.5612   -51354.517   0.16302214 
   63800    296.16812   -926.85723    149890.26   -47235.684    4067.1559    -51302.84     0.157329 
   64000    298.45927   -924.30714    149902.84   -47228.969    4098.6194   -51327.588   0.15525371 
   64200      304.808   -1109.8782    150184.42   -47227.178    4185.8038   -51412.982   0.15630748 
   64400    297.45553   -1070.6098     150088.8   -47213.384    4084.8354    -51298.22   0.16618394 
   64600    297.13975   -863.90856    149810.14   -47274.029    4080.4989   -51354.528   0.15544451 
   64800    304.51364   -929.66321    149905.07   -47285.231    4181.7616   -51466.993   0.15513652 
   65000    303.32349   -1124.7991    150180.96   -47269.194    4165.4177   -51434.612   0.15861497 
   65200    296.51254   -1070.4825    150077.28   -47298.067    4071.8857   -51369.953   0.15908015 
   65400    296.25207   -834.18968    149799.64   -47328.218    4068.3088   -51396.527   0.15090496 
   65600    299.56682   -971.40438    149918.02   -47352.902    4113.8288   -51466.731   0.15677592 
   65800    297.20601   -1114.9687    150138.53   -47323.434    4081.4089   -51404.842   0.16151741 
   66000    298.98149   -992.51688    150025.65   -47324.266    4105.7907   -51430.056   0.14882083 
   66200    298.93554   -923.15437    149850.13   -47353.706    4105.1598   -51458.866   0.15490011 
   66400     301.4954   -944.09184     149950.6   -47347.238    4140.3133   -51487.551   0.15369887 
   66600    291.72018   -1116.7828    150110.81   -47357.361    4006.0742   -51363.435    0.1632957 
   66800    295.25769   -977.87433    149945.71   -47341.327    4054.6533   -51395.981   0.15904465 
   67000     297.0507   -903.15392    149819.48   -47373.801     4079.276   -51453.077   0.15911721 
   67200    293.87976   -1032.3265    150030.86   -47391.509    4035.7308    -51427.24   0.15242006 
   67400    293.68551   -1113.6161    150127.89   -47423.688    4033.0633   -51456.751   0.15150437 
   67600    297.04986   -917.94816    149859.73   -47382.729    4079.2645   -51461.993   0.15582648 
   67800    295.84634    -883.4271    149823.39   -47330.211    4062.7371   -51392.948   0.16017709 
   68000    293.53074   -1122.1104    150194.44   -47320.702    4030.9379    -51351.64   0.15585632 
   68200    294.29432   -1156.0187    150231.18   -47393.764    4041.4238   -51435.188   0.15468974 
   68400    298.53922   -779.34599    149690.95   -47344.142    4099.7172   -51443.859   0.15653465 
   68600     300.2175   -806.03519    149722.54   -47330.791    4122.7644   -51453.555   0.15291792 
   68800    300.26717   -1309.2073    150440.83   -47286.602    4123.4466   -51410.048   0.16021568 
   69000    300.98147   -1192.9199    150313.97   -47334.372    4133.2557   -51467.628   0.15406121 
   69200    299.29898   -627.28485    149482.13    -47351.83    4110.1507    -51461.98    0.1517982 
   69400    296.76381   -803.58594    149716.72    -47389.75    4075.3362   -51465.086   0.15467994 
   69600    293.60936    -1418.337    150552.33   -47388.343    4032.0175   -51420.361   0.16219722 
   69800    295.59615   -1139.4707    150186.75    -47358.76    4059.3012   -51418.062   0.15827001 
   70000    297.49227   -628.21048       149422   -47330.074      4085.34   -51415.414   0.15569209 
   70200     301.6382   -923.80753    149875.39   -47308.276    4142.2742    -51450.55   0.15809447 
   70400    299.30812   -1364.7401    150543.66   -47309.698    4110.2762   -51419.974   0.16507903 
   70600    296.64065   -995.50153    150012.99   -47289.497    4073.6449   -51363.142   0.15232528 
   70800    294.97259   -606.57261    149454.87    -47321.25    4050.7382   -51371.988   0.15184129 
   71000    298.92964   -1049.0769    149995.09   -47364.042    4105.0787   -51469.121   0.16201271 
   71200    295.26287   -1319.4292    150430.11   -47363.293    4054.7245   -51418.018   0.16373756 
   71400    302.61058   -943.31351    149932.63   -47338.399    4155.6276   -51494.026   0.16051317 
   71600    301.14265   -746.14302     149630.9    -47320.05    4135.4691   -51455.519    0.1578577 
   71800    298.49406   -1082.0046    150076.58   -47334.532    4099.0971   -51433.629   0.15736882 
   72000    293.74626   -1233.2546    150267.09   -47355.164    4033.8976   -51389.062   0.16086826 
   72200    297.56773   -917.79456    149848.15   -47398.342    4086.3761   -51484.718   0.15881888 
   72400    296.80464   -854.09521    149716.51   -47380.904     4075.897   -51456.801   0.15823279 
   72600    298.38296   -1066.4641    150094.63   -47341.147    4097.5714   -51438.718   0.15380063 
   72800    294.15709   -1165.5683    150179.26   -47417.904    4039.5393   -51457.443   0.15532982 
   73000    297.48458   -913.54117    149832.75   -47421.311    4085.2344   -51506.545   0.15608919 
   73200    291.07299   -858.49788     149760.7   -47433.606    3997.1866   -51430.793   0.15506815 
   73400    293.20279   -1076.8087    150048.99   -47425.791    4026.4342   -51452.225   0.15690398 
   73600    291.15625   -1101.4256    150107.99    -47407.01      3998.33    -51405.34   0.15898742 
   73800    294.62967   -955.09635    149860.25   -47405.467     4046.029   -51451.496   0.16022526 
   74000    290.36841   -897.41787    149797.36   -47453.906    3987.5108   -51441.417   0.15439374 
   74200    296.56072   -1090.8844    150055.66   -47446.319    4072.5473   -51518.867    0.1551688 
   74400    294.95872   -1097.5034    150102.18   -47406.967    4050.5477   -51457.515   0.15821838 
   74600     296.3695   -883.93534    149821.37   -47434.743    4069.9213   -51504.664   0.15005569 
   74800    296.57184   -906.50581    149804.91   -47446.072       4072.7   -51518.772   0.15320183 
   75000    297.19719   -1077.7113    150056.64   -47405.226    4081.2878   -51486.513   0.16088585 
   75200    292.85666   -1116.1453    150051.01   -47390.742     4021.681   -51412.423   0.16433961 
   75400    296.55563   -907.58232    149841.25    -47381.05    4072.4774   -51453.527   0.15649163 
   75600    295.87584   -946.87672    149855.56   -47360.211    4063.1422   -51423.354    0.1627101 
   75800    298.68133   -1046.0376    150071.17   -47333.734    4101.6687   -51435.403   0.16037738 
   76000    299.86917   -1081.8207    150066.32    -47319.76     4117.981   -51437.741   0.16203533 
   76200    294.95453   -868.21322    149850.89   -47348.342    4050.4901   -51398.832   0.15064207 
   76400    298.48362   -967.00517     149882.6   -47318.996    4098.9538    -51417.95   0.15693778 
   76600    296.78039   -1081.7235    150110.62   -47301.083     4075.564   -51376.647   0.16132495 
   76800    298.16781   -1051.2565    150071.88   -47301.883    4094.6169   -51396.499   0.16232638 
   77000     298.0104   -873.15677     149862.3   -47306.973    4092.4552   -51399.429   0.16131568 
   77200    300.55928    -947.0782     149951.3   -47353.216     4127.458   -51480.674   0.15180752 
   77400    298.63933   -1157.2032    150147.81    -47340.19    4101.0921   -51441.282    0.1611857 
   77600     296.8195   -1031.0974    149993.13   -47357.576    4076.1011   -51433.677   0.16269473 
   77800    291.89472   -902.01632    149768.51   -47373.351    4008.4711   -51381.822   0.16034905 
   78000    295.30951   -1004.4244     149944.7   -47372.086    4055.3649   -51427.451    0.1598872 
   78200    296.98883    -1190.786    150192.83   -47361.605    4078.4263   -51440.032   0.15849171 
   78400    292.60976   -1001.3975    149955.21   -47385.152    4018.2904   -51403.442   0.15497484 
   78600    294.90738   -761.61846    149637.13   -47408.462    4049.8427   -51458.305   0.15462089 
   78800     291.9737   -1036.4568    150009.53   -47388.681    4009.5557   -51398.236   0.16693538 
   79000    295.48434   -1353.9073     150363.2   -47365.197    4057.7658   -51422.963   0.16719175 
   79200    298.34879    -930.1044     149875.5   -47383.696    4097.1022   -51480.798   0.15122251 
   79400    297.67015   -653.80945    149506.13   -47340.088    4087.7827   -51427.871   0.15220217 
   79600    295.82715   -1137.5437    150135.49   -47321.356    4062.4735   -51383.829   0.16578276 
   79800     297.4079    -1303.887    150506.88   -47341.817    4084.1813   -51425.999   0.15911857 
   80000    304.29725   -861.20589    149841.07   -47324.132    4178.7899   -51502.922   0.15180802 
   80200      299.002   -668.85502     149554.5   -47291.848    4106.0725    -51397.92   0.15845988 
   80400    303.46871   -1128.0196    150281.15   -47252.561     4167.412   -51419.973   0.15496816 
   80600    302.53637   -1318.1789    150490.48   -47268.255    4154.6085   -51422.864     0.164266 
   80800     297.3486   -765.03782    149737.31   -47221.961     4083.367   -51305.328   0.15709436 
   81000     302.4139   -727.64249    149631.24   -47279.537    4152.9267   -51432.464   0.15967616 
   81200    301.04796   -1260.7302    150338.02   -47248.583    4134.1687   -51382.751    0.1654742 
   81400    296.26037   -1246.3005    150366.21    -47222.78    4068.4228   -51291.203   0.16588079 
   81600    293.35858   -793.90648    149724.81   -47252.919    4028.5737   -51281.492   0.16483557 
   81800    303.19211   -776.12113    149723.91   -47260.285    4163.6136   -51423.899   0.15187892 
   82000    297.05399   -1215.1473    150309.94   -47217.397    4079.3212   -51296.718     0.165712 
   82200    296.96695   -1182.7678    150248.45   -47263.326    4078.1259   -51341.452   0.17176204 
   82400    300.35584   -731.53556    149696.74   -47273.124    4124.6641   -51397.788   0.16252128 
   82600    297.48262   -855.19409    149802.46   -47317.273    4085.2073   -51402.481   0.15474066 
   82800    298.63767   -1173.1048    150275.07   -47350.646    4101.0693   -51451.715   0.15379776 
   83000    294.83512   -1133.8867    150130.98   -47335.764    4048.8503   -51384.614   0.15995274 
   83200    296.20655   -830.33155    149713.69   -47363.157    4067.6836   -51430.841   0.16060182 
   83400    294.27878   -946.61522    149901.07   -47382.162    4041.2104   -51423.372   0.16416303 
   83600    301.66787   -1187.6222    150241.81   -47393.134    4142.6817   -51535.815   0.15741125 
   83800    297.46074   -1008.8806    149999.48   -47344.841    4084.9069   -51429.748   0.15850166 
   84000     295.6541   -800.71949    149714.72   -47379.254    4060.0971   -51439.351   0.15454348 
   84200    297.40916   -993.02812    149961.12    -47364.32    4084.1987   -51448.519   0.16333453 
   84400    298.01832    -1145.574    150197.34   -47363.584    4092.5639   -51456.148   0.15959001 
   84600    295.56446   -970.07793    149954.57   -47363.384    4058.8661    -51422.25     0.162624 
   84800    297.85331   -846.03714    149756.11   -47376.469     4090.298   -51466.767   0.15583837 
   85000    298.13366    -1031.249    149999.32   -47336.596    4094.1478   -51430.743   0.15652385 
   85200    299.35307   -1098.6626       150167   -47302.554    4110.8935   -51413.448   0.16003486 
   85400    294.11519   -1022.8278    149938.61   -47291.615    4038.9639   -51330.579   0.16684156 
   85600    298.65283   -915.04999    149817.04   -47291.176    4101.2774   -51392.453   0.16424109 
   85800    302.51682   -1020.9581    150020.05       -47302      4154.34    -51456.34   0.15869754 
   86000     300.2537   -1111.5775    150107.21   -47251.397    4123.2616   -51374.658   0.16601667 
   86200    299.69032   -935.26975    149895.21   -47263.851    4115.5248   -51379.376   0.16188884 
   86400    298.47844   -868.34775    149838.61   -47258.377    4098.8827    -51357.26   0.15366704 
   86600    298.27054   -1039.0161    150017.64   -47254.693    4096.0277    -51350.72   0.16090778 
   86800    296.11522   -1060.3344    150044.12    -47284.79    4066.4295   -51351.219   0.16687452 
   87000    301.54945   -954.39528     149917.3   -47309.978    4141.0556   -51451.033   0.15682289 
   87200    297.80839   -921.94609    149912.65   -47278.696    4089.6811   -51368.377   0.15064953 
   87400    296.66345   -1032.5316    150014.26   -47239.431    4073.9581   -51313.389   0.16324485 
   87600    298.57994   -1033.0584    149997.01   -47307.542    4100.2765   -51407.818   0.16732552 
   87800    299.62571   -950.21192    149933.09   -47315.496    4114.6377   -51430.134   0.16117137 
   88000    295.59473   -1013.7032    149990.39   -47264.037    4059.2818   -51323.318   0.16443266 
   88200    296.78054    -1076.608    150043.87   -47275.836     4075.566   -51351.402   0.16771167 
   88400    299.10116   -984.71355    149985.18   -47261.318    4107.4342   -51368.752   0.15911143 
   88600    299.18766   -967.13865    149944.33   -47277.681     4108.622   -51386.303   0.15659322 
   88800    299.53916   -1018.3177    149991.26   -47266.638     4113.449   -51380.087   0.16520152 
   89000    298.74247    -1050.572    150015.04   -47288.431    4102.5084    -51390.94   0.15914963 
   89200    300.24463   -982.67453    149953.24   -47262.698     4123.137   -51385.835    0.1556396 
   89400    302.08819   -891.18932    149949.75   -47234.982    4148.4539   -51383.436   0.15452956 
   89600    302.69965   -1049.5762    150053.07   -47256.973    4156.8507   -51413.824   0.16358756 
   89800    300.83408   -1112.5116     150066.7   -47293.663    4131.2316   -51424.895    0.1659253 
   90000    295.39143   -946.49467    149945.88   -47312.069      4056.49   -51368.559   0.16279615 
   90200    295.79121   -974.54408    149923.14   -47359.406      4061.98   -51421.386   0.15717281 
   90400    293.25516   -1012.6847    149971.16   -47379.349    4027.1534   -51406.502   0.15578587 
   90600    295.63733   -1041.5534    149971.16   -47371.293    4059.8668   -51431.159   0.15464351 
   90800    290.96437   -1017.8483    149920.73   -47396.681    3995.6949   -51392.376   0.16048246 
   91000    296.90491   -951.91861    149907.72    -47397.79    4077.2739   -51475.064   0.15334324 
   91200    296.44571   -1035.6034    149930.28   -47411.831     4070.968   -51482.799   0.15845209 
   91400    294.03794   -1018.6501    149941.07   -47401.621     4037.903   -51439.524   0.15999746 
   91600    293.80092   -950.17847    149936.91   -47405.413    4034.6482   -51440.062   0.15544393 
   91800    291.02081   -1046.0541    149965.64   -47380.739      3996.47   -51377.209   0.16121594 
   92000     293.5436   -1058.2859    149970.25   -47396.747    4031.1145   -51427.862   0.16205308 
   92200    296.76845   -978.26616    149897.95   -47419.899       4075.4   -51495.299   0.15408129 
   92400    294.48302   -975.20383     149910.8   -47399.123    4044.0151   -51443.138   0.15730871 
   92600     296.6565   -1040.5484    150010.04   -47455.997    4073.8626   -51529.859   0.15511212 
   92800    292.37647    -1021.935    149976.22   -47423.937    4015.0868   -51439.023   0.15945679 
   93000    297.51406   -907.17393    149864.17   -47352.663    4085.6392   -51438.302   0.15225731 
   93200     299.2302   -960.21919    149942.17    -47350.92    4109.2062   -51460.126    0.1543861 
   93400    293.54212   -1080.8083    150057.51   -47351.576    4031.0942    -51382.67   0.16280097 
   93600    298.70472   -966.34406    149947.91   -47336.821      4101.99   -51438.811   0.15824152 
   93800    298.61192   -896.61061    149859.58   -47328.704    4100.7156   -51429.419    0.1525501 
   94000    293.90636   -1076.9854    150038.24   -47327.756    4036.0962   -51363.852   0.16103959 
   94200    292.56052   -1118.6947    150079.07   -47409.682    4017.6142   -51427.296   0.16482932 
   94400    295.84796   -922.78596    149828.85   -47397.307    4062.7594   -51460.067   0.15675909 
   94600     293.6747   -897.53579    149817.39   -47395.064    4032.9148   -51427.979   0.15405902 
   94800    294.75626   -1128.8722    150106.06   -47444.816    4047.7674   -51492.584   0.15686612 
   95000    295.56797   -1096.5455    150052.44   -47451.144    4058.9143   -51510.059   0.15557723 
   95200    289.73474     -836.917     149712.6   -47461.254     3978.809   -51440.063   0.15191078 
   95400     288.7292   -886.51107    149804.51   -47473.021    3965.0003   -51438.021    0.1539297 
   95600    294.96623   -1218.2826    150139.64   -47429.982    4050.6509   -51480.633   0.16398586 
   95800    298.54501   -1072.7757    150000.73   -47394.552    4099.7967   -51494.349   0.15551169 
   96000    294.94568   -806.48155    149675.49    -47390.49    4050.3686   -51440.859   0.15146054 
   96200    286.50436   -988.29146    149870.18     -47430.1    3934.4475   -51364.548   0.16305559 
   96400    290.19416   -1216.1183    150207.91   -47418.484     3985.118   -51403.602   0.16431231 
   96600    294.16784   -1035.4562    150002.06   -47433.573    4039.6869    -51473.26   0.15904663 
   96800    292.64062   -795.08983    149670.92   -47492.987    4018.7142   -51511.701   0.15528385 
   97000    293.13852   -980.09198    149935.02   -47473.735    4025.5517   -51499.286   0.15178271 
   97200    292.94191   -1230.8779    150267.75   -47454.591    4022.8517   -51477.443   0.15600123 
   97400    294.90344    -996.6534    149969.09    -47413.19    4049.7886   -51462.978   0.15305134 
   97600    297.79605   -750.73984       149679    -47389.28    4089.5117   -51478.792   0.15040992 
   97800    299.79597    -1025.734    150057.72   -47379.476    4116.9758   -51496.452    0.1537977 
   98000    291.12325   -1246.4255    150314.33   -47344.149    3997.8767   -51342.026   0.16108621 
   98200    300.15665   -902.61846    149862.35   -47363.716    4121.9288   -51485.645    0.1559071 
   98400    293.07138   -762.36286    149650.27   -47293.779    4024.6297   -51318.409   0.15763673 
   98600    297.53421    -1152.122    150161.03   -47336.216    4085.9158   -51422.132   0.16357706 
   98800    300.75751    -1221.106    150315.98   -47294.314    4130.1802   -51424.495    0.1659041 
   99000    292.72957   -863.85512    149772.83   -47304.695    4019.9358   -51324.631   0.15976051 
   99200    292.17692   -808.86125    149641.51   -47372.935    4012.3464   -51385.281   0.15441588 
   99400    291.08004   -1187.5472    150162.91   -47460.529    3997.2835   -51457.812   0.15711596 
   99600    296.40099   -1186.6049    150192.01   -47482.873    4070.3538   -51553.226   0.15048567 
   99800    297.28916    -770.9171    149653.42   -47462.014    4082.5507   -51544.565   0.15016078 
  100000    292.37162   -865.13547    149729.95    -47461.59    4015.0201    -51476.61   0.16118417 
  100200     293.4022   -1260.8246    150287.79   -47409.896    4029.1726   -51439.069   0.16374692 
  100400    293.58053   -1105.8742    150173.57   -47408.045    4031.6216   -51439.667   0.15373399 
  100600    298.99559   -738.36375    149652.79   -47363.933    4105.9845   -51469.917   0.15222475 
  100800    298.37721   -874.99298    149833.92   -47394.239    4097.4925   -51491.731   0.15821149 
  101000    290.49909   -1250.4078    150340.43   -47367.751    3989.3054   -51357.056   0.16317493 
  101200    297.13055   -1134.7012    150128.94   -47349.665    4080.3726   -51430.037   0.16228448 
  101400    296.23457   -766.98509    149612.15   -47363.975    4068.0685   -51432.044   0.15640846 
  101600    297.10335   -912.18142    149850.44   -47377.879    4079.9991   -51457.878   0.14981328 
  101800    297.77589   -1255.2618    150334.24   -47334.386    4089.2348   -51423.621   0.15532827 
  102000    296.50434   -1069.6414    150045.12   -47338.947    4071.7731    -51410.72   0.16550767 
  102200     296.1928   -747.86271    149638.54   -47335.967    4067.4948   -51403.461   0.16553229 
  102400    301.07773   -936.58842    149963.04   -47273.716    4134.5776   -51408.294   0.16403872 
  102600    297.49489   -1257.7943    150302.28   -47278.988    4085.3759   -51364.363   0.16432401 
  102800    295.42875    -981.9117     149959.3   -47295.244    4057.0024   -51352.246   0.16092659 
  103000    295.31103   -793.67657    149701.01   -47294.296    4055.3858   -51349.682   0.16078706 
  103200    301.66547   -1022.8609    150046.71   -47270.456    4142.6487   -51413.105   0.15855111 
  103400    299.25238   -1177.7227    150233.49   -47295.382    4109.5108   -51404.893    0.1617331 
  103600    297.03453   -950.38573    149864.62   -47304.682     4079.054   -51383.736   0.15713714 
  103800    302.15773   -816.46977    149748.35   -47311.844    4149.4087   -51461.253   0.15215162 
  104000    292.26186   -1121.6794     150094.7   -47315.663    4013.5129   -51329.176   0.16463232 
  104200    300.51765   -1152.8691    150167.71   -47329.441    4126.8863   -51456.327   0.16706809 
  104400    294.46848   -961.26852    149860.78   -47350.672    4043.8154   -51394.488   0.16694117 
  104600    294.98212   -877.53036    149804.58   -47347.375    4050.8691   -51398.244   0.15918808 
  104800      299.629    -1077.934    150065.55    -47334.37    4114.6827   -51449.053   0.15922822 
  105000    295.31518   -1070.5592    150079.58   -47362.674    4055.4428   -51418.117   0.15643441 
  105200    288.77172   -918.34467    149877.53   -47367.097    3965.5841   -51332.681   0.15972067 
  105400    292.86965   -938.98606    149883.39   -47358.571    4021.8593    -51380.43    0.1611664 
  105600    298.11497   -1055.5071    150045.25   -47355.279    4093.8912    -51449.17   0.15793239 
  105800    298.42204   -1055.6499    150062.04   -47371.193    4098.1081   -51469.302   0.15763831 
  106000    297.51018   -921.75241    149916.61   -47353.802    4085.5859   -51439.387   0.15736662 
  106200    297.04986   -965.29682    149918.72   -47330.191    4079.2645   -51409.455   0.15835717 
  106400    293.04535    -1071.977    150058.08   -47340.309    4024.2722   -51364.581   0.16104315 
  106600    295.64725   -1004.1105    150043.46   -47342.019    4060.0031   -51402.022   0.16395206 
  106800    295.66059   -941.77841    149907.67    -47337.43    4060.1862   -51397.616   0.16578076 
  107000    299.79037   -934.38494    149912.28   -47292.891    4116.8988    -51409.79   0.15605739 
  107200     291.5231   -1106.2823    150073.58   -47279.085    4003.3678   -51282.453   0.15925988 
  107400    299.48211   -1039.8762    150104.96   -47285.905    4112.6655   -51398.571   0.15842971 
  107600    299.62514   -940.71277    149975.71   -47265.755    4114.6298   -51380.385   0.16070101 
  107800    293.95207   -964.70032    149977.03   -47287.511    4036.7238   -51324.235   0.16437162 
  108000    296.11569   -1017.5631    150088.36   -47262.822     4066.436   -51329.258   0.16079617 
  108200    299.72155   -1048.9462    150090.38   -47297.684    4115.9537   -51413.638   0.15887459 
  108400    300.85838   -938.61059    149944.75   -47295.965    4131.5653    -51427.53   0.15581655 
  108600    297.58962    -974.4487    149934.45   -47267.767    4086.6768   -51354.444   0.16457696 
  108800    300.09695   -1041.6803    150063.26     -47288.9    4121.1089   -51410.009   0.16796919 
  109000    298.84165   -1061.4707    149989.64   -47328.248    4103.8705   -51432.119   0.16365163 
  109200    300.06683   -907.99426    149819.07   -47332.167    4120.6953   -51452.863   0.15231803 
  109400    297.47111   -959.25046     149924.7   -47314.739    4085.0493   -51399.789   0.15805027 
  109600    301.01179   -1112.5789    150159.34   -47271.793    4133.6721   -51405.465    0.1610397 
  109800    293.36488   -1107.0378    150034.55    -47325.37    4028.6601   -51354.031   0.17203982 
  110000     301.4384   -838.00798     149720.6   -47267.515    4139.5305   -51407.046   0.16017565 
  110200    298.75244    -995.5933    149961.77   -47251.118    4102.6454   -51353.763   0.15911245 
  110400    294.34956    -1266.292    150365.44   -47296.658    4042.1824    -51338.84     0.161891 
  110600    295.86457   -1044.5177    150015.79   -47375.507    4062.9873   -51438.495   0.15952821 
  110800    296.00028   -712.33745    149554.53   -47378.723    4064.8511   -51443.574   0.15957013 
  111000     288.6144    -1015.721    149979.37   -47375.384    3963.4237   -51338.808   0.16346309 
  111200    291.81044   -1365.2176    150437.56    -47355.25    4007.3137   -51362.564   0.16856949 
  111400    292.50476   -969.96901    149902.35   -47418.546    4016.8485   -51435.395    0.1552296 
  111600    294.25187   -654.59853    149465.78   -47478.755    4040.8408   -51519.596   0.15298433 
  111800    295.43566   -1089.7025    150033.92   -47505.938    4057.0973   -51563.035   0.16087637 
  112000     294.0252   -1373.1782    150390.61   -47490.212     4037.728    -51527.94   0.16661706 
  112200    295.61787   -840.92139    149752.02   -47457.201    4059.5995   -51516.801   0.15262229 
  112400    290.94805   -625.93023    149476.53   -47427.401    3995.4709   -51422.871   0.15291067 
  112600    293.69796   -1202.6259    150149.73   -47393.727    4033.2343   -51426.961   0.16747913 
  112800    294.81222   -1271.1196    150319.19   -47404.415     4048.536   -51452.951   0.16398938 
  113000    291.57011   -806.68835    149610.18   -47393.153    4004.0133   -51397.166   0.16217513 
  113200    295.80205   -717.64864    149498.06   -47431.742    4062.1288    -51493.87   0.16179954 
  113400    294.34245   -1213.4618    150179.06   -47401.848    4042.0848   -51443.933   0.16940056 
  113600    292.66211   -1222.7284    150202.31   -47403.446    4019.0093   -51422.456    0.1648576 
  113800    297.35825   -738.68148    149548.58   -47395.847    4083.4994   -51479.346   0.15924441 
  114000    301.40046   -768.64519    149614.44   -47380.142    4139.0095   -51519.151   0.15695349 
  114200    293.65792    -1239.333    150222.67    -47382.69    4032.6844   -51415.374    0.1731484 
  114400    294.72665    -1145.116    150135.75   -47323.168    4047.3608   -51370.529   0.16794451 
  114600    299.41297   -816.23282    149648.59   -47302.297    4111.7162   -51414.014   0.16089366 
  114800    297.58323   -872.86802    149791.82   -47285.099    4086.5891   -51371.688   0.16024805 
  115000     299.3294   -1211.2257    150211.89   -47307.842    4110.5685    -51418.41   0.16402461 
  115200    291.63739   -1097.9621     150015.5   -47324.117    4004.9372   -51329.054   0.17440166 
  115400    298.18475   -793.41327    149636.23   -47341.899    4094.8495   -51436.748    0.1663847 
  115600    302.72758   -959.16546    149850.63   -47322.596    4157.2343    -51479.83   0.16147255 
  115800    301.30181   -1187.7055    150218.22   -47332.923    4137.6548   -51470.578   0.15951889 
  116000    298.03051   -1049.9159    150016.97   -47319.278    4092.7314    -51412.01   0.15890311 
  116200    294.88434    -875.9068    149712.87   -47342.891    4049.5263   -51392.417   0.16765434 
  116400    295.19136   -929.10673    149914.15   -47383.877    4053.7425    -51437.62   0.16139305 
  116600    290.72061   -1150.3475    150193.59   -47392.366    3992.3475   -51384.713   0.16158541 
  116800    295.33442   -1044.2937     150007.2    -47350.53    4055.7071   -51406.238   0.16060287 
  117000    295.68024   -825.95022    149749.66   -47362.389    4060.4561   -51422.845   0.15869652 
  117200    298.45027    -983.9605    149962.05   -47350.336    4098.4957   -51448.832   0.16366599 
  117400    295.11506   -1154.4137    150191.48   -47373.706    4052.6947     -51426.4   0.16355284 
  117600    293.73728   -982.84055    149967.14   -47356.812    4033.7743   -51390.587   0.16227355 
  117800    294.25085   -844.20591    149785.39   -47320.469    4040.8269   -51361.296   0.15824048 
  118000     298.4602   -1012.1409     150011.4   -47309.986    4098.6321   -51408.618   0.16170037 
  118200    298.97303   -1119.4176    150153.01   -47341.498    4105.6745   -51447.172   0.16515932 
  118400    300.87995   -962.18738     149913.5   -47397.241    4131.8615   -51529.103   0.16167227 
  118600    292.08219   -853.15323     149790.8   -47426.552    4011.0455   -51437.597   0.15897924 
  118800    294.53138   -1034.3674    150007.76   -47475.396    4044.6793   -51520.076    0.1603946 
  119000     288.7889   -1151.3024     150074.2   -47473.232    3965.8201   -51439.053   0.16439809 
  119200     288.5458    -966.7187    149896.66   -47476.836    3962.4818   -51439.318   0.15705216 
  119400    292.11994   -912.71333    149840.67   -47504.444    4011.5639   -51516.008   0.15196903 
  119600    293.26302   -1016.7179     149988.7   -47441.548    4027.2613    -51468.81   0.15894992 
  119800    295.39141   -1081.5426    150068.24   -47437.918    4056.4897   -51494.407   0.16179694 
  120000    297.00109   -959.78442    149951.84   -47457.694    4078.5948   -51536.289   0.15462324 
  120200    296.93827    -933.5757    149881.18   -47431.615    4077.7321   -51509.347   0.15962394 
  120400    297.14293   -986.96932    149949.84   -47477.969    4080.5426   -51558.512    0.1578603 
  120600    290.25357   -1035.3697    149985.96   -47470.325    3985.9338   -51456.259   0.16316418 
  120800    294.53242   -1017.0557    149930.01   -47462.941    4044.6936   -51507.635   0.16502397 
  121000    289.14294   -985.42155    149891.09   -47446.181    3970.6819   -51416.863   0.16192984 
  121200    293.74381   -1018.1852    149940.34   -47445.347    4033.8639   -51479.211   0.15652327 
  121400    292.30529   -1026.8998    149990.64   -47442.466    4014.1093   -51456.576   0.15385452 
  121600    290.75678    -1024.756    149928.65   -47434.532    3992.8442   -51427.377   0.16063895 
  121800    295.89988    -945.4424     149876.1   -47433.499    4063.4724   -51496.971   0.16257507 
  122000    293.60842   -1014.8078    149918.62   -47409.731    4032.0045   -51441.735   0.16790161 
  122200    298.73926   -1050.3737    149994.21   -47376.253    4102.4643   -51478.717   0.16712988 
  122400     297.8648   -1015.2064    150005.25   -47329.593    4090.4557   -51420.048   0.16146674 
  122600    303.37015   -953.68062    149977.95   -47249.542    4166.0585   -51415.601   0.16144384 
  122800    301.11419   -1004.5495    150014.61   -47249.682    4135.0783    -51384.76   0.17160928 
  123000    297.82615   -1070.6902    150078.58   -47296.271     4089.925   -51386.196   0.16596531 
  123200    297.06791   -1021.1148    149994.22   -47321.726    4079.5123   -51401.239   0.16131723 
  123400    294.01225   -980.42956    149902.98   -47408.498    4037.5503   -51446.048    0.1587602 
  123600    296.14831   -961.67711    149964.68   -47353.717    4066.8838   -51420.601   0.15816645 
  123800    295.11018   -1033.5193     150042.2   -47375.126    4052.6276   -51427.754   0.15993201 
  124000    295.95921   -985.96688    149956.59   -47358.971    4064.2871   -51423.258   0.16263661 
  124200    294.46574   -893.53636    149889.02   -47343.155    4043.7778   -51386.933   0.16556301 
  124400    293.45777   -1039.2423    150020.85   -47355.676    4029.9358   -51385.612   0.16348832 
  124600    298.42398   -1107.9478    150086.57   -47373.881    4098.1348   -51472.016   0.15760857 
  124800    297.61914   -918.12355    149891.02   -47380.723    4087.0823   -51467.805   0.16133627 
  125000      296.931   -862.57799    149836.42   -47390.418    4077.6322   -51468.051   0.15505236 
  125200    298.38087   -1114.4099    150072.18   -47378.333    4097.5427   -51475.876   0.15664251 
  125400     292.0968     -1132.96    150100.63   -47445.695    4011.2461   -51456.941   0.16034002 
  125600    292.46514   -904.00695    149811.61   -47443.976    4016.3044   -51460.281   0.15707984 
  125800    293.80091   -908.54069    149808.26    -47435.14     4034.648   -51469.788   0.15909773 
  126000     294.1753   -1133.6618     150136.6   -47397.081    4039.7894    -51436.87     0.162525 
  126200    292.39797   -1104.3834     150105.4   -47376.731     4015.382   -51392.113   0.16720028 
  126400    295.06532   -816.72582    149732.21   -47411.649    4052.0117   -51463.661   0.15890211 
  126600    296.31022   -875.56901    149785.34   -47437.692    4069.1074   -51506.799   0.15553552 
  126800    291.52729   -1228.4956    150195.98    -47402.32    4003.4253   -51405.746   0.16751353 
  127000    290.96761   -1124.0147    150099.26    -47419.97    3995.7394   -51415.709   0.15885436 
  127200    294.34779   -745.43177    149674.73   -47461.506    4042.1581   -51503.665   0.15185888 
  127400    295.47453   -891.22257    149857.71   -47459.736    4057.6312   -51517.367   0.15815665 
  127600    291.00668   -1242.2767    150310.38   -47446.069     3996.276   -51442.345   0.16650209 
  127800    292.33306   -1047.3897    150034.32    -47438.59    4014.4906   -51453.081   0.15864508 
  128000    298.27901   -695.97243    149575.17   -47443.521     4096.144   -51539.665   0.15361843 
  128200    296.00778   -934.55218    149919.41   -47404.217     4064.954   -51469.171   0.15611729 
  128400    293.69377   -1314.0319    150364.12   -47424.568    4033.1766   -51457.745   0.16257181 
  128600    295.29413   -1012.1076    149957.91   -47462.769    4055.1538   -51517.923   0.15734796 
  128800    295.29056    -680.6392    149539.22   -47505.091    4055.1048   -51560.196   0.15113006 
  129000    287.62809   -990.07683    149956.87    -47533.82    3949.8791   -51483.699   0.15014846 
  129200    288.68281   -1289.3929    150338.58   -47483.613    3964.3632   -51447.976   0.15910924 
  129400    294.84272   -929.67238    149891.72   -47490.366    4048.9548   -51539.321   0.16011793 
  129600    291.52211   -717.47559    149582.92   -47494.588    4003.3541   -51497.942   0.15886772 
  129800    289.97215    -1055.144    150049.72   -47499.715    3982.0692   -51481.784   0.15537165 
  130000    294.10755   -1265.5319     150289.4   -47505.794     4038.859   -51544.653   0.15807671 
  130200    284.76775   -918.93605    149788.03   -47531.497    3910.5993   -51442.097   0.15930357 
  130400    287.55328   -722.46965    149590.58   -47518.845    3948.8519   -51467.697    0.1526583 
  130600    290.28661   -1136.6591    150149.08   -47467.521    3986.3876   -51453.909   0.15947773 
  130800    291.80823   -1249.3321    150293.33   -47484.998    4007.2833   -51492.281   0.16369835 
  131000    290.44355   -809.00821    149712.97   -47513.931    3988.5428   -51502.473   0.15687224 
  131200     294.6039   -770.11618    149638.25   -47489.241    4045.6751   -51534.916   0.15463036 
  131400    289.27121   -1184.4127    150203.25   -47481.465    3972.4434   -51453.908   0.16598944 
  131600    289.38834   -1246.8759    150202.38   -47473.682     3974.052   -51447.734   0.16941949 
  131800    291.71923   -780.86774    149645.55   -47452.241    4006.0612   -51458.303   0.15813031 
  132000    295.93364   -837.67081    149716.86   -47396.236    4063.9359   -51460.172   0.15622266 
  132200    290.92938   -1247.5654    150263.27   -47393.822    3995.2144   -51389.036   0.16697057 
  132400    293.87791   -1087.2218    150147.73   -47398.878    4035.7054   -51434.584   0.16240844 
  132600    295.90622   -796.60718    149703.53   -47381.325    4063.5593   -51444.884   0.15751666 
  132800    296.39265   -955.83254     149889.8   -47349.246    4070.2392   -51419.485   0.16062818 
  133000    293.24487   -1221.1106    150290.97   -47337.118    4027.0121    -51364.13   0.16698179 
  133200    300.50275   -1039.4439    150063.94   -47287.942    4126.6817   -51414.624   0.16530924 
  133400    297.39702   -800.28075    149746.42   -47277.247    4084.0318   -51361.279   0.16051798 
  133600    302.19635   -955.89029    149999.44   -47287.661    4149.9392     -51437.6   0.15742583 
  133800     295.2929    -1181.683    150251.01   -47304.372    4055.1369   -51359.509   0.16291059 
  134000    299.10743   -980.54199    149967.55   -47257.547    4107.5202   -51365.068   0.16379222 
  134200    296.25688   -826.52209    149715.22   -47274.558    4068.3748   -51342.933   0.16288618 
  134400    303.26535   -1026.1039    149989.23   -47270.318    4164.6193   -51434.937   0.16600581 
  134600    296.96765   -1159.9282    150177.76   -47282.749    4078.1355   -51360.884   0.16811376 
  134800    300.18804    -990.7625    149917.59   -47330.665    4122.3598   -51453.025   0.16059389 
  135000    297.13434   -862.02408    149768.85    -47388.59    4080.4246   -51469.014   0.15815515 
  135200     292.5569   -1047.7505    149978.27   -47394.957    4017.5645   -51412.522   0.16765866 
  135400    297.28447   -1118.1265    150091.19   -47415.805    4082.4863   -51498.291   0.16437662 
  135600    296.52643   -951.93761     149910.1   -47381.383    4072.0764    -51453.46   0.15415975 
  135800     291.5224   -922.73854    149831.88   -47455.096    4003.3582   -51458.454   0.15533467 
  136000    292.80803   -1025.8301    149960.61   -47485.943    4021.0132   -51506.956   0.15841573 
  136200    289.36813   -1085.3323    149980.14   -47496.149    3973.7744   -51469.923   0.16404407 
  136400    289.16209    -941.5337    149860.18    -47448.86    3970.9449   -51419.805   0.16187934 
  136600    294.93801   -954.64853    149870.49   -47391.284    4050.2633   -51441.547   0.15713424 
  136800      293.791   -1022.1235    150010.98   -47399.565    4034.5119   -51434.077   0.16110344 
  137000      291.606   -1051.7393    150026.65   -47404.012    4004.5062   -51408.518    0.1607095 
  137200    291.67251   -981.49084    149875.31   -47438.857    4005.4195   -51444.277   0.16061794 
  137400     293.5291   -955.33918    149833.05   -47395.714    4030.9154    -51426.63   0.16004251 
  137600    296.58061   -1037.5249     149979.7   -47386.456    4072.8205   -51459.276   0.15991328 
  137800    295.31637   -1018.3773    150002.69   -47357.784    4055.4592   -51413.243   0.16039706 
  138000    296.56475    -942.5673    149911.23   -47357.689    4072.6026   -51430.292   0.15676939 
  138200    293.81185   -995.83239     149919.3   -47408.745    4034.7982   -51443.544    0.1591402 
  138400    290.10217   -1030.8424    150004.34   -47391.648    3983.8548   -51375.503   0.16177698 
  138600     293.6015   -1025.9507    149984.23    -47405.64    4031.9095    -51437.55   0.16009566 
  138800    290.97466   -959.48193    149925.56    -47354.24    3995.8363   -51350.077   0.16387819 
  139000    298.40862   -995.50112    149980.39   -47342.902    4097.9238   -51440.826   0.16179732 
  139200    298.72599   -1072.9908     150065.7   -47342.769    4102.2821   -51445.051   0.16045711 
  139400    297.00265   -994.21791    149977.41   -47371.654    4078.6162   -51450.271   0.15596501 
  139600    293.96137   -920.90449    149878.66   -47354.236    4036.8516   -51391.088   0.15694313 
  139800    297.79687   -974.71504     150027.9   -47313.144    4089.5229   -51402.667   0.15994235 
  140000    297.20448   -1136.4863     150188.9    -47277.79    4081.3878   -51359.178   0.16342427 
  140200    298.75519   -1009.9945    150043.28   -47322.902    4102.6831   -51425.585   0.15418074 
  140400     296.6736   -886.49463    149889.36    -47351.18    4074.0975   -51425.278   0.15816746 
  140600    299.91551   -971.91153    150038.04   -47350.549    4118.6173   -51469.166   0.15660595 
  140800    299.73377   -1076.6585    150143.18   -47341.892    4116.1216   -51458.013   0.15530454 
  141000    298.31484   -970.48048    149973.27   -47382.557     4096.636   -51479.192   0.15267085 
  141200    296.49846   -884.86489    149868.37   -47334.564    4071.6923   -51406.256   0.15128186 
  141400      297.906   -1052.5534    150068.85   -47337.005    4091.0216   -51428.027   0.15893527 
  141600    294.96172   -1093.6237     150128.8   -47318.436     4050.589   -51369.025   0.15922975 
  141800    294.68552   -965.76406    149911.31    -47376.59     4046.796   -51423.386   0.15715834 
  142000     295.3185   -907.71695    149881.39   -47393.203    4055.4884   -51448.691   0.15637306 
  142200    293.31279    -1064.253    150089.26   -47387.218    4027.9449   -51415.163   0.15522296 
  142400    295.65568   -1085.5449    150093.21       -47390    4060.1188   -51450.119   0.15516381 
  142600    293.17236   -909.27973    149865.07   -47383.413    4026.0163   -51409.429   0.15963706 
  142800    294.87212   -957.95719    149865.81   -47388.126    4049.3585   -51437.485    0.1557397 
  143000    294.29321    -1052.988    150069.27   -47448.463    4041.4085   -51489.871   0.15354319 
  143200    294.77614   -1094.8274    150050.02   -47415.577    4048.0405   -51463.618   0.16343036 
  143400    293.86616   -932.07261    149827.94   -47382.135     4035.544   -51417.679   0.16236111 
  143600    291.93043   -963.31969    149850.13   -47370.587    4008.9614   -51379.549   0.16162571 
  143800    298.78668   -1089.3884    150095.43     -47379.5    4103.1156   -51482.616   0.15741638 
  144000    294.08247   -1062.6708    150055.88   -47367.744    4038.5146   -51406.259   0.16510345 
  144200    302.30521    -889.4857    149814.01   -47345.544    4151.4341   -51496.978    0.1563084 
  144400    300.56978   -961.78925    149910.36   -47347.627    4127.6021    -51475.23   0.15504074 
  144600    296.59545   -1152.2382     150166.2   -47315.929    4073.0243   -51388.953   0.16319271 
  144800    302.07692   -1038.3974    150017.03   -47287.591     4148.299    -51435.89    0.1604845 
  145000     298.3411   -860.03807    149746.38   -47335.516    4096.9966   -51432.513   0.15880548 
  145200    298.96484   -972.01272    149935.53   -47364.445    4105.5622   -51470.007   0.15305854 
  145400    294.58932   -1171.2565    150228.28   -47363.694    4045.4749   -51409.169   0.15858964 
  145600    296.85682   -981.29899    149992.38   -47385.642    4076.6135   -51462.255   0.15236814 
  145800    298.29384   -793.36098    149683.94   -47406.714    4096.3476   -51503.062   0.15109395 
  146000    291.43528   -999.46159    149939.11   -47389.786    4002.1618   -51391.948   0.16003949 
  146200    298.74757   -1198.2617     150276.1   -47416.948    4102.5785   -51519.526   0.15417282 
  146400    296.43379   -981.34957    149983.46   -47372.625    4070.8043   -51443.429   0.15854252 
  146600    295.73725   -779.80805    149661.23    -47340.34     4061.239   -51401.579   0.15767658 
  146800    304.32592   -1017.4257    150038.79   -47292.012    4179.1837   -51471.195   0.15672633 
  147000    300.05042   -1272.2915    150362.07   -47299.754    4120.4699   -51420.224   0.16250047 
  147200    294.73454   -946.29714    149888.06   -47273.183    4047.4691   -51320.652   0.16696834 
  147400    295.42754   -691.35147    149595.69   -47344.544    4056.9858    -51401.53   0.15829774 
  147600     295.7611   -1100.1864    150127.38   -47351.321    4061.5665   -51412.888   0.16329554 
  147800    292.98369   -1321.0563    150371.76   -47389.178    4023.4254   -51412.603   0.16835994 
  148000    297.13601   -752.54139    149715.77   -47361.925    4080.4476   -51442.373   0.15292123 
  148200    297.35272    -719.3675    149566.15   -47408.042    4083.4236   -51491.466   0.15193148 
  148400     286.5387   -1260.5227    150246.99   -47448.072    3934.9191   -51382.991    0.1681245 
  148600    294.34805    -1242.719     150284.1   -47415.915    4042.1617   -51458.076   0.16495918 
  148800     296.8347   -764.39921    149594.41   -47429.149    4076.3098   -51505.459   0.14947997 
  149000     292.8572   -814.88016    149635.83   -47435.754    4021.6884   -51457.442   0.15163264 
  149200    295.07423   -1275.0814    150281.52   -47430.863     4052.134   -51482.997   0.16339042 
  149400     294.5164   -1111.6438    150144.89   -47453.416    4044.4735    -51497.89   0.15831012 
  149600    296.67187   -759.28383    149557.48   -47462.594    4074.0738   -51536.668   0.15130523 
  149800    294.65593    -834.5837    149723.16   -47447.071    4046.3896   -51493.461   0.14739341 
  150000    296.66622   -1218.6315    150293.26   -47396.049    4073.9962   -51470.045   0.15564156 
  150200    299.78951   -1124.0116    150097.96   -47342.947    4116.8869   -51459.834   0.15517117 
  150400    300.66179   -726.52396    149568.43   -47321.359    4128.8657   -51450.225   0.15945532 
  150600    294.30137     -933.033    149803.88   -47370.133    4041.5205   -51411.653    0.1645859 
  150800    295.88386   -1245.9707    150270.04   -47323.712    4063.2523   -51386.964   0.16177892 
  151000    296.72627   -1066.8436    150015.02   -47367.795    4074.8207   -51442.616   0.15778661 
  151200    298.63887   -793.38486    149608.07   -47360.836    4101.0857   -51461.922   0.15889415 
  151400    302.90724    -920.1988     149905.3   -47268.885    4159.7016   -51428.587   0.16159519 
  151600    301.39117   -1201.2342    150295.48   -47249.173     4138.882   -51388.055   0.16576922 
  151800    299.20449   -1045.3051    150040.31   -47264.918    4108.8531   -51373.771   0.16049996 
  152000    299.09208   -845.44907     149738.2   -47272.074    4107.3095   -51379.384   0.16086689 
  152200    297.10563   -959.17666    149961.41   -47290.046    4080.0303   -51370.076   0.15993577 
  152400    293.82752   -1116.9356    150174.31   -47335.631    4035.0135   -51370.645   0.15857868 
  152600    297.71547   -970.15071    149984.97   -47307.797    4088.4051   -51396.202   0.16262862 
  152800    297.00363   -900.35994    149876.16   -47240.521    4078.6296   -51319.151   0.16601852 
  153000    297.07984   -1076.1955    150051.15   -47309.495    4079.6762   -51389.171   0.16171637 
  153200    300.34839   -1050.1987    150054.04   -47249.109    4124.5619   -51373.671   0.16278954 
  153400    300.28975   -908.65834    149894.72   -47306.412    4123.7566   -51430.169   0.15599073 
  153600    297.86033   -920.07478    149891.92   -47334.416    4090.3943   -51424.811   0.15807154 
  153800    301.60524      -1029.7    150013.08    -47362.31    4141.8217   -51504.132   0.15696454 
  154000    295.46213   -1065.7248     150005.9    -47377.33    4057.4609   -51434.791   0.16456342 
  154200    296.99843   -957.09106    149906.33    -47323.88    4078.5583   -51402.438   0.16544637 
  154400    298.90821   -966.70696    149967.08   -47317.663    4104.7845   -51422.447   0.15769957 
  154600    296.44771   -1054.7616    150078.91   -47337.172    4070.9955   -51408.168   0.15759097 
  154800    295.25133   -1033.3943    149987.43   -47354.456     4054.566   -51409.022   0.16147873 
  155000    298.14631   -901.56045    149876.35   -47343.742    4094.3216   -51438.063   0.16205427 
[...]
  163200    292.94309   -1203.6616    150203.16    -47407.63    4022.8679   -51430.498   0.16087721 
  163400    294.60993   -765.34896    149636.27   -47451.036    4045.7579   -51496.794    0.1573342 
  163600     293.5513   -869.15765     149718.8   -47399.443    4031.2201   -51430.663   0.16011797 
  163800    296.49662   -1242.3593    150274.52   -47452.739     4071.667   -51524.406   0.16086221 
  164000    290.22939   -1183.0305    150090.64   -47470.663    3985.6017   -51456.265   0.16191765 
  164200    292.34891   -709.62022    149507.24   -47475.429    4014.7083   -51490.137   0.15496163 
  164400    295.30128   -869.71504    149754.34   -47415.005    4055.2519   -51470.257   0.15737818 
  164600    293.84808   -1312.6124    150344.23   -47383.471    4035.2958   -51418.767   0.17190027 
  164800    292.60943   -1161.8271    150053.09   -47426.397    4018.2858   -51444.683   0.16391459 
  165000    294.69443   -681.48308    149493.95   -47409.229    4046.9184   -51456.147   0.15490211 
  165200    295.35712   -928.36937    149853.19   -47401.959    4056.0188   -51457.978   0.15618668 
  165400    295.66174   -1301.7679    150355.68   -47421.518    4060.2021    -51481.72   0.16185641 
  165600    297.55202   -969.61136     149951.2   -47365.357    4086.1605   -51451.517   0.16025936 
  165800    295.61902   -698.69957    149576.24   -47396.246    4059.6154   -51455.862   0.15126169 
  166000    294.94991    -1061.562    150005.88    -47349.26    4050.4267   -51399.687   0.16478241 
  166200    297.36364   -1274.4864    150295.23   -47375.804    4083.5735   -51459.377   0.16453928 
  166400    297.81816   -931.47265    149868.27    -47377.56    4089.8152   -51467.376   0.15739027 
  166600    293.29886   -740.43578    149647.17   -47375.098    4027.7535   -51402.852    0.1525467 
  166800    299.12899   -1025.2413    150018.71   -47432.625    4107.8163   -51540.441   0.15147706 
  167000    297.08295   -1134.4104    150173.21   -47430.969    4079.7189   -51510.688   0.15921072 
  167200    296.69526    -943.4776    149859.29   -47383.582    4074.3949   -51457.977   0.16321898 
  167400    290.56929   -897.40201    149773.53   -47430.627    3990.2695   -51420.897   0.15774136 
  167600    297.36406   -1016.0235    150026.75   -47408.931    4083.5793    -51492.51   0.15026623 
  167800    289.30771   -1111.6862    150083.01   -47477.655    3972.9447     -51450.6   0.15800735 
  168000    288.31023   -993.51331    149867.71   -47468.763    3959.2467    -51428.01   0.16438521 
  168200    295.55988   -952.94618    149828.28   -47467.186    4058.8032   -51525.989   0.16002695 
  168400    301.74825   -1025.0781     150004.6   -47420.746    4143.7856   -51564.532   0.15524625 
  168600    293.99019   -1080.4338    150024.97   -47431.422    4037.2473   -51468.669   0.15846263 
  168800    291.73038   -988.44258    149858.36   -47474.043    4006.2143   -51480.258   0.15844719 
  169000    295.78465   -929.07383    149846.29   -47460.177    4061.8899   -51522.067   0.15458066 
  169200    299.08162   -1046.5162    150036.94   -47426.733    4107.1658   -51533.899   0.15879435 
  169400    292.19831   -1075.7031    150047.21   -47453.106    4012.6401   -51465.746   0.15698071 
  169600    294.49715   -923.74783    149866.42   -47465.144    4044.2091   -51509.353   0.14766165 
  169800    293.04818   -933.92439    149858.15   -47471.054     4024.311   -51495.365   0.14981817 
  170000    291.40391   -1097.4871    150022.35   -47509.046     4001.731   -51510.777     0.160205 
  170200    294.57993   -1015.1284    149986.82   -47519.221    4045.3459   -51564.566   0.15723519 
  170400    291.81709   -931.61874    149816.74   -47490.906     4007.405   -51498.311   0.15424665 
  170600    292.47728   -978.90284     149872.5   -47471.406    4016.4712   -51487.877    0.1537722 
  170800    287.63856   -1118.3784    150047.29   -47492.668    3950.0229   -51442.691   0.16092951 
  171000    294.51664   -1007.6569    149959.48    -47493.58    4044.4769   -51538.057   0.15274362 
  171200    286.37714   -946.74952    149820.04   -47523.187    3932.7003   -51455.887   0.15737863 
  171400    290.07104   -994.15028    149919.98   -47516.634    3983.4272   -51500.061   0.15625443 
  171600    295.64541   -1070.3151     150053.4   -47479.446    4059.9777   -51539.424   0.15334794 
  171800    290.25278   -998.84998    149947.48   -47457.963    3985.9229   -51443.886    0.1546418 
  172000    295.08775   -928.32131    149835.88   -47466.155    4052.3196   -51518.475   0.15623343 
  172200    291.71147   -1024.5267    149942.03   -47470.206    4005.9546   -51476.161   0.16168808 
  172400    294.82665   -1076.5671    150051.93   -47436.526    4048.7341    -51485.26   0.15453408 
  172600    298.01861   -1018.2487    149954.45   -47422.376    4092.5679   -51514.944    0.1576071 
  172800    291.66402   -910.17544    149831.81   -47430.723    4005.3029   -51436.026   0.15827315 
  173000    286.74828   -1040.1903    149943.03    -47448.23    3937.7971   -51386.027   0.16222018 
  173200     297.0304   -1096.6656    150032.99   -47485.598    4078.9972   -51564.595   0.15155267 
  173400    296.67367   -982.22595    149893.33   -47472.539    4074.0984   -51546.637   0.15135743 
  173600    291.74001   -891.52053    149804.97   -47422.906    4006.3465   -51429.253   0.15864316 
  173800    294.87264    -1040.617    150008.21   -47421.815    4049.3657   -51471.181   0.15788728 
  174000    293.28909   -1105.5636    150123.98   -47381.908    4027.6193   -51409.528     0.155068 
  174200    294.39771   -962.69508    149897.54    -47378.76    4042.8436   -51421.604   0.15361484 
  174400    297.43827   -843.12163    149794.68   -47363.096    4084.5984   -51447.694   0.15583831 
  174600    299.36638   -1086.9363    150103.85   -47371.696    4111.0763   -51482.773   0.15967237 
  174800    297.03394   -1160.3044    150181.61   -47332.617    4079.0459   -51411.663   0.16208298 
  175000    295.29859   -865.69635    149806.26   -47387.475     4055.215    -51442.69   0.15005314 
  175200    295.91856   -868.06448    149800.68    -47384.89    4063.7289   -51448.619    0.1529784 
  175400    292.76749     -1148.05    150200.04   -47388.767    4020.4565   -51409.224   0.15739526 
  175600     299.4775    -1126.274    150151.76   -47401.473    4112.6023   -51514.075   0.16286624 
  175800    296.38265    -782.7389    149710.63    -47391.07     4070.102   -51461.172    0.1633274 
  176000    298.25344   -879.32846     149814.6   -47377.573    4095.7927   -51473.366   0.15388052 
  176200    303.17501     -1229.24    150276.93   -47319.194    4163.3787   -51482.573    0.1588783 
  176400    298.20211   -1098.3928     150102.2   -47361.183    4095.0879   -51456.271   0.16116686 
  176600     292.8234   -779.05484    149635.32   -47345.953    4021.2242   -51367.177   0.16744859 
  176800    293.11648   -940.41175    149871.44   -47352.135     4025.249   -51377.384   0.16642209 
  177000      299.637   -1271.6106    150330.81   -47360.606    4114.7926   -51475.399   0.15832145 
  177200    298.24808   -1071.8906    150028.51   -47378.604    4095.7192   -51474.323   0.15831186 
  177400    292.54733   -740.69243    149549.01   -47476.321    4017.4331   -51493.754   0.15198929 
  177600    290.28256   -984.89027    149869.28   -47436.636    3986.3319   -51422.968   0.16136083 
  177800    292.82764   -1291.4961     150300.4   -47407.693    4021.2825   -51428.976   0.16717714 
  178000    296.19291   -987.21615    149927.54   -47369.932    4067.4963   -51437.429    0.1574428 
  178200    297.19685   -732.88647    149555.69   -47412.328     4081.283   -51493.611    0.1521058 
  178400    294.19643   -1030.5521     149942.2   -47382.218    4040.0795   -51422.297   0.16054491 
  178600    294.69418   -1265.7849    150259.19   -47391.692    4046.9149   -51438.607   0.16576101 
  178800    294.12901   -993.55064    149833.29    -47367.49    4039.1536   -51406.643   0.16296913 
  179000    299.13851    -802.9107    149592.77   -47344.892    4107.9471   -51452.839   0.16189578 
  179200    294.29503   -1076.1878    150051.72   -47363.159    4041.4336   -51404.592   0.16202697 
  179400    297.07804   -1211.3295    150245.01   -47331.356    4079.6515   -51411.007   0.16413988 
  179600    295.15021   -880.37833    149776.73   -47344.785    4053.1774   -51397.962   0.15821031 
  179800    295.80166   -771.11692     149612.2   -47375.997    4062.1235    -51438.12   0.15824295 
  180000    298.10645   -1113.4297    150073.46   -47336.806    4093.7742    -51430.58   0.16152403 
  180200    299.30192    -1186.811    150198.02   -47295.336    4110.1911   -51405.527   0.16958855 
  180400    302.62114   -879.93985    149749.59   -47257.445    4155.7727   -51413.218   0.16510648 
  180600    297.64408   -828.29551    149683.06   -47348.442    4087.4247   -51435.867   0.15578669 
  180800    296.71654   -1126.9301     150100.8   -47306.547    4074.6871   -51381.234    0.1665843 
  181000    300.55075   -1136.1346    150168.02    -47347.01    4127.3408    -51474.35   0.16619023 
  181200    298.09443   -860.76585    149781.25   -47334.789    4093.6091   -51428.398   0.16378704 
  181400     292.8642   -876.05607    149745.72   -47374.858    4021.7846   -51396.642   0.16573899 
  181600    301.02674   -1150.6142    150077.69    -47391.28    4133.8773   -51525.157   0.15911264 
  181800    293.91841   -1096.6283    150051.34   -47361.032    4036.2616   -51397.293   0.15825692 
  182000    303.55443   -879.42769    149754.57   -47374.805    4168.5891   -51543.394   0.15119158 
  182200    296.95768     -927.204    149808.27   -47390.207    4077.9987   -51468.206   0.15924433 
  182400    296.15215   -1109.3947    150062.74   -47388.274    4066.9366    -51455.21   0.16586121 
  182600    297.89775   -1050.5556    149991.49   -47351.718    4090.9082   -51442.626   0.15755272 
  182800    298.86337   -869.99001    149783.74   -47318.229    4104.1687   -51422.398   0.15677392 
  183000     295.4105   -1009.7484    149908.67   -47318.351    4056.7518   -51375.103   0.16686789 
  183200     299.7103    -1081.026    150090.91   -47295.884    4115.7993   -51411.683   0.16739751 
  183400    298.32262   -1007.3531    149927.56   -47307.709    4096.7427   -51404.452   0.16514946 
  183600    299.91925   -907.75688    149763.95   -47339.614    4118.6687   -51458.283   0.15893179 
  183800      295.429    -974.9039     149894.4   -47371.114    4057.0058   -51428.119   0.16157089 
  184000    292.40564   -1100.4473    150050.29   -47379.657    4015.4874   -51395.144    0.1662825 
  184200    297.20239   -1014.1523    149924.29   -47424.635    4081.3591   -51505.994   0.15669223 
  184400    292.38055   -895.45786    149780.74    -47436.76    4015.1427   -51451.903   0.15847672 
  184600    290.45376   -1015.5898    149909.97   -47443.692     3988.683   -51432.375    0.1613229 
  184800    293.57334   -1094.0348    150049.25   -47429.892    4031.5229   -51461.415   0.16022769 
  185000    295.18633   -1019.9288    149931.71   -47421.828    4053.6735   -51475.502   0.15976543 
  185200    286.89569   -948.27847    149799.05   -47482.044    3939.8215   -51421.865   0.16119556 
  185400    293.95363   -957.20063    149941.35   -47457.847    4036.7453   -51494.592   0.15880078 
  185600    293.27904   -1123.7904    150083.17   -47459.973    4027.4814   -51487.455   0.15222746 
  185800    289.77363    -981.5473    149918.59   -47405.806     3979.343   -51385.149   0.15713445 
  186000    295.33541   -903.01578    149819.27   -47395.326    4055.7207   -51451.047   0.15701425 
  186200    291.17254   -1072.3837    150026.59   -47383.642    3998.5537   -51382.196   0.16187763 
  186400    294.92914   -1125.5353       150100   -47331.281    4050.1416   -51381.423   0.15830371 
  186600    293.79451    -927.7534    149846.87   -47369.359    4034.5601   -51403.919   0.15873762 
  186800    300.09359   -911.27816    149798.37   -47398.124    4121.0628   -51519.186   0.15714335 
  187000    296.11793   -1119.3428    150079.66   -47364.286    4066.4667   -51430.753   0.16374029 
  187200    290.35223   -1092.9844    150092.76   -47381.701    3987.2887    -51368.99   0.16082273 
  187400    297.04035   -878.48815    149769.92   -47373.553    4079.1339   -51452.687   0.15942273 
  187600    292.41886    -911.4596    149783.92   -47414.964    4015.6688   -51430.633   0.16325581 
  187800    296.00397   -1149.0642    150102.67   -47397.783    4064.9018   -51462.685   0.16373176 
  188000    296.39496   -1092.8486    150043.87   -47371.508    4070.2711   -51441.779   0.16339804 
  188200    295.46518   -876.39044    149743.63   -47366.835    4057.5027   -51424.338   0.15890913 
  188400    307.33432   -941.12149     149889.3   -47354.931    4220.4968   -51575.428   0.15642039 
  188600    294.00621    -1184.385    150215.12    -47353.21    4037.4673   -51390.678   0.16133405 
  188800    291.01362   -1046.1699    150013.75   -47370.726    3996.3713   -51367.097   0.16276077 
  189000    294.88869   -814.34246    149697.91   -47368.821     4049.586   -51418.407   0.16489141 
  189200    296.20636   -1013.9299     149931.9   -47370.418    4067.6811   -51438.099   0.16272009 
  189400    291.35189   -1195.3931    150217.63   -47325.527    4001.0166   -51326.543   0.16499102 
  189600     296.3456   -957.09966    149910.83   -47344.917    4069.5931    -51414.51   0.16021069 
  189800    296.01094   -794.73919    149643.51   -47388.921    4064.9975   -51453.918   0.16378097 
  190000    294.87028   -1071.3079    150033.44   -47416.081    4049.3332   -51465.415   0.16053995 
  190200    291.10056   -1187.4254    150240.07   -47384.923    3997.5652   -51382.489    0.1614494 
  190400    292.54596   -916.16725    149804.18   -47390.183    4017.4143   -51407.598   0.15927422 
  190600    294.75937   -775.34444    149651.18   -47334.977    4047.8101   -51382.787    0.1585569 
  190800    294.23544   -1151.5005    150174.36   -47361.714    4040.6153   -51402.329   0.16052258 
  191000    301.32718   -1223.3643    150285.31    -47373.23    4138.0032   -51511.234   0.15742907 
  191200    294.41642   -800.92074    149719.03   -47375.068    4043.1005   -51418.169   0.16074015 
  191400    299.79936   -757.17308    149659.31    -47402.91    4117.0223   -51519.932   0.15318205 
  191600    295.55694   -1171.0233    150217.96   -47348.004    4058.7629   -51406.767   0.16222821 
  191800    290.22934   -1261.1616     150234.6   -47381.264    3985.6011   -51366.865   0.16764181 
  192000     292.7552   -796.92185    149656.25   -47390.362    4020.2877    -51410.65   0.16531517 
  192200    292.62014   -806.72432    149692.62   -47359.998    4018.4329   -51378.431   0.16501977 
  192400    293.39008    -1231.365    150258.68   -47358.627    4029.0062   -51387.633   0.16758889 
  192600    289.66683   -1183.0259    150128.21   -47390.795    3977.8763   -51368.671   0.17276331 
  192800    294.19907    -719.9225     149552.5   -47374.086    4040.1158   -51414.201   0.15555787 
  193000    294.30187   -917.85426    149757.88   -47362.861    4041.5275   -51404.388   0.16391017 
  193200    297.78015   -1278.8768    150321.32   -47306.191    4089.2933   -51395.485   0.17158294 
  193400    296.66204   -1075.2406    150086.87   -47312.164    4073.9388   -51386.103   0.16638973 
  193600    297.61952   -671.10973    149572.23   -47332.064    4087.0874   -51419.151   0.15329128 
  193800    297.38528    -894.0572    149860.97   -47378.895    4083.8707   -51462.765   0.15118919 
  194000    294.19776   -1250.4165    150340.11   -47396.744    4040.0978   -51436.841   0.16416457 
  194200    294.89983   -1037.6691    150024.42   -47387.224    4049.7391   -51436.963   0.15893385 
  194400    292.07268     -750.528     149587.8   -47373.887    4010.9149   -51384.802   0.15876533 
  194600    293.51942   -998.23443    149927.01   -47394.458    4030.7824    -51425.24   0.16358253 
  194800    299.62374     -1259.91    150303.61   -47373.035    4114.6106   -51487.646   0.16397566 
  195000    294.07587   -970.10139    149945.82   -47359.806    4038.4239    -51398.23   0.15777689 
  195200    295.87683   -739.74784    149664.78   -47349.368    4063.1558   -51412.524   0.15510614 
  195400    298.37843   -1058.3903    150021.69   -47347.733    4097.5092   -51445.242   0.15912681 
  195600     294.3185   -1199.3958    150226.61   -47349.214    4041.7559    -51390.97   0.16800583 
  195800    293.77604   -981.37589    149879.96   -47400.755    4034.3064   -51435.062    0.1650582 
  196000    289.31798   -842.26261    149725.29   -47372.169    3973.0857   -51345.255   0.15615464 
  196200    303.50997   -1009.0991    150055.71   -47356.445    4167.9786   -51524.424   0.15803111 
  196400    294.86225   -1152.7862    150175.51   -47353.039    4049.2229   -51402.262   0.16813871 
  196600    293.18688   -968.69523    149898.72   -47425.206    4026.2157   -51451.422   0.16336984 
  196800    291.21167   -909.67532    149829.92   -47416.547     3999.091   -51415.638   0.15985354 
  197000    297.36805   -1077.3325    150064.29   -47425.741    4083.6341   -51509.375   0.16107009 
  197200    290.39043   -1114.2975    150108.58   -47481.181    3987.8133   -51468.994   0.15996199 
  197400    293.17742   -936.62076     149868.7   -47441.818    4026.0859   -51467.904   0.15216435 
  197600    297.67163   -875.19717    149848.72   -47354.057     4087.803    -51441.86   0.16085782 
  197800    294.72443   -1094.6748    150123.12   -47337.377    4047.3303   -51384.708   0.16906772 
  198000    299.23847   -1030.1935    150153.96   -47366.898    4109.3198   -51476.218   0.15839877 
  198200    297.48328   -931.23923    149890.64    -47397.78    4085.2165   -51482.996   0.15137151 
  198400    298.22761    -903.0016    149874.58   -47324.546    4095.4381   -51419.984   0.15918621 
  198600    298.55561   -1100.6331    150106.65   -47311.015    4099.9423   -51410.957   0.16605262 
  198800    301.55242   -1078.9242    150058.53   -47345.414    4141.0963   -51486.511   0.16142581 
  199000    300.85422   -928.60099    149826.31   -47355.163    4131.5082   -51486.672   0.15844112 
  199200    299.80049   -946.31369    149896.64   -47347.906    4117.0378   -51464.944   0.15874882 
  199400    298.23424   -1129.9645     150134.1   -47356.213    4095.5291   -51451.742   0.15851338 
  199600    292.15147    -1074.549    150048.76    -47379.26    4011.9969   -51391.256   0.15552614 
  199800    295.76906     -876.886     149831.2   -47361.076    4061.6758   -51422.751   0.15743817 
  200000    299.81506   -996.42995    149948.74   -47379.814    4117.2379   -51497.051   0.16006043 
Loop time of 106.428 on 6 procs for 200000 steps with 4608 atoms

Performance: 811.817 ns/day, 0.030 hours/ns, 1879.207 timesteps/s
97.9% CPU use with 6 MPI tasks x no OpenMP threads

MPI task timing breakdown:
Section |  min time  |  avg time  |  max time  |%varavg| %total
---------------------------------------------------------------
Pair    | 74.782     | 75.36      | 76.051     |   5.1 | 70.81
Neigh   | 10.651     | 10.95      | 11.357     |   8.6 | 10.29
Comm    | 9.5096     | 9.9846     | 10.853     |  18.0 |  9.38
Output  | 3.0664     | 3.0679     | 3.074      |   0.2 |  2.88
Modify  | 5.6787     | 5.7911     | 5.8878     |   2.9 |  5.44
Other   |            | 1.274      |            |       |  1.20

Nlocal:        768.000 ave         781 max         753 min
Histogram: 1 1 0 0 0 1 1 0 1 1
Nghost:        1391.00 ave        1405 max        1379 min
Histogram: 2 0 0 1 1 0 0 0 0 2
Neighs:        0.00000 ave           0 max           0 min
Histogram: 6 0 0 0 0 0 0 0 0 0
FullNghs:      21841.3 ave       22248 max       21349 min
Histogram: 1 0 1 0 1 0 1 0 0 2

Total # of neighbors = 131048
Ave neighs/atom = 28.439236
Neighbor list builds = 12812
Dangerous builds = 0
write_data		data.${NAME}
write_data		data.ice_296K_-1000atm_ML
System init for write_data ...
Total wall time: 0:02:37
