
# Import phase coexistance setup
#
read_data           ../data.ice_water_1atm
Reading data file ...
  orthogonal box = (-0.037551654 -0.031298218 -0.031298218) to (113.76774 57.301808 57.301808)
  3 by 1 by 2 MPI processor grid
  reading atoms ...
  11553 atoms
  reading velocities ...
  11553 velocities
  read_data CPU = 0.031 seconds

# Define potential
#
pair_style 	    sw
pair_coeff	    * * ../ML.sw mW
Reading sw potential file ../ML.sw with DATE: 2019-02-27

# Reset velocity/set timestep
#
velocity	    all create ${TEMP} 120598 rot yes dist gaussian
velocity	    all create 292 120598 rot yes dist gaussian
timestep	    10.0

# Define output
#
compute	            1 all msd
compute             2 all orientorder/atom nnn NULL degrees 2 4 12
thermo              100
thermo_style        custom step temp press vol etotal ke pe c_1[4]

# Neighbor lists
#
neigh_modify        delay 0 every 1 check yes

# Set fixes
#
fix                 1 all momentum 10 linear 1 1 1 rescale
fix                 2 all nph iso ${PRES} ${PRES} ${PCOUPL}
fix                 2 all nph iso 0 ${PRES} ${PCOUPL}
fix                 2 all nph iso 0 0 ${PCOUPL}
fix                 2 all nph iso 0 0 10000.0
fix                 3 all temp/csvr ${TEMP} ${TEMP} ${TCOUPL} 837492
fix                 3 all temp/csvr 292 ${TEMP} ${TCOUPL} 837492
fix                 3 all temp/csvr 292 292 ${TCOUPL} 837492
fix                 3 all temp/csvr 292 292 5000.0 837492

# Run longer equilibration 0.5 ns
#
dump 1 all atom 1000 eq.${NAME}.dump
dump 1 all atom 1000 eq.Tmelt_292K_AUTO.dump
run 50000
Neighbor list info ...
  update every 1 steps, delay 0 steps, check yes
  max neighbors/atom: 2000, page size: 100000
  master list distance cutoff = 6.0032907
  ghost atom cutoff = 6.0032907
  binsize = 3.0016454, bins = 38 20 20
  2 neighbor lists, perpetual/occasional/extra = 1 1 0
  (1) pair sw, perpetual
      attributes: full, newton on
      pair build: full/bin/atomonly
      stencil: full/bin/3d
      bin: standard
  (2) compute orientorder/atom, occasional, copy from (1)
      attributes: full, newton on
      pair build: copy
      stencil: none
      bin: none
Per MPI rank memory allocation (min/avg/max) = 4.643 | 4.644 | 4.646 Mbytes
Step Temp Press Volume TotEng KinEng PotEng c_1[4] 
       0          292   -82.711434    374087.66   -103635.62    10054.821   -113690.44            0 
     100    353.38652     -441.605    371864.19   -104093.41    12168.624   -116262.04    3.3509305 
     200    350.12732    140.88193    367830.58   -104582.71    12056.395    -116639.1    6.8380718 
     300    347.84581     150.3379    365676.49   -104877.96    11977.833   -116855.79    10.232268 
     400    339.73681   -67.789971    364770.55   -105363.45    11698.605   -117062.06    13.634761 
     500    336.70936    91.985723    364619.78   -105710.63    11594.357   -117304.99    16.651737 
     600    330.92264   -42.386225    365591.97   -106066.19    11395.095   -117461.28    19.195355 
     700    324.59834   -424.02266    366359.51   -106331.93    11177.322   -117509.25    21.643582 
     800    328.59994   -288.18708    364535.17   -106599.69    11315.115    -117914.8    24.529775 
     900    324.14518    264.86796    362250.85   -106783.85    11161.718   -117945.57    27.092078 
    1000     318.3412   -138.18825    361811.52   -106989.65    10961.862   -117951.51    29.675975 
    1100    317.84799    139.56675    361932.27    -107240.7    10944.879   -118185.58    32.034037 
    1200      315.089   -106.70578    361925.45   -107461.61    10849.875   -118311.48    34.176436 
    1300    312.16535    41.527261    361685.71   -107680.15    10749.201   -118429.35    36.142433 
    1400    311.63516   -72.052616    361446.78   -107819.56    10730.944    -118550.5    37.581096 
    1500     307.0433   -58.901893    361472.44   -107959.42    10572.827   -118532.25    39.583644 
    1600    307.47676    57.939787    361386.66   -108096.89    10587.753   -118684.64    41.384729 
    1700    305.94895   -95.506203    361404.39   -108203.37    10535.143   -118738.52    43.117677 
    1800    304.63107   -73.922497    361261.91   -108289.92    10489.763   -118779.69    44.830577 
    1900    303.20693     102.3565    361495.66   -108321.73    10440.724   -118762.45    46.298984 
    2000    304.17387   -178.54906    361995.46   -108346.46     10474.02   -118820.48    47.774141 
    2100    302.27084    13.783298    361740.73   -108502.89     10408.49   -118911.38    49.330317 
    2200    305.60522    281.13999    360950.71    -108542.9    10523.307   -119066.21    50.984723 
    2300    299.11578    88.729952    361416.48   -108556.23    10299.848   -118856.08    52.341236 
    2400    297.65711   -82.575569    361855.89   -108571.01     10249.62   -118820.63    53.753248 
    2500     302.3278    72.999353    360984.72   -108575.75    10410.451    -118986.2    55.583073 
    2600    303.63772    45.210413    360882.92   -108650.88    10455.558   -119106.44    57.222889 
    2700    300.45852   -158.87809    361153.79   -108636.43    10346.084   -118982.52    58.963025 
    2800    299.93347    274.73812    360512.25   -108734.22    10328.005   -119062.23    60.724063 
    2900    296.78415    212.61195    360118.37   -108859.16     10219.56   -119078.72     62.54277 
    3000      298.109    85.973616     360083.9   -108884.57     10265.18   -119149.75    64.161836 
    3100    298.55317     38.12208    360126.69   -108960.97    10280.475   -119241.44    66.101565 
    3200    298.55218   -146.24616    360609.29   -109000.22    10280.441   -119280.66    67.735046 
    3300    294.91681    139.99749    360887.75   -108976.27    10155.259   -119131.53    69.227508 
    3400    297.44108    141.50073    360655.32   -108982.82    10242.181      -119225    70.489215 
    3500    295.70381   -112.78841    360909.75   -109047.57    10182.359   -119229.93    71.835242 
    3600    293.75106   -89.351598       361234   -109055.33    10115.117   -119170.45    73.543911 
    3700    292.81364    6.3422002    361255.68   -109097.88    10082.838   -119180.72    74.744614 
    3800    292.14924   -266.18334    360701.38    -109169.8     10059.96   -119229.76    75.866226 
    3900    296.06167     168.0103    359852.57   -109204.47    10194.682   -119399.15    77.265094 
    4000    296.27662   -147.08213    360377.98   -109192.85    10202.083   -119394.93    78.675668 
    4100    293.50403   -166.95463     360709.2   -109189.72    10106.611   -119296.33      79.9594 
    4200    291.45569    57.329178    360213.11   -109169.68    10036.078   -119205.76     81.24036 
    4300    294.10017    12.565895    360101.42   -109181.19    10127.139   -119308.33     82.69116 
    4400    294.13435   -71.278952    360312.07   -109217.75    10128.316   -119346.06    84.432355 
    4500    292.00162   -64.235008    359964.45   -109105.06    10054.877   -119159.94     85.78311 
    4600    295.06218    8.8316027    360059.84      -109069    10160.265   -119229.27     87.13989 
    4700    297.54511    141.53241    360463.23   -108995.47    10245.763   -119241.23    88.384756 
    4800    296.89403   -44.364626    360825.31   -109039.63    10223.343   -119262.98    89.510319 
    4900    297.05586   -152.73969    360405.76   -109056.92    10228.916   -119285.84    90.899231 
    5000    297.19707    179.87895     359400.1   -109112.77    10233.778   -119346.55    92.305196 
    5100    293.90191    142.47316    359658.49   -109153.12    10120.312   -119273.43     93.95275 
    5200    294.02983   -48.568639    360672.97    -109204.1    10124.716   -119328.82    94.978606 
    5300    292.03262    45.045443    360879.17   -109162.21    10055.944   -119218.15    96.119954 
    5400    295.21599    85.370413    360403.85   -109198.68    10165.561   -119364.24    97.563925 
    5500    293.34279    68.407113     360296.9    -109190.8    10101.059   -119291.86    98.574389 
    5600    290.40188   -126.94751    360539.62   -109325.16    9999.7904   -119324.95    100.04809 
    5700    293.20773   -13.621059    360610.62   -109405.88    10096.408   -119502.29    101.19724 
    5800    291.86331   -48.395836    360715.17   -109379.45    10050.114   -119429.57    102.25744 
    5900    292.74857    95.411208    360034.38   -109348.38    10080.597   -119428.98    103.74237 
    6000    293.88099   -35.389051    359557.63   -109375.35    10119.591   -119494.94    104.85137 
    6100    292.08965    167.35783     359864.4   -109321.88    10057.908   -119379.79    106.07529 
    6200    292.12105   -47.770276    360579.09   -109333.91    10058.989   -119392.89    107.46452 
    6300    293.21069   -65.758628    360858.23   -109279.67     10096.51   -119376.18    108.19147 
    6400    296.69357   -137.29593    360970.99    -109331.5    10216.441   -119547.94    109.46424 
    6500    290.91023   -46.301914    360788.55   -109267.53    10017.295   -119284.83    110.65976 
    6600    294.25755   -147.24549    360610.94   -109275.89    10132.558   -119408.45    112.33263 
    6700    291.32729    53.099749    360718.12   -109352.82    10031.657   -119384.48    113.89509 
    6800    292.12615   -87.686545    361171.01   -109350.94    10059.165    -119410.1     115.4063 
    6900    297.26043    33.538219    360243.46   -109318.93     10235.96   -119554.89    116.96745 
    7000     292.7745    357.92956    359449.85   -109288.85     10081.49   -119370.34    118.16664 
    7100    291.47475   -94.561751    360873.05    -109286.9    10036.734   -119323.64    119.01549 
    7200    291.15738   -134.81074    361683.67   -109394.13    10025.806   -119419.93    120.52291 
    7300    294.69226   -133.41455    361055.48    -109316.7    10147.527   -119464.22    121.72309 
    7400    293.73116    139.42103    359783.78   -109257.87    10114.432   -119372.31    122.87068 
    7500    293.29301    194.36602    359230.18   -109317.58    10099.345   -119416.92    123.93127 
    7600    292.53083   -14.015154    359844.08   -109300.13      10073.1   -119373.23    124.91833 
    7700    297.97818   -48.707176    360677.89   -109307.14    10260.675   -119567.81    126.14891 
    7800    291.82648   -151.95571     360873.6   -109315.67    10048.846   -119364.52    127.46005 
    7900    291.98593    44.305582    360511.03   -109340.92    10054.336   -119395.26    128.81753 
    8000    293.32239    143.41953    360269.74   -109372.34    10100.356    -119472.7    130.35261 
    8100    289.50236   -71.455813    360304.92   -109398.48    9968.8163    -119367.3    132.00284 
    8200    292.38742    134.33777    359989.51    -109377.3    10068.161   -119445.46    133.34515 
    8300    292.50066    26.411622    360325.36   -109360.21    10072.061   -119432.27    134.70047 
    8400    292.83078   -190.14357    360573.33   -109423.41    10083.428   -119506.83    135.40983 
    8500    290.71771    180.38493    360027.65   -109403.89    10010.666   -119414.56    136.71786 
    8600    290.93152    52.600706    360233.51   -109445.89    10018.028   -119463.92    137.80895 
    8700    292.39569   -202.72235    361111.93   -109445.52    10068.446   -119513.97    139.31001 
    8800    294.51818    23.782765    361464.72   -109414.39    10141.533   -119555.92    140.84473 
    8900    290.11321   -88.009213    361600.67   -109491.28    9989.8504   -119481.13    141.96287 
    9000     288.5524   -203.76794    361297.42   -109456.29    9936.1051   -119392.39     143.4035 
    9100    289.03049   -82.195823    360654.93   -109524.36    9952.5676   -119476.93    144.67689 
    9200    289.04477    207.43378    359713.51   -109490.14    9953.0594    -119443.2    145.68925 
    9300     288.8921    57.653155    359483.72   -109587.39    9947.8025   -119535.19    147.09136 
    9400    288.44323   -321.57206    360184.29   -109533.17    9932.3457   -119465.51     148.1704 
    9500    290.17583    23.326767    359830.25   -109504.16    9992.0068   -119496.16    149.75161 
    9600    292.91998    199.73745    359169.91   -109456.03      10086.5   -119542.53    151.16876 
    9700    291.95613   -170.95389    359746.15   -109485.18     10053.31   -119538.49    152.81213 
    9800    289.95761   -128.36429    360000.61   -109492.22    9984.4925   -119476.71    154.13964 
    9900    290.26923    38.402619    359715.93   -109490.29    9995.2228   -119485.51     155.2702 
   10000    293.16458    118.83561    360094.75   -109456.02    10094.922   -119550.95    156.77311 
   10100    293.03621   -141.93547    360689.35   -109421.84    10090.502   -119512.34     158.1895 
   10200    291.18835   -55.569769    360127.74   -109396.86    10026.872   -119423.74    159.22529 
   10300     289.5921    120.58277    359844.57   -109362.07    9971.9063   -119333.98    160.80554 
   10400    287.64039     3.441075    360449.92   -109440.02    9904.7006   -119344.72    162.31794 
   10500    292.02502   -236.15218    360891.63    -109406.7    10055.682   -119462.39    163.74807 
   10600     291.6677    -35.88728    360254.74    -109376.3    10043.378   -119419.68    164.98549 
   10700    293.96276    18.462551    359639.03   -109385.74    10122.407   -119508.15     165.7926 
   10800    292.23179    82.007868     359476.6   -109383.04    10062.802   -119445.85     167.1544 
   10900    291.73829   -43.077471    360122.18   -109313.53    10045.809   -119359.34    167.97491 
   11000    290.79795   -215.30057     360494.3   -109353.49    10013.429   -119366.92    169.08164 
   11100     292.6679    119.24993     360112.1   -109355.33    10077.819   -119433.15    169.97408 
   11200    293.94802     83.87239    360214.09   -109352.91    10121.899   -119474.81    170.98133 
   11300    289.33327   -100.74701    360362.36   -109379.44    9962.9937   -119342.43    172.33147 
   11400    291.71582    61.612914    360311.76   -109424.33    10045.035   -119469.37    173.43191 
   11500    289.74709    -185.2975    360339.43   -109470.86    9977.2432    -119448.1    174.69152 
   11600    292.42469    48.368804    359451.69    -109479.9    10069.445   -119549.34    175.54259 
   11700     292.9168    267.41723    359190.45   -109417.44     10086.39   -119503.83    176.65806 
   11800    291.18219   -249.37985    360139.26   -109459.41     10026.66   -119486.07    177.69494 
   11900     291.0025    100.74941    360208.92    -109466.1    10020.473   -119486.58    178.49604 
   12000    290.18476   -65.260841    360562.02   -109461.28    9992.3144   -119453.59    179.48593 
   12100    288.80075    132.58805    360502.47   -109408.46    9944.6567   -119353.12    180.67511 
   12200    290.82575    16.033728    360079.12   -109388.08    10014.386   -119402.46    181.50789 
   12300    291.53342   -66.191855    359991.77   -109350.31    10038.754   -119389.07    182.45779 
   12400    289.66062    24.797065    359974.59   -109427.11     9974.266   -119401.37    183.77299 
   12500    292.47985     8.757935    360180.49   -109347.16    10071.344    -119418.5     185.2877 
   12600    289.97679     105.0373    360300.54   -109350.88    9985.1528   -119336.04    186.42792 
   12700    292.12567   -166.13463    360378.16   -109334.73    10059.148   -119393.87    187.48299 
   12800    291.01613    66.873917    359972.83   -109412.76    10020.942    -119433.7    189.03262 
   12900    291.16827    106.80632    359501.76   -109375.73    10026.181   -119401.91    190.31744 
   13000     293.8941    55.811043    359998.52   -109366.11    10120.043   -119486.15    191.54558 
   13100    293.99454   -205.41329    360868.32    -109311.4    10123.501    -119434.9     193.8991 
   13200    293.75755    49.484407    360568.49   -109363.73    10115.341   -119479.07    195.73003 
   13300    293.12385   -23.212101    360669.68   -109428.61     10093.52   -119522.13     197.0044 
   13400    293.82615   -233.28784    360884.52   -109442.39    10117.703   -119560.09    198.00599 
   13500    291.66925     201.1686    360067.67    -109431.1    10043.432   -119474.53    198.96072 
   13600    290.63337   -62.461361    360335.91   -109543.23    10007.762   -119550.99    200.15783 
   13700    290.55654   -157.45531    360866.28   -109542.47    10005.116   -119547.59    200.74701 
   13800     288.4067    46.091335    360497.44   -109585.54    9931.0881   -119516.63    201.37354 
   13900     289.1895    52.147106    359910.67   -109545.99    9958.0431   -119504.03    201.73194 
   14000    292.07212    81.484024    359332.88   -109524.47    10057.304   -119581.78    202.67928 
   14100    289.09753    298.60638    359188.23   -109509.35    9954.8762   -119464.22    203.69392 
   14200    292.86655     11.30995    360193.97   -109508.83     10084.66   -119593.49    204.97013 
   14300    293.20938   -203.85315       361297   -109445.41    10096.465   -119541.87    206.47156 
   14400    293.28733   -269.98837    360894.58   -109417.79    10099.149   -119516.94    207.47039 
   14500    291.43303    59.515912    360044.99   -109483.13    10035.298   -119518.43    208.37867 
   14600    290.16334   -21.268547    360393.12   -109522.31    9991.5765   -119513.89    209.36894 
   14700    287.88056   -81.518736    360262.22   -109498.17    9912.9705   -119411.14    210.56783 
   14800    289.51839    313.60896     359542.3   -109573.75    9969.3681   -119543.12    211.26329 
   14900    288.87996    103.43815    360072.17   -109581.55    9947.3842   -119528.94    212.20277 
   15000    289.76062   -252.19141    360740.02   -109686.46    9977.7092   -119664.17     213.3559 
   15100    291.24261    63.849446    360237.52   -109666.33     10028.74   -119695.07    214.46152 
   15200    290.21368   -30.066947    359933.25   -109669.19      9993.31   -119662.51    215.38189 
   15300    290.72547    42.015081    359765.67   -109653.97    10010.933    -119664.9    215.86754 
   15400    290.04037    11.483867    359673.08   -109608.26    9987.3421    -119595.6    217.30765 
   15500    289.77522    47.300418     360137.3   -109609.09    9978.2119    -119587.3    218.93095 
   15600    292.70023    -64.01361    360599.72    -109631.6    10078.933   -119710.54    219.66484 
   15700    290.75245   -33.502452    360437.44   -109612.68    10011.862   -119624.55    221.15887 
   15800    290.01522   -97.509086    360381.43   -109603.02    9986.4762    -119589.5    222.19924 
   15900     293.2805   -255.21758     360769.6   -109614.12    10098.914   -119713.04      223.344 
   16000    292.60877    31.881878    360565.09   -109534.39    10075.784   -119610.17    224.09898 
   16100    293.55341     7.227464    360344.94   -109483.76    10108.311   -119592.07    225.39875 
   16200    291.32101    42.511401    360924.18    -109436.2     10031.44   -119467.64    226.42538 
   16300    291.72035   -123.16495    361597.07   -109440.56    10045.191   -119485.76    227.62695 
   16400    291.37867   -47.679965     361633.6   -109435.05    10033.426   -119468.48    229.26505 
   16500    293.78618   -63.872668    361418.36    -109456.1    10116.327   -119572.42    230.40017 
   16600    293.80225   -47.659405    361010.25   -109387.19     10116.88   -119504.07    231.08983 
   16700     289.3542    -80.31817    360217.42   -109385.67    9963.7144   -119349.39     231.8146 
   16800    292.95066    140.66185    359467.53   -109432.55    10087.556   -119520.11    233.36639 
   16900      292.825    10.928986    359219.14   -109459.67    10083.229    -119542.9    234.49024 
   17000    293.79082    16.803162    359139.01   -109456.27    10116.487   -119572.76    235.55842 
   17100    291.41294    133.12949    359446.02   -109437.81    10034.606   -119472.42    237.09988 
   17200    294.89845    -236.1822    360457.03   -109300.74    10154.627   -119455.37    238.83149 
   17300    292.87239   -222.87526     360541.3   -109247.11    10084.861   -119331.97    240.58311 
   17400     294.5756    262.82335    359494.62    -109328.2     10143.51   -119471.71    241.69069 
   17500    290.75031   -95.322306    359523.25   -109351.19    10011.789   -119362.98    242.80449 
   17600    293.56912    2.6063365    359886.38    -109384.7    10108.852   -119493.55    244.26128 
   17700    294.59459    76.346228    360486.75   -109298.13    10144.164   -119442.29     245.2383 
   17800    295.26704  -0.34028828    361043.85   -109277.57    10167.319   -119444.89     246.5797 
   17900    295.13719   -272.29705       361169    -109339.7    10162.848   -119502.55     247.4518 
   18000    292.15128    171.75204     360130.8   -109440.37     10060.03    -119500.4    247.89214 
   18100    291.20218    96.213729     359991.8   -109529.32    10027.348   -119556.67     248.7809 
   18200    293.62859    41.985092    360617.64   -109517.94      10110.9   -119628.84    250.00277 
   18300    294.02134    219.60489     360753.3   -109455.28    10124.424    -119579.7    252.03809 
   18400    298.93826    -4.999737    361182.74   -109458.97    10293.735    -119752.7    253.31076 
   18500    294.28435   -256.13347    361740.43    -109467.7    10133.481   -119601.19    254.32562 
   18600    294.29824   -146.07657    361682.44   -109404.05    10133.959   -119538.01    255.28422 
   18700    291.08045    26.468408     361136.5   -109444.76    10023.157   -119467.91    256.69918 
   18800    294.72719    57.350706    360598.88   -109369.41     10148.73   -119518.14    257.74382 
   18900    292.63547    151.82788    360180.44    -109427.9    10076.703   -119504.61    258.49022 
   19000    292.66931   -47.509151    360706.53   -109446.51    10077.868   -119524.38    260.28777 
   19100    296.73133   -99.895858    360836.45   -109440.81    10217.741   -119658.55    261.68256 
   19200     291.3695     12.42246    360163.38   -109456.13     10033.11   -119489.24    262.38237 
   19300     293.9872    97.824858    359562.29   -109464.71    10123.249   -119587.96    262.94523 
   19400    295.46835    366.81788    359340.48   -109513.82    10174.251   -119688.07    264.25687 
   19500     291.4801   -30.358253    360428.51   -109608.05    10036.918   -119644.97    265.09995 
   19600    291.21726   -146.49335    360733.62   -109524.43    10027.868   -119552.29    265.87857 
   19700    296.38978    33.406604    360153.61   -109405.24     10205.98   -119611.22     266.6064 
   19800    296.78896    229.92237    359682.06   -109455.26    10219.725   -119674.99    267.33533 
   19900      294.241   -156.53252    360053.96   -109373.62    10131.988    -119505.6    268.49641 
   20000     294.6376    315.32288    360319.75   -109341.76    10145.645    -119487.4    269.86226 
   20100    291.39431   -83.966257    360934.05   -109419.58    10033.964   -119453.54    271.36373 
   20200    291.30459    52.864787    360489.92    -109445.7    10030.875   -119476.57    272.75194 
   20300    294.48893   -12.985947    360114.95   -109440.91    10140.525   -119581.44    274.42056 
   20400    296.35294     6.349968    360280.84   -109379.28    10204.711   -119583.99    275.56312 
   20500    294.07398    61.439122    360508.23   -109320.03    10126.237   -119446.27    277.30926 
   20600    295.12093    101.26852    360379.26   -109296.02    10162.288   -119458.31    279.29903 
   20700    296.82244   -40.814425    360646.07   -109330.79    10220.878   -119551.67    280.36337 
   20800    297.08969   -74.229462    360898.23   -109312.13    10230.081   -119542.21    281.69355 
   20900    295.09798    183.02615    360721.15   -109216.72    10161.498   -119378.22    282.96701 
   21000    293.77844   -105.61175    360641.54   -109322.23     10116.06   -119438.29    284.61534 
   21100    294.59084   -73.342739    360238.48   -109248.96    10144.035   -119392.99    285.54719 
   21200    296.03016    247.25672    359744.74   -109328.57    10193.596   -119522.16    286.23289 
   21300    293.26294   -89.649436    360427.68   -109364.02    10098.309   -119462.32    287.30531 
   21400    292.57307   -162.17155    361152.27   -109436.39    10074.554   -119510.94    288.56219 
   21500      294.024    16.435398    360458.86   -109394.95    10124.516   -119519.47    289.55722 
   21600    289.26543    141.31086    359947.31   -109448.96    9960.6578   -119409.62    290.56006 
   21700    291.32728    38.231556    360298.68   -109424.27    10031.656   -119455.92    291.29667 
   21800    291.60808   -218.77014    360654.63   -109442.33    10041.325   -119483.65    292.20187 
   21900    292.50291    62.619822    360220.22   -109413.05    10072.138   -119485.19    293.29551 
   22000    291.86064    147.68728    359804.65   -109368.67    10050.022   -119418.69    294.90657 
   22100    294.24817   -16.096577    360039.28    -109338.5    10132.235   -119470.74      296.663 
   22200    294.07124   -207.16921    360644.62   -109313.04    10126.143   -119439.18    297.57345 
   22300    290.46725   -4.8967201    360756.25   -109362.22    10002.042   -119364.26    298.59826 
   22400    290.37713   -28.462746    360485.44   -109403.06    9998.9385      -119402    298.92719 
   22500    294.14173   -20.684886    359664.96   -109283.46     10128.57   -119412.03    300.10318 
   22600    291.36202    93.087425    359494.01   -109351.07    10032.852   -119383.93    301.16055 
   22700    291.94259    -244.3353    360892.45   -109328.68    10052.844   -119381.52    302.28396 
   22800    291.24232     8.075712    361602.19   -109318.26    10028.731   -119346.99    304.09411 
   22900    298.57197   -257.71633    361201.88    -109248.9    10281.122   -119530.03    305.47744 
   23000    293.51181    205.19515    360382.62   -109332.86    10106.879   -119439.74    305.96803 
   23100    291.03662    71.944848    360348.76   -109363.84    10021.648   -119385.48    306.71443 
   23200    291.28591    5.9870455    360367.38   -109321.45    10030.232   -119351.68    307.90975 
   23300    294.95816   -32.009495    360396.92   -109327.14    10156.683   -119483.82    309.34251 
   23400    293.27278    101.76048    360533.46   -109326.26    10098.648   -119424.91     310.1114 
   23500    289.59901   -58.685027     360668.2      -109371    9972.1444   -119343.15    310.89208 
   23600     292.8407    20.426857    360474.73   -109369.59     10083.77   -119453.36    311.56491 
   23700    295.08012   -81.878164    360669.03   -109442.81    10160.883   -119603.69    312.94164 
   23800    291.94163   -73.627219    360702.92   -109400.82    10052.811   -119453.63    313.98201 
   23900    291.23788    57.908994    360235.76   -109369.98    10028.578   -119398.56    314.47766 
   24000    293.03828    134.86958    359782.27   -109392.94    10090.573   -119483.52    315.87632 
   24100    294.09894    266.89502     359423.4   -109384.15    10127.096   -119511.25    316.74524 
   24200    290.66531   -36.192491    360178.45   -109364.74    10008.862    -119373.6    318.50171 
   24300    292.45399   -93.301563     360636.6   -109308.86    10070.454   -119379.31    318.99431 
   24400    289.44192    51.832599    360220.53   -109366.67     9966.735    -119333.4    319.70017 
   24500    295.62015     148.5756    359220.13   -109372.12    10179.478    -119551.6    320.98718 
   24600    291.51225    124.03617    359281.75   -109434.59    10038.025   -119472.61    322.21983 
   24700    290.77018   -106.72104    360410.94   -109433.06    10012.473   -119445.54    323.59817 
   24800     292.4129   -131.14649    360621.91   -109441.61    10069.039   -119510.65    325.45349 
   24900    292.62489    80.881273    360016.56   -109466.61    10076.339   -119542.94    326.26589 
   25000    290.32968    86.380348    359864.98   -109426.38    9997.3045   -119423.68    327.35868 
   25100    289.26597   -19.888543    360263.16   -109424.37    9960.6763   -119385.04    328.85763 
   25200    292.90297   -6.6086996    360317.13   -109350.61    10085.914   -119436.52    330.09432 
   25300    292.81645   -219.01077    360493.35   -109284.18    10082.935   -119367.12    331.46697 
   25400    295.55674   -149.81433    360212.74   -109325.82    10177.295   -119503.11    332.16702 
   25500    287.57075    21.435342    359533.99   -109376.87    9902.3026   -119279.17    332.71569 
   25600    290.13426    233.25285    359118.52   -109386.32    9990.5753   -119376.89    333.64897 
   25700     290.7024    -40.09834    359788.51   -109320.73    10010.139   -119330.87    334.80784 
   25800    292.11514   -225.15265    360270.84   -109331.61    10058.786    -119390.4    335.77066 
   25900    290.54896     11.54049    360294.85    -109359.3    10004.855   -119364.16    336.68162 
   26000    290.06821   -43.460413    360158.17   -109414.24    9988.3007   -119402.54    338.01084 
   26100    290.55622    110.69472    360123.77   -109421.86    10005.105   -119426.97    339.02592 
   26200    290.34539    86.536084    360381.67   -109332.91    9997.8454   -119330.76     340.4465 
   26300    291.37781   -293.21329    360985.03   -109293.75    10033.396   -119327.15    341.52615 
   26400    294.07506   -9.5952869    360609.53   -109257.66    10126.274   -119383.94     343.0241 
   26500    298.62971    83.635023    360049.76   -109255.23     10283.11   -119538.34    343.58156 
   26600    292.29025   -129.60541    360020.68   -109283.85    10064.815   -119348.66    344.32459 
   26700    293.29138    55.548184    359519.42    -109372.2    10099.289   -119471.49     344.8542 
   26800    291.59531    204.17704    359173.75   -109393.56    10040.885   -119434.45    345.93816 
   26900    290.08584    7.5832654    359200.77   -109470.28    9988.9079   -119459.19    347.12886 
   27000    290.81166    50.504586    359048.15   -109462.16    10013.901   -119476.06     348.0741 
   27100    290.64646    104.02343    359293.58   -109511.71    10008.212   -119519.92    349.76666 
   27200    289.95852   -272.04658    360595.32    -109391.9    9984.5239   -119376.43     351.7723 
   27300    292.51354   0.54702165    360509.49   -109393.07    10072.504   -119465.57     352.4544 
   27400    292.39578    61.587628    360045.91   -109353.24    10068.449   -119421.69    353.25562 
   27500    291.27952   -92.820686    360137.21    -109272.6    10030.011   -119302.62    354.02653 
   27600     293.3765     16.85116       359988   -109209.36     10102.22   -119311.58    355.11746 
   27700     291.8352    222.41622    359486.34   -109257.21    10049.146   -119306.36    356.67945 
   27800    290.13592    5.1393023    359485.98   -109267.04    9990.6325   -119257.67    357.99133 
   27900    294.91754   -15.015906     359394.9   -109146.29    10155.284   -119301.58    359.27106 
   28000    294.04938    118.13137    359534.81   -109165.82     10125.39   -119291.21    361.07567 
   28100    292.62312   -94.778815    360038.97   -109146.67    10076.277   -119222.95    362.11327 
   28200    291.03614    -58.06349    360164.17      -109200    10021.631   -119221.63    363.23781 
   28300    294.24954    5.7689772    359493.82    -109150.9    10132.282   -119283.18    364.44006 
   28400    292.61338    137.44955    359512.41   -109183.59    10075.942   -119259.53    365.47298 
   28500    293.81922    1.7483141    360361.64   -109125.45    10117.464   -119242.91    366.92763 
   28600    296.06863     235.4498     360187.2   -109024.93    10194.921   -119219.86    368.25574 
   28700    296.46604    72.619394    359822.86   -108987.75    10208.606   -119196.35    369.02258 
   28800    293.25542   -58.685768    359870.65   -109126.68     10098.05   -119224.73    370.18793 
   28900    293.06443   -208.86825    360037.25    -109140.1    10091.474   -119231.58    371.53334 
   29000    293.68115    286.03241    359448.29   -109204.23     10112.71   -119316.94    373.03057 
   29100     294.4976    154.47032    359729.02   -109189.19    10140.824   -119330.02    374.94675 
   29200    291.69454    -141.4003    360631.19    -109183.4    10044.303   -119227.71    376.10598 
   29300    292.14157   -146.46242    360804.27   -109202.38    10059.695   -119262.07    377.91801 
   29400    291.27547    -30.72519    360648.33   -109264.94    10029.872   -119294.81    379.58445 
   29500     292.9992    120.27841     360255.2   -109263.86    10089.227   -119353.08    379.82927 
   29600    294.32196    84.771251    360102.73   -109190.33    10134.776   -119325.11     380.6298 
   29700    294.72759    24.095178    359880.47   -109209.61    10148.744   -119358.35     382.0345 
   29800    294.06245    128.33499    359988.18   -109176.17     10125.84   -119302.01    383.12662 
   29900    295.09596   -161.21276    360862.77   -109128.42    10161.428   -119289.85    384.78679 
   30000    292.83734   -91.867471    360699.61    -109170.3    10083.654   -119253.96    386.10787 
   30100    293.68245     228.9831     359642.8   -109131.61    10112.755   -119244.37    386.69618 
   30200    294.72744    244.66311    359768.46   -109138.11    10148.738   -119286.85    388.21949 
   30300    294.97426   -93.805446    360938.14   -109118.11    10157.237   -119275.34    389.55157 
   30400    289.53505   -273.92862    360970.64   -109241.34    9969.9419   -119211.28    390.32674 
   30500    293.48423    177.13403    359251.93    -109210.9    10105.929   -119316.83    390.58865 
   30600    293.89253    151.77159    359253.89    -109245.1    10119.989   -119365.09    391.60298 
   30700    292.79848   -156.11308    360161.73   -109281.87    10082.316   -119364.19    393.78515 
   30800    290.74359   -178.88895     360419.6   -109360.69    10011.557   -119372.25    395.55342 
   30900    291.64966   -30.206742    360081.44   -109384.33    10042.757   -119427.09    396.40825 
   31000    290.82981    67.253567    359956.08   -109404.81    10014.526   -119419.34    397.77749 
   31100    288.68157   -150.20478    359875.05   -109365.25     9940.553   -119305.81    399.22084 
   31200    291.66096    292.85601    359512.06   -109310.48    10043.146   -119353.62    400.37636 
   31300    291.84506   -68.389139    359711.54   -109300.75    10049.486   -119350.24    401.59499 
   31400    287.48757   -3.2162665    359747.67    -109358.8    9899.4382   -119258.23    403.14606 
   31500    290.74569    133.67655    359740.13   -109324.98     10011.63    -119336.6    404.64106 
   31600    290.81688    94.854268     359990.7   -109344.99    10014.081   -119359.07    406.55023 
   31700      293.973    -22.11817    360266.28   -109277.19     10122.76   -119399.95    407.92717 
   31800    289.07479   -66.309523    359916.49   -109292.19    9954.0933   -119246.29    408.61662 
   31900    290.47728     59.18381    359247.16   -109327.44    10002.387   -119329.83    410.14419 
   32000    285.97674    240.86683    359630.68   -109318.12    9847.4138   -119165.53    411.47919 
   32100    289.71853   -200.74629    360141.75   -109328.17    9976.2598   -119304.43    412.65309 
   32200    289.08955    67.359512    359609.11   -109289.54    9954.6015   -119244.14    412.73701 
   32300    291.13053    245.38664     359969.4   -109314.67    10024.881   -119339.55    413.88449 
   32400    290.76687   -268.18882       360875   -109306.34    10012.359    -119318.7    415.40662 
   32500    290.06675   -137.80523    360820.13   -109310.15    9988.2505    -119298.4    416.16462 
   32600    290.74794    9.8150362    359697.21   -109244.89    10011.707    -119256.6    416.81101 
   32700    293.52932    197.73772    359050.94   -109268.41    10107.482   -119375.89    417.26484 
   32800    291.59692    94.600998     359629.4   -109262.47    10040.941   -119303.41     418.3696 
   32900    295.76724   -125.29562    360196.33   -109266.88    10184.543   -119451.43    420.36999 
   33000    290.66701    59.506445    360213.79   -109242.78     10008.92    -119251.7    421.61378 
   33100    293.28816    9.5005185    360446.19    -109275.7    10099.178   -119374.88    423.03226 
   33200    290.76444   -153.95845    360813.46   -109316.86    10012.275   -119329.13     424.9735 
   33300    292.21341   -36.562214    360375.69   -109300.57    10062.169   -119362.74    425.60044 
   33400    289.26933    171.17087    359747.12   -109298.68     9960.792   -119259.47    426.67007 
   33500    288.58463   -12.009356    359402.07   -109295.01    9937.2148   -119232.23    426.62387 
   33600    288.76337    73.802422    359374.82   -109291.01    9943.3695   -119234.38    427.42668 
   33700    292.52121    45.583267    359769.87   -109257.49    10072.768   -119330.26    429.47981 
   33800    289.25739   -65.855819    360205.84   -109226.03    9960.3808   -119186.41    430.92736 
   33900    291.19473    130.29007    359918.79   -109278.25    10027.092   -119305.34    432.72306 
   34000     288.4897    73.779382    359329.64   -109222.08     9933.946   -119156.03    433.23295 
   34100     291.4376   -97.654641    359441.46   -109257.99    10035.455   -119293.45    434.08868 
   34200    292.07018   -75.189095    359718.04   -109288.58    10057.237   -119345.82    435.47313 
   34300    291.11885   -24.965979    359571.75   -109196.93    10024.479    -119221.4    437.08355 
   34400     291.7333    125.61342    359208.45   -109277.21    10045.637   -119322.85    438.25795 
   34500    289.04996    14.300843    359361.04   -109268.63    9953.2382   -119221.87    439.75616 
   34600    289.95603   -127.41599     359732.4   -109346.29     9984.438   -119330.73    441.51651 
   34700     290.5609   -122.02992    359569.88   -109280.13    10005.266   -119285.39    442.23891 
   34800    291.62275    310.08876    358814.65      -109268    10041.831   -119309.83    443.58383 
   34900    290.65077    64.277533    359084.83   -109313.18    10008.361   -119321.54    444.61359 
   35000    289.78474   -110.55522    359899.15   -109250.82    9978.5397   -119229.36    445.83512 
   35100    290.33832   -35.876722    359780.37   -109257.05    9997.6019   -119254.65    446.67443 
   35200    291.68236   -114.98007    359495.25   -109246.12    10043.883      -119290    448.09901 
   35300    290.79211   -11.125355    358896.51   -109151.48    10013.228    -119164.7    448.70272 
   35400    290.94494    271.23674    358537.53   -109173.82    10018.491   -119192.31    449.36384 
   35500    293.66865    20.571214    359256.54   -109112.65     10112.28   -119224.93    450.74666 
   35600    290.07699    24.930236    359390.49   -109066.23    9988.6032   -119054.83    452.67663 
   35700    293.91183    265.03713    359450.24   -109105.15    10120.653    -119225.8    454.23213 
   35800    292.34787   -106.44045    360285.99   -109131.73    10066.799   -119198.52    455.52154 
   35900    291.51101   -145.96853    360066.04    -109091.3    10037.983   -119129.28    455.98043 
   36000    294.69026    105.55352    359195.29   -109144.22    10147.458   -119291.67     457.6958 
   36100    294.12166    26.038107    359306.48   -109151.88    10127.879   -119279.75    458.66602 
   36200    291.20453   -51.093725    360085.46   -109149.51    10027.429   -119176.94    460.78588 
   36300    291.11563   -132.28992    360404.98   -109190.37    10024.368   -119214.74    462.38096 
   36400    291.19412    79.451528    359619.67   -109166.68    10027.071   -119193.75    462.97387 
   36500    291.53417    140.14171    359041.06   -109137.71     10038.78   -119176.49    463.81177 
   36600    292.10287      34.3624    359403.18   -109087.23    10058.363   -119145.59    465.44718 
   36700    290.93798      53.9569    359522.46   -109106.57    10018.251   -119124.82    467.23277 
   36800    293.33668    120.80572    359365.37   -109098.12    10100.848   -119198.97    468.95681 
   36900     292.8506   -124.66906     359978.5   -109118.51    10084.111   -119202.62    469.76605 
   37000    291.11544   -143.83888    359735.34   -109183.85    10024.362   -119208.22    469.48036 
   37100    293.49954    237.85657    359177.54   -109148.79    10106.456   -119255.25    471.15058 
   37200    292.97372   -190.34374    359957.47   -109181.88     10088.35   -119270.23    473.26642 
   37300    293.68376   -28.722907    360358.48   -109210.16      10112.8   -119322.96    474.95032 
   37400    293.32331    98.686943    359979.33   -109199.55    10100.388   -119299.94    475.88411 
   37500     293.6474     8.933977    360328.52   -109184.71    10111.548   -119296.26    477.88092 
   37600    292.19925   -98.845904     360661.3   -109195.05    10061.682   -119256.73    479.49794 
   37700    290.61945   -17.383373    360483.49   -109183.83    10007.283   -119191.12    480.05109 
   37800    289.32313   -21.103596    360199.13   -109232.25    9962.6445   -119194.89    481.80019 
   37900    290.20568    4.5833416     359994.6   -109290.61    9993.0346   -119283.65    482.05677 
   38000    288.65237   -2.7079046    360463.58   -109321.19    9939.5475   -119260.74    483.98387 
   38100     290.7069   -197.76068    360890.32    -109358.9    10010.294    -119369.2    485.50386 
   38200    292.16184     16.38746    360519.77   -109330.95    10060.394   -119391.35    485.69852 
   38300    292.28743    163.78847    359880.73   -109439.92    10064.718   -119504.64    486.32049 
   38400    291.60047    69.691447    359813.91    -109437.6    10041.063   -119478.67    487.71561 
   38500    290.00028    5.4541344    359981.58   -109423.06    9985.9617   -119409.02    489.62204 
   38600    289.08603    100.92713    359991.24   -109469.74    9954.4801   -119424.22     490.7964 
   38700    288.80084   -60.612162    360265.81   -109405.85    9944.6598   -119350.51    492.10246 
   38800     290.7809    149.63358    360076.94   -109359.43    10012.842   -119372.27    493.45946 
   38900    292.67517   -49.935895    359616.38   -109339.56     10078.07   -119417.63    494.49812 
   39000     289.7159    7.4014422    359650.93   -109327.66    9976.1693   -119303.83    495.68908 
   39100    291.56098    90.210855    359403.36   -109315.69    10039.704   -119355.39    496.31931 
   39200    289.45878   -5.4175714    359686.11   -109254.08    9967.3157   -119221.39     498.1261 
   39300    287.92965   -113.90507    360063.57   -109426.86    9914.6611   -119341.52    500.37184 
   39400    290.18985   -216.24976    360181.05    -109432.1    9992.4893   -119424.59    501.52172 
   39500    290.82073    17.012857     359725.1    -109443.3    10014.213   -119457.52    502.09241 
   39600     286.4828    86.312857    359645.51   -109471.89    9864.8399   -119336.73    502.91956 
   39700    291.89645   -181.67553     359938.4   -109514.98    10051.255   -119566.23     504.0621 
   39800    287.63961    119.11247    359915.96   -109558.24    9904.6738   -119462.91    504.78193 
   39900    290.03632    80.698362     360134.9    -109477.2    9987.2029   -119464.41    506.37811 
   40000    289.60613   -227.09063    360772.67   -109357.93    9972.3895   -119330.32    507.14545 
   40100    292.60851   -17.791557    360268.34   -109340.69    10075.774   -119416.46    507.78238 
   40200    293.42906    162.85901    358978.46   -109295.27    10104.029    -119399.3    507.98235 
   40300    292.73749    102.06261    359139.23   -109229.24    10080.216   -119309.46    508.93412 
   40400    294.19147   -55.759395    359835.23   -109233.94    10130.282   -119364.22    510.26973 
   40500    291.56159    50.441687    360181.82   -109280.78    10039.724   -119320.51    512.06209 
   40600    293.06383    189.86683     360158.8   -109299.13    10091.453   -119390.58    513.13618 
   40700    291.61398   -252.09349    360439.29   -109304.49    10041.528   -119346.02    514.14187 
   40800    287.44984     82.80823     360257.2   -109325.26    9898.1391   -119223.39    514.39131 
   40900    294.83517    58.536202    360000.43   -109331.09    10152.448   -119483.54    514.86093 
   41000    292.37527   -84.331095    359987.71   -109243.08    10067.743   -119310.82    516.20815 
   41100    293.71023   -46.932969    359842.26   -109246.97    10113.711   -119360.68    517.51956 
   41200    292.89314    53.931526    359721.15   -109210.79    10085.575   -119296.36    518.57444 
   41300    293.51172    42.870703    359475.72   -109241.68    10106.876   -119348.55    519.49132 
   41400    290.88046    108.35862    359522.71   -109250.04     10016.27   -119266.31    521.01584 
   41500    290.00613   -171.09932    359991.76   -109313.94    9986.1633    -119300.1    522.32445 
   41600    290.22425    16.806576    359743.04   -109337.77    9993.6742   -119331.44    523.84607 
   41700     289.8322    144.35574    359358.45   -109344.88    9980.1739   -119325.05    525.19584 
   41800    293.73569     164.0248     359825.4   -109312.22    10114.588   -119426.81     525.9804 
   41900    293.96093   -221.77375    360461.05   -109334.75    10122.344    -119457.1    528.12682 
   42000     292.0824    71.602316    360154.76   -109354.95    10057.658   -119412.61    529.78597 
   42100    292.62244   -137.42956     360265.8      -109371    10076.254   -119447.25    530.56554 
   42200    296.07871    -234.1808    360576.94   -109298.59    10195.268   -119493.86    531.29055 
   42300    293.72316    74.663594    360187.09   -109328.87    10114.157   -119443.03    532.44003 
   42400    293.13167   -75.281245     359966.2   -109303.09    10093.789   -119396.88    534.04405 
   42500    291.57008    110.56974    359981.21   -109322.98    10040.017      -119363     534.6266 
   42600    292.82705    5.3194812    360206.89   -109342.78      10083.3   -119426.08    535.52049 
   42700    297.63982    49.702834    360412.77    -109295.6    10249.024   -119544.63    537.09116 
   42800    291.64483   -76.707146    360305.98   -109392.14    10042.591   -119434.73    538.83575 
   42900     291.0348    311.73325     359700.9   -109415.71    10021.585   -119437.29    539.51172 
   43000    291.24524   -37.809608    359752.91   -109415.43    10028.831   -119444.26    541.06935 
   43100     293.3531    18.287455     359318.8   -109454.39    10101.414    -119555.8    541.70642 
   43200    293.26694    145.92249    359476.53   -109455.86    10098.447    -119554.3    542.92787 
   43300    292.21135   -96.499037    360506.27   -109471.33    10062.099   -119533.42    544.24182 
   43400    288.78089   -110.36733    360929.71   -109399.98    9943.9728   -119343.95     545.3774 
   43500    292.33775   -20.903132    360310.75   -109435.85    10066.451    -119502.3    546.70666 
   43600    292.29322   -84.449378    360390.46   -109396.82    10064.918   -119461.74    547.29551 
   43700     292.2638    134.52701    360553.54   -109408.74    10063.904   -119472.65    548.28681 
   43800    290.30428    -22.88912    360560.59   -109387.16    9996.4297   -119383.59    549.30488 
   43900    298.04351   -160.19932    360648.57    -109272.3    10262.925   -119535.23    549.73966 
   44000    292.94317    -86.61366    360464.18   -109299.37    10087.298   -119386.67    551.05015 
   44100    292.54243     131.8745    359739.42   -109295.18    10073.499   -119368.67    551.56494 
   44200    294.37315    1.0194811    359880.28   -109338.32    10136.539   -119474.86    552.79265 
   44300    290.49558   -232.70432    360482.37   -109300.44    10003.017   -119303.46    553.20883 
   44400    294.00883   -179.96153    360270.48   -109347.96    10123.993   -119471.95    553.95498 
   44500    295.37886     329.3264    359461.51   -109349.26    10171.169   -119520.43     554.7801 
   44600    293.49241   -4.6898876    360459.02    -109418.5    10106.211   -119524.71    556.23641 
   44700    291.28998   -217.54467     361414.5   -109401.24    10030.372   -119431.61    558.03126 
   44800    294.37035    29.281698    360382.02   -109284.35    10136.442   -119420.79     558.2302 
   44900    293.19575     47.21326    359802.36   -109279.43    10095.996   -119375.43    558.56033 
   45000    289.60077   -62.731605    359824.91      -109279    9972.2049    -119251.2    559.22551 
   45100    295.22733    34.134894    359859.47   -109254.17    10165.952   -119420.12    560.85278 
   45200    293.57827    55.252859    360301.97   -109208.94    10109.168    -119318.1    562.70558 
   45300    292.42497   -180.93286    361084.23   -109170.19    10069.454   -119239.64    563.44697 
   45400    293.57053   -111.42253    360866.46   -109154.78    10108.901   -119263.69     565.5689 
   45500    294.19945    68.601333    359827.54   -109237.47    10130.557   -119368.03     566.2594 
   45600    295.43127    9.9805935    359730.01   -109205.15    10172.974   -119378.12    565.87337 
   45700    289.39332   -81.629156    359858.79   -109222.32    9965.0614   -119187.38    566.35748 
   45800    291.69167    9.9424627    359573.28   -109219.85    10044.204   -119264.06    567.28342 
   45900    289.31574    151.31722    359672.93   -109262.95    9962.3902   -119225.34    568.46793 
   46000     290.4696   -161.59127    360592.42   -109309.42    10002.123   -119311.55    570.95014 
   46100    294.09786    12.006091    360543.07   -109271.39    10127.059   -119398.45    571.59631 
   46200    288.10403   -43.364878    360335.62   -109334.14    9920.6655   -119254.81    573.08565 
   46300    291.41241    71.417669    359801.31    -109374.2    10034.587   -119408.78    573.76279 
   46400    290.78552    240.59522    358908.58   -109406.04    10013.001   -119419.04    574.09703 
   46500    290.34191   -42.049397    358921.95   -109394.84    9997.7255   -119392.56    575.69068 
   46600    290.02365   -24.873022    359459.85    -109444.4    9986.7665   -119431.16    577.01284 
   46700    289.32891   -62.647484    360091.98   -109377.81    9962.8437   -119340.66    579.38573 
   46800    292.46891   -83.561483    360340.84    -109299.8    10070.967   -119370.77    580.33981 
   46900    289.29117   -67.889718    359821.46   -109278.35    9961.5441    -119239.9    580.60822 
   47000    292.14158     359.3387    358857.09   -109254.24    10059.696   -119313.93    580.62029 
   47100    294.64255    112.28286    359162.95   -109313.85    10145.815   -119459.67    581.81486 
   47200    288.54698   -248.63451    360210.38   -109327.87    9935.9184   -119263.79    584.16134 
   47300    290.70056    3.9625353    360331.38   -109247.66    10010.076   -119257.73    585.84985 
   47400    292.50518    239.15545    360049.16   -109228.87    10072.216   -119301.09    587.28136 
   47500    287.44818   -192.43848    360122.23   -109173.97    9898.0818   -119072.05    587.96361 
   47600    292.22409    148.55441    359658.49   -109225.45    10062.537   -119287.99     588.5021 
   47700    288.41941   -11.119303    359787.17   -109244.27    9931.5257    -119175.8    589.46629 
   47800    294.96347    15.845981    359942.46   -109231.88    10156.866   -119388.75    590.66209 
   47900    292.57257    31.915032    359826.91   -109172.66    10074.537    -119247.2    591.73284 
   48000    292.55884    137.99039    359776.61   -109198.42    10074.064   -119272.49    592.75091 
   48100    290.92442   -121.46162     360104.6   -109125.22    10017.784   -119143.01    593.72868 
   48200    294.63114    47.759708    360213.77   -109096.44    10145.422   -119241.86    594.97613 
   48300    290.00116    10.886455    360242.52   -109187.44    9985.9921   -119173.43    596.20993 
   48400    293.37014   -14.275543     360499.4   -109261.23    10102.001   -119363.23    597.77483 
   48500    292.38646   -55.098892    360427.06    -109228.4    10068.128   -119296.53    598.72501 
   48600    290.59002    124.47083    359681.57   -109199.27    10006.269   -119205.54    598.84122 
   48700    292.27767   -115.42385    359321.29   -109215.56    10064.382   -119279.95    598.97633 
   48800    295.17909    233.39479    359021.24   -109135.73    10164.291   -119300.02    599.92349 
   48900    291.55296   -164.97903    359601.99   -109160.78    10039.427    -119200.2    601.62459 
   49000    293.59612   -20.813813    359746.45   -109081.98    10109.782   -119191.76    602.85301 
   49100    295.02073   -54.212387    359689.02   -109041.75    10158.838   -119200.59    604.80803 
   49200    295.63784   -24.669474    359716.46   -108968.67    10180.087   -119148.76    605.97135 
   49300    296.67447    26.820034    359919.63   -108910.99    10215.783   -119126.77    608.44873 
   49400    295.43623   -112.37333    360218.15   -108969.79    10173.145   -119142.94     609.3541 
   49500    294.29918   -175.89247    360052.02   -109084.99    10133.992   -119218.98    610.49288 
   49600    294.81326     309.5839    359660.31   -109105.15    10151.693   -119256.84    612.94345 
   49700    295.19232   -89.084394    360271.93   -109208.43    10164.746   -119373.17    614.03605 
   49800    293.37208    17.768472    360881.21   -109174.76    10102.067   -119276.83    616.42665 
   49900    294.47436    110.21493    360517.19   -109161.64    10140.024   -119301.66    616.88505 
   50000    292.67316   -108.62097    360148.22   -109118.67    10078.001   -119196.67    617.95736 
Loop time of 154.985 on 6 procs for 50000 steps with 11553 atoms

Performance: 278.737 ns/day, 0.086 hours/ns, 322.612 timesteps/s
99.4% CPU use with 6 MPI tasks x no OpenMP threads

MPI task timing breakdown:
Section |  min time  |  avg time  |  max time  |%varavg| %total
---------------------------------------------------------------
Pair    | 52.966     | 92.589     | 128.51     | 320.9 | 59.74
Neigh   | 14.942     | 17.148     | 18.776     |  38.8 | 11.06
Comm    | 4.0608     | 41.584     | 83.396     | 503.4 | 26.83
Output  | 0.07686    | 0.077525   | 0.080316   |   0.4 |  0.05
Modify  | 2.9188     | 2.9665     | 2.9995     |   2.0 |  1.91
Other   |            | 0.6209     |            |       |  0.40

Nlocal:        1925.50 ave        1984 max        1866 min
Histogram: 2 0 0 0 0 1 1 1 0 1
Nghost:        2484.00 ave        2519 max        2460 min
Histogram: 2 0 1 1 0 0 0 1 0 1
Neighs:        0.00000 ave           0 max           0 min
Histogram: 6 0 0 0 0 0 0 0 0 0
FullNghs:      54931.7 ave       56700 max       53252 min
Histogram: 2 0 0 0 0 1 2 0 0 1

Total # of neighbors = 329590
Ave neighs/atom = 28.528521
Neighbor list builds = 7168
Dangerous builds = 0

reset_timestep      0
undump              1

################################################
#######         Run Simulation         #########
################################################

log                 log.run_${NAME}
log                 log.run_Tmelt_292K_AUTO
