LAMMPS data file via write_data, version 29 Oct 2020, timestep = 200000

4608 atoms
1 atom types

0.4281793119951196 56.84233068800504 xlo xhi
0.3806038328839918 50.52651616711427 ylo yhi
0.3806038328839918 50.52651616711427 zlo zhi

Masses

1 18.015

Atoms # atomic

5 1 1.759227748709124 2.1435311006136004 2.308993213147628 0 0 0
361 1 0.42952991834219745 44.32234252229458 6.504733403178021 0 0 0
10 1 6.3228731862331555 3.616881208235788 3.6642137090160545 0 0 0
13 1 8.073046416648896 1.8004835125524463 2.1157881852336127 0 0 0
11 1 10.263129885204277 0.38142205781826277 3.229867092013266 0 0 0
21 1 14.570496812327091 2.0970370874269246 1.9491333279970917 0 0 0
18 1 13.146655479857328 3.5669802641286386 3.3815310532933704 0 0 0
100 1 3.9290729951380428 28.117391891957833 0.5857687061055418 0 0 0
27 1 3.5116901614781098 7.159024250915979 3.4662737438545044 0 0 0
1585 1 19.04713897391552 12.505708250358913 0.7206795328179897 0 0 0
8 1 4.917007196048022 5.141764680996271 1.9561681286389783 0 0 0
132 1 10.138568081752286 34.533100241733926 0.48531692527154463 0 0 0
16 1 11.563861714603355 5.022528470203862 1.71984395564372 0 0 0
35 1 10.363591216252344 6.259177203924835 3.608404361993256 0 0 0
956 1 15.709792471803109 46.87301628616829 25.33743988360508 0 0 0
24 1 17.60873940135707 5.385450321837838 1.7876991671605047 0 0 0
43 1 16.148437155229935 6.608411471993046 3.6986386871400967 0 0 0
29 1 1.8335934624480885 8.784725675512455 2.109447632882304 0 0 0
193 1 0.43296697537520135 0.7420541943049103 6.5616350063327085 0 0 0
34 1 6.731832312413283 9.797133743052925 3.0626268019093996 0 0 0
37 1 8.624832478864693 7.7780250912605595 1.937549163124538 0 0 0
45 1 14.494443063223498 8.078863941482714 2.207174321421822 0 0 0
42 1 12.927571455010526 9.90756541178673 3.447291813514332 0 0 0
242 1 0.46177070589147795 15.954400025709395 10.073326660187794 0 0 0
766 1 14.270464250089638 48.71351611801342 23.87908172330429 0 0 0
51 1 3.8282346739645248 13.164960589294806 3.4665449796785244 0 0 0
32 1 4.936539805127433 11.626882322855339 1.654808403828733 0 0 0
40 1 11.474662799003404 11.257858008114852 1.7461040081612142 0 0 0
59 1 9.951301005568236 12.272839241529168 3.657589582600496 0 0 0
48 1 17.47594288287668 11.295179585144977 2.0469905266111725 0 0 0
67 1 15.905852709228167 12.648596396014634 3.414123407690376 0 0 0
53 1 2.0986135730893336 14.724352701499932 1.8592942179062972 0 0 0
58 1 7.225181298982227 16.09493802688397 3.632123771664878 0 0 0
61 1 8.515031400435264 14.347573593163933 2.150880671388329 0 0 0
69 1 14.173669741213752 14.433483959938425 1.8240451161500928 0 0 0
66 1 12.961983001956739 16.299705044622918 3.173466441312434 0 0 0
129 1 6.73000688152998 31.547307675582314 0.41365356517593466 0 0 0
75 1 3.6018131199470385 19.488968126269935 3.3817814159393613 0 0 0
56 1 5.1619535932050935 17.489225677476405 2.241723062367809 0 0 0
64 1 11.51137344213051 18.19437876475383 1.9560281943840137 0 0 0
83 1 10.270260287093455 19.353927353703448 3.6896595113169357 0 0 0
98 1 0.6234111891714292 28.681640225935254 3.5275001268067623 0 0 0
762 1 12.808919156684649 47.37029911514451 22.31724351862852 0 0 0
72 1 17.551756367272656 17.175927386354765 1.9757023318603388 0 0 0
91 1 16.271500947347818 19.148231795108984 3.697832959540477 0 0 0
77 1 2.097811146019702 21.0280289780865 1.9434015544363448 0 0 0
698 1 0.6385857926087763 35.15123874818319 22.134854614825574 0 0 0
82 1 6.5892604356597975 22.548628117822638 3.272448105258297 0 0 0
80 1 5.160250426851807 24.156035575669993 1.7090257075154873 0 0 0
85 1 8.706696967394562 21.044630622034784 1.87064987096141 0 0 0
88 1 11.396452580623723 23.870624411953475 1.9331044826823616 0 0 0
93 1 14.84892506271534 20.846146093667777 1.8015155609367266 0 0 0
90 1 13.00663305312089 22.310712603664168 3.4244122061788653 0 0 0
314 1 0.7864921681490512 34.706895180572026 9.80757147353612 0 0 0
99 1 3.743075010387743 25.40778108452098 3.4972118072130383 0 0 0
101 1 1.9505969860212429 26.77140395638182 2.2261042872478107 0 0 0
313 1 0.5231330320472417 31.77385058213548 6.650000534219625 0 0 0
107 1 10.001049270561166 25.424028005593428 3.8432262728936357 0 0 0
109 1 8.647629647787733 26.83343625593834 1.9836975580568703 0 0 0
578 1 0.5776282448782769 3.767104048066665 22.219317112149994 0 0 0
96 1 17.466608247353886 23.912841289073686 2.387213854002095 0 0 0
115 1 15.753076210354289 25.5835080742211 3.8210136475041336 0 0 0
337 1 0.5709190562849575 37.884480570091775 6.758313947629959 0 0 0
241 1 0.5067284219049037 12.928117679771841 6.664716565897558 0 0 0
104 1 5.27631003623818 29.764093556623475 1.9665370590355649 0 0 0
745 1 0.5877347315723179 44.341050861520664 19.7864833562878 0 0 0
117 1 14.56271935192665 26.9652269092852 1.8101164267701715 0 0 0
114 1 13.239973620899258 28.697294344420534 3.4096779403089013 0 0 0
120 1 17.773101389350618 30.045472447780472 1.2974640676595288 0 0 0
125 1 1.9377971658139999 33.32634805805568 1.8769371561678143 0 0 0
123 1 3.7387376241123818 31.689606891643866 3.3726794026588083 0 0 0
180 1 9.923025959540787 47.62847865456054 0.42114105330154655 0 0 0
133 1 8.470318060766063 32.891430869144614 1.7282101384819974 0 0 0
131 1 10.227166347442992 31.606670180174042 3.472620231698476 0 0 0
112 1 11.729505317886536 30.01573679007613 1.8825847150596622 0 0 0
141 1 14.68769236756247 33.398453887685825 2.193172366083042 0 0 0
289 1 0.473488636476149 25.442510595630818 6.418140109443946 0 0 0
139 1 16.245597468204203 31.53041006751635 3.319860629664498 0 0 0
108 1 9.949837267741119 28.54161034337624 0.5381929632822624 0 0 0
777 1 6.668410646817369 50.44902067038593 24.905432457475996 0 -1 0
128 1 5.387153449040119 36.380232837943815 1.821300569995168 0 0 0
130 1 6.988116203358673 34.6319556844078 3.2026798750912286 0 0 0
820 1 3.3001976095154544 16.134251748840462 25.200595362707567 0 0 0
136 1 11.672027382876283 36.60725640661461 1.9207027474879814 0 0 0
138 1 13.098901628891086 34.85098462357883 3.6155399810423456 0 0 0
144 1 17.63887951343105 36.46958458817415 1.7053105194176534 0 0 0
149 1 2.2812380246076445 39.64715520990815 1.867462393065933 0 0 0
147 1 3.966001876531682 38.087875593004675 3.3066466433147164 0 0 0
860 1 16.060033625281214 22.273398372454324 25.302695558210438 0 0 0
157 1 8.470128289873129 39.338435830074935 1.6819036443132245 0 0 0
155 1 9.928246799123645 37.876833553345016 3.4677147343629136 0 0 0
697 1 0.9084064749636043 31.83118601312457 19.027657586997908 0 0 0
165 1 14.755892921114405 39.647737684096015 1.7923599422165049 0 0 0
163 1 16.283335821217918 37.863185610148754 3.484388032713147 0 0 0
44 1 16.02978954091531 9.518622020218771 0.47696219798122175 0 0 0
721 1 0.5308084181885508 37.86304643438837 18.73637792947262 0 0 0
152 1 5.142553072636252 42.6103715838907 1.8923454776794872 0 0 0
154 1 6.907548729415789 41.246483137058604 3.3806557686960486 0 0 0
160 1 11.811292737617693 42.59187234124657 1.6347120937644113 0 0 0
162 1 13.203482497040437 41.1636904175428 3.435092371222837 0 0 0
868 1 3.584434907627576 28.412652956949334 25.45037360674228 0 0 0
168 1 17.686096130448934 42.91319653068131 1.9115443330571806 0 0 0
171 1 3.3936518071182156 44.1889918757267 3.357383268208631 0 0 0
173 1 1.9733729814866643 45.70330855962128 1.8691774455114794 0 0 0
181 1 8.070333567428253 45.77606123057561 1.622761022652225 0 0 0
179 1 10.575174775376018 44.60646330084338 2.9423351187451114 0 0 0
189 1 14.588905189586864 45.958516928629216 1.4306071759040562 0 0 0
674 1 0.8006764215986006 28.463004449711768 21.98670844056633 0 0 0
187 1 16.074091005431477 44.65241086977553 3.476254780219637 0 0 0
3 1 3.7083914377453384 0.4117799537776735 3.6536823046035787 0 0 0
746 1 0.688944562506487 47.49691765570955 22.286246793933234 0 0 0
178 1 6.654057670359235 47.51020154019746 3.487699505836622 0 0 0
176 1 5.044909067054409 48.78823631432648 2.0437432833569242 0 0 0
184 1 11.768585408281508 48.98561659212688 1.8905118076928393 0 0 0
186 1 13.285746348890312 47.59438380921736 3.446622779315724 0 0 0
19 1 16.025635861106956 0.6355569974929511 3.683805692794172 0 0 0
192 1 17.713753467387615 49.222352236851854 1.883619021034705 0 0 0
122 1 0.5280582564388954 34.7284954043048 3.7154659092696534 0 0 0
844 1 3.045565529141287 22.233967163308062 25.23080438104094 0 0 0
338 1 0.8368938247510955 41.55887813931877 9.600661708066779 0 0 0
196 1 3.284962410944208 3.814637134215498 6.556523870967365 0 0 0
7 1 5.066610075708561 1.8472426490284326 5.3143071870295495 0 0 0
204 1 9.74235132161071 3.2481657873695218 5.977204254551701 0 0 0
15 1 11.318700368998167 1.9364764864301773 4.7130895668945305 0 0 0
23 1 17.848518728198464 2.1544158578384938 5.158143986631361 0 0 0
212 1 16.38603679162426 3.620956463396221 6.9314863462570875 0 0 0
6 1 1.841103525323522 5.523238229332214 5.231372026409001 0 0 0
225 1 6.786308154384912 6.801331651831127 6.738810185984576 0 0 0
14 1 8.057615276320504 5.075016297095362 5.01437876909719 0 0 0
22 1 14.62808679569334 4.855676852301188 5.310595728977174 0 0 0
233 1 12.836871958015267 6.256615001349569 6.514708235072923 0 0 0
220 1 3.4114666662070396 9.588353545846005 6.311169748584938 0 0 0
31 1 5.083470890003893 8.470914862686737 4.9967868947263225 0 0 0
228 1 9.680579262891332 10.102684281793072 6.476062292187086 0 0 0
39 1 11.555297923825393 8.20222477196756 5.295140338457046 0 0 0
47 1 17.920513346783395 8.252886511444402 5.504420835242471 0 0 0
236 1 16.216626685994335 9.599189224222894 7.058805766287443 0 0 0
30 1 2.3309217687363812 11.689841141988262 5.089592135017388 0 0 0
249 1 6.525142958293608 12.545758561057331 6.540534867679618 0 0 0
38 1 7.98514876421784 11.35792726005181 4.697517482018401 0 0 0
46 1 14.60835881451943 11.251879376525741 5.333550356752131 0 0 0
257 1 13.108897803227165 13.159372773211254 7.0332888862558764 0 0 0
758 1 8.12621660390462 48.869024531025474 23.867386515414033 0 0 0
244 1 3.873812812889512 15.909846344421311 6.747742373054532 0 0 0
55 1 5.303655094889062 14.686352231771437 5.066859486995076 0 0 0
252 1 9.971515480920884 15.732091489065516 7.147669382396976 0 0 0
63 1 11.244720166464571 14.4837475230339 5.254986214011169 0 0 0
260 1 16.053163921738943 16.21542268442083 6.65405331569122 0 0 0
71 1 17.180776729350345 14.295452615324518 4.8767970971566506 0 0 0
754 1 6.797290923730354 47.36869812220553 22.09945860709724 0 0 0
54 1 2.525931388705117 17.73563030815078 4.9261440013735545 0 0 0
273 1 7.3471347428951885 19.41723372969222 6.8403011129168005 0 0 0
62 1 8.799038957389183 17.49443029407566 5.3856344322707335 0 0 0
70 1 14.279716656563073 17.68634859841634 5.097360164586228 0 0 0
281 1 12.731100186189702 19.10673937645979 6.742782757143924 0 0 0
73 1 0.5761359524590642 19.4158561084867 0.4369167189186417 0 0 0
268 1 3.762472878416412 22.23968100218427 6.489589560807134 0 0 0
79 1 5.5429213446784145 20.57150997507402 4.653737131070678 0 0 0
276 1 10.057911986937745 22.589249834398256 6.838869498690619 0 0 0
87 1 11.562428049138022 21.07567522955654 5.170973989798346 0 0 0
86 1 8.129653527873232 23.845651439675166 5.180852478645147 0 0 0
95 1 17.64415694588496 20.73827135206764 5.284366724240858 0 0 0
284 1 16.066258766200455 22.503287512732964 6.970505320386636 0 0 0
78 1 2.1817439754706385 23.504915455350858 4.785870383807006 0 0 0
297 1 6.9513677517349395 25.465453747072562 6.856556181876066 0 0 0
111 1 11.417651761776796 27.16465440467691 5.0007155263604455 0 0 0
94 1 14.295023834713115 23.750546711347816 5.521235883027982 0 0 0
305 1 13.053069544819438 25.62684693175496 6.755126795358436 0 0 0
119 1 17.814512611218323 27.33311886883512 4.872685334184899 0 0 0
292 1 3.8948794081824176 28.81462811603309 6.680207472741231 0 0 0
102 1 2.206268667652384 30.321597568399017 5.034824281428699 0 0 0
106 1 6.89290341470407 28.431498423959194 3.6334989067650683 0 0 0
103 1 5.377717672295303 27.160465087640606 5.224039927756444 0 0 0
110 1 8.42205534712635 30.32635536925436 5.113933921892991 0 0 0
300 1 9.791734149401945 28.600604228540565 6.741080361286188 0 0 0
118 1 14.55936073750786 30.108577197954236 4.879159650946161 0 0 0
308 1 15.971391323554387 28.68063142544892 6.5046557234270095 0 0 0
750 1 2.312855446746579 49.20546799328893 23.734902127274026 0 0 0
321 1 6.995010651714035 32.09549707263908 6.2309120449454545 0 0 0
127 1 5.436928189809478 33.32548301574773 4.546910374113922 0 0 0
135 1 11.536216790906057 33.24528956629566 5.058053780638377 0 0 0
329 1 13.038471591700446 31.588643583599918 6.8888085138936574 0 0 0
143 1 17.17327131061444 32.75647999828831 5.647789022971408 0 0 0
126 1 2.3062237490764455 36.45307732053705 4.979519767262553 0 0 0
316 1 3.638005961832061 34.76822276963558 6.511624037745525 0 0 0
134 1 8.165673941803256 36.294503259391014 4.979913912167257 0 0 0
324 1 9.877634816923301 34.59568214196921 6.256722854620884 0 0 0
142 1 15.054026990151767 36.55548525853738 5.162933063579212 0 0 0
332 1 16.541692891096947 34.95582333954881 6.866727826302253 0 0 0
881 1 12.795363238561523 25.22387793271324 25.208734050739004 0 0 0
151 1 5.03963715084394 39.8922148420445 4.936761549218814 0 0 0
345 1 6.592674771581484 38.25892097776551 6.330298369218211 0 0 0
159 1 11.688725437383148 39.59869565826982 4.890790199745429 0 0 0
353 1 13.093251433432343 38.0072576458738 6.441935432302935 0 0 0
167 1 17.857674228491486 39.60679094675023 4.699396246673614 0 0 0
673 1 0.503362790809668 25.790772475871773 19.452553551555905 0 0 0
150 1 2.01716183865177 42.945027917963124 5.0626048914060595 0 0 0
340 1 3.391382718391483 41.25314693169271 6.586825834647028 0 0 0
158 1 8.690094083745654 43.1118580745681 4.920239899475955 0 0 0
348 1 9.680036785757983 41.18869404380423 6.436987666130779 0 0 0
166 1 14.478811096191773 42.99276739268927 5.110331727678457 0 0 0
356 1 16.435756227256487 41.255281628633675 6.3782726144295925 0 0 0
364 1 3.34197702867461 47.53813007158901 6.509725156307527 0 0 0
369 1 6.644838620651549 44.32091494710775 6.311586985338912 0 0 0
175 1 4.997037581914522 45.84323654866635 4.85618539521312 0 0 0
183 1 11.54893127754345 46.46634611539294 5.04173419020482 0 0 0
377 1 12.694122509432493 44.57280499817109 6.60991771746431 0 0 0
191 1 17.93926964470098 46.084543505291606 5.147911369164174 0 0 0
380 1 16.247145781257984 47.441403848712184 6.922995442921858 0 0 0
174 1 1.7797531150113455 49.31542969193062 4.8639191080467015 0 0 0
201 1 6.525306042197703 0.43073386571141703 6.496145176489718 0 0 0
372 1 9.800433880671191 47.844028827861095 6.523068486931224 0 0 0
182 1 8.459466066453174 49.43742315972883 4.842470829564355 0 0 0
209 1 12.653888755445145 0.6776329803141052 6.54147363660276 0 0 0
190 1 14.671758987584793 49.083969266615696 5.146690888088345 0 0 0
290 1 0.8017707782176139 28.64222703246852 9.734736246747426 0 0 0
197 1 1.8942162027499068 2.1114351688458113 8.15823687956659 0 0 0
202 1 6.657297351360568 4.042628176540417 9.66535329996639 0 0 0
199 1 5.272717677948128 2.3421053050741274 11.316880193289808 0 0 0
205 1 8.351351275064427 2.0470865129309552 7.997805556777866 0 0 0
203 1 9.584942707447038 0.6975788562346998 9.893276115220667 0 0 0
213 1 14.370107568610443 2.247878172784116 8.22457156841027 0 0 0
210 1 12.879112309853324 3.9151857538963726 9.63493504979822 0 0 0
211 1 16.035566053391992 0.8609456533231126 9.857860616133657 0 0 0
198 1 2.019543224756327 5.297350960134825 11.454919668791849 0 0 0
200 1 5.104318943016878 5.676706693180202 8.060106043462316 0 0 0
227 1 9.85708739625834 6.554776777613526 9.66528080146875 0 0 0
206 1 8.143830542994342 5.298555763869312 11.359604872499611 0 0 0
208 1 10.936242734741786 4.923797611039079 7.9148325346353605 0 0 0
216 1 18.05062906904412 4.93647563099834 8.629172978245663 0 0 0
235 1 16.073626498275956 6.719897756269599 10.003947031120468 0 0 0
219 1 3.697120781213854 7.300372741646254 9.751487844447787 0 0 0
221 1 1.8980475189349744 8.490852604816505 8.051503840098285 0 0 0
226 1 6.6429306707766225 9.783908784930649 9.522513016287023 0 0 0
223 1 4.950730860222323 8.441321554860703 11.370846024990222 0 0 0
229 1 8.550652911935543 8.180468517173573 8.083254270520921 0 0 0
231 1 11.340711833394932 8.568980174075293 11.191546726071449 0 0 0
237 1 14.41956662127466 8.207110797428939 8.212342377953327 0 0 0
234 1 12.919832145216107 9.907023732899232 9.433649754998422 0 0 0
763 1 15.886749559237389 44.065795421000566 22.314317158294312 0 0 0
243 1 3.335140773659377 12.880961957488156 9.743580197658172 0 0 0
224 1 4.863673462219111 11.101310992568209 7.996595714564408 0 0 0
251 1 9.618355077811328 13.121001704375725 9.788744675586948 0 0 0
232 1 11.276032940092835 11.396420016233275 8.07348871486753 0 0 0
230 1 8.03489727788683 11.744944902397405 11.116700743975246 0 0 0
238 1 14.59727192047259 11.41150868754205 11.274824243538678 0 0 0
259 1 15.872882570561522 12.90917412303326 9.787108738375055 0 0 0
240 1 17.47239708116158 11.278805738455038 8.479034442336348 0 0 0
767 1 17.360371542365076 45.707368231338386 23.749412222700798 0 0 0
245 1 2.1298437819044613 14.316435177454522 8.058658988290645 0 0 0
250 1 6.543467297773079 16.14735716610991 9.579579276711147 0 0 0
253 1 8.0109286885699 14.381373080198603 8.006202288353524 0 0 0
261 1 14.596141118393339 14.836809464362062 8.471438753624065 0 0 0
258 1 13.134641946544331 16.23374947935796 10.074633563789567 0 0 0
263 1 17.94705911037272 14.438207553933898 11.51327800157604 0 0 0
9 1 6.727170502228668 50.171070574305084 0.6588841682016359 0 -1 0
267 1 3.8458580491764947 18.995054602459376 9.641077969008403 0 0 0
248 1 5.464109114422082 17.61434114654364 7.907313111587342 0 0 0
256 1 11.366156597236522 17.639106066066955 8.517469526825085 0 0 0
275 1 9.587622914986467 19.016121237701896 10.137764115107133 0 0 0
277 1 8.548120632260046 20.982030092693034 8.46977147643809 0 0 0
254 1 8.161596701069513 17.293594532725177 11.367164893113967 0 0 0
262 1 14.976571934047124 17.348324662724778 11.540312285438002 0 0 0
264 1 17.58222997965251 17.78267873521244 8.296176359542859 0 0 0
283 1 16.087087197489517 19.26793259713532 10.105577405763835 0 0 0
269 1 1.9407357094200057 20.438914951898145 8.25052112163989 0 0 0
274 1 6.651956074859389 22.183469534993762 10.057995125126698 0 0 0
272 1 5.295596730042431 23.861820346782903 8.186307121249873 0 0 0
280 1 11.573352232989045 24.453279537338442 8.783164519675392 0 0 0
278 1 8.108083208672511 23.941076322196185 11.36128235916197 0 0 0
285 1 14.29217652126429 20.61013709939693 8.30002689376727 0 0 0
282 1 12.993089750411114 22.073890675431855 9.825703760292923 0 0 0
291 1 3.4481714136006754 25.45979333609469 9.701806940518384 0 0 0
293 1 2.416408779139489 27.05791352221269 8.065462092792227 0 0 0
299 1 9.671905735366543 25.731634686430073 10.121633647817735 0 0 0
301 1 8.380680648566713 27.138274701957165 8.381201281262305 0 0 0
309 1 14.455086191414493 27.212907990145645 8.431534741755632 0 0 0
288 1 17.79199668245862 23.921554237244578 8.56858693629037 0 0 0
307 1 16.05208378186392 25.58639387623298 9.725354254956386 0 0 0
294 1 2.194159624265418 30.11150303871992 11.34338287097378 0 0 0
298 1 6.52023050241718 28.852762457053675 9.602915451755228 0 0 0
296 1 5.366585802444703 30.609340911927806 8.060871054195308 0 0 0
304 1 11.51227001037126 30.091383830693875 8.616493959354365 0 0 0
306 1 13.001497972732633 28.617689440826098 10.01520669327158 0 0 0
312 1 17.369506030021405 30.41061666438226 7.957048318393202 0 0 0
315 1 3.7092364434676885 31.94917958077158 9.817696706075616 0 0 0
317 1 2.196768065786369 33.33424005734349 8.110776278391839 0 0 0
325 1 8.364314065155568 33.28101615940536 8.102787110943732 0 0 0
323 1 9.782650253837001 31.82595360608024 9.779264481368001 0 0 0
333 1 14.336960134237097 33.415165560027674 7.8292606996379925 0 0 0
331 1 16.131171640342323 31.771097738745347 9.730321143774612 0 0 0
320 1 5.197147972584617 36.58971824344671 8.198220004550596 0 0 0
322 1 6.9646571192856905 35.41901345277177 9.73536247202349 0 0 0
328 1 11.474116790905672 36.259829327777695 7.8475302512381555 0 0 0
330 1 13.006632454586008 34.97411926195903 9.676083241685095 0 0 0
336 1 17.843530366115903 36.679065696060036 8.05305335868228 0 0 0
876 1 9.502760058744812 28.3417510036159 24.844166245624056 0 0 0
341 1 1.9782433607784196 39.80345895389789 8.29566965136763 0 0 0
339 1 3.5673272891206564 38.293458252649856 9.676017738028825 0 0 0
349 1 8.151121926744468 39.75262966472609 8.256265337345347 0 0 0
347 1 9.962029280637763 38.255668120672695 9.667743610703473 0 0 0
357 1 14.806116550070541 39.81745904018615 7.707667189469637 0 0 0
355 1 16.201044236794232 38.110718380934 9.699051793943026 0 0 0
759 1 11.495762565591715 45.73298318953944 24.182493425020102 0 0 0
342 1 1.9635476191983587 42.80011651098262 11.533749648303754 0 0 0
344 1 4.914217872228115 42.874351848839 8.079015714668506 0 0 0
346 1 6.648101734905735 41.46932498979999 9.628824629579094 0 0 0
352 1 11.162311957849848 42.708882825009724 8.269866239911549 0 0 0
354 1 13.121674647326453 41.54338064848054 9.787342590757152 0 0 0
360 1 17.231798120900258 42.85477393072036 8.221802324034309 0 0 0
755 1 9.851908420797365 44.276715909761606 22.51614894679986 0 0 0
365 1 1.871275468324047 45.905202685036826 8.099819072422155 0 0 0
363 1 3.2460083089025784 44.31382721448511 9.845598576926283 0 0 0
367 1 5.122173272842906 46.13240511690814 11.138227068275269 0 0 0
371 1 9.681427362907705 44.51317687999956 9.709040729071894 0 0 0
373 1 8.060461877864396 45.883388833230626 8.341587734191943 0 0 0
381 1 14.386120590343767 45.62595486051335 8.205695887533548 0 0 0
379 1 15.681132858881076 44.239629629669906 10.066380948367929 0 0 0
195 1 3.7582371494211597 50.464125515784595 9.620632229425164 0 -1 0
2186 1 19.085483117106364 22.389752687677174 21.99263211484091 0 0 0
366 1 2.0961924208889737 49.08122352087951 11.325792024281329 0 0 0
370 1 6.704093198251819 47.75980947634767 9.862001132402572 0 0 0
368 1 5.1876931475845725 49.00654760443578 7.9683348911288014 0 0 0
376 1 11.084955212784577 49.30502530153035 8.186372853077225 0 0 0
378 1 12.826722112093625 47.402509274020055 9.549189017094854 0 0 0
384 1 17.644853801357616 49.23593217527994 8.529474033456864 0 0 0
892 1 3.784865786045646 34.815669162907724 25.151170037256268 0 0 0
389 1 1.9762657389815017 2.373860949990999 14.399668577340021 0 0 0
388 1 3.732727483958046 4.092825045321609 12.990529605096036 0 0 0
393 1 6.85146178645526 0.8171880006425054 13.202043841121908 0 0 0
397 1 8.604039874234443 2.2775060222506194 14.615975243920596 0 0 0
207 1 11.361751206403273 1.9631703212755935 11.393096775082613 0 0 0
396 1 9.994653247352812 3.7436841176368554 12.815657478834932 0 0 0
405 1 14.510537595097631 2.290504374333765 14.27973078812063 0 0 0
215 1 17.764143062982694 2.31090276092369 11.23565026319379 0 0 0
404 1 16.18294817388076 3.838281088566352 12.848717929253622 0 0 0
392 1 4.748803002650721 5.623682140693076 14.654740536310701 0 0 0
417 1 6.310207595437916 6.905261109460398 12.835205675015576 0 0 0
400 1 11.589003677126257 5.5336854856993805 14.231601616265078 0 0 0
214 1 14.38010337628196 5.35178405386293 11.455355153024303 0 0 0
408 1 17.832305403563225 4.857463977692661 14.774570632769697 0 0 0
146 1 0.8304875035431123 40.99929834554132 3.874504502302201 0 0 0
412 1 3.2543078664421206 10.273561995818822 13.100733709635398 0 0 0
413 1 1.5138802285264776 8.662497490186626 14.70047356346367 0 0 0
420 1 9.835125185416528 10.356109869092707 12.690835484942996 0 0 0
421 1 8.157447474886412 8.383622815332753 14.097596382427525 0 0 0
425 1 13.213650523419153 7.166879497167629 12.860833487164262 0 0 0
429 1 14.871259537236963 8.483249648612025 14.473743307000518 0 0 0
239 1 17.8949015946665 8.025637199487978 11.501474288336262 0 0 0
428 1 16.735863403250143 9.969687095936647 13.090195375034622 0 0 0
222 1 1.8302360349071107 11.638111658294683 11.28005113141265 0 0 0
441 1 6.700054907628173 13.14024714615111 12.843561712902035 0 0 0
416 1 5.333507082066821 11.47326335377084 14.66147243620855 0 0 0
424 1 11.432296748034524 11.392365237346896 14.160729440094702 0 0 0
449 1 13.390760338355033 13.141582420293563 12.83300261213454 0 0 0
432 1 18.208732000247725 11.155836340591 14.82658736935534 0 0 0
436 1 3.3019647961580065 15.820048062180685 12.778549190793404 0 0 0
437 1 1.7888409843123 14.732380906662378 14.339284703488936 0 0 0
247 1 5.110296243585181 14.523332414986815 11.282553413186656 0 0 0
440 1 4.570164254733934 17.295141195838543 14.439941145216988 0 0 0
255 1 11.421311983128094 14.384393781528349 11.404237794919714 0 0 0
445 1 8.133048012050466 14.538667174635338 14.44065154318826 0 0 0
444 1 9.83050902328565 15.865721725829077 12.89960956345902 0 0 0
453 1 14.654893723641342 14.47795163754689 14.773855022550842 0 0 0
452 1 16.397652949852848 16.020492069163435 13.389090919625012 0 0 0
246 1 2.0380434119490602 17.91320609374917 11.39693184262211 0 0 0
465 1 6.302488048198365 18.894497011043626 13.104987438059773 0 0 0
271 1 4.964522721707626 20.324382229156818 11.260715144804262 0 0 0
448 1 11.464058243933772 17.658709175434293 14.32153296067915 0 0 0
473 1 13.317670173191068 19.069001184178205 12.855489532597641 0 0 0
456 1 17.749989437582684 17.44822660361508 14.962229876442075 0 0 0
287 1 17.884805853035072 20.483825796046823 11.85500857741475 0 0 0
900 1 9.93157358111931 34.87116365051224 25.17807025244533 0 0 0
460 1 3.3486733107633464 22.4140378506394 12.456259811716704 0 0 0
461 1 1.824457592557224 21.077210926162515 14.413282603861392 0 0 0
464 1 5.0674168060830835 23.66519290143048 14.690932005699276 0 0 0
279 1 11.594133338766879 20.484349311077942 11.404593489750935 0 0 0
468 1 9.867257882657437 22.48145944377714 12.703551750147048 0 0 0
472 1 11.379526339477781 23.62595142044791 14.232569686867846 0 0 0
286 1 14.601991496399066 23.840544579402344 11.304236245696295 0 0 0
476 1 15.862450220516514 21.931532655374134 12.80503626173047 0 0 0
940 1 3.5695400631079455 47.21361476027762 25.075864828509676 0 0 0
270 1 1.7590585053153343 23.92744574225243 11.136611995520122 0 0 0
485 1 1.8860135899352055 26.794912970900405 14.22334571447642 0 0 0
489 1 6.275900384054183 25.294397544360653 12.804413198848266 0 0 0
295 1 4.863333158764784 27.27357210259574 11.491778462628027 0 0 0
303 1 11.220359294953832 27.12562554445556 11.48258445072469 0 0 0
493 1 7.97442016786531 26.839124706386425 14.351605040301783 0 0 0
497 1 12.779706136099058 25.65445517482257 12.856961722532548 0 0 0
501 1 14.68964141916993 26.838343308431366 14.490602673070127 0 0 0
480 1 17.40767147921024 23.529986762260666 14.240003082457013 0 0 0
484 1 3.4133991302325724 28.705745397782355 13.004901645032582 0 0 0
488 1 5.219033430821778 30.123952985602603 14.438288191870821 0 0 0
302 1 8.209413950786725 30.15263847567871 11.288262504481754 0 0 0
492 1 9.725281951683021 28.810281876570013 12.899931823896257 0 0 0
496 1 11.335898675239902 30.31364948319757 14.248329741985156 0 0 0
310 1 14.573348015640537 30.201018462557673 11.269435718588012 0 0 0
311 1 17.50161327950894 27.031853466142778 11.259504422843507 0 0 0
500 1 16.006489324090573 28.576935855904647 13.076144128983822 0 0 0
504 1 17.557764598417567 30.234016208378694 14.637101556885431 0 0 0
2425 1 19.121599720411755 31.448076149815048 25.09013184537181 0 0 0
509 1 2.0373399730615143 33.27340610540079 14.56060879744321 0 0 0
319 1 5.3688110323957074 33.6173852461112 11.137366375136379 0 0 0
513 1 6.559670162097396 31.914534478213845 12.869186922200104 0 0 0
327 1 11.183911606893492 33.53832824456076 11.1673465596061 0 0 0
521 1 12.773264364474286 31.856776621085505 12.654409925281458 0 0 0
525 1 14.562919780742229 33.486642627898256 14.127252545178782 0 0 0
335 1 17.601458593602146 33.167149841771646 11.548824509026831 0 0 0
769 1 0.8518278929846245 0.5737728832640525 25.335224693241578 0 0 0
318 1 2.251906191784042 36.7682143887419 11.197884075728789 0 0 0
508 1 3.566873279319571 35.0452189708457 12.825253835039069 0 0 0
326 1 8.486319916999529 36.74728275312394 11.328343209018103 0 0 0
516 1 9.60927044860013 35.007337680983255 12.731588984609576 0 0 0
520 1 11.48937595386251 36.494137668746596 14.42819377179415 0 0 0
334 1 14.833013864357168 36.507653698451946 11.277037962988507 0 0 0
524 1 16.165877960223888 34.9916472624898 12.91616079401623 0 0 0
528 1 17.446275656827616 36.543064892953524 14.597416791017807 0 0 0
505 1 0.6367323036525401 31.66512772384115 12.918044328316599 0 0 0
533 1 2.159171842288557 39.72941152051224 14.457120408480211 0 0 0
343 1 5.210178295839173 39.68554978306346 11.179333206592565 0 0 0
537 1 6.914931051864496 38.26467874522156 13.067533723424596 0 0 0
541 1 8.152503458905038 39.68222696248433 14.578307418306055 0 0 0
351 1 11.788745335169049 39.68331641301243 11.202235320456959 0 0 0
545 1 13.025090596912033 37.962464055808425 12.99767244955419 0 0 0
549 1 14.400487348393217 39.74796047008913 14.532920403183251 0 0 0
359 1 17.823612653250507 39.40364404052024 11.080099780741119 0 0 0
41 1 13.18476316282851 6.6485252538996775 0.38514692536975736 0 0 0
2042 1 18.989227532522282 34.89088571454414 16.330372519168044 0 0 0
532 1 3.7557916664876805 41.33022275841586 13.113122942691291 0 0 0
536 1 5.121673685821737 42.738439517750045 14.626715373712553 0 0 0
350 1 8.335418417964263 42.91592516241586 10.938105022823173 0 0 0
540 1 9.930338924685966 40.880612171049656 12.647925985857839 0 0 0
544 1 10.985099850969531 42.957279857595594 14.307288165897125 0 0 0
358 1 14.285803284773475 42.795238853187755 11.697340970229892 0 0 0
548 1 16.06161467091183 40.96536119125569 12.749888597420988 0 0 0
788 1 15.873126890063753 3.774571904950097 25.086660014951264 0 0 0
557 1 1.9859894347734262 46.09382804834541 14.674681623301074 0 0 0
556 1 3.5108832517309514 47.377661952635194 12.760434208617028 0 0 0
561 1 6.636752659975424 44.49893507287439 12.821883731444574 0 0 0
375 1 11.429210639423216 45.96082845124263 11.244501862196726 0 0 0
569 1 12.635327993897318 44.469734194546376 12.827021467454523 0 0 0
573 1 14.530907598553016 45.8747879134557 14.411949873380266 0 0 0