LAMMPS data file via write_data, version 29 Oct 2020, timestep = 100000

8539 atoms
1 atom types

0.28379279388432366 104.26574849057535 xlo xhi
-0.3703834447701517 50.59728849138771 ylo yhi
-0.3703834447701517 50.59728849138771 zlo zhi

Masses

1 18.015

Atoms # atomic

1665 1 0.3951089569551737 1.5608170806380814 0.596084351322022 0 0 1
2036 1 1.6234375089671753 2.7907861812748074 2.2806820468626468 0 0 1
2037 1 6.141307286542752 1.2573903304891663 0.7747774590724281 0 0 1
2038 1 7.768007591733221 2.7377018097603463 2.315384548772605 0 0 1
2040 1 12.856221178328564 1.7534110211245317 0.9205947495402618 0 0 1
2029 1 11.646722449794348 -0.07086279293930109 2.3856392588705155 0 0 1
2033 1 17.500088149761194 -0.30286209392513963 2.3199264792993914 0 0 1
2290 1 19.30795703758839 1.6262529234528114 1.0534792963430248 0 0 1
2750 1 24.012106916480953 0.02039575665602872 2.3444135481228074 0 0 1
2751 1 25.63063820504543 1.3301418976989132 0.568366087202757 0 0 1
2761 1 27.14602794887517 2.660761679195183 2.293321720438529 0 0 1
2753 1 31.840645410843067 1.7365457519284093 1.1808817276511578 0 0 1
2035 1 3.1613304515696217 4.537385683467841 0.47642617516992225 0 0 1
2045 1 4.479073227120681 5.977704161996743 2.4139377828836244 0 0 1
2039 1 9.533020035872427 4.100267629759697 1.0209586882515134 0 0 1
2046 1 10.993641133016892 5.805651582370094 2.6845943290303103 0 0 1
2041 1 14.697116135018023 2.926565715733859 2.46954406385467 0 0 1
2049 1 15.920508284298917 4.579393968871155 0.8781713221843734 0 0 1
2757 1 20.916711280242712 2.929767265697728 2.3922278018875063 0 0 1
2758 1 22.083457475610544 4.587364605174142 0.7089384981962417 0 0 1
2767 1 23.753168227128793 5.871352787817425 2.4067914013649347 0 0 1
2673 1 29.992329516539122 3.0691426655219485 -0.2723807546795165 0 0 1
2674 1 28.516299022270207 4.683140616344791 0.9571997689671339 0 0 1
2768 1 30.09042292996718 5.940178177725885 2.4380987943752612 0 0 1
2763 1 34.75415957926718 4.607404670616641 0.8844270817445603 0 0 1
2762 1 33.2696602566739 3.3713672473447636 2.639484150156586 0 0 1
2044 1 6.333218748644306 7.229378501963644 1.0446238247059279 0 0 1
2054 1 8.038223129303876 9.070146611848635 2.326930561766963 0 0 1
2048 1 12.333491820924909 7.433226645997842 0.9069910659770246 0 0 1
2050 1 17.54877828167255 6.166314980932105 2.5175522871048917 0 0 1
2056 1 14.21371700644601 8.757442371469946 2.289723411341457 0 0 1
2222 1 19.142106140383085 7.747820242330386 1.055660331794814 0 0 1
2766 1 25.087851630935937 7.18892607353131 0.7851179863680475 0 0 1
2774 1 26.9967598126378 8.383581700433385 2.236837923160765 0 0 1
2770 1 31.401433802613486 7.738991390201692 1.0281793752166637 0 0 1
2052 1 1.3184147692281216 9.28539800811205 2.630143395508866 0 0 1
2051 1 2.881461719576125 10.414114828267667 0.9908424562272169 0 0 1
2060 1 4.520526417497756 12.1178002122467 2.3224228127026745 0 0 1
1948 1 9.536640744358708 10.558746324752741 0.4615575303443369 0 0 1
2057 1 15.736182126727378 10.21004428293543 0.8099879832475128 0 0 1
2772 1 20.71367738372012 9.320481898623688 2.5608914751452154 0 0 1
2064 1 17.607623782751034 11.890402623384155 2.478586775214994 0 0 1
2773 1 22.024498078035982 10.839417626120808 0.8022787694743818 0 0 1
2691 1 26.400789392992774 11.526618271389744 -0.21549256000201114 0 0 1
2775 1 28.5007595439961 10.874419642671851 1.3459187358924112 0 0 1
2779 1 30.253526722706866 12.171013217612312 2.575452614850096 0 0 1
2777 1 34.51188499040692 10.525218295569564 0.6295808645433723 0 0 1
2776 1 33.21742677898749 9.237608752662393 2.720910026181361 0 0 1
2059 1 6.434312453625811 13.660322555248472 0.9655565317176218 0 0 1
2070 1 8.174431149852097 15.474844994198143 2.609173232545816 0 0 1
2062 1 10.840491370105765 12.47236537093354 2.2747582432353877 0 0 1
2063 1 12.928552557443348 13.672533541798977 0.6751825157657239 0 0 1
2071 1 14.236539126025042 15.337864410056426 2.4236903931960057 0 0 1
2106 1 18.831375141121082 13.45552439498214 0.6517767597073367 0 0 1
2782 1 20.27125480190586 15.340962909441851 2.20732479523178 0 0 1
2690 1 24.923780347490414 13.61568506434645 1.1327394970096052 0 0 1
2783 1 26.64148937689111 15.131218118223554 2.6589605888074597 0 0 1
2780 1 31.613516057822444 13.731499594967557 0.882227513220669 0 0 1
2785 1 33.305559495292194 15.262544185252183 2.1514105705086317 0 0 1
2067 1 1.7264176481649813 15.610072664806257 2.3282195073236527 0 0 1
2066 1 3.4167982417927534 17.14664680016397 0.8151322895249296 0 0 1
2076 1 4.901634569934353 18.477314251592325 2.4782425244837207 0 0 1
2069 1 9.600833416923615 16.89214932468045 0.7383770242448753 0 0 1
1971 1 14.306499117749814 18.572964012712177 -0.3511061965433417 0 0 1
2072 1 15.92103565260917 16.917612259406173 1.072226379126085 0 0 1
2081 1 17.779833775277876 18.46957359247787 2.2069287540946356 0 0 1
2781 1 22.271224291504343 16.880928282958877 0.705851169282512 0 0 1
2784 1 28.31596639104043 16.684296887621105 1.0345492102135194 0 0 1
2791 1 30.13685160144196 18.255437153550066 2.3273840740541267 0 0 1
559 1 14.378144560345849 50.591927545538184 25.094624716410156 0 -1 0
2075 1 1.4586934910206009 21.617962565272066 2.091884316510674 0 0 1
2077 1 6.237911172898594 19.942443566256355 0.8270860256019821 0 0 1
2084 1 7.8587817881383355 21.739567088353656 2.3390752484923105 0 0 1
2078 1 11.24359528168166 18.85864013009032 2.2380616654574257 0 0 1
2080 1 12.749147584846373 20.218387306835652 0.6002582605782614 0 0 1
2086 1 14.38695656186946 21.38542946144396 2.1978334362947427 0 0 1
2193 1 19.422686814106786 19.896624066046503 0.5657505417270102 0 0 1
2786 1 20.38102089260068 21.700316835500832 2.385535134630316 0 0 1
2788 1 23.581708188424237 18.8230552981078 2.3845785923096394 0 0 1
2789 1 25.503380496166667 20.36795307528342 0.8555939566826323 0 0 1
2792 1 31.790829185697746 20.120708981210388 0.7470136552348072 0 0 1
2082 1 3.249750786802419 23.310108716773186 0.8154335518019962 0 0 1
2083 1 5.005382387937056 24.924328011010203 2.1645038792080165 0 0 1
2085 1 9.71340969438222 23.22654587726785 0.794913491493644 0 0 1
2092 1 11.29037847390687 24.790683959869302 2.4713037116978382 0 0 1
2087 1 16.08329674592157 22.68265691899335 1.0303808236109364 0 0 1
2088 1 17.51370311629931 24.509590825121368 2.034207443482878 0 0 1
2794 1 22.286237461622694 23.294934078825726 0.8549627879168609 0 0 1
2795 1 23.85722315227163 25.03458573257731 2.4578921454875418 0 0 1
2790 1 27.066209047272284 21.917448207530793 2.480278699616999 0 0 1
2796 1 28.51453814830398 23.46655500191221 0.5828055803027206 0 0 1
2803 1 29.930690821617894 24.991937806717097 2.468022125236218 0 0 1
2797 1 33.26211444332748 21.998788690014948 2.369423861888723 0 0 1
2799 1 34.70018629645791 23.74450138140279 1.0401703791612384 0 0 1
1296 1 31.693850348783275 49.2567669447611 23.638321942716967 0 -1 0
2091 1 6.376087156978754 26.90331284693361 0.7794834010478127 0 0 1
2093 1 7.956244617638422 27.834008561731864 2.6219186308081417 0 0 1
2095 1 12.968862445602788 26.71404208127667 0.6045751767300916 0 0 1
2094 1 14.4284110821148 28.23266479462883 2.170008333005412 0 0 1
2759 1 19.353723275606765 26.425476565408438 0.8755921037442773 0 0 1
2801 1 20.88121517387742 27.854250451552915 2.4858195707528767 0 0 1
2802 1 25.141743749318938 26.950489542457316 0.8682368644561831 0 0 1
2809 1 26.676300509804012 28.052700842335806 2.527936234486858 0 0 1
2805 1 31.70601401423495 26.599988710161732 1.1865913078837014 0 0 1
2806 1 33.21956472719321 28.25282958974985 2.5954209344722514 0 0 1
2097 1 3.352905875649133 29.432098878561202 0.926093960816381 0 0 1
2099 1 5.135236587502632 31.006362956494616 2.3125809859476507 0 0 1
2096 1 9.450406101089714 29.518153177558535 0.908242813865126 0 0 1
2100 1 11.008710265923291 31.222781419760857 2.32169163577482 0 0 1
1993 1 16.207679686460402 29.73314983450077 0.6900656671190621 0 0 1
2716 1 22.40081830099054 29.407074693998815 0.7205948102509017 0 0 1
2808 1 23.878523115989136 31.177163803750226 2.4643420674537415 0 0 1
2810 1 28.608886663572456 29.79632865458681 0.790606690882725 0 0 1
4943 1 34.87493830388181 29.734217310662668 1.101143787608851 0 0 1
1959 1 2.097696293756911 34.5340190423117 2.4429156316138996 0 0 1
1883 1 6.88864670599708 32.51430047537727 1.00324625413942 0 0 1
1934 1 8.410232784880472 34.33966610440886 2.288641809101546 0 0 1
1859 1 12.721817102938717 32.78558923759164 0.7766926010124808 0 0 1
1875 1 14.510559999390486 34.43450927505674 2.5913677304905867 0 0 1
2186 1 19.071695720183232 32.41544834558226 0.8627024416653957 0 0 1
2804 1 20.661637328498653 34.25089872607715 2.1097595599265073 0 0 1
2769 1 25.289289115246245 32.64871214262894 0.9686198978061138 0 0 1
2760 1 26.810432695132526 34.117955259433046 2.7063166552810243 0 0 1
2756 1 31.690612201103946 32.604279890356494 1.1350684378949447 0 0 1
2079 1 3.6895699013118524 36.00440986307649 0.746782257302133 0 0 1
2055 1 5.284811913561869 37.67580932365104 1.9624070497460564 0 0 1
2043 1 9.565856397275425 35.77748297365433 0.4554173665303418 0 0 1
2047 1 11.476346006609624 37.41693834202077 2.215646142216057 0 0 1
1966 1 16.28840375079718 36.07980625680315 1.099064743101462 0 0 1
2523 1 22.175720308660733 35.85143053746165 0.634625339589904 0 0 1
2436 1 23.51155472039009 37.29300663818458 2.5332917147836698 0 0 1
2311 1 28.715111361312168 35.88838881749474 1.234528899334184 0 0 1
2800 1 34.62211387829393 35.60696707565792 0.9339916898671767 0 0 1
1392 1 0.6566544184042363 39.20497857881995 0.6606828712810797 0 0 1
1952 1 2.1302735283084617 40.560058807089575 2.2914461104341344 0 0 1
2012 1 6.8887708718306015 39.63758250904796 1.0193345448420494 0 0 1
2098 1 12.755971784029384 39.3092106020227 0.3667463749846195 0 0 1
2074 1 14.63481109637025 40.691914806479005 1.9943726351408189 0 0 1
2073 1 17.92937294938047 37.86994136018504 2.6699136561204324 0 0 1
2587 1 19.339109477457733 38.909403246966846 0.7617320196093189 0 0 1
2793 1 20.955647412804595 40.48254683157248 2.242532919390348 0 0 1
2812 1 25.257748623777545 38.956418266753985 1.3176537331467757 0 0 1
2727 1 27.102089199564453 40.41590280058736 2.4990714842101776 0 0 1
2632 1 31.734842031474013 39.1585320000879 1.0123562918256224 0 0 1
2687 1 33.070041106857 40.49455334317021 2.758506551515227 0 0 1
2042 1 3.4206957630300137 42.262350929616915 0.7370791353631374 0 0 1
2030 1 4.783258909671979 43.8517535624982 2.4932529821031335 0 0 1
2016 1 7.945962365893013 43.43833133171216 -0.272440912074831 0 0 1
2061 1 10.054410403692643 42.08883487102416 0.892748425046088 0 0 1
1987 1 11.443240838922689 44.06642946165421 2.2102396813249707 0 0 1
2020 1 16.08737055520151 42.36608167801445 0.7929550592647401 0 0 1
2065 1 17.771666009079116 44.02693490898655 2.3157029076623425 0 0 1
2534 1 22.27831606360547 41.9872892390223 0.6272340980451859 0 0 1
2484 1 23.567798976282106 43.385572187623566 2.6158738908362777 0 0 1
2469 1 28.67791190171277 42.1273858722696 0.9498236784913237 0 0 1
2443 1 30.086138753200196 43.778896126265224 2.2339705857385854 0 0 1
2403 1 34.64213793994876 41.9941217943972 0.9421231854289411 0 0 1
2108 1 0.39261488951626367 45.82288214933752 0.13275667742348796 0 0 1
1611 1 1.706792352666905 47.10388611320002 2.1796883849796966 0 0 1
1564 1 6.408118181434336 45.36768124893797 1.1293215658754834 0 0 1
1513 1 8.117642337640255 47.153177061308284 2.6523968346581808 0 0 1
2089 1 12.84406374278906 45.51948616444152 0.6155219416213192 0 0 1
1505 1 14.399714522621327 47.155392944921076 2.0808409212926167 0 0 1
2356 1 19.50560760074907 45.501996451388166 0.6991226605052983 0 0 1
2362 1 20.87070218747638 47.12145137410516 2.4923591641777785 0 0 1
2330 1 25.156487956912322 45.077562998038275 0.884680843808922 0 0 1
2270 1 27.049977928829154 46.77780326435047 2.6067770420610485 0 0 1
2741 1 32.07942855840729 45.388738815277094 0.5329183713624851 0 0 1
2269 1 33.48098407597432 46.67874785181357 2.1332596615418775 0 0 1
1597 1 3.3867595653371323 48.24567728164648 0.703464948736203 0 -1 1
2027 1 4.7824859046583095 50.55119866420419 2.405861151503748 0 -1 1
2028 1 9.774480860958887 49.310046404181435 0.8640455164941392 0 -1 1
2032 1 16.24503329213932 48.249279876788975 0.8308340402651588 0 -1 1
2749 1 22.110005686206204 49.5875326769541 1.1716902787204517 0 -1 1
2305 1 28.870129815973623 48.19565302054929 0.5530868753182704 0 -1 1
2752 1 30.270146790424583 50.48419817673627 2.4169014666984183 0 -1 1
2755 1 34.65022479580138 49.33629609141039 0.7152604786353169 0 -1 1
2000 1 3.1564027524081 1.4710457755243507 3.970380660273788 0 0 0
2126 1 9.462679444524182 1.310517832488346 3.6929255235770286 0 0 0
2131 1 16.264902868178172 1.2767192976978492 3.9461256696256486 0 0 0
748 1 20.442922138520714 -0.07246221060944769 5.939928489487696 0 0 0
2827 1 22.603778857217712 1.4506116856294835 3.7737786199109475 0 0 0
2217 1 28.65614675115937 1.3484491132290632 3.8754659905242708 0 0 0
2669 1 34.67970430673962 0.8590435975435293 3.7745567158479307 0 0 0
83 1 0.32509689703066924 4.50607093765787 4.735894868728883 0 0 0
2128 1 6.023570986586343 4.52583845698619 3.887094125004859 0 0 0
427 1 12.9553819066894 4.468666501032057 4.684789727955798 0 0 0
2818 1 19.213465853618004 4.875318357855061 3.9252963539752104 0 0 0
2824 1 25.618623671276026 4.209247177358801 3.8007863168940785 0 0 0
1368 1 31.4432269277754 4.68852987091739 4.887419565974133 0 0 0
327 1 2.9770197004705574 7.837429861436435 4.777202654330628 0 0 0
2133 1 9.536852537255474 7.430604866648329 3.8169751120748376 0 0 0
95 1 15.808331340893927 7.346756141484143 4.7768606950541725 0 0 0
2367 1 21.87899651487592 7.446849402514049 3.941110797781276 0 0 0
1371 1 28.35451267578933 7.122613394481408 4.991452088815607 0 0 0
764 1 33.42330627592097 6.33595188140724 5.67667127905869 0 0 0
1272 1 23.958168419068176 34.47168644383876 25.070696979172677 0 0 0
1455 1 6.495601640779094 10.765215717768294 3.823080590050867 0 0 0
1461 1 12.72249150854913 10.527556332906016 3.716052400921309 0 0 0
10 1 18.834083728984783 10.342161047336578 5.021256753341568 0 0 0
2778 1 23.283087541693547 12.185257414769575 2.917350755778926 0 0 1
2244 1 25.302122065631544 10.739415300564453 3.733551202626411 0 0 0
1297 1 31.484395531130804 10.525279268039068 5.076527670150656 0 0 0
1973 1 3.4289025554086727 13.990882532056036 3.841683552280365 0 0 0
545 1 9.721868126065914 14.051566458891475 4.938440519991432 0 0 0
1396 1 15.712510445011507 13.653653054360142 3.885007498251854 0 0 0
1366 1 21.585230528832827 13.935265425114203 5.178160130616768 0 0 0
785 1 23.507144808251116 15.312627340671417 5.930749940672227 0 0 0
2830 1 28.654690855456415 13.814031675167824 3.9807674929375825 0 0 0
156 1 0.3116411867459063 17.271552835745343 4.736703694151954 0 0 0
746 1 6.562645845303464 16.93618337682448 4.902169332224147 0 0 0
1754 1 12.93790280202689 17.336127344470192 3.9131326119773577 0 0 0
735 1 18.767499219548164 16.653730202598442 4.705482051237415 0 0 0
2821 1 25.162167967189546 17.262532003996885 3.9465255297780386 0 0 0
2228 1 31.92824883501013 17.069465763339252 3.684556478991393 0 0 0
2127 1 3.5221467013885195 20.166518566852925 3.7234116964006825 0 0 0
1474 1 9.777882030191497 20.47336652514948 3.7727221854686963 0 0 0
1490 1 16.18858305605624 20.104086957018534 3.929493255316604 0 0 0
1360 1 21.483712960653552 20.140875471393926 4.96823728433776 0 0 0
2722 1 28.91166076602524 20.366508263260958 3.791656765581318 0 0 0
555 1 1.685890830421885 -0.19145026290305223 25.10248162474367 0 0 0
1375 1 6.7226011614040875 23.507352235743877 3.9414203221012016 0 0 0
1640 1 12.75234546861658 23.25038250318436 3.912869181942404 0 0 0
2123 1 18.8035750449089 23.052036834489513 3.907943078386608 0 0 0
1370 1 25.410520958673057 23.546249591286333 4.955296580406287 0 0 0
2829 1 31.334889879107017 23.593696388348178 3.807352716680999 0 0 0
2090 1 1.7297612833522975 27.72643967557041 2.8111109561922523 0 0 1
8 1 3.6739157556264557 25.997321349309296 4.885970216209517 0 0 0
79 1 9.711447132245866 26.422721198070086 4.838261980669209 0 0 0
1415 1 15.834044027700093 26.348340153579674 3.8044976430880695 0 0 0
69 1 17.556498103053567 27.93077137747277 5.599647563706927 0 0 0
1357 1 22.1643000987819 26.58304469737829 5.168975558033827 0 0 0
1359 1 28.365198375447946 26.421893989722456 4.879311197020548 0 0 0
1362 1 34.81360460710284 26.894974709938626 4.938362249768862 0 0 0
37 1 6.482649905853301 29.436789035666806 4.713375755324638 0 0 0
1450 1 12.716253053774096 29.881055481550803 3.95997800865747 0 0 0
2058 1 17.772878159375782 30.82329473370435 2.8909487985171385 0 0 1
1369 1 19.529569016350486 29.32080577532747 4.852456775159794 0 0 0
789 1 25.34372296595183 29.814072795568478 4.73719553811802 0 0 0
2811 1 29.656732843438498 31.296360454168124 2.798358650409037 0 0 1
838 1 31.249182323852313 29.37947969707522 4.874047720784118 0 0 0
1772 1 3.4084393742867647 32.550381313753846 3.9625146781181853 0 0 0
12 1 9.900703538863606 32.430896674829754 4.785238689254918 0 0 0
2136 1 15.998981731811325 32.700182659438 3.9059115487215 0 0 0
2207 1 22.002525038117025 32.52916828947646 3.7654406339022017 0 0 0
783 1 28.23664751934982 32.88624376770203 5.445246900458177 0 0 0
2754 1 33.24380712233878 34.310404224222594 2.9287702436812215 0 0 1
2129 1 0.366794359119853 35.815372965439366 3.8421573862701655 0 0 0
1530 1 6.700109141352885 35.747083846626566 3.641052536577887 0 0 0
2031 1 12.909806542708202 36.132095264005045 3.962898651492985 0 0 0
2825 1 19.26260299270132 36.17037935987925 3.872804156843138 0 0 0
1367 1 25.116981218618196 35.65445416901514 4.765610697797645 0 0 0
2787 1 29.87072459844791 37.49946342964191 2.92285189305677 0 0 1
767 1 31.81259675300828 35.829792281002284 5.445575398985893 0 0 0
1698 1 3.4854464389096216 39.10425678012069 3.8513766169277908 0 0 0
1821 1 8.308876824089271 40.76884215811657 2.7710862353243537 0 0 1
2124 1 9.730138203311567 38.957381372694854 3.739460206944817 0 0 0
99 1 11.578086531615144 40.512111484918464 5.937834784983296 0 0 0
1589 1 15.790170697873114 39.353588444115644 3.898526692625242 0 0 0
1372 1 22.248562837412237 39.18549286445159 4.758820710852222 0 0 0
882 1 28.245229001300924 39.00692769880098 5.001053673606076 0 0 0
3031 1 34.867276966321455 38.849536968957764 4.799174964728909 0 0 0
2110 1 0.3152105755910312 42.15980171785951 3.5792339463944614 0 0 0
15 1 6.307129876989398 42.168894662130214 4.718661034780712 0 0 0
105 1 7.826709240289218 43.70516795715139 5.925850431576201 0 0 0
1405 1 12.960623016405362 42.19428012429657 3.6086900499882932 0 0 0
107 1 14.363434300030717 43.88813177236807 5.733161459487058 0 0 0
2820 1 19.40793889332788 42.41886473851339 3.525135342664412 0 0 0
981 1 25.496651452253996 41.97213546495631 4.799823360782091 0 0 0
2561 1 31.263944803731462 42.07146179665921 3.9743552093786008 0 0 0
2111 1 3.09033427598416 45.29708974652257 3.9034443515954464 0 0 0
72 1 9.684561157777978 45.562744140758454 4.720884095203472 0 0 0
2130 1 16.100905522786917 45.51302798926736 3.437608825722104 0 0 0
2765 1 22.44573882125853 45.34135598364318 3.9659057211122795 0 0 0
845 1 24.284856602720225 47.06249498409878 5.9171128239537065 0 0 0
1365 1 28.465542876700766 45.39134847955441 4.758135101428328 0 0 0
1373 1 34.48394093672469 45.14019595132723 4.682922220482279 0 0 0
6288 1 0.6268387657764352 31.013638343883713 3.0915758200942878 0 0 0
6504 1 4.330328951496911 50.58237726369711 5.358062920243369 2 -1 -3
256 1 6.479805627576662 48.112416873048474 4.959289296070347 0 -1 0
2982 1 7.651280196466483 50.23843420036387 3.4091374327009665 3 1 -2
1425 1 13.297316777799999 49.30343124297838 3.80469102750026 0 -1 0
2138 1 18.98919163691727 49.311351194526395 3.772328889788775 0 -1 0
2816 1 25.74012038795599 49.35580555703454 3.928533585618794 0 -1 0
1364 1 31.942094195075352 48.359369156945334 4.715780484754709 0 -1 0
1 1 1.4980277512856417 -0.048873518882761535 6.613993696147207 0 0 0
3 1 6.074382392205671 1.4285796915016673 7.9729883180220416 0 0 0
7 1 12.917168098406144 1.378539779270993 7.689518425117981 0 0 0
124 1 11.084122352523114 -0.2565047552512948 9.024785168952269 0 0 0
6 1 14.344974657654785 -0.09549701230141472 6.2531316445181995 0 0 0
803 1 19.02785774227497 1.6352714986086991 7.548903673575096 0 0 0
750 1 25.689249635667807 1.0533961860658778 7.690545011346446 0 0 0
752 1 27.26834188310277 50.59076264435498 6.2399214970280825 0 -1 0
754 1 31.863820756402603 1.1363293474927483 7.695383438234769 0 0 0
860 1 33.31985307125863 2.456842268485815 9.084408208128997 0 0 0
9 1 3.2553705609989714 4.980587176326112 7.77449711387591 0 0 0
11 1 4.664601234406847 2.9577097812433246 6.26018603623425 0 0 0
21 1 8.382752364470816 5.601311859526402 6.241515219140839 0 0 0
14 1 10.1263533357159 4.078234163588608 7.917023548683536 0 0 0
13 1 11.329966442975241 2.8381415119514215 6.02320372885415 0 0 0
16 1 17.391678386700445 3.2020740572714086 6.09124790896988 0 0 0
22 1 14.268709108011471 5.902988509745973 6.511891251059891 0 0 0
17 1 15.927309374537787 4.428441007069694 8.007509165567173 0 0 0
756 1 23.856148353870847 3.087082880947351 6.374415695274784 0 0 0
755 1 22.145022228008727 4.650375898648818 7.911302618266051 0 0 0
763 1 26.823480021404762 5.372963459165139 6.671380082170487 0 0 0
757 1 30.127842007441572 3.0208614606220436 6.184311105962257 0 0 0
758 1 28.826016326311432 4.338105821802078 8.135998657235646 0 0 0
760 1 34.78559504454978 4.19476993680008 7.316607534452516 0 0 0
18 1 1.5726005645889172 6.610815983768098 6.413892405452701 0 0 0
20 1 6.484480420341999 7.626043485953073 7.369726063767627 0 0 0
28 1 11.240519119128642 9.090835692323129 6.049536912457969 0 0 0
23 1 12.697473950912615 7.736782693595462 7.755462321143648 0 0 0
30 1 17.258512045896325 9.128261205454498 6.351261363655776 0 0 0
761 1 20.494811575921464 6.120865470512978 6.398435806565953 0 0 0
700 1 18.901406729609253 8.005427813786854 8.144563846826841 0 0 0
769 1 23.861027256397787 9.15985133787369 6.0039062419023015 0 0 0
762 1 25.462562306076222 7.420204668025663 7.599507006535765 0 0 0
771 1 29.59250316170753 8.763731670318755 6.1783346826734755 0 0 0
765 1 31.735018271198374 7.730492319649585 7.302768944225554 0 0 0
26 1 3.572796611862475 11.003249324707989 7.774769105058613 0 0 0
27 1 4.684188239452512 9.460887695374725 5.957987060852846 0 0 0
140 1 7.741287207651875 9.191183625085303 9.009169717693895 0 0 0
34 1 8.272645503250484 12.189155763487824 6.455440829984839 0 0 0
29 1 9.712914946406515 10.108643526338334 7.966345744210786 0 0 0
35 1 13.947042470899223 12.275305380296643 6.127695077053577 0 0 0
31 1 15.684049360044058 10.485447119284098 7.722201545300509 0 0 0
776 1 20.268408204316973 12.114418136447984 6.501772909345681 0 0 0
768 1 22.22405660801912 10.839052244496171 7.669839273416297 0 0 0
873 1 23.622284295053927 12.353049259206365 8.924089861629401 0 0 0
779 1 26.793398963315337 12.193382667700515 6.091195903622027 0 0 0
770 1 28.30873009784705 10.55764357149251 7.938934751564277 0 0 0
875 1 29.91738515461316 12.144417365533046 9.125616988216931 0 0 0
781 1 33.482385955523156 12.351314493199643 6.320351045866841 0 0 0
773 1 34.82280043829955 10.662388405658467 7.814126810825192 0 0 0
32 1 1.8383587243481372 12.566984156303288 6.163042343316566 0 0 0
582 1 17.675466991095348 9.03418699854666 25.0708522300259 0 0 0
39 1 4.910229777805779 15.339556970818148 6.546536206092247 0 0 0
33 1 6.979203324473283 13.941386396895052 7.940809014056898 0 0 0
36 1 12.731981329876774 14.146723666137522 7.48087437822988 0 0 0
44 1 17.334536661722947 15.025386181655392 6.2797746398603875 0 0 0
706 1 18.532140026682143 13.608588250997807 7.87530761730978 0 0 0
778 1 25.44351927101049 14.190824559687584 7.508788704338538 0 0 0
879 1 26.95942959363793 15.40842569111328 9.093339809666608 0 0 0
782 1 31.60111916604618 13.927325470248265 7.575752653323361 0 0 0
38 1 3.345744501062671 17.344868461700607 7.689769484994205 0 0 0
158 1 5.2922584786247215 18.43042505929089 8.96526744373655 0 0 0
41 1 10.032762491149857 17.20945161683131 7.998504983820457 0 0 0
40 1 11.277331996979374 16.046673824590826 6.2600457122785995 0 0 0
52 1 14.624178297216885 18.705826006426694 6.105102779740353 0 0 0
45 1 16.050715884507234 17.003183220858066 8.006701194113536 0 0 0
790 1 20.379856012224224 18.343767693113627 6.431143107280043 0 0 0
784 1 22.04432077228997 16.91852346170756 7.745411449721798 0 0 0
786 1 30.09392842461389 15.631714381205018 6.124140675371121 0 0 0
787 1 28.420337956610567 17.399546053340867 7.623476131767034 0 0 0
886 1 29.80265803881513 18.685501998818435 9.068813994997083 0 0 0
794 1 33.058512982914 18.68867065219313 6.236355909240419 0 0 0
788 1 34.752551717643804 16.898918627238974 7.662828805333909 0 0 0
46 1 1.8375540626157507 18.888215412792505 6.247383908658354 0 0 0
164 1 1.9217206348968254 21.371999720850685 9.097768671681811 0 0 0
48 1 6.341511498067661 20.41304923815755 7.580131694199245 0 0 0
50 1 8.46484483575076 18.9048632903217 6.174429620499776 0 0 0
51 1 11.162091094701665 21.738727132890908 6.237058160798474 0 0 0
53 1 12.776755726060163 20.174471157921502 7.732518996854676 0 0 0
61 1 17.249151414535692 21.781061578933304 6.692432172074207 0 0 0
554 1 18.979799450315905 20.156261789326567 7.990477580872028 0 0 0
798 1 23.182142959191264 21.752321862777045 6.468561791027564 0 0 0
792 1 26.771755796945445 18.8017181525716 6.016409748303887 0 0 0
791 1 24.907601503564084 20.04901941737269 7.93263533497227 0 0 0
799 1 29.853620356274256 21.901951008122815 6.28846768683505 0 0 0
795 1 31.32305430995172 20.10169416552753 7.579143039285361 0 0 0
56 1 1.6899299288960625 24.647584999297855 6.530873934562761 0 0 0
55 1 3.4873997888699635 23.280164601824193 7.805521336017918 0 0 0
49 1 4.908521868338934 22.02493313235445 6.012355353206496 0 0 0
59 1 8.405613020766213 24.70979005134449 6.287792131800485 0 0 0
58 1 9.762801754330917 23.296456768617304 8.152499410348995 0 0 0
67 1 14.337175537963326 24.841947725801717 6.113727597950014 0 0 0
62 1 15.530847397004592 23.45638097004465 8.130224925470845 0 0 0
805 1 20.5526259339797 24.66367080540242 6.182243864396613 0 0 0
797 1 22.160731773183855 23.55323602227266 8.266582267174682 0 0 0
808 1 26.803261501465382 25.101951013068557 6.485837459871017 0 0 0
800 1 28.36959756100367 23.376195302810775 8.257829831858679 0 0 0
802 1 34.50591663446256 23.251143393278525 8.010787034327294 0 0 0
42 1 0.3590480793033669 26.56314104700056 7.835894004936968 0 0 0
65 1 5.024904689772072 27.648608879962314 6.270583842853846 0 0 0
172 1 6.646000086271227 26.3123026302063 7.942187978742279 0 0 0
75 1 11.49607134376116 27.900952909540923 6.186397701702304 0 0 0
68 1 13.010746119242699 26.578838760323126 7.717743697827146 0 0 0
737 1 18.94518950564743 26.4547935098051 7.313095971822909 0 0 0
896 1 20.646440743680014 27.457172689236998 9.056668137901505 0 0 0
807 1 23.84665392421761 28.242558855588083 6.4180283708042865 0 0 0
806 1 25.247622196455012 26.802486774000535 8.049475464451689 0 0 0
809 1 29.896393972018 27.899038303600264 6.670849839783284 0 0 0
801 1 33.29543974164776 25.218475619624186 6.704275383793729 0 0 0
810 1 31.60897909557499 26.343005222274076 8.27995343218059 0 0 0
70 1 1.6770944627297453 31.22078383153123 6.180734415038316 0 0 0
71 1 3.483050323495728 29.57948453792285 7.6806421237019205 0 0 0
180 1 5.185970145573559 31.219916380185218 8.858143187116516 0 0 0
73 1 8.227807642310454 30.78465545058405 6.031593210505358 0 0 0
74 1 9.989548540062735 29.49631685769137 7.780861275924371 0 0 0
76 1 14.462496588409161 31.293090467219233 6.497850301960123 0 0 0
78 1 16.02474026729135 29.419844369796465 7.627676256780629 0 0 0
812 1 20.441483368404793 31.050645350964224 6.679811361067855 0 0 0
811 1 22.368243543443278 29.519646496974573 8.214367110079449 0 0 0
814 1 26.804831201768753 31.13246340859586 6.496233500995882 0 0 0
815 1 28.329690656442818 29.82166084467901 7.891456483784522 0 0 0
822 1 32.87376175781087 31.2093246573965 6.469807655941729 0 0 0
816 1 34.70259746743505 29.875769407042114 8.029662113733243 0 0 0
81 1 5.13605678814051 34.28317331305399 6.124942887667958 0 0 0
82 1 6.741478031085006 32.53002741801711 7.510169167906085 0 0 0
84 1 11.438433339618461 34.510829115045794 6.2246218882636155 0 0 0
85 1 12.869281258711686 32.74966632642867 7.924179039572749 0 0 0
86 1 17.42190243536015 34.37277389715658 6.008629818757117 0 0 0
743 1 18.95738057291906 33.00637667881557 7.960888149136958 0 0 0
818 1 23.707054610449568 33.92262932179253 6.103861318593722 0 0 0
819 1 25.26495463747847 32.50681799458894 8.241458581213035 0 0 0
821 1 30.03006335634667 34.39878500027196 6.848206555706913 0 0 0
823 1 31.592381352031165 32.469484900347666 8.505029425081593 0 0 0
87 1 2.0214917629886395 37.55919367071206 6.171233265861526 0 0 0
88 1 3.7109474795110335 35.99557164770819 7.614425471068957 0 0 0
90 1 8.227617342928786 37.24961454455462 5.985157758321837 0 0 0
91 1 9.689796536771011 35.78394188135886 7.775942117368841 0 0 0
93 1 14.530887072296071 37.55977776702093 6.095921663723647 0 0 0
94 1 16.062583717078553 35.77025593028392 7.792661848849049 0 0 0
824 1 20.6674153611483 37.71877018331786 6.480952232438082 0 0 0
195 1 17.641306467374495 37.51871699793672 9.011053714482154 0 0 0
825 1 22.148933077796517 35.61901866773027 7.3892791897887635 0 0 0
826 1 26.84427029080751 37.06734145370571 6.648240639467075 0 0 0
827 1 28.732419014869933 36.355647513063516 8.237232783802463 0 0 0
828 1 33.633846870174914 37.32849717486681 6.6080758420346815 0 0 0
342 1 0.5667010762929092 38.91510236227589 8.183864745862575 0 0 0
97 1 4.890775229121421 40.53066224573182 6.196185646871254 0 0 0
98 1 6.660686186421635 39.16297553369395 7.688640702958947 0 0 0
100 1 12.974153371994454 39.07995224641546 7.743228904872618 0 0 0
102 1 17.469250544974596 40.83433052355788 6.215437968751292 0 0 0
774 1 19.180246801740317 39.39474203417835 7.85104852682775 0 0 0
832 1 23.81331273854069 40.770251664756756 6.281366350041927 0 0 0
919 1 25.36018579093751 38.87647155337085 8.213511116046336 0 0 0