LAMMPS data file via write_data, version 29 Oct 2020, timestep = 200000

4608 atoms
1 atom types

-0.1948458053520099 53.59484580535018 xlo xhi
0.08099271238585004 50.826127287614156 ylo yhi
0.08099271238585004 50.826127287614156 zlo zhi

Masses

1 18.015

Atoms # atomic

1088 1 8.004763029132121 6.866691843456004 1.45975759049481 0 0 0
1334 1 7.289455070662028 1.5361947908529465 1.657842809797332 0 0 1
1114 1 10.304970414372152 3.4481591569061756 1.3973889647270676 0 0 0
732 1 6.184669317304748 48.10038366595546 2.711257977582303 0 -2 0
1777 1 14.81317969843582 41.673261325721455 23.183903169916523 0 -2 0
4392 1 1.3364712487109767 3.8702769940261375 23.40599734959732 1 0 0
4447 1 10.814856945499303 26.114689330607803 0.9472830148749527 1 1 -1
4114 1 14.135054298610584 5.84321848622697 1.347036008018948 0 0 0
3397 1 2.6277539617024335 3.6329341206103436 2.8183834694835266 2 -1 1
2899 1 0.23574544928068558 22.775229769584126 22.197539405074288 0 0 0
3180 1 5.137731277989032 4.67261598209786 0.3401558747953253 1 1 0
2389 1 0.8191250008791364 4.416257335439277 17.84046882476123 1 0 0
3354 1 10.416523887464317 6.4671620684478315 4.3265272482188495 0 1 1
3105 1 10.315837431119384 25.374735961634954 3.2252255108941714 0 0 0
782 1 2.3624682463693443 40.59455985272693 2.9622974621958384 0 0 0
4166 1 3.2716901410117316 4.942001109557462 19.497006692558305 1 1 -1
478 1 14.082545270138288 3.203491759867237 20.750340587281766 0 0 0
2460 1 14.405426807156152 41.09103835133417 2.7577008940452923 0 1 1
1812 1 3.3109875486237916 33.16738485888288 0.16023187488821933 1 -1 1
1175 1 0.2707318457591786 30.565283888575873 3.1267393617982386 0 0 0
3837 1 0.0899994554489143 5.513773127432788 6.43236444573034 1 -1 1
2381 1 16.32006214259518 37.18477242233215 0.5668709691713558 0 0 0
623 1 1.9479428086912507 12.015595236852816 3.24063114131226 1 1 -1
134 1 7.402279864143992 16.706804076878722 0.8533764630617052 0 0 0
2440 1 0.8704972717637751 28.816256738447823 10.989923264865245 2 1 1
351 1 2.521482589586874 3.011088498893259 11.623703108863335 -1 0 1
179 1 6.601101371258003 9.22685568752934 0.3337004699586352 1 1 1
3484 1 0.6465978420518248 16.050743650140266 1.2610164885804898 1 1 0
1188 1 3.339116599216507 14.653606961064197 1.3112453098679073 1 1 1
2766 1 7.37948043213698 18.549894840401166 3.1578411832594284 0 1 1
356 1 17.630621373115673 21.788269929311923 24.943214644106224 0 0 0
1990 1 16.000627990724485 4.476829952925502 10.723860460163861 1 0 0
3766 1 2.484009560022492 18.437357593321245 2.0328084533559663 1 1 1
4179 1 3.076090211697886 22.800001651190467 3.1891504221118354 0 0 1
4348 1 7.8390825487929074 37.72670327358835 0.6522867056912062 0 0 1
2485 1 5.630957424127176 2.538666072898023 23.343109888245497 0 0 1
429 1 8.136216596357798 20.033051839739517 24.438836569064712 1 2 0
2761 1 9.027592147524475 22.81857942443493 2.2617887907962966 0 0 1
2876 1 4.687209006492694 23.739715111148538 1.047531245722967 0 -2 0
2936 1 5.042694590423929 21.133776131288325 4.121367510398663 2 0 2
1401 1 16.761051832983753 9.832241871684095 24.10342785714998 0 -1 0
2026 1 2.908740464722086 6.012831243984535 11.67936973884373 -1 1 -1
2832 1 1.11515284045778 21.010925988103285 2.2400402946313043 1 0 2
4051 1 5.617134130387579 26.129365424147657 1.722044984276311 1 0 1
3355 1 1.7492220914735723 35.305876198731205 2.84486881393315 0 0 0
4224 1 1.2542751599820214 26.91908174221057 5.1056455226198345 1 0 2
956 1 5.77035121686771 46.27208215156036 0.7101375701406543 0 0 2
2084 1 3.407732587100359 42.01046967221903 21.769972358430316 1 -1 0
4140 1 3.8397811519268377 27.616898897512833 1.2441290548505566 1 -1 1
2331 1 7.132922637435664 22.509242168964356 0.36380498764501906 1 0 1
2792 1 5.912136418265343 30.1905495922072 4.19881299866871 0 0 1
552 1 16.7490650999445 21.79217868011473 0.5968886506505555 0 0 0
789 1 9.481230605874739 35.62467436187408 2.684758750320216 0 1 0
2301 1 0.1337881064679634 26.553064043251613 22.591464313981238 0 -1 -2
32 1 10.74524882284246 21.809990388504822 0.30220668113171745 -1 -1 0
1406 1 0.5861662126899003 7.095167558265522 10.485285485697032 1 0 0
201 1 0.3667432334590237 2.887663283873216 1.3498488389694503 0 -1 0
261 1 14.823510549711628 25.531780002485416 1.5356692572463992 0 0 0
3505 1 7.279938000249027 34.44931114806485 2.0570698739992865 1 0 -2
571 1 14.407323485640152 11.337984012940147 23.838205968400242 0 1 1
613 1 0.7503300849884639 0.14968524815899342 9.525782123580719 1 0 -1
1716 1 -0.14438565278238968 31.6716640968251 17.974158220183178 -1 -1 -1
3989 1 3.9252103636826217 33.407032842980016 3.123597960698839 1 -1 2
1825 1 10.808280088078106 39.91006702172715 1.4159968331198731 2 0 -1
2390 1 7.404753738699944 47.572656878725184 21.96463184840475 0 -1 0
2014 1 14.136081693007949 34.97874077898251 3.2299414661849823 -1 -1 0
3198 1 16.755326735261267 2.18811495130963 24.567757129553957 1 1 0
2536 1 1.0297065373288738 43.01702545186769 1.5904430593938848 0 0 -1
4205 1 1.8931202608227649 8.232165900190143 15.952707709643327 1 0 1
2986 1 0.8165413562340549 36.73354575225263 18.11081814489089 1 -2 2
2284 1 15.095846727659836 35.80236183871956 5.450200156151002 0 0 0
1671 1 5.797287907542058 8.88306399747309 24.224102386137698 0 1 -1
2028 1 4.601746797350413 38.56155143993209 3.4615426658316166 -1 -1 1
2224 1 0.8846569865606515 41.694706096525486 22.928773111024427 1 -1 1
2466 1 3.5911850048943323 43.325162391096924 3.636682691456943 1 -1 1
1681 1 12.520871795345705 41.69650767612215 4.70883212566048 0 0 1
1984 1 -0.07020990802761418 9.113098089137422 7.486003289186041 0 0 0
2130 1 9.352292220121539 38.30111732900494 3.071354175118157 0 -1 0
1572 1 17.099681317890873 18.855893106447255 17.02933712281213 1 1 -1
1450 1 17.04248208923714 4.874434017924212 14.149373934554008 0 1 1
4499 1 6.341358519756158 43.83933808965928 3.907116901261758 1 -1 0
536 1 3.1403951776673775 28.571951120884012 3.777307501901228 2 -1 0
2087 1 0.09371720904385228 33.36925624618596 4.655935154061195 0 -1 1
1643 1 9.213487991498853 45.93775808773357 1.9572363068743517 0 -1 1
2486 1 4.8988927854475195 41.99156760801026 1.2754719071245453 1 0 2
143 1 1.659540090915384 48.85496484135704 2.1060825555539853 0 -1 1
28 1 3.1191383559597092 44.700143156980396 0.7270940569196648 0 0 1
61 1 4.066244091750852 46.27937551446282 5.7142007140126445 -1 0 1
1927 1 16.468220947603683 15.5429398676815 1.1429316619756942 0 0 0
4074 1 11.899657498585388 46.052638551974184 1.156158120625613 -1 -2 0
837 1 12.975776681849636 44.6645134578756 22.03101129381558 0 0 0
913 1 2.422096623187563 1.878823361090895 4.576208422070719 0 2 0
1178 1 4.551396738224865 2.33452469367107 1.6286248201598406 1 0 1
3245 1 3.18542452849682 50.16002263656212 4.010559551661396 1 0 0
2633 1 8.939455683359228 50.35100017380792 3.1708964790877268 0 -1 1
2985 1 10.667394696647252 1.1860908801808234 4.934938639231163 1 1 0
1798 1 2.227553833751299 5.8693084442566335 4.034271660932644 1 1 0
2742 1 4.5186366323916936 4.7419144108227185 6.062072370090764 -1 0 0
4247 1 7.787824350495777 4.296106435318506 2.924748169661374 0 0 1
4551 1 14.232974551195165 3.3768204420164047 4.42680836125359 0 2 1
918 1 15.173213076457463 30.02309615933645 8.749812288164525 -1 0 2
2079 1 2.249991352106037 8.658945103039509 3.6302675745600492 0 1 1
3426 1 5.213913825217777 5.995520706140527 2.769180579024226 1 0 0
1470 1 6.907990284725956 7.804099074217237 4.179556450661722 0 1 2
1738 1 8.811148993872845 7.208723766254823 6.496924458607071 0 1 0
3456 1 10.436944202245062 10.982757173697575 2.0032132313106006 1 0 0
2347 1 8.085152054116822 36.05710519950691 22.870402416154036 0 -1 2
1443 1 14.837781270237853 8.460447217594524 4.258802851043704 -1 1 0
3434 1 11.635548265695205 9.056913637917315 4.102274746025853 0 2 0
1634 1 3.3617430508378026 1.5626890703186609 25.053048455084838 1 -1 -1
1556 1 3.9150808374316766 11.188865212139588 5.736554962889979 0 1 0
466 1 5.5014404459184085 9.051034500682261 6.24085374200946 0 0 0
3728 1 4.662337866322261 9.530991830939355 2.72408587366966 0 0 -1
3307 1 8.672732707234614 10.882479229801953 4.088993672355513 1 0 1
2353 1 13.692491618465079 11.942661886062874 0.8619809956766391 1 1 0
4579 1 15.463800089534283 34.2489928235353 0.7226088199156281 1 0 1
4037 1 5.953669019232215 13.652533418455468 4.97696706275509 0 0 1
2302 1 11.722881856059955 13.29421166205788 2.736354545441716 0 0 1
2538 1 6.67243380995985 12.36705103996205 2.7108110185634944 0 0 0
4587 1 12.941009840493528 12.356863811351161 4.944080862874418 1 1 0
2885 1 11.61052355791021 16.182954675221822 4.6681412045105395 1 0 0
2820 1 3.6512618047348084 15.323964535178161 4.123538225197581 0 2 1
3098 1 7.574258387245959 15.874420827839936 5.004740679776826 1 -1 0
2406 1 8.191773838607807 14.664133043426057 2.4004674843276472 0 1 0
3586 1 0.731267495963865 10.912682246733171 0.6242321575064191 0 0 0
3329 1 11.177466363359024 15.807068584812587 1.5499885915951164 1 -1 0
806 1 4.417976678174868 12.283452062167665 1.1310204425785848 1 0 0
619 1 15.97174893647123 36.490607991954036 16.837449266824947 1 0 -1
4512 1 7.702025201709602 2.283019947364832 25.421959936534797 0 -1 1
2279 1 1.9872658935754108 18.012863370566755 9.927353501140734 1 -1 0
1258 1 3.2363803355571115 18.96049840656191 4.5871552849286905 -1 0 0
3850 1 9.221538228020549 20.755761325073365 3.9222817682446793 1 0 1
764 1 13.34068763364958 17.671965782236693 2.0515849887182487 0 0 0
1028 1 17.37125347505194 19.424538543206946 24.37081581658306 1 0 0
64 1 2.9805815049285056 38.023161026966214 22.84236720523651 1 0 -1
3347 1 0.3852724250348014 30.61486980558363 24.412303729872857 2 0 0
313 1 1.5739118778733834 20.898652027663044 5.85591640007687 0 1 1
2864 1 7.137844509448264 23.97585670343907 6.043760377135803 -1 0 0
2526 1 9.351295037831882 24.23930227789501 7.600577726532953 0 0 1
3114 1 7.381314246057466 21.48630738614431 5.546009908660648 0 0 0
3977 1 12.279598682757582 24.2870132889681 4.468257528285423 0 -1 0
1998 1 13.297736164652736 21.958003613147266 3.3806139601147662 1 0 0
2119 1 -0.09214095314651963 48.02388268579505 17.66355701083227 -1 -1 0
4568 1 7.421947140272487 25.466032921943476 3.885978713924894 0 1 1
3411 1 4.34595767101411 28.928925922364517 8.18563850544273 1 0 0
1472 1 8.742915827214606 30.584925532742158 5.809154723934589 0 1 2
2592 1 10.252141054951839 31.53068727073696 3.625089325671636 0 -1 0
2077 1 17.18137936459961 28.99398211920209 23.40765747388134 1 1 0
1396 1 0.1679760476289513 36.67630801144238 10.547777074294686 0 0 1
1994 1 2.7901681246682437 31.41810557772176 4.355959697302051 1 0 0
1121 1 7.88130890576139 32.83978198731761 7.05963414811255 -1 1 1
550 1 12.318357750863012 29.840165864572214 2.3463818558015337 -1 -1 0
3325 1 12.021984982640546 27.899041439528446 4.056607017096189 1 0 1
4343 1 16.081370743320107 29.008136434320956 4.710578632365716 0 1 2
3087 1 15.844732805797623 1.6457191694465072 20.205024789633605 1 1 -1
1379 1 4.803889720101572 34.510903630239056 6.0732447109999255 0 0 2
3873 1 3.5390236440706038 36.95391393007281 1.3094991751731397 0 -1 1
4446 1 12.174026346627503 31.3483550726359 5.942677565177969 0 0 0
2718 1 15.205459901754741 30.738571030638187 2.532055751196719 0 -2 -1
1127 1 11.60990273033299 33.55289766118926 2.379887469247325 0 0 0
2473 1 4.206755660324214 35.46505937685347 10.104501324755768 -1 -1 1
2591 1 2.048061885301246 35.82549153978985 6.401740139470531 0 0 1
562 1 10.195572119112501 42.42502639507858 2.516317196766664 0 0 -1
2619 1 9.51471527293079 34.80377047221034 5.450575849134969 -1 0 0
277 1 13.616853024549956 35.59244081974062 7.892775526266386 1 0 0
3008 1 14.039431697188055 32.578834996362055 4.508033942798179 0 0 -1
4102 1 7.025909420055132 39.36115606869865 3.959713547561631 1 -2 1
3450 1 8.582988163779305 17.18517819597226 23.610695590061358 1 0 1
2378 1 10.916031690704228 38.43573437196185 6.202158158165906 0 -1 0
3998 1 16.787920328192175 33.16060006433 5.611680731081306 0 0 0
3653 1 6.851338034567437 38.1755742027021 24.293905382742118 -1 0 0
4372 1 11.18457141037403 43.04440268825761 24.917382854878365 0 -1 1
3480 1 8.301040917492577 36.84545183091156 6.929704024110651 1 -1 0
4443 1 13.07229045529359 37.98040184859269 4.512925955925228 0 0 1
1211 1 12.719946610911034 44.32149461950845 5.52334690747807 0 -2 1
4326 1 14.673716418822908 39.76159128816105 6.532087118358327 0 -1 1
3189 1 0.5962862118591488 42.68348196210055 9.740236434932234 1 0 -1
1299 1 0.681535640024737 45.653518511950885 4.777328871108287 1 0 0
1295 1 -0.03307730765620698 25.8150280280508 3.0085823828483766 0 0 1
1849 1 6.732445575866413 46.228235255611466 5.038372674740212 1 -1 0
1956 1 10.901792652565303 44.189090629553 7.913057971428457 1 0 1
3326 1 14.12775829987982 44.10011578759925 2.329557389650528 1 0 0
1628 1 12.895329891353187 47.4841067100112 24.66040444259239 -1 0 0
3263 1 16.546540484329007 41.82411163134769 19.969066083746938 1 0 0
2571 1 12.337950812849884 24.849565222610572 13.980462124661601 0 1 1
274 1 2.84650759764101 23.78368051765081 23.590270260044093 0 0 0
615 1 3.225474314563726 46.41184826017058 2.9816503169306303 -1 0 0
2368 1 12.819595905469786 50.53864431334762 1.1311698032464492 0 0 1
4416 1 16.128937928812608 49.9537287372162 8.328876792988796 0 1 1
305 1 0.6850445942480139 2.5931003686591674 7.408316528226855 1 0 -1
1937 1 0.30606290463306507 48.60387731057957 7.278101366920664 1 0 0
704 1 5.733078304868728 50.681595911411996 4.036399659510556 1 -1 0
309 1 9.374642778403066 48.185754002393836 7.102651913671649 -1 0 0
2594 1 13.556815376782534 4.007548448392237 9.524805907903902 0 0 1
3793 1 11.804636904224619 49.24449235588462 5.907645641217148 0 -1 -1
2981 1 12.99087785256556 22.04409565840657 11.360000341780504 0 0 0
1213 1 2.7397039568434667 6.212703952395537 8.455674944033287 -1 0 2
3410 1 7.8858734566631306 41.47705220911291 24.12445524145544 2 0 0
3220 1 3.832240459901943 2.2445135463157215 7.336325263522093 1 0 0
1936 1 6.521962859494495 1.0586141141909775 6.249461910470764 2 0 0
1483 1 7.516345810035035 3.7756508618703277 5.772491759287449 -1 0 2
2909 1 12.499650795975217 5.4383675680460115 5.5811459412839355 0 0 0
3608 1 14.55811916284375 6.312065595508085 7.2718946904866755 0 0 -1
1658 1 15.842784405084632 31.73751575438302 16.93124562437276 0 -2 0
723 1 11.95826061681214 34.54741068503081 23.22907630894015 0 -1 -1
1457 1 7.220947243358731 5.412435275230744 8.132764651349289 0 0 0
283 1 8.739413703527394 5.715504874499988 10.25491102615915 0 1 0
4277 1 11.32905534302708 10.109604672971052 6.835207419912533 1 1 0
1833 1 0.09883189094011868 24.665891510426498 20.27030756722349 0 1 0
722 1 8.297875860462467 9.88158920599316 7.185885697135433 1 0 0
2053 1 14.178574161496083 12.07211460716293 8.745280503368065 1 0 1
2691 1 15.989233546210674 17.67411538741395 2.9376646365181998 0 0 0
3796 1 8.045085516153003 13.159138995534244 6.831543622037974 2 0 0
4493 1 14.864554036640056 11.03084131765853 3.321438231234056 0 0 0
3631 1 9.76943344891676 15.5878610824635 6.3499507867476765 2 -1 -1
2199 1 11.444665888068172 18.95554401722825 5.409292994604057 1 0 1
2841 1 9.1257300863379 15.21182485014366 10.498057097717655 1 0 0
4207 1 16.19437274119373 13.090002753568475 6.644188869074006 0 -1 1
3375 1 13.63772548065905 15.090543532544887 6.505502112640972 0 0 0
1408 1 5.172580991820291 27.52372544860198 5.768140288281364 -1 0 1
2646 1 1.4726315403323633 14.209391519434048 5.606622562981817 2 1 0
1158 1 8.346041256169975 17.40554401878239 8.11179726986737 0 1 1
1562 1 14.264282511765057 19.110696009862874 6.1560675324672705 1 0 -1
4093 1 11.654408490451306 19.868179660003722 3.009696280888792 1 1 2
2950 1 13.41929277893476 18.429604828739606 10.085293111504125 0 0 1
554 1 15.235666637670429 39.083748727667455 22.59267504423847 1 0 -1
4414 1 13.935265273318958 1.478793860025335 8.300811915572345 1 1 1
694 1 4.777022095051278 19.56919124349747 9.620302090614576 0 -1 1
2830 1 1.4850823909810928 21.868929724120463 12.637521667942314 0 1 0
793 1 6.704010577829576 19.723371306934652 7.53654659034416 0 1 1
2937 1 10.833289112784046 20.11324912449062 7.850857573014457 0 1 1
2499 1 16.878194469401755 40.4376054031268 4.801157288220581 1 -1 0
2756 1 12.61849347549639 22.02589583980082 8.58771273356619 0 1 0
2309 1 4.599551194134379 25.223034539260542 6.712002904330776 0 0 0
3006 1 5.728229444718046 22.268649695260823 9.7341253413327 -1 0 1
766 1 10.232409922897544 26.904266325711426 10.424970624380853 0 1 1
3025 1 7.534301334822726 32.25410289015586 0.30740039805871355 0 0 1
2117 1 16.72736860727135 19.649912300570662 21.99909488070089 1 1 0
3562 1 16.215464317772767 22.832991616538568 6.8480805556029045 -1 0 1
2812 1 14.19851555449428 28.296282667164895 22.43008790934369 0 -1 1
1098 1 6.061915653819289 26.721707724075042 9.2625842769689 0 0 0
4007 1 12.13783669145543 24.25852225692547 7.2676890513157275 0 0 1
3084 1 5.791060242465325 47.24483086831721 24.08163266340111 0 0 1
116 1 10.843211094015022 37.88261299220904 25.163107015215836 0 0 -1
3502 1 1.1963075063736603 31.113609206166842 8.398875440548677 2 1 0
2169 1 11.58498512271846 0.8984170149941421 25.020911413612385 0 1 -2
4241 1 9.265757495559413 30.67372516045013 8.882415191412736 1 1 1
812 1 8.611651392129946 26.850864683234416 8.333187515161864 0 0 0
1397 1 11.507342595406124 28.765129032871286 6.646387479251618 0 -1 1
296 1 14.218699256701873 26.120443271730746 4.3375133978711515 1 0 1
786 1 13.699493911760024 26.234921319851853 8.702778910449293 0 0 1
4390 1 0.9636021217355253 32.2944058107721 1.0997028626357235 0 -1 2
182 1 6.4557536085776945 31.39325027072946 11.152273145151723 0 0 -1
454 1 10.128935164773203 33.44858013727421 9.584061333950585 0 1 -1
2596 1 16.088865470062405 34.10998804634695 8.503998556300871 -1 -1 1
3102 1 14.51526700310743 39.679171486427514 19.5576689414779 1 -2 1
778 1 -0.1503347487072087 11.49193903740377 6.025501753362657 0 1 0
3810 1 5.881109298767055 37.414212973864295 6.304183221217213 0 -1 1
703 1 3.577043533105111 31.93595511912529 7.322048025710299 1 0 0
1021 1 6.337060133558337 33.081680795652346 4.228166671101478 0 -1 0
2091 1 14.19637126899044 35.384314628661855 12.686780869710121 0 1 0
1413 1 10.286153854500538 45.65336900555489 22.187866906918007 -1 -1 0
1191 1 15.250459933612362 34.65127373136921 21.00482718743426 -2 -1 0
3104 1 3.052661842167865 39.91671861444058 11.271114726636245 2 0 1
2776 1 1.547503168041433 35.192934535280244 9.232404066334485 1 -1 0
1857 1 11.64616029622829 33.718256636757154 7.3122201548839 0 0 0
1695 1 12.059267308681218 37.85048134735424 8.631904714794247 -1 1 -1
2887 1 13.345250052982742 40.50933003643249 9.215022169023516 0 -1 1
1046 1 4.774536801592924 43.03876553705725 7.838610174001612 0 -1 1
2694 1 4.297125480669889 38.02968080208358 8.275989579417436 1 0 1
4519 1 1.8439313580560341 41.42095139513519 5.5706689707903685 0 0 1
437 1 7.504332259015128 41.66921182330096 5.071421797195523 -1 1 -1
2805 1 10.297263398224283 41.18139559125023 6.699525089172124 1 1 1
4046 1 11.459413633934124 42.8538284480452 12.457690937930458 0 0 0
1583 1 2.7758054001456056 41.30876817958932 8.981055922734642 0 1 -1
2770 1 4.464177565568575 50.31519724035571 8.686171489844847 1 -1 2
280 1 8.302053891704945 45.56955779663061 7.351829041248223 0 -1 0
72 1 14.111528460886012 47.8364352042359 2.2679210866915307 0 -1 0
2282 1 12.77098187245038 46.76384901378199 8.03198780199682 0 0 0
3088 1 7.803899167061411 31.490719451856396 23.19350081773123 1 0 -1
2990 1 3.3093409853138427 48.89785720312991 6.766418061296214 1 0 1
4237 1 14.647362754214047 48.102657674025075 6.547913534051222 0 -2 1
1523 1 9.13145587134444 47.90700744787439 4.196182472597153 1 0 1
2402 1 11.067177441637094 47.51989704563007 10.287959612570079 0 -1 0
4370 1 16.822986389589513 1.655696155293329 0.6666156213321223 1 1 1
3992 1 -0.1891268779398132 16.750234574153186 9.40187759489709 2 -1 1
4131 1 4.451681603192346 3.9324141735368956 9.296432396207173 0 1 1
3337 1 1.5247400269276334 45.2595775657055 9.56470925438053 3 0 -1
1893 1 3.020106968086422 0.3075420011320224 10.979325795746073 0 1 -1
1067 1 8.03749087352159 48.20259612178181 13.265575111776203 1 -1 0
1107 1 5.884219658628339 29.732336192375726 1.473101616589724 0 0 0
3438 1 5.192608403096164 2.828740314681337 12.09531944266059 1 1 0
1529 1 9.603740249524945 1.35824599379498 8.47054574456057 1 1 -1
3053 1 11.616202595957784 8.390102417636855 9.025655703239966 2 1 0
2071 1 13.37549870371607 5.886372110454995 12.283807374150845 1 -1 0
2455 1 10.148697135162028 3.3514097916245134 6.531785336716426 1 0 1
436 1 12.211710702622469 41.766099850544435 22.68451803541892 1 0 1
2278 1 4.021779331812618 47.81034587496278 20.43411544484916 1 0 0
2124 1 3.4726191112754345 13.57197830654181 12.454596730024655 0 0 1
1079 1 5.134483246619371 7.384246091567703 8.699068348575175 1 1 0
3830 1 7.504799544006511 2.6261060711049766 10.365168961055147 1 1 0
4558 1 11.110467846513613 5.552645637760983 8.745857347004696 1 1 1
3783 1 11.967705884048689 8.136147199954213 12.297926018018005 0 1 -1
318 1 14.689027246533328 9.777078859176541 7.419001249596975 0 0 0
2064 1 4.671563416778938 8.01373045206892 11.310592115425951 0 1 0
4602 1 2.2961095771847204 8.712143296018313 6.576446306338994 1 0 1
1410 1 4.250391451564528 12.447226648437113 8.067085631665995 0 1 1
2121 1 9.33697783246919 8.321317952159927 11.093637891924017 -1 1 0
773 1 15.016874363987561 11.458807415975391 11.242841126856309 0 1 0
2111 1 13.628204363735247 22.987035542056823 0.9174591629683105 1 0 -1
3606 1 2.1395856441896703 14.494598136199205 8.045165370384872 1 1 1
1315 1 16.451067696929705 24.65568303450282 9.269698019847311 -1 0 0
4219 1 8.300352626726466 12.162870528210828 10.706777402999762 2 0 2
2452 1 6.71333237665849 13.495280726786344 8.897582446067561 1 0 0
3790 1 11.278633658588976 12.575474980726998 7.7021371464603 0 1 -1
79 1 14.118012274394893 20.240649882785338 12.28280205101476 -1 -1 -1
1358 1 15.51068363192689 16.517893788941613 5.577957383825207 -1 -1 0
817 1 3.6902656218761787 16.635075150839292 8.267867282762953 1 -1 1
584 1 6.2231639035742194 16.055123334948977 9.646023713754573 0 1 -1
4494 1 10.47049467593091 18.538269694447294 9.969366719030875 1 0 1
1919 1 12.791881913363337 19.688033371680007 14.746638251762406 -1 0 0
1701 1 4.478077515821218 18.30167346305615 22.032490833140105 1 0 0
4167 1 13.92577863980057 50.38609366961032 20.507839136108263 1 0 1
1254 1 1.123908606576771 20.910921761702895 9.544741223016338 0 1 1
4544 1 4.851706960812986 19.412678686686494 12.467221917013555 0 1 0
1257 1 5.367117896317748 17.396329414066997 5.977882296497812 -1 0 1
4201 1 9.868702135286881 21.814409172845288 11.112290448095388 0 2 1
2962 1 4.108333628456573 24.688685704892 9.314975448340533 0 0 1
3812 1 16.834019932376844 34.940749962463116 12.291287090418908 1 0 0
433 1 17.060553822454402 49.946487850166385 2.671999388870942 -1 -2 1
870 1 8.48341512852433 21.452521293890268 13.745037407926846 0 -1 0
1577 1 11.453457347175437 21.808533474422358 14.453110996369759 0 -1 0
1591 1 8.567649157209466 22.08321475508054 8.879701582209659 -1 1 0
3323 1 15.35340144789307 46.29246932032453 4.41379313735508 0 -1 0
3346 1 3.414720030571257 21.62548978408315 7.713223829890107 0 0 -1
799 1 5.941757236954919 27.220316735835066 12.235406833429073 1 -1 0
33 1 7.844935014680383 27.969548595487982 5.866400542047398 -1 0 0
3211 1 6.585090357246345 22.956853491674654 12.582250709787266 1 0 0
2251 1 10.267621142503128 24.39235601472396 11.993972380214073 1 1 0
263 1 7.9785211764313 28.266953898754714 15.034658297086326 0 -2 -1
1661 1 13.918193448482501 26.671785146806037 11.476647257325608 0 -1 1
765 1 17.340819803866534 33.02585700393921 22.851539000134462 -1 0 -1
3954 1 1.6016879951623528 27.946919526395945 8.153560134694569 2 -1 2
1327 1 8.761676265435435 44.33073606732331 23.983688414350436 0 1 0
3383 1 1.8993737878608958 30.6342584701935 12.375700391754881 1 1 -1
40 1 5.409276143469611 29.30642585878461 14.319154950479074 1 0 0
2126 1 9.612430412831143 32.18387495481465 15.871695341734943 0 0 0
1149 1 14.461197505228169 27.96044004343305 6.776248630244845 -1 0 2
2992 1 3.6937264017684615 35.75029959885603 12.73933260390451 0 0 1
2154 1 5.775546318460492 32.84404769767307 8.727741448109088 1 -1 -1
1851 1 8.659503264050663 33.49052706205895 12.532555969328072 1 1 0
827 1 12.104249331478389 29.54972801838095 9.496177981383708 0 0 1
945 1 10.728402850503654 31.04560952267363 11.971939295155162 1 0 1
2468 1 3.8907553415101646 35.41378959718439 22.6900153150582 1 0 1
3216 1 0.9189929731809319 30.107744352788988 14.855145005224982 0 -1 0
12 1 3.3877813886677948 32.822909139675154 13.495068113901358 0 -1 0
1267 1 7.334041501827864 35.25320429946104 10.869757429859261 1 0 1
107 1 12.171157544139463 33.52360712754996 11.133246313015997 0 1 1
1763 1 11.700285950316323 43.46289450539145 0.26894402508017135 0 0 3
3789 1 -0.13598965503332083 41.40696736288099 11.753395775559753 0 -1 0
13 1 3.9370392645251053 38.16618385826659 15.190429078590949 0 1 -1
510 1 6.382429385381566 37.306724419034936 12.39347755713552 0 1 2
455 1 9.023979016476586 36.27470461106674 9.277703731231238 -1 0 0
2626 1 8.311053195011684 35.89165196166361 14.215838537537007 0 -1 1
1008 1 11.847538565666957 36.7724357456782 11.082664330657652 1 0 0
4309 1 2.236046392367836 43.484580762647774 14.01755023335782 -1 0 0
1961 1 5.793006403921139 39.2179433368349 10.243730808351849 -1 0 1
4435 1 14.297770277862762 44.27735859473695 15.275981054959061 1 -2 2
1852 1 4.797793698861431 44.119534992460856 10.392495189002558 1 0 -1
3795 1 8.806298036662932 38.7897215264797 10.012996413752305 0 -1 -1
4357 1 13.823697902551595 42.553108254167746 11.220380658408457 -1 0 1
2176 1 16.524395800040974 47.448241018240886 9.396486091689125 2 0 0
3563 1 17.13474906547243 6.622777815341467 5.800583040153526 0 0 0
803 1 6.715800029358313 41.192539945820435 7.558357833381927 1 -1 1
2695 1 6.620873532529116 46.02537001116463 9.601786223799497 0 0 1
381 1 7.513258901048101 42.22175321105374 10.090708450470578 0 1 0
771 1 10.595362009292595 41.35015406264308 9.515470628858246 -1 0 2
4449 1 10.465387499594422 44.33362149484857 10.592306540785959 1 0 0
2401 1 15.511172361339394 37.29376760605427 19.38360257455721 1 -1 1
4346 1 17.2848628323791 48.75859275257777 22.848587141941483 1 0 0
841 1 2.3109202546486762 44.546996785258685 6.754509889094617 1 0 0
3579 1 7.719743074647862 50.017137022509104 7.988717174360148 1 0 0
106 1 5.689064096135782 0.25160623058333353 12.878117080495175 2 1 0
3193 1 11.831266839095239 50.40900858959791 8.722275543955384 0 -1 1
999 1 14.492374191770278 50.16533502661367 11.314355926726819 -1 0 0
4083 1 5.987321585754421 2.662619982443644 18.131436219229936 1 1 1
4305 1 10.271320496059058 2.0130445140229556 12.108148489518234 1 1 1
3270 1 16.360150859229325 0.8154293843184333 13.239807168287964 1 1 2
4182 1 11.87160333728095 1.786732727785304 14.914683676596246 0 2 1
2726 1 14.705412326206456 1.196988588531541 15.38963827634735 1 -1 0
1863 1 -0.12559473463405804 13.568748665160072 10.125335502423482 1 -1 0
1843 1 2.5074524124512365 24.030385891208727 5.6142793186601105 1 1 0
2575 1 5.359832101760912 5.224719518563562 14.300365228668337 1 0 1
2048 1 9.558029784207784 5.064729241317041 13.469176005119191 1 -1 -1
665 1 8.713196700297235 7.703520159869801 13.787316804420268 -1 0 0
2349 1 7.654995974576387 3.754409138442162 14.767505491257374 1 0 1
411 1 8.890799735262503 6.202027128509637 17.06430770132866 0 0 -1
616 1 7.867209904238651 23.82015092171361 25.135341874041544 -1 1 1
4130 1 8.375616223712218 38.00368397763226 18.762200643385913 0 0 0
610 1 5.951723959490372 8.197034014688112 13.867423951343152 0 0 1
323 1 7.22196752543848 9.468897186220849 9.778070950607557 -1 1 -1
1855 1 12.412837667585974 4.441626039010928 14.232171323792784 1 -1 1
2692 1 16.58581067189206 7.098683458724397 11.014442277164154 0 2 1
3390 1 13.647332495068067 46.370835867710866 11.472207266621838 -1 -1 0
2844 1 1.3779893029806212 11.805935636666026 11.121901604227773 2 2 0
2617 1 7.763790462335208 12.405235835093348 13.46046210781832 1 1 1
2671 1 11.090886547478512 8.13342576220174 15.388887034555273 0 2 1
115 1 10.917132353450222 11.586006264516275 10.518138426262553 -1 1 0
3504 1 14.35651353918352 8.864175147214414 10.255789485586376 2 2 1
3406 1 12.598039970851557 11.020452231036636 12.63368790364159 1 1 0
1193 1 5.5943986086353625 15.819584330501835 12.336608874972645 1 0 1
981 1 9.338709773170757 46.16028645174539 16.384708298585785 -1 0 1
963 1 4.427863853980052 10.80428111963599 10.615176781497285 0 -1 2
3799 1 10.575329986744508 16.139344828935624 13.54382122158719 0 0 0
1805 1 12.072060540343827 14.146279097202045 11.1023010429376 0 1 -1
1228 1 13.411840921954614 15.050150019773874 13.787428883209897 1 1 1
1154 1 0.5692432919810068 14.719342199411596 12.832150213441253 0 0 -1
1036 1 0.632333155311092 14.47797992556299 20.00406674903088 0 0 1
3868 1 6.091179630591603 16.131892276389227 17.42426739007663 1 -1 1
89 1 7.907254999682451 15.160693399507057 13.504491987812308 0 0 1
242 1 11.91474387898884 15.825023062567606 8.639551333374706 0 0 -1
4403 1 15.020783384661039 17.182583031164675 13.386009204403914 1 1 0
3468 1 12.794815040783883 17.185167025749713 18.06153659594401 2 0 0
2089 1 17.246968460225396 16.791453199687965 15.222176345831905 -1 0 -1
3640 1 1.8683211348181263 21.990198633520052 16.749233245526348 2 0 0
396 1 2.84879700087423 16.92482412871867 12.437901374257493 1 0 2
4240 1 10.308258978220374 18.712869557470142 12.435428500157283 0 0 1
3452 1 7.600254057901613 18.616479085710722 13.375751819407357 2 1 0
1439 1 4.408635420685171 22.493644917005792 17.508741938491816 0 -1 0
252 1 13.428493735393083 38.12397511089693 1.9071059038918066 0 -2 0
1644 1 14.233026727105905 19.343973538731966 16.88375123636214 0 0 0
1733 1 0.7986755640532901 24.40679850446975 12.737805049854279 1 1 0
1419 1 4.662923898253735 23.504530466970827 14.515806337941756 0 1 2