
# Import phase coexistance setup
#
read_data           data.coexist_${TEMP}K_${PRES}atm_mW
read_data           data.coexist_276K_${PRES}atm_mW
read_data           data.coexist_276K_-500atm_mW
Reading data file ...
  orthogonal box = (0.28379279 -0.37038344 -0.37038344) to (104.26575 50.597288 50.597288)
  3 by 1 by 2 MPI processor grid
  reading atoms ...
  8539 atoms
  reading velocities ...
  8539 velocities
  read_data CPU = 0.053 seconds

# Define potential
#
pair_style 	    sw
pair_coeff	    * * /data/emrosky-sim/Freezing_Simulations/Melting/mW_fancy/mW.sw mW
Reading sw potential file /data/emrosky-sim/Freezing_Simulations/Melting/mW_fancy/mW.sw with DATE: 2019-02-27

# Reset velocity/set timestep
#
velocity	    all create ${TEMP} 120598 rot yes dist gaussian
velocity	    all create 276 120598 rot yes dist gaussian
timestep	    10.0

# Define output
#
compute	            1 all msd
compute             2 all orientorder/atom nnn NULL degrees 2 4 12
thermo              1000
thermo_style        custom step temp press vol etotal ke pe c_1[4]

# Neighbor lists
#
neigh_modify        delay 0 every 1 check yes

# Set fixes
#
fix                 1 all momentum 10 linear 1 1 1 rescale
fix                 2 all nph iso ${PRES} ${PRES} ${PCOUPL}
fix                 2 all nph iso -500 ${PRES} ${PCOUPL}
fix                 2 all nph iso -500 -500 ${PCOUPL}
fix                 2 all nph iso -500 -500 10000.0
fix                 3 all temp/csvr ${TEMP} ${TEMP} ${TCOUPL} 837492
fix                 3 all temp/csvr 276 ${TEMP} ${TCOUPL} 837492
fix                 3 all temp/csvr 276 276 ${TCOUPL} 837492
fix                 3 all temp/csvr 276 276 5000.0 837492

# Run very short equilibration
#
dump		    1 all atom 50 eq.${NAME}.dump
dump		    1 all atom 50 eq.melt_276K_-500atm_mW.dump
run	            500
Neighbor list info ...
  update every 1 steps, delay 0 steps, check yes
  max neighbors/atom: 2000, page size: 100000
  master list distance cutoff = 6.3065
  ghost atom cutoff = 6.3065
  binsize = 3.15325, bins = 33 17 17
  2 neighbor lists, perpetual/occasional/extra = 1 1 0
  (1) pair sw, perpetual
      attributes: full, newton on
      pair build: full/bin/atomonly
      stencil: full/bin/3d
      bin: standard
  (2) compute orientorder/atom, occasional, copy from (1)
      attributes: full, newton on
      pair build: copy
      stencil: none
      bin: none
Per MPI rank memory allocation (min/avg/max) = 4.596 | 4.600 | 4.605 Mbytes
Step Temp Press Volume TotEng KinEng PotEng c_1[4] 
       0          276   -548.19007     270114.3   -79938.289    7024.2431   -86962.532            0 
     500    321.67716   -569.29364    263128.09   -81635.175    8186.7341   -89821.909    17.042935 
Loop time of 1.72175 on 6 procs for 500 steps with 8539 atoms

Performance: 250.908 ns/day, 0.096 hours/ns, 290.403 timesteps/s
99.1% CPU use with 6 MPI tasks x no OpenMP threads

MPI task timing breakdown:
Section |  min time  |  avg time  |  max time  |%varavg| %total
---------------------------------------------------------------
Pair    | 0.96496    | 1.2013     | 1.4969     |  19.5 | 69.77
Neigh   | 0.14832    | 0.15852    | 0.16389    |   1.6 |  9.21
Comm    | 0.025732   | 0.32515    | 0.5719     |  38.2 | 18.88
Output  | 0.0078829  | 0.0084525  | 0.0089945  |   0.4 |  0.49
Modify  | 0.023087   | 0.023576   | 0.024122   |   0.3 |  1.37
Other   |            | 0.004748   |            |       |  0.28

Nlocal:        1423.17 ave        1438 max        1403 min
Histogram: 1 0 0 1 1 0 0 0 2 1
Nghost:        2239.17 ave        2265 max        2220 min
Histogram: 2 0 0 0 2 0 1 0 0 1
Neighs:        0.00000 ave           0 max           0 min
Histogram: 6 0 0 0 0 0 0 0 0 0
FullNghs:      45851.3 ave       47031 max       44691 min
Histogram: 1 0 0 1 2 0 0 1 0 1

Total # of neighbors = 275108
Ave neighs/atom = 32.217824
Neighbor list builds = 82
Dangerous builds = 0

reset_timestep      0
undump              1
unfix               2
unfix               3


################################################
#######         Run Simulation         #########
################################################

log                 log.run_${NAME}
log                 log.run_melt_276K_-500atm_mW
