
# Set production fixes - Nose/Hoover
#
fix                 2 all nph iso ${PRES} ${PRES} ${PCOUPL}
fix                 2 all nph iso -500 ${PRES} ${PCOUPL}
fix                 2 all nph iso -500 -500 ${PCOUPL}
fix                 2 all nph iso -500 -500 10000.0
fix                 3 all temp/csvr ${TEMP} ${TEMP} ${TCOUPL} 837492
fix                 3 all temp/csvr 276 ${TEMP} ${TCOUPL} 837492
fix                 3 all temp/csvr 276 276 ${TCOUPL} 837492
fix                 3 all temp/csvr 276 276 5000.0 837492

# Define Order parameter
#
compute             2 all orientorder/atom nnn NULL cutoff 3.5
thermo              200
thermo_style        custom step temp press vol etotal ke pe c_1[4]

# Run 1ns simulation
dump		    1 all custom 400 prod.${NAME}.dump id type x y z vx vy vz c_2[*]
dump		    1 all custom 400 prod.ice_276K_-500atm_mW.dump id type x y z vx vy vz c_2[*]
run                 200000
Neighbor list info ...
  update every 1 steps, delay 0 steps, check yes
  max neighbors/atom: 2000, page size: 100000
  master list distance cutoff = 6.3065
  ghost atom cutoff = 6.3065
  binsize = 3.15325, bins = 18 16 16
  2 neighbor lists, perpetual/occasional/extra = 1 1 0
  (1) pair sw, perpetual
      attributes: full, newton on
      pair build: full/bin/atomonly
      stencil: full/bin/3d
      bin: standard
  (2) compute orientorder/atom, occasional, copy from (1)
      attributes: full, newton on
      pair build: copy
      stencil: none
      bin: none
Per MPI rank memory allocation (min/avg/max) = 5.838 | 5.839 | 5.840 Mbytes
Step Temp Press Volume TotEng KinEng PotEng c_1[4] 
       0    276.32791   -472.97773    141878.93   -49000.754    3794.6985   -52795.453   0.30609731 
     200     277.9435   -497.80832     141892.5   -48991.728    3816.8847   -52808.612   0.31681623 
     400    276.96757   -514.66165    141921.79   -48986.273    3803.4827   -52789.756   0.30687496 
     600    274.18942   -516.48247    141910.93   -49021.433    3765.3314   -52786.764   0.29606056 
     800    275.76154   -515.98315    141830.18   -49035.968    3786.9207   -52822.889   0.33578269 
    1000    274.88516   -486.20243    141745.86   -49047.443    3774.8857   -52822.329   0.31199718 
    1200    274.56861   -468.09613    141751.37   -49070.151    3770.5387    -52840.69    0.2975568 
    1400    273.24389   -533.87565    141815.02   -49060.694    3752.3468   -52813.041   0.33534425 
    1600    270.54509   -527.47217    141855.51   -49062.578    3715.2853   -52777.863   0.30361217 
    1800    272.23907   -500.52198    141796.62   -49068.957    3738.5481   -52807.505   0.30619993 
    2000     274.0284   -424.96882    141721.11    -49024.94    3763.1202    -52788.06   0.33581602 
    2200    278.74465   -486.04745    141823.58   -48994.582    3827.8865   -52822.469   0.30095886 
    2400    275.75459   -579.26532    141992.23   -49009.873    3786.8253   -52796.698   0.30039544 
    2600    273.42754   -540.97579    141907.23   -49052.499    3754.8688   -52807.368   0.31974595 
    2800    272.61475    -406.8378    141656.99   -49070.354    3743.7072   -52814.061   0.31652898 
    3000    270.30474   -451.36588    141687.84    -49081.95    3711.9847   -52793.935   0.31150055 
    3200    276.58399   -584.11706    141987.34   -49028.758    3798.2151   -52826.974   0.31649607 
    3400    277.53227   -628.17336    142097.07   -49065.036    3811.2374   -52876.273   0.29286035 
    3600     274.8736   -480.56064    141781.78   -49094.799     3774.727   -52869.526    0.3020039 
    3800    277.20277   -320.13212    141492.38   -49028.144    3806.7124   -52834.856   0.35232116 
    4000    269.58176    -479.6141    141767.66   -49021.054    3702.0563   -52723.111   0.31011099 
    4200    272.37348   -682.71437    142224.31   -49031.646    3740.3938    -52772.04    0.2881929 
    4400    274.30382   -643.27007    142093.38   -49019.744    3766.9025   -52786.646   0.32404571 
    4600    274.43656   -333.01099    141554.75   -49004.547    3768.7253   -52773.272   0.32073835 
    4800    278.28095   -305.23796     141487.7   -48997.046    3821.5187   -52818.564   0.32178465 
    5000    276.50102   -610.64864    142060.07   -48973.262    3797.0757   -52770.338   0.31406425 
    5200    277.08634   -770.73072     142326.2    -48971.25    3805.1136   -52776.363   0.29007735 
    5400    274.51075    -520.8192    141843.81   -48937.511     3769.744   -52707.256   0.31488177 
    5600    278.37845   -230.33163    141433.06   -48924.579    3822.8576   -52747.437   0.34486265 
    5800    277.29639   -434.54282    141781.45   -48912.958    3807.9982   -52720.956   0.31587226 
    6000    279.10529   -725.88031    142338.85   -48893.885    3832.8391   -52726.724   0.28487023 
    6200    279.37995   -701.47425     142192.7   -48888.337    3836.6109   -52724.948   0.31937204 
    6400    283.02502   -280.08773    141580.25   -48862.051    3886.6672   -52748.718    0.3342946 
    6600    273.77014   -318.53039     141528.9    -48901.17    3759.5736   -52660.743   0.32449702 
    6800      275.338   -585.81204    142087.62   -48935.716    3781.1044    -52716.82   0.31606239 
    7000    278.50641   -729.91079    142319.18   -48935.544    3824.6148   -52760.159   0.29291077 
    7200    281.14071   -486.94222    141857.83   -48889.169    3860.7906    -52749.96   0.31391711 
    7400    277.73838   -253.64046    141458.02   -48875.885    3814.0678   -52689.953   0.35646239 
    7600    280.37673   -423.38965    141730.52    -48907.61    3850.2992   -52757.909   0.32472971 
    7800    279.93085   -675.55228    142231.65   -48929.806    3844.1761   -52773.982    0.2882334 
    8000    283.21028   -634.27138    142149.07   -48898.452    3889.2112   -52787.663   0.30205552 
    8200    275.30267   -388.34108    141636.36   -48935.608    3780.6193   -52716.227   0.33188864 
    8400    276.25786   -346.22321    141519.35   -48963.388    3793.7365   -52757.125   0.32309659 
    8600    279.14303   -546.31246    141944.28    -48920.84    3833.3573   -52754.197   0.31758512 
    8800     279.4899   -720.67428     142185.7   -48852.314    3838.1208   -52690.435   0.31142693 
    9000    282.21258   -492.66256    141876.49   -48833.053    3875.5102   -52708.563   0.30429331 
    9200     280.2827   -331.75602    141543.92   -48820.888    3849.0079   -52669.896    0.3495772 
    9400    279.32581   -406.12789    141711.73   -48867.666    3835.8673   -52703.534   0.33345565 
    9600    279.08406    -624.5747    142069.53   -48854.363    3832.5475   -52686.911   0.30268371 
    9800    280.97507   -623.36854    142042.92   -48869.355     3858.516   -52727.871   0.31265526 
   10000    281.14248   -429.05662    141703.16   -48866.625    3860.8149    -52727.44   0.32860229 
   10200    281.86592   -420.31929    141590.83   -48860.566    3870.7497   -52731.316   0.33268578 
   10400    277.28932   -497.82943     141857.9   -48845.074     3807.901   -52652.975   0.32143746 
   10600    279.51762   -615.34115    142102.46   -48826.162    3838.5014   -52664.663    0.3194657 
   10800    278.72347   -559.77948    141960.15   -48857.085    3827.5957   -52684.681   0.30949515 
   11000    280.19675   -372.28954    141663.14   -48898.498    3847.8277   -52746.325   0.32454508 
   11200    275.94289   -416.15917     141638.9   -48915.564    3789.4111   -52704.975   0.34525404 
   11400    277.65305   -509.78784    141899.78    -48939.33     3812.896   -52752.226    0.3042141 
   11600     274.0886   -634.05311    142029.18   -48910.626    3763.9469   -52674.573   0.32764829 
   11800    271.96813   -526.26217    141828.66   -48980.651    3734.8273   -52715.478   0.32674735 
   12000     275.4772   -367.07024     141618.2   -48983.396     3783.016   -52766.412   0.31759372 
   12200    274.68732   -448.40144     141721.6   -48962.701    3772.1688    -52734.87   0.32180498 
   12400    274.55836   -576.81444    141974.68   -48930.928    3770.3979   -52701.326   0.31661435 
   12600    272.75465   -588.17664    142018.09   -48940.914    3745.6283   -52686.543   0.31013374 
   12800     281.2558   -473.44818    141797.01   -48952.826    3862.3711   -52815.197   0.31741034 
   13000    277.60618   -399.14869    141673.83   -48935.472    3812.2523   -52747.725   0.33790765 
   13200    277.67988   -465.34728    141848.33   -48908.447    3813.2644   -52721.712   0.31133479 
   13400    276.22845   -601.66427    142067.61    -48926.08    3793.3325   -52719.413   0.29554916 
   13600    276.42043   -582.36379    142009.64   -48917.937     3795.969   -52713.906   0.32684408 
   13800    279.58494   -431.97815    141796.55   -48914.774    3839.4259     -52754.2   0.31050297 
   14000     274.1077   -448.46278    141773.48   -48934.959    3764.2091   -52699.168   0.31739844 
   14200     275.1717   -498.36246    141926.96   -48959.769    3778.8206    -52738.59   0.31198766 
   14400    275.89184   -601.92856    141990.53   -48982.636      3788.71   -52771.346   0.30112469 
   14600    272.56573   -522.64736    141841.54   -48979.776    3743.0339    -52722.81   0.32629869 
   14800     278.7396   -413.29679    141718.01   -48964.968    3827.8172   -52792.785   0.33406856 
   15000     273.4493   -510.42734    141803.23   -49013.842    3755.1676   -52769.009   0.30844221 
   15200    276.61468   -584.27168    141903.85   -49064.632    3798.6366   -52863.269   0.31172977 
   15400    270.88415    -537.8369    141811.24   -49080.412    3719.9415   -52800.354   0.31923917 
   15600     271.2333   -451.38002    141657.14   -49116.033    3724.7363   -52840.769   0.32635641 
   15800    270.78589   -458.19448     141666.4   -49070.575    3718.5922   -52789.167   0.31741745 
   16000    272.97303    -497.6978       141818   -49055.903    3748.6272   -52804.531   0.32165458 
   16200    272.92043   -542.11715    141881.37   -49005.387    3747.9049   -52753.292    0.3162688 
   16400    273.22325   -532.53761    141795.33   -49002.902    3752.0634   -52754.965   0.31221984 
   16600    270.01192   -486.08556     141741.1    -49019.48    3707.9636   -52727.444    0.3364103 
   16800     278.5419   -466.38057    141808.52   -48975.878    3825.1022    -52800.98   0.31424828 
   17000    276.86295   -552.29043    141915.43   -48997.961    3802.0459   -52800.007   0.31468367 
   17200    280.30347   -462.11393    141899.88   -48981.339    3849.2932   -52830.632   0.32460075 
   17400    277.12429   -464.42992    141801.85   -49026.136    3805.6348   -52831.771   0.30717609 
   17600    268.85169   -484.17213    141758.43   -49062.139    3692.0306    -52754.17   0.31342277 
   17800    272.94585   -476.85049       141821   -49080.437    3748.2539   -52828.691   0.31339723 
   18000    271.74019   -585.00825     141914.3   -49112.677    3731.6972   -52844.374   0.32008586 
   18200    267.89419   -543.14584    141891.18   -49136.282    3678.8815   -52815.164   0.31019569 
   18400    272.72864   -435.79685    141721.15   -49158.687    3745.2711   -52903.958   0.31405317 
   18600    268.69942   -395.97644    141645.24   -49118.006    3689.9394   -52807.946     0.324517 
   18800    276.84905   -498.85323    141834.77   -49055.259     3801.855   -52857.114   0.29856019 
   19000    273.94485    -600.2833    142036.37   -49079.492    3761.9728   -52841.465    0.3142538 
   19200    272.65878   -550.30523    141840.08   -49056.023    3744.3118   -52800.335   0.32454427 
   19400    275.10269   -295.56691    141484.51   -49049.019    3777.8729   -52826.892   0.32891906 
   19600    275.14898   -378.57451    141623.33   -49076.513    3778.5087   -52855.022   0.33551365 
   19800     274.1733   -700.46521    142136.87   -49068.953      3765.11   -52834.063   0.29469945 
   20000    272.81434   -667.55787    142198.26   -49057.067    3746.4479   -52803.515    0.3009924 
   20200    273.10474     -376.692    141672.63   -49086.124    3750.4359    -52836.56   0.32882144 
   20400    276.70179   -208.55236     141371.4   -49069.207    3799.8328    -52869.04   0.33913995 
   20600      277.653   -497.38053    141806.33   -49065.415    3812.8953    -52878.31   0.31785844 
   20800    268.25733   -765.66179    142318.63   -49061.653    3683.8685   -52745.521   0.29485208 
   21000    269.50286    -618.2095    142102.64   -49057.853    3700.9728   -52758.826   0.30991611 
   21200    276.77256   -315.49305    141474.95   -49053.857    3800.8046   -52854.662   0.33379638 
   21400    275.04297   -279.12165    141421.86    -49049.51    3777.0528   -52826.563   0.34192818 
   21600    275.53927    -609.0969    142035.85   -49004.196    3783.8684   -52788.065   0.30809365 
   21800    274.56941   -741.22229    142355.39    -48954.23    3770.5497   -52724.779   0.28191225 
   22000    276.09861     -554.673    141891.18   -48963.889    3791.5495   -52755.439   0.33087507 
   22200    275.24464   -271.36557    141357.74   -48927.984    3779.8223   -52707.806   0.35659713 
   22400    279.35631   -326.24579    141601.45   -48905.721    3836.2862   -52742.007   0.33156386 
   22600    277.99496   -719.19385    142303.22   -48907.144    3817.5914   -52724.735   0.31456282 
   22800    278.76366   -737.08423    142320.93   -48939.917    3828.1476   -52768.065   0.28636211 
   23000    272.76153   -386.71868    141600.46   -48961.413    3745.7228   -52707.136   0.33278004 
   23200    280.58469   -187.75034    141304.76   -48958.584     3853.155   -52811.739   0.35948211 
   23400    274.67947   -517.48865    141863.81   -48964.703    3772.0611   -52736.765   0.32054061 
   23600    274.19818   -720.30282    142328.19   -48974.914    3765.4517   -52740.366   0.29402157 
   23800    276.17901   -548.03274    142014.69   -48919.633    3792.6536   -52712.286   0.31557819 
   24000    274.96085   -308.98014    141527.38   -48958.794    3775.9252   -52734.719   0.34039648 
   24200    280.59157   -381.18194    141615.14   -48943.301    3853.2496   -52796.551   0.32616905 
   24400    273.89282   -641.34273    142052.53   -48944.657    3761.2583   -52705.915   0.32023822 
   24600    274.28614   -663.41865     142124.2   -48941.225    3766.6597   -52707.885   0.31418461 
   24800    282.70618   -438.82204    141751.62   -48871.957    3882.2887   -52754.246   0.31505861 
   25000     278.5469   -340.32169    141586.69   -48871.191    3825.1709   -52696.362   0.34360267 
   25200    279.24754   -541.26622     141885.1    -48891.64    3834.7925   -52726.432   0.32138219 
   25400    275.77207   -671.60991    142112.75   -48948.484    3787.0653   -52735.549   0.29988559 
   25600    276.55126   -505.81256    141858.58   -48971.145    3797.7656    -52768.91   0.33681913 
   25800    279.88885   -362.29747     141556.3   -48951.492    3843.5994   -52795.091   0.34324032 
   26000    279.12551   -411.28397    141690.88   -48930.672    3833.1166   -52763.788   0.32696139 
   26200    273.47272   -608.38091    142017.13   -48971.189    3755.4892   -52726.679   0.31971056 
   26400    274.85392   -629.85151    142001.19   -48992.157    3774.4567   -52766.613   0.31207314 
   26600     272.2378   -441.38666    141679.48   -49002.625    3738.5306   -52741.156   0.32950355 
   26800    276.38822   -323.37231    141557.72   -49009.165    3795.5266   -52804.692   0.34452165 
   27000    276.24625   -516.46319    141850.91    -49008.88     3793.577   -52802.457   0.32516539 
   27200    275.56936   -651.57382    142104.41   -49000.812    3784.2816   -52785.093   0.29493044 
   27400    272.51072   -567.95549    141883.87   -48967.362    3742.2786   -52709.641    0.3303046 
   27600    275.37157   -372.18093     141534.5    -48974.05    3781.5654   -52755.615   0.35247045 
   27800    276.51662   -417.94185    141660.26   -48970.096    3797.2899   -52767.385   0.33283422 
   28000    273.68588   -591.09892    142056.15   -48955.324    3758.4165    -52713.74    0.3312783 
   28200     275.3887   -650.89075     142126.1    -48971.27    3781.8006   -52753.071    0.3008307 
   28400    277.99801   -472.79408    141780.95   -48969.823    3817.6332   -52787.457   0.30763078 
   28600    267.91822   -295.55624    141523.53   -48990.432    3679.2116   -52669.644   0.36330815 
   28800    270.42115   -482.67198     141756.2   -49001.313    3713.5833   -52714.896   0.32942217 
   29000    275.99863    -646.4629    142064.41   -49033.551    3790.1765   -52823.727   0.31020294 
   29200      273.443   -587.91129     141954.6   -49067.847    3755.0811   -52822.928   0.32982943 
   29400    274.00599   -441.40663    141600.42   -49071.137    3762.8125    -52833.95   0.33329115 
   29600    275.44791   -376.49964    141562.95   -49035.984    3782.6138   -52818.598   0.33115615 
   29800    279.52325   -557.55151    141928.27   -48960.486    3838.5787   -52799.065   0.32008385 
   30000    273.45705   -666.03794    142137.47   -48947.863    3755.2741   -52703.137   0.31615755 
   30200    275.82068   -569.62471    141885.64   -48958.778    3787.7329   -52746.511   0.30964412 
   30400    272.59515   -368.47939    141587.53   -49011.163    3743.4379   -52754.601   0.34512887 
   30600    276.07392   -390.45973    141684.36     -48961.5    3791.2104    -52752.71   0.34624201 
   30800    278.52516   -599.22494    142004.87   -48928.644    3824.8724   -52753.516   0.30390903 
   31000    281.29123   -634.41071    142065.22   -48915.436    3862.8576   -52778.294   0.32468911 
   31200    277.65216   -465.57093    141808.44   -48919.943    3812.8838   -52732.827    0.3316917 
   31400    281.25965   -395.64199    141688.78   -48918.668     3862.424   -52781.092   0.32033592 
   31600    274.19066   -486.76309    141844.48   -48976.909    3765.3484   -52742.257   0.33706362 
   31800    281.36973   -586.55931    141984.93   -48949.887    3863.9357   -52813.823   0.31355585 
   32000    280.16475    -505.7686    141916.59   -48921.646    3847.3882   -52769.034   0.32359023 
   32200    277.72224   -465.34631    141792.12   -48955.644    3813.8462    -52769.49   0.32862536 
   32400    278.40506   -433.64077    141810.18    -48950.45    3823.2231   -52773.673   0.33118539 
   32600    277.49184   -556.06793    141928.62   -48936.783    3810.6822   -52747.466   0.31736286 
   32800    276.51652   -580.48786    141942.22   -48932.783    3797.2885   -52730.072   0.30868544 
   33000    274.90623   -464.93206    141823.31   -48922.658     3775.175   -52697.833   0.33720112 
   33200    278.41072   -455.87073    141760.89   -48917.848    3823.3008   -52741.149   0.32787578 
   33400    277.82201   -494.73964    141860.09   -48880.633    3815.2163    -52695.85   0.32817712 
   33600    281.01451   -522.05473     141994.1   -48815.675    3859.0576   -52674.733   0.32313728 
   33800    281.62585    -537.4286    142003.77   -48848.522    3867.4529   -52715.975    0.2990073 
   34000    278.31725   -477.46574    141848.25   -48869.677    3822.0173   -52691.695   0.33840751 
   34200     279.8389   -437.56033     141755.8   -48900.412    3842.9134   -52743.325   0.32996559 
   34400    275.76004   -487.86501    141825.98   -48962.808    3786.9002   -52749.708   0.32250958 
   34600    277.23345   -548.45106    141882.45   -48936.795    3807.1339   -52743.929   0.33537477 
   34800    275.60223   -512.73181    141849.13    -48974.83     3784.733   -52759.563   0.30616499 
   35000    273.01377   -460.57375     141777.1   -48998.512    3749.1866   -52747.699   0.32844152 
   35200    275.27931   -471.40785    141775.55   -48987.155    3780.2984   -52767.453   0.32866876 
   35400    272.84755   -531.78699    141849.42   -48950.197    3746.9041   -52697.101   0.33667082 
   35600    278.16315   -542.70911    141884.28   -48944.048     3819.901   -52763.949   0.32192083 
   35800    275.03542   -489.27433    141812.63    -48944.67    3776.9491   -52721.619   0.32341988 
   36000    276.07971   -417.51528    141746.41   -48946.736      3791.29   -52738.026   0.33608893 
   36200    279.30136   -485.78665    141849.59     -48961.4    3835.5316   -52796.932   0.31179815 
   36400    272.96995   -550.22813     142009.8   -48984.863     3748.585   -52733.448    0.3176724 
   36600    276.28752   -575.96377    141975.58   -48961.454    3794.1437   -52755.598    0.3255088 
   36800    271.93774   -455.63978       141755    -49004.95    3734.4101    -52739.36   0.32026184 
   37000    277.34629   -395.58817    141677.77    -48996.82    3808.6834   -52805.503   0.33770167 
   37200    277.55564   -508.41008    141916.28   -48958.711    3811.5583    -52770.27   0.32119297 
   37400    276.52714   -604.12762    142125.32   -48949.493    3797.4344   -52746.927   0.30822066 
   37600    278.66904   -523.56531    141927.97   -48976.807    3826.8482   -52803.655   0.31721388 
   37800    279.26431   -344.64927     141560.9   -48945.984    3835.0228   -52781.007   0.34234876 
   38000    278.70552   -369.05824    141591.59   -48998.194    3827.3491   -52825.544   0.33816376 
   38200    275.96192     -606.605    142033.71   -48989.191    3789.6724   -52778.863   0.30847855 
   38400    275.23281   -702.16151    142213.64   -48953.873    3779.6599   -52733.533   0.31687547 
   38600     275.4861   -460.36473    141805.72   -48954.474    3783.1381   -52737.612   0.32858609 
   38800    279.12275   -252.42983    141438.55   -49006.574    3833.0788   -52839.653   0.33263673 
   39000    268.77825   -493.67384    141727.65   -49031.209     3691.022   -52722.231   0.33805843 
   39200    266.96252   -714.58525    142239.35   -49045.695    3666.0873   -52711.782   0.29360599 
   39400    275.82228    -641.5839    142145.43    -49037.78    3787.7548   -52825.535   0.29775567 
   39600    271.50938   -395.83925    141550.95   -49109.653    3728.5275    -52838.18   0.34278611 
   39800    274.89615   -255.86863    141367.33   -49101.557    3775.0367   -52876.594   0.34475153 
   40000    275.57894   -553.22882    141908.81   -49110.413    3784.4132   -52894.826   0.31407964 
   40200    268.71481    -758.0199    142325.05   -49081.234    3690.1508   -52771.385   0.28421986 
   40400    269.62509   -570.01182    141947.21   -49079.694    3702.6513   -52782.346   0.31022303 
   40600    271.01045   -275.19353    141388.36   -49111.281    3721.6759   -52832.957   0.34216125 
   40800    270.10025   -309.25481    141545.14   -49128.956    3709.1765   -52838.133   0.33761407 
   41000    273.52908   -664.91537    142170.48   -49083.172    3756.2633   -52839.436   0.30932933 
   41200    272.19784   -723.11861       142288   -49113.077    3737.9819   -52851.059   0.28985329 
   41400    273.52222   -434.05928    141741.51   -49084.084     3756.169   -52840.253   0.32050652 
   41600    275.42659   -239.23362    141438.71   -49082.059     3782.321    -52864.38   0.33449931 
   41800     271.2254   -501.04756    141857.83   -49079.434    3724.6278   -52804.062   0.32087545 
   42000    275.13251   -759.22623    142261.96   -49049.563    3778.2825   -52827.845   0.30703682 
   42200    274.20077   -586.06062    141967.44   -49074.831    3765.4872   -52840.318   0.31353904 
   42400    272.42444   -332.78477    141416.01   -49126.982    3741.0937   -52868.076   0.32930383 
   42600    268.53877   -347.62745     141431.7   -49152.666    3687.7333     -52840.4    0.3459975 
   42800    266.83151   -572.75181     141937.5   -49150.547    3664.2883   -52814.836   0.30650582 
   43000    276.38883   -704.56584    142149.09   -49103.667     3795.535   -52899.202    0.3000578 
   43200    269.33415   -478.24068    141781.61   -49109.903     3698.656   -52808.559   0.32702311 
   43400    273.42698   -302.19122     141485.6   -49104.212    3754.8612   -52859.073   0.33319259 
   43600    273.01549   -440.38828    141689.21   -49099.104    3749.2103   -52848.314   0.31829458 
   43800    272.76965   -621.52009    142058.63   -49070.508    3745.8342   -52816.343   0.31433167 
   44000    273.87682   -583.48513    142046.84   -49089.046    3761.0386   -52850.085   0.31450474 
   44200    268.77671   -434.63437    141698.33   -49132.353    3691.0009   -52823.354    0.3123798 
   44400    273.62217   -393.32879     141571.3   -49109.621    3757.5416   -52867.163   0.34080561 
   44600    271.94033   -520.80962    141825.07   -49047.734    3734.4456   -52782.179   0.33179813 
   44800    276.03283   -590.32022    142021.44   -49012.751    3790.6462   -52803.397   0.30512637 
   45000    279.34011   -512.26698    141889.54   -49047.843    3836.0637   -52883.907   0.32156372 
   45200    277.90641   -451.43252    141684.43   -49069.137    3816.3753   -52885.513   0.33165622 
   45400    277.54469   -434.88072    141695.51   -49114.925     3811.408   -52926.333   0.30742401 
   45600    270.75916   -551.85942    141855.12   -49102.264     3718.225   -52820.489   0.32247491 
   45800    271.78291   -580.60244    141913.47   -49077.233    3732.2837   -52809.517   0.32305565 
   46000    273.60488   -491.77397    141792.33   -49075.586    3757.3042    -52832.89   0.32431243 
   46200    271.19759   -441.79192    141698.48   -49108.012    3724.2458   -52832.258   0.32776227 
   46400    272.90866   -455.02917    141788.69   -49090.123    3747.7432   -52837.866   0.32972976 
   46600    270.68539   -581.92001    141902.09   -49086.887    3717.2121   -52804.099   0.31716671 
   46800     271.8848   -510.84936    141868.27   -49051.999     3733.683   -52785.682   0.31428281 
   47000    278.39804   -422.40006    141812.35   -49033.545    3823.1267   -52856.672   0.31979406 
   47200    271.35195   -447.11353    141850.15   -49004.725    3726.3656   -52731.091    0.3178906 
   47400     276.8768   -530.48232    141947.52   -48938.927    3802.2361   -52741.163    0.3163163 
   47600    277.10683   -546.83006    141980.13   -48914.511    3805.3951   -52719.906   0.31812884 
   47800    275.37448   -498.91639    141936.74   -48884.938    3781.6054   -52666.543   0.31875048 
   48000    281.99201    -448.2816    141891.82   -48888.654    3872.4812   -52761.135   0.31934769 
   48200     275.9708   -473.70341     141914.1   -48888.585    3789.7943   -52678.379   0.31563521 
   48400    279.66746    -512.7497    141962.68   -48869.813    3840.5591   -52710.372   0.32711434 
   48600    279.53497   -511.41339    141959.83   -48931.222    3838.7397   -52769.962   0.31000363 
   48800    278.77595   -470.18169    141922.76   -48877.522    3828.3164   -52705.838   0.31102016 
   49000    280.18478   -495.10902    141951.78   -48856.244    3847.6632   -52703.907   0.32244391 
   49200    277.23975   -543.28089    142008.33   -48889.324    3807.2203   -52696.545   0.30948756 
   49400    279.51074   -561.55654    141996.72   -48899.829     3838.407   -52738.236   0.31885153 
   49600    274.62492   -514.09705    141931.51   -48916.416    3771.3119   -52687.728   0.31069294 
   49800    277.20707   -450.01385    141861.22   -48896.892    3806.7716   -52703.664   0.31671253 
   50000    273.35735   -481.78606    141877.86   -48897.935     3753.905    -52651.84   0.33152945 
   50200    275.67255   -515.43975    141957.05   -48931.891    3785.6987    -52717.59   0.30774869 
   50400    272.55128   -542.14762    141936.78   -48936.174    3742.8355    -52679.01   0.32873016 
   50600    278.65584   -456.93509     141838.8   -48956.551    3826.6669   -52783.218   0.32362422 
   50800    271.80063   -467.36166    141813.98   -48965.472    3732.5271   -52697.999   0.31766089 
   51000    274.81318   -533.76011    141899.79   -48904.042    3773.8973   -52677.939   0.32918131 
   51200    276.86729   -534.45771    141972.54   -48933.098    3802.1055   -52735.203   0.31511432 
   51400    279.50443   -555.94072     141919.4    -48898.81    3838.3202    -52737.13   0.32669103 
   51600    278.78811   -477.17733    141826.88   -48899.589    3828.4833   -52728.072    0.3141371 
   51800    280.94178   -479.77399    141824.45   -48896.017    3858.0589   -52754.076   0.33013321 
   52000    279.17504   -502.08986    141916.69   -48857.544    3833.7969   -52691.341   0.32121049 
   52200    285.26277   -512.61001    141978.05   -48831.343    3917.3972   -52748.741   0.29974111 
   52400    282.11179   -535.75251       141928   -48812.549    3874.1261   -52686.675   0.33689508 
   52600    278.35395   -453.87335    141869.89   -48849.634    3822.5212   -52672.155   0.31988079 
   52800    283.92996   -481.96855    141858.42   -48866.686    3899.0943    -52765.78   0.31301053 
   53000    276.00703   -509.94766    141862.94   -48870.624    3790.2919   -52660.915   0.33618039 
   53200    278.96801   -519.28826    141872.39   -48879.049    3830.9538   -52710.002   0.31298631 
   53400    276.47915   -485.76959    141876.42   -48906.764    3796.7754   -52703.539   0.33602231 
   53600    276.60275   -516.85127    141852.02   -48931.352    3798.4727   -52729.825   0.32502447 
   53800    281.09114   -485.68337    141835.16    -48909.55    3860.1099   -52769.659    0.3252612 
   54000     280.6594   -492.93866       141853   -48900.982     3854.181   -52755.163   0.33064067 
   54200     280.5655   -501.98811    141921.65   -48907.831    3852.8915   -52760.722   0.31182338 
   54400    274.70652   -485.49464    141901.33    -48932.77    3772.4325   -52705.203   0.32903483 
   54600    280.86477   -457.16148    141789.85   -48929.049    3857.0013    -52786.05   0.32453274 
   54800    279.99532   -452.80128    141763.77   -48876.262    3845.0615   -52721.323   0.33669604 
   55000    282.87911   -565.21542    141928.18   -48878.092    3884.6634   -52762.756   0.32278335 
   55200    279.78118   -589.85504    142035.79   -48904.914    3842.1208   -52747.034   0.30314482 
   55400    281.09455   -476.21181    141855.75   -48928.007    3860.1567   -52788.163   0.32659258 
   55600    275.70922   -383.11221    141628.87   -48964.257    3786.2022   -52750.459   0.31997278 
   55800    275.07831   -452.76045    141739.64   -48938.364    3777.5382   -52715.902   0.34105181 
   56000    275.64788   -646.94208    142081.29    -48920.63    3785.3598    -52705.99    0.3201337 
   56200    276.99733   -604.58041    142073.65   -48952.451    3803.8913   -52756.342   0.29791483 
   56400    278.40337   -398.73377    141677.44   -48958.712    3823.1999   -52781.912   0.34267127 
   56600    277.74496   -303.37152    141512.24   -48963.514    3814.1582   -52777.672   0.34374705 
   56800    277.84574   -484.54296    141875.94   -48913.994    3815.5422   -52729.537   0.32362718 
   57000    281.62097   -652.06634     142233.4   -48917.304    3867.3859    -52784.69    0.3067872 
   57200    274.63416   -548.45967    141974.74   -48946.971    3771.4389    -52718.41   0.31437398 
   57400     275.2285   -285.80473    141500.93   -48968.829    3779.6007    -52748.43   0.34208048 
   57600    277.59429   -388.15985    141609.67   -48959.408    3812.0891   -52771.497   0.33799783 
   57800    272.83966   -700.92828    142127.87   -48967.685    3746.7958    -52714.48   0.32873231 
   58000    275.99973   -678.04745    142197.76   -48978.429    3790.1917    -52768.62   0.29683894 
   58200    277.38535   -389.41141    141660.86   -49020.463    3809.2198   -52829.682   0.31859838 
   58400    279.35776   -224.90441    141324.99   -49014.011    3836.3061   -52850.317   0.35958704 
   58600    274.20167   -483.07268    141794.02   -48991.399    3765.4997   -52756.898   0.31126802 
   58800    275.38691   -747.85512    142344.04   -49016.945    3781.7761   -52798.721   0.30301032 
   59000    275.38425   -641.97123    142074.52   -49042.515    3781.7395   -52824.254   0.31541933 
   59200    276.87481    -245.2958    141410.72   -49047.651    3802.2088    -52849.86   0.32811144 
   59400    272.63539   -256.14694     141451.9   -48994.015    3743.9906   -52738.006   0.34334086 
   59600    272.29341   -649.11754    142173.68   -48986.227    3739.2942   -52725.522   0.29749764 
   59800    276.31207   -799.25903    142411.25   -48969.735    3794.4809   -52764.216   0.29532485 
   60000    279.94193   -441.87937    141803.17   -48962.318    3844.3283   -52806.647   0.32340786 
   60200    277.54182   -197.82654    141350.91   -48940.303    3811.3685   -52751.672   0.34997195 
   60400    277.36027   -412.49288     141800.8   -48909.274    3808.8754    -52718.15   0.32451705 
   60600    280.39371   -743.54545    142431.36   -48942.943    3850.5324   -52793.476   0.27637433 
   60800    280.55625   -664.24815    142258.98   -48885.786    3852.7645    -52738.55   0.29902567 
   61000     275.5223   -310.59211    141643.78   -48928.498    3783.6353   -52712.133   0.32143525 
   61200    274.00752   -305.85409    141536.15   -48935.837    3762.8335   -52698.671   0.33873515 
   61400    275.41251   -544.15032    141972.06   -48930.669    3782.1276   -52712.797   0.32048321 
   61600    276.35923   -700.38902    142202.64    -48919.31    3795.1285   -52714.438   0.28657563 
   61800    275.42821    -570.4779    141905.14    -48921.53    3782.3432   -52703.873   0.33718395 
   62000    274.58257   -386.54089    141579.94   -48946.333    3770.7304   -52717.063   0.33271015 
   62200    272.03966   -424.78803    141672.46   -48956.594    3735.8097   -52692.404   0.32361197 
   62400    280.20881   -577.40389    141990.03   -48917.458    3847.9932   -52765.452   0.32445521 
   62600    279.16011   -646.59189    142052.32   -48936.909    3833.5918   -52770.501   0.30623579 
   62800    282.58013   -451.07139    141808.06    -48915.96    3880.5576   -52796.518   0.32355113 
   63000    275.80433   -376.10125    141697.19   -48884.255    3787.5082   -52671.764   0.32396022 
   63200     278.7825   -472.10424    141895.92   -48887.095    3828.4063   -52715.502   0.32102995 
   63400    284.15253   -599.34319    142086.33   -48844.606    3902.1507   -52746.757   0.31419315 
   63600    283.29144   -552.06651    142023.78   -48825.834    3890.3257   -52716.159   0.30928883 
   63800    282.51542   -417.58046    141823.15   -48855.227    3879.6689   -52734.896   0.34331632 
   64000    282.69401   -388.37814    141782.64   -48849.673    3882.1215   -52731.794   0.31795983 
   64200    279.94617   -522.47348    141963.69   -48849.048    3844.3866   -52693.435   0.32240381 
   64400    279.14345   -592.08673    142063.85   -48835.332    3833.3631   -52668.695   0.32678856 
   64600    275.56605   -538.88823    141898.97   -48888.258     3784.236   -52672.494   0.30889267 
   64800    277.43051   -383.69794    141662.05   -48899.561    3809.8399   -52709.401   0.34316961 
   65000     279.0662   -400.57933    141754.58    -48890.19    3832.3022   -52722.492   0.32507606 
   65200    278.34631    -588.1248    142059.21    -48913.61    3822.4163   -52736.027   0.30957446 
   65400    276.71874   -611.97992    142065.63   -48937.398    3800.0655   -52737.463   0.31106355 
   65600    270.78869   -412.56332    141750.07   -48962.881    3718.6306   -52681.511    0.3189801 
   65800    277.15002   -339.30263    141632.91   -48941.146    3805.9881   -52747.134   0.34170692 
   66000    275.86353   -503.22361    141915.76   -48938.729    3788.3213    -52727.05   0.30213754 
   66200    275.24572   -644.68674    142132.44   -48960.394    3779.8372   -52740.231    0.3151525 
   66400    275.24439   -557.80905    141912.66   -48957.921    3779.8188    -52737.74   0.32511183 
   66600     274.9828   -345.70152    141619.27   -48971.421    3776.2266   -52747.648   0.32375592 
   66800    275.02985   -379.33328    141680.67   -48954.056    3776.8727   -52730.928   0.34686457 
   67000    275.70145   -587.58886     141972.5   -48979.953    3786.0955   -52766.048   0.30724494 
   67200    270.81201   -597.62712    142026.99   -48998.133    3718.9508   -52717.083   0.31192333 
   67400    274.08071   -458.64725    141770.97   -49032.773    3763.8385   -52796.612   0.31901705 
   67600    277.07799   -372.97882    141643.41   -48991.302     3804.999   -52796.301   0.31102944 
   67800    277.37967   -501.87171    141861.76     -48940.3    3809.1418   -52749.442   0.33183294 
   68000    277.53409   -645.51869    142072.02   -48934.086    3811.2624   -52745.349   0.29994642 
   68200    273.94926   -594.66399    141941.88   -49002.886    3762.0334   -52764.919   0.31537326 
   68400    276.13453    -368.7024    141659.18   -48950.942    3792.0429   -52742.985   0.32605587 
   68600    279.68031   -366.81448    141725.24   -48938.318    3840.7355   -52779.053   0.32158756 
   68800      276.501   -545.58163    142061.67   -48905.027    3797.0755   -52702.102   0.31638648 
   69000    272.96145   -631.66768    142143.34   -48947.138    3748.4682   -52695.606   0.28955741 
   69200    277.59154    -477.1059    141849.26   -48956.069    3812.0514   -52768.121   0.33200736 
   69400     276.9955   -399.31612    141651.31   -48994.984    3803.8662    -52798.85    0.3200733 
   69600    274.81676   -453.65669    141794.82   -49006.312    3773.9463   -52780.258   0.31132305 
   69800    274.25186   -564.57593    142011.48    -48972.85    3766.1888   -52739.039   0.33077032 
   70000    278.33499   -536.04787    142007.99   -48934.649    3822.2608    -52756.91    0.2949106 
   70200    272.56138   -488.50669    141810.35   -48919.698    3742.9741   -52662.672   0.34022145 
   70400    278.13118   -481.45669    141741.97   -48934.531     3819.462   -52753.993   0.32968012 
   70600    280.98407   -535.31984    141901.53   -48907.388    3858.6396   -52766.028   0.30778879 
   70800    278.18006   -613.65718    142032.46   -48928.918    3820.1332   -52749.051   0.31739521 
   71000    277.38516   -555.77127    141935.46   -48973.196    3809.2172   -52782.413   0.29792675 
   71200    276.04284   -404.46495    141747.06   -48982.247    3790.7836    -52773.03   0.33030216 
   71400    278.32446   -440.72054    141725.45   -48950.784    3822.1162     -52772.9   0.31718667 
   71600    279.98331   -496.85109    141896.46   -48928.947    3844.8966   -52773.844   0.31659453 
   71800    279.86124   -588.55332    142003.82    -48946.73    3843.2203    -52789.95   0.31654517 
   72000    276.64252   -525.15969    141897.76    -48971.02    3799.0188   -52770.038   0.29619823 
   72200    275.27962   -437.78672    141743.03   -49004.779    3780.3027   -52785.082   0.33951148 
   72400    278.35695   -453.03097    141746.76   -48987.873    3822.5624   -52810.435   0.31266364 
   72600    274.19212   -513.56104    141866.69   -48955.601    3765.3685    -52720.97   0.31671438 
   72800    275.00239   -536.95648     141924.1    -49027.58    3776.4956   -52804.076   0.32397225 
   73000    276.28428   -531.39265     141852.7    -49026.47    3794.0993    -52820.57   0.30498027 
   73200    268.72235   -476.95437    141795.27   -49039.204    3690.2544   -52729.458   0.32545328 
   73400     279.4492   -474.56597       141839   -49035.317    3837.5619   -52872.879   0.31362946 
   73600     272.8965   -575.81164    141913.65   -49019.023    3747.5762   -52766.599   0.32122477 
   73800     275.1005   -483.57909    141873.36   -49013.666    3777.8429   -52791.509   0.31729714 
   74000    270.60312   -488.54307    141792.95   -49060.315    3716.0822   -52776.397   0.31517617 
   74200    273.77766   -455.21383    141788.69   -49056.584    3759.6769   -52816.261   0.32716549 
   74400    274.25044   -533.61191    141848.61   -49020.685    3766.1693   -52786.855   0.30032174 
   74600    272.99746   -538.39829    141892.07   -49042.253    3748.9627   -52791.216   0.32482797 
   74800    276.85167   -498.24536    141832.24   -49052.244    3801.8909   -52854.135   0.31444544 
   75000    277.03959   -433.96131    141725.33   -49017.414    3804.4716   -52821.885   0.30236205 
   75200    273.31928   -430.65251    141761.32   -49003.834    3753.3821   -52757.216   0.33826084 
   75400    276.40664   -594.88436    141952.93   -48992.106    3795.7796   -52787.885   0.30619459 
   75600    277.90664   -568.81875    141988.73   -48971.117    3816.3785   -52787.495   0.31009277 
   75800    279.90885   -451.51303    141804.81   -48952.148     3843.874   -52796.022   0.32072122 
   76000    276.49689   -454.13187    141744.43    -48939.16     3797.019   -52736.179   0.32278587 
   76200    277.27664   -475.59939    141910.52   -48962.723     3807.727    -52770.45   0.32050763 
   76400    277.06366   -607.09275    142054.06   -48932.725    3804.8022   -52737.527   0.29966579 
   76600    278.61631   -504.13324    141929.74   -48920.098    3826.1241   -52746.222   0.32866888 
   76800    281.76749   -403.98326    141722.78   -48921.161    3869.3979   -52790.559   0.32198936 
   77000    272.34545   -471.86349    141810.31   -48923.636    3740.0089   -52663.645   0.32101576 
   77200    284.58003   -564.13203    142067.43   -48966.375    3908.0214   -52874.397    0.3306106 
   77400    276.83993   -568.30489    142033.53   -48956.035    3801.7298   -52757.765   0.28416675 
   77600    278.48844    -424.9043    141738.03   -48973.187    3824.3681   -52797.555     0.333196 
   77800    280.18598   -363.29532    141615.01   -48986.173    3847.6797   -52833.852   0.33766165 
   78000    277.32259   -479.87428    141872.61   -48984.953     3808.358   -52793.311    0.3009888 
   78200    277.59444   -648.15847    142117.09   -48975.932    3812.0911   -52788.023   0.32779345 
   78400    277.70006   -541.58126    141916.08    -48996.58    3813.5416   -52810.122   0.30470741 
   78600    275.19811   -322.59551    141570.39    -49016.87    3779.1833   -52796.053   0.32687516 
   78800    277.09476   -371.83107    141684.66   -49003.037    3805.2292   -52808.266   0.32372103 
   79000    275.97946   -638.37708    142099.26   -48983.512    3789.9133   -52773.425   0.31098755 
   79200     278.3789   -678.25498    142132.18   -48992.374    3822.8638   -52815.238   0.31699039 
   79400     279.8422   -404.56979    141705.28   -48950.895    3842.9587   -52793.854   0.31343353 
   79600    276.23475   -289.06011    141532.75   -48942.683    3793.4191   -52736.102   0.35470011 
   79800    274.13242   -551.47114    141956.25   -48966.843    3764.5487   -52731.392   0.30089006 
   80000     277.3532   -722.50883    142278.41   -48935.587    3808.7783   -52744.365    0.2928296 
   80200    275.19614   -569.30671    141953.69   -48905.051    3779.1563   -52684.208     0.343251 
   80400    276.60037   -270.50558    141484.51   -48879.233      3798.44   -52677.673   0.31570937 
   80600    276.51061   -406.95623    141699.44   -48898.131    3797.2073   -52695.338   0.34553438 
   80800    277.69231   -720.34032     142336.3   -48839.032    3813.4351   -52652.467   0.29848289 
   81000    278.83146   -737.37213    142366.67   -48887.367    3829.0786   -52716.446   0.27631674 
   81200    279.14568   -343.15354    141662.18   -48873.148    3833.3937   -52706.542   0.34053825 
   81400    279.94842   -218.96246    141356.17   -48853.621    3844.4175   -52698.038   0.33845509 
   81600    278.37466   -510.47504    141945.92    -48870.36    3822.8056   -52693.165   0.32793752 
   81800      279.369   -808.51353    142473.49    -48869.25    3836.4604    -52705.71   0.28458025 
   82000    283.25396   -548.65312    142078.55    -48839.35     3889.811   -52729.161   0.31180067 
   82200    275.52038   -265.00488       141386   -48885.722    3783.6089   -52669.331    0.3507622 
   82400    273.82641   -332.83163    141445.34   -48887.437    3760.3463   -52647.783   0.32083264 
   82600    277.81816   -665.34531    142106.23   -48925.318    3815.1634   -52740.482   0.34159844 
   82800     276.8398   -791.69337    142306.05   -48959.047     3801.728   -52760.775   0.28097503 
   83000    272.87757   -453.17183    141734.42   -48947.557    3747.3163   -52694.874   0.32497661 
   83200    282.18017   -211.84735    141375.48   -48971.067    3875.0651   -52846.132   0.35710217 
   83400    277.82655   -477.75124    141784.96   -48988.635    3815.2786   -52803.913   0.29794533 
   83600    272.27367   -729.67059    142216.11   -49000.144    3739.0232   -52739.167    0.3197623 
   83800    276.45941   -594.26114    142021.71   -48953.188    3796.5043   -52749.692   0.30805929 
   84000    279.91138    -353.7848    141617.48   -48984.408    3843.9087   -52828.317   0.32221383 
   84200    273.89208   -365.76123    141624.14   -48973.639    3761.2482   -52734.887   0.33245232 
   84400    276.46071    -540.5783    141932.37   -48975.215    3796.5222   -52771.738   0.30506749 
   84600    275.95365   -660.11458    142009.38   -48970.827    3789.5589   -52760.386   0.32583048 
   84800    274.71993   -493.37955    141782.12   -48980.308    3772.6167   -52752.925   0.29748501 
   85000    278.27316   -397.41414    141632.63   -48946.397    3821.4117   -52767.809   0.35084299 
   85200    280.54651    -468.2278    141815.17   -48917.066    3852.6307   -52769.697   0.31235427 
   85400    276.09825   -585.32446    142064.45   -48902.015    3791.5446    -52693.56   0.29954077 
   85600    276.29091   -603.58061       142016   -48900.454    3794.1904   -52694.644   0.34518611 
   85800    277.54184   -432.47822    141725.06   -48915.027    3811.3688   -52726.396   0.30430886 
   86000    275.54978   -422.99354    141632.57   -48872.295    3784.0127   -52656.308   0.33900919 
   86200    274.09524   -536.41874    141885.23   -48880.773     3764.038   -52644.811   0.32651316 
   86400    284.28844   -640.33228     142082.8   -48873.062    3904.0171   -52777.079   0.29496699 
   86600    276.61501   -541.70084    141875.28   -48872.822     3798.641   -52671.463   0.33255349 
   86800    276.79741    -338.1992    141608.85    -48903.03    3801.1459   -52704.175   0.33437184 
   87000    278.45997   -453.86031    141728.95    -48923.97    3823.9771   -52747.947   0.33919038 
   87200    276.56287     -579.212    142065.64   -48892.808    3797.9251   -52690.733    0.2979286 
   87400    277.72557   -630.95878    142108.37   -48856.881    3813.8919   -52670.773   0.32294644 
   87600    279.96253   -456.46718    141794.48   -48923.197    3844.6112   -52767.808   0.33123282 
   87800    275.57095   -384.99436    141618.09   -48931.505    3784.3034   -52715.809   0.30892203 
   88000    278.40261   -513.86416    141852.31   -48883.665    3823.1894   -52706.854   0.34624408 
   88200    282.34319    -593.3885    142131.73   -48892.607    3877.3038   -52769.911   0.28769148 
   88400    279.31508   -564.15419    142038.52   -48879.053    3835.7199   -52714.773   0.29646339 
   88600    275.79004    -401.3543    141702.75   -48895.258    3787.3121    -52682.57    0.3542518 
   88800    278.69528   -345.62357    141645.36   -48886.495    3827.2085   -52713.704   0.30496818 
   89000    272.76002    -564.4296    141965.96    -48904.74    3745.7021   -52650.442   0.32359962 
   89200    279.17774   -640.54601    142161.17   -48878.716     3833.834    -52712.55   0.31584569 
   89400    278.14396   -534.33124    141942.63   -48853.858    3819.6374   -52673.496   0.30910123 
   89600    281.74956   -361.02838    141640.48    -48877.33    3869.1518   -52746.482   0.32744963 
   89800    279.74686   -418.92056    141728.77   -48911.717    3841.6494   -52753.366   0.32061778 
   90000    274.21927   -609.45821    142109.41   -48924.856    3765.7413   -52690.597   0.30793051 
   90200    272.23859   -639.19281     142162.5   -48967.524    3738.5415   -52706.066   0.29604071 
   90400    279.94662   -414.94773    141721.82   -48989.952    3844.3927   -52834.344   0.33164385 
   90600    274.52632   -268.92211    141465.59    -48983.65    3769.9579   -52753.608   0.34826783 
   90800    275.81904   -499.43338    141885.83   -49004.816    3787.7103   -52792.526   0.29737844 
   91000    278.04346    -728.5724    142340.73    -49000.24    3818.2573   -52818.497   0.31710108 
   91200    279.49435   -614.42473    142011.31   -49017.231    3838.1819   -52855.413    0.2972318 
   91400    277.57522   -191.16616    141327.08   -49012.314    3811.8272   -52824.141   0.32868549 
   91600    277.05541   -253.39348    141410.34   -49017.918    3804.6888   -52822.606   0.35736655 
   91800     277.5617   -737.94028    142246.72   -48989.661    3811.6415   -52801.303   0.28316039 
   92000    275.09008   -846.57066    142537.22   -48998.503    3777.6998   -52776.203   0.29092092 
   92200    273.91788   -437.73893    141754.76   -49027.597    3761.6025   -52789.199   0.32459298 
   92400    273.93267   -92.641521    141100.45   -49011.824    3761.8056    -52773.63   0.35733029 
   92600    271.98229   -423.71255    141673.84    -49066.11    3735.0218   -52801.132   0.32635009 
   92800     273.2369   -916.93565    142584.19   -49027.086    3752.2508   -52779.337    0.2809391 
   93000    275.47185   -686.83727    142300.03   -48960.082    3782.9425   -52743.024   0.30705002 
   93200    279.29831   -185.46207    141336.26   -48966.278    3835.4897   -52801.768   0.32944663 
   93400    278.02601   -166.73797    141237.56   -48969.532    3818.0177   -52787.549   0.35854881 
   93600     277.7535   -649.29411    142095.21   -48948.834    3814.2754   -52763.109   0.31551332 
   93800    277.98761   -841.59724    142504.41   -48933.226    3817.4904   -52750.716   0.26351669 
   94000    283.64091   -528.76989    141937.96   -48939.491    3895.1248   -52834.616   0.33108721 
   94200    274.61106   -255.77297    141408.43   -49021.974    3771.1216   -52793.095   0.33311201 
   94400     272.2465   -364.26255    141657.56   -49006.874    3738.6501   -52745.524   0.32061448 
   94600    275.43061   -658.10987    142147.49   -48999.495    3782.3762   -52781.871   0.31753971 
   94800    270.58306   -648.88571    142129.37   -49048.588    3715.8068   -52764.395   0.29235297 
   95000    278.36319   -419.73411    141718.33    -49058.29    3822.6481   -52880.938    0.3193489 
   95200    268.56783   -383.38042    141552.38   -49065.998    3688.1324   -52754.131   0.33291367 
   95400    274.64205   -524.06325    141821.96   -49076.089    3771.5472   -52847.637    0.3217083 
   95600    273.98536   -607.40327    142055.96   -49038.634    3762.5291   -52801.163   0.30171644 
   95800    270.11104   -550.69304    141936.19   -49004.766    3709.3246    -52714.09   0.31825887 
   96000    280.30628    -414.2133    141674.03   -49000.322    3849.3317   -52849.653   0.34725464 
   96200     278.0928   -405.56989    141698.15   -49041.322    3818.9349   -52860.257   0.29562702 
   96400    269.71547   -557.04743    141961.08   -49032.923    3703.8925   -52736.816   0.31877687 
   96600    277.68382   -599.70764    142037.82    -49044.58    3813.3185   -52857.899   0.31190048 
   96800    275.54968   -463.70481    141806.07   -49096.148    3784.0113    -52880.16   0.29693223 
   97000     273.6704   -349.03063     141614.6   -49082.379    3758.2039   -52840.582   0.34922642 
   97200    269.61288   -447.58772    141764.85   -49068.634    3702.4837   -52771.118   0.31963132 
   97400    268.77725   -607.85697    142018.16   -49023.097    3691.0083   -52714.106   0.29869115 
   97600    277.13212   -569.39002    141962.72   -48996.852    3805.7423   -52802.595   0.32365788 
   97800    278.62248   -432.57539    141688.45   -48993.759    3826.2089   -52819.968   0.32729218 
   98000    275.69629   -351.02685    141626.67   -48966.724    3786.0247   -52752.749   0.32731873 
   98200    276.22216   -530.89935    141916.54   -48975.079    3793.2461   -52768.325   0.31357018 
   98400    277.03591   -633.96267    142106.94   -48906.209    3804.4211    -52710.63   0.32626494 
   98600    277.06914   -548.93973    141924.82   -48952.212    3804.8774   -52757.089   0.30708978 
   98800    276.56586   -347.65656    141649.94   -48917.835    3797.9662   -52715.801   0.32764259 
   99000    276.16752   -454.47388    141741.16   -48920.727    3792.4958   -52713.223   0.35217539 
   99200    274.68215   -598.05722    142050.86   -48979.376    3772.0979   -52751.474   0.28938794 
   99400    272.06988   -587.63733       142055   -49066.908    3736.2246   -52803.133   0.32295088 
   99600    278.57298   -458.17462    141719.21   -49093.879    3825.5291   -52919.409   0.33563165 
   99800    276.02222   -324.98177    141535.51   -49069.489    3790.5005   -52859.989   0.30880077 
  100000    273.29177   -487.30643    141824.93   -49067.506    3753.0044    -52820.51   0.33198284 
  100200    274.26857    -646.1651    142146.63   -49023.524    3766.4183   -52789.943   0.30799427 
  100400    270.95626   -573.71946    142013.95   -49022.201    3720.9318   -52743.132   0.30851425 
  100600    274.37567   -352.43471    141626.28   -48977.172    3767.8891   -52745.061   0.32727203 
  100800    274.90375   -371.23826       141595   -49006.728     3775.141   -52781.869    0.3437169 
  101000     276.4942   -547.87936     141975.4   -48986.725     3796.982   -52783.707   0.30976442 
  101200     273.2293   -689.06017    142197.71   -48964.244    3752.1465   -52716.391   0.29501617 
  101400    277.73004   -508.07483    141918.92   -48972.651    3813.9533   -52786.604   0.34262878 
  101600     277.8519   -320.74703    141504.04   -48990.983    3815.6267   -52806.609   0.31721705 
  101800    277.62797   -373.66944     141597.9    -48959.99    3812.5516   -52772.541   0.32683747 
  102000    272.90628   -671.18529    142175.39   -48956.046    3747.7106   -52703.756   0.32828539 
  102200    276.66502   -739.56075    142303.95   -48945.593    3799.3278   -52744.921    0.2856788 
  102400    281.98747   -401.18731    141683.15   -48896.288    3872.4188   -52768.707   0.33600329 
  102600    280.40937   -185.95563    141297.51   -48910.408    3850.7475   -52761.155     0.360266 
  102800     277.8027   -449.38819    141853.18   -48918.365    3814.9511   -52733.316   0.30500005 
  103000    277.39306    -846.9536    142510.82   -48904.996    3809.3257   -52714.321   0.28735223 
  103200    278.55408   -631.90164    142149.91    -48888.69    3825.2695   -52713.959   0.30704093 
  103400    283.25907   -215.96778    141328.29    -48922.16    3889.8812   -52812.041   0.35265403 
  103600    279.22605   -191.97519    141334.42   -48925.584    3834.4974   -52760.081   0.33228736 
  103800    279.64954   -658.95826    142131.98   -48924.402     3840.313   -52764.715   0.31801925 
  104000    272.40386   -844.11528    142427.02   -48927.228    3740.8111   -52668.039   0.29164136 
  104200    277.09149   -452.21442    141771.67    -48945.97    3805.1843   -52751.154   0.31075835 
  104400    276.07001   -171.03155    141278.95   -48965.992    3791.1568   -52757.149   0.37786279 
  104600    277.36615   -441.85213    141741.03    -48960.76    3808.9561   -52769.716   0.31182041 
  104800    278.22916   -808.97827    142364.84   -48946.067    3820.8075   -52766.875   0.29780608 
  105000    275.43147   -660.06232    142153.59   -48973.201     3782.388   -52755.589   0.31448581 
  105200    279.61431   -297.10292     141491.6   -48979.463    3839.8292   -52819.292   0.31311546 
  105400    279.94862   -256.44991    141445.88   -48973.714    3844.4202   -52818.134   0.34344838 
  105600    275.32619   -618.11832    142055.72   -48968.088    3780.9422    -52749.03   0.31739047 
  105800    275.54918    -704.9663    142307.05   -48980.414    3784.0044   -52764.419   0.30017673 
  106000    276.33345    -513.9916    141834.52   -48965.892    3794.7745   -52760.667   0.31780142 
  106200    276.26906   -267.71647     141416.5   -48947.935    3793.8903   -52741.825   0.35030589 
  106400    277.77229   -436.48005    141699.78    -48958.54    3814.5335   -52773.074   0.33266353 
  106600    274.08472   -697.98334    142160.47    -48954.53    3763.8936   -52718.423   0.29192729 
  106800    278.58766    -638.3802    142061.88   -48948.478    3825.7307   -52774.208   0.33322339 
  107000    278.84166   -350.79835       141603       -48911    3829.2187   -52740.219    0.3361579 
  107200    279.93037   -338.12688    141575.73   -48901.293    3844.1695   -52745.463   0.33108451 
  107400    277.26379   -565.86399    142022.84   -48903.955    3807.5505   -52711.505   0.33119606 
  107600    278.86213    -700.0531     142232.9   -48880.371    3829.4998   -52709.871   0.29473816 
  107800    279.92552   -500.91383    141895.15   -48903.881    3844.1029   -52747.984   0.32673405 
  108000     278.5016   -313.69837    141546.34   -48884.176    3824.5489   -52708.725   0.34805317 
  108200    275.69351   -406.13489    141737.25   -48915.552    3785.9864   -52701.538   0.32819269 
  108400    278.48223   -653.24849    142134.46   -48909.053    3824.2828   -52733.336   0.30678749 
  108600    282.41692   -611.45928    142113.16   -48880.583    3878.3163   -52758.899   0.30725964 
  108800    275.71235   -402.66301    141712.86    -48905.09    3786.2451   -52691.335   0.34106274 
  109000     277.7432   -344.70077    141555.36   -48943.609     3814.134   -52757.743   0.32186194 
  109200    275.35354   -547.09281    141888.01   -48942.958    3781.3179   -52724.275   0.32297046 
  109400    276.06951   -660.69355    142165.73   -48925.427      3791.15   -52716.577   0.31630773 
  109600     280.9145   -544.65607    141992.72   -48890.572    3857.6842   -52748.257   0.30105018 
  109800    281.66761   -401.16755    141678.24   -48941.967    3868.0263   -52809.993   0.34376955 
  110000    280.49808   -332.96997    141696.53   -48884.382    3851.9657   -52736.348   0.32421375 
  110200    284.69038   -616.76442    142107.52     -48870.3    3909.5368   -52779.837    0.3026122 
  110400    269.02476   -693.21194    142244.53   -48915.693    3694.4073   -52610.101   0.31436232 
  110600    273.17132   -487.71131    141811.49   -48989.077    3751.3502   -52740.427   0.31488774 
  110800    272.73344   -277.65927    141476.49     -48988.2    3745.3371   -52733.537    0.3431799 
  111000    279.91936   -456.50444    141759.28   -48989.892    3844.0183   -52833.911   0.32119366 
  111200    279.12465   -692.42508    142174.67   -48975.573    3833.1049   -52808.678   0.30749452 
  111400    269.37724   -659.14009    142052.36    -49025.67    3699.2477   -52724.918   0.30532148 
  111600    269.51901   -357.71288    141553.58   -49079.961    3701.1945   -52781.156   0.32838325 
  111800    273.39624   -321.74771    141459.29   -49111.327     3754.439   -52865.766   0.35037929 
  112000    270.99497   -520.02177     141912.7    -49100.92    3721.4633   -52822.384   0.29853309 
  112200    272.61689   -730.50788    142205.66    -49058.66    3743.7364   -52802.397   0.31220593 
  112400    275.58793   -499.61864    141861.53   -49030.454    3784.5366   -52814.991   0.32179314 
  112600    275.65459   -257.44156    141449.55   -49010.658     3785.452    -52796.11    0.3220868 
  112800    272.26865    -440.3091    141682.85   -49025.614    3738.9543   -52764.568   0.33944323 
  113000    273.07688     -727.455    142237.25   -49000.294    3750.0533   -52750.347   0.30197267 
  113200    275.35179   -718.46453    142206.08   -49033.136    3781.2937    -52814.43   0.29312499 
  113400    274.87281   -323.83362    141528.55   -49018.623    3774.7161   -52793.339   0.34638434 
  113600    273.60302   -202.38008    141256.55   -49026.606    3757.2786   -52783.885   0.35702348 
  113800    280.96583   -528.16434    141932.93    -49007.04    3858.3891   -52865.429   0.30482926 
  114000    274.74565   -891.24133    142541.78   -48985.579    3772.9699   -52758.549   0.28784336 
  114200      275.768   -614.21703    142034.85   -49000.719    3787.0094   -52787.728   0.32530326 
  114400     279.8579   -107.44162    141159.49   -48951.016    3843.1743    -52794.19   0.34153651 
  114600     277.6035   -250.03819    141385.65   -48926.247    3812.2156   -52738.463   0.34240409 
  114800     278.2641   -807.22026    142390.48   -48904.822    3821.2873   -52726.109    0.3199023 
  115000    275.71056   -871.92881    142545.16   -48927.969    3786.2207    -52714.19   0.26936235 
  115200    277.20237   -339.40971    141632.13   -48949.123     3806.707    -52755.83   0.33878683 
  115400    277.50649   -152.27947    141148.59   -48964.832    3810.8834   -52775.715   0.36429498 
  115600    277.76664    -452.1488    141783.29   -48946.854    3814.4559    -52761.31   0.30735068 
  115800    274.60126   -866.04782    142448.28   -48954.848     3770.987   -52725.835   0.29497093 
  116000    280.14528   -637.46453    142140.93    -48941.59    3847.1209   -52788.711   0.30268673 
  116200    275.46796   -282.84301    141513.96   -48964.342    3782.8891   -52747.231   0.33440775 
  116400    274.82148   -315.25281     141529.7   -49004.181    3774.0112   -52778.192   0.33496175 
  116600    274.28376   -576.49355    142028.21   -49013.494     3766.627    -52780.12   0.31992636 
  116800    273.50093    -667.1766    142203.05   -48969.136    3755.8766   -52725.013   0.29781291 
  117000    280.09703   -476.45376    141848.55   -48979.222    3846.4582    -52825.68   0.29931881 
  117200    275.23602   -345.98879     141578.8   -48971.246    3779.7039    -52750.95   0.36466161 
  117400    275.58992   -448.75622    141762.33   -48996.065    3784.5639   -52780.629   0.31371802 
  117600    277.14357   -623.73034    142087.56   -48975.018    3805.8996   -52780.917   0.30122993 
  117800    279.55285   -554.45856    142065.78   -48937.625    3838.9852    -52776.61   0.32362222 
  118000    276.12337   -415.72372    141817.71   -48931.192    3791.8896   -52723.082   0.30175455 
  118200    275.37519   -401.61157    141748.51   -48964.468    3781.6152   -52746.083   0.33153665 
  118400      279.562   -536.37623    141923.94   -49012.259    3839.1108    -52851.37    0.3261056 
  118600    274.44122   -580.89961    142005.39   -49036.801    3768.7893    -52805.59   0.30515052 
  118800    274.35429   -490.23692    141800.89   -49084.749    3767.5954   -52852.344    0.3189747 
  119000    273.55244   -394.24988    141631.44   -49085.877     3756.584   -52842.461   0.33065273 
  119200    272.62777   -471.09612    141776.82   -49086.233    3743.8859   -52830.119   0.33599324 
  119400    271.14003   -600.33585    141983.74   -49108.702    3723.4554   -52832.157   0.30430091 
  119600    272.37584    -567.2568    141936.25   -49051.287    3740.4263   -52791.713   0.32539079 
  119800    271.24127   -448.55052    141725.97   -49049.438    3724.8456   -52774.284   0.32877688 
  120000    276.40585   -427.19882    141710.12   -49068.391    3795.7688   -52864.159   0.30634925 
  120200    276.29387   -550.35632    141958.97   -49041.686     3794.231   -52835.917   0.33096734 
  120400    269.78394   -649.28828    142073.44   -49084.138    3704.8328   -52788.971   0.30358273 
  120600    271.41001   -492.79463    141825.56   -49080.625    3727.1629   -52807.788   0.31012518 
  120800    275.21504   -385.67144    141611.55   -49073.571    3779.4158   -52852.987   0.34274757 
  121000    274.22039   -458.38017    141783.37   -49058.266    3765.7566   -52824.023   0.30786416 
  121200    274.45514   -619.14824    142055.82   -49054.871    3768.9805   -52823.852   0.30723263 
  121400    273.76322    -570.5832    141979.15   -49054.511    3759.4786    -52813.99   0.31256989 
  121600    276.02134   -424.49094    141688.61   -49047.469    3790.4885   -52837.957   0.32553516 
  121800    274.44073   -362.38698    141628.28   -49045.365    3768.7825   -52814.148   0.32507159 
  122000    277.40638   -549.03506    141906.18   -49023.084    3809.5086   -52832.593    0.3158699 
  122200    279.35861   -645.01537    142087.52   -48990.741    3836.3177   -52827.058   0.31713507 
  122400    276.33097   -487.67572    141844.79   -48947.463    3794.7404   -52742.203   0.31218787 
  122600    278.26726   -333.67138    141538.67   -48874.597    3821.3307   -52695.927   0.35130329 
  122800    279.51779    -399.2728    141757.14   -48873.852    3838.5038   -52712.356   0.34127116 
  123000    277.40054    -700.7161    142268.36   -48914.375    3809.4284   -52723.803   0.28884314 
  123200    272.02572   -691.59851    142222.68   -48934.503    3735.6182   -52670.121   0.31228217 
  123400     277.6367   -319.24429    141530.49   -49019.155    3812.6715   -52831.826   0.34157195 
  123600    278.81989    -190.3922    141229.22   -48971.054    3828.9198   -52799.974   0.34155855 
  123800    279.67458   -535.07963    141927.07   -48988.878    3840.6569   -52829.535   0.32050572 
  124000    271.52857   -925.10369    142618.85   -48963.714     3728.791   -52692.505   0.28829259 
  124200    276.60049   -609.35098    142108.69   -48953.295    3798.4416   -52751.737   0.29536211 
  124400     279.8815   -132.70301    141207.75   -48972.995    3843.4984   -52816.493   0.34503708 
  124600     274.1248   -268.18673    141401.28   -48990.882     3764.444   -52755.326   0.35826046 
  124800      278.422   -751.08321    142331.85   -48987.635    3823.4557   -52811.091   0.29446876 
  125000    273.87964   -820.96298    142438.72   -48993.086    3761.0774   -52754.163   0.28686085 
  125200    271.56379   -321.91301    141581.62     -48989.7    3729.2747   -52718.975   0.35529071 
  125400    275.75587   -163.40348    141183.35   -49057.977    3786.8428   -52844.819   0.33854957 
  125600    271.40033   -509.75642    141812.06   -49049.855      3727.03   -52776.885   0.32161037 
  125800    271.50862   -845.25803    142416.48   -49034.341     3728.517   -52762.858   0.30938268 
  126000    271.95223    -618.3914    142027.25   -49006.088     3734.609   -52740.697   0.30459313 
  126200    276.15509   -271.82651    141333.03   -48993.001    3792.3251   -52785.327   0.34504892 
  126400    277.01646   -284.32199    141466.58   -49020.685    3804.1539   -52824.839   0.33378741 
  126600    273.91333   -700.40956    142144.78   -49040.457      3761.54   -52801.997   0.30203234 
  126800    272.62601   -766.59349    142256.66   -49010.412    3743.8617   -52754.274    0.3022378 
  127000    276.05185   -381.52728    141653.05   -49031.132    3790.9074   -52822.039   0.32782446 
  127200    272.77124   -241.60118    141331.73   -49066.383    3745.8562    -52812.24    0.3375277 
  127400    276.30783   -453.44843    141798.11   -49064.759    3794.4227   -52859.182   0.30957872 
  127600    270.32363    -747.8368    142300.57     -49053.7     3712.244   -52765.944   0.30583244 
  127800    274.16336   -593.45075    142053.62   -49045.429    3764.9736   -52810.403   0.30909385 
  128000     272.8233   -323.10144    141509.39   -49046.561    3746.5711   -52793.132   0.32905412 
  128200    272.91197   -345.13473    141548.12   -49015.432    3747.7887   -52763.221   0.35156519 
  128400    272.78407   -580.78713    142088.25   -49037.231    3746.0323   -52783.264   0.29264494 
  128600    271.09663   -744.45464    142265.92   -49065.756    3722.8594   -52788.616   0.29498335 
  128800    279.36639   -453.05791    141818.19   -49104.842    3836.4246   -52941.267   0.32847139 
  129000    273.41014   -293.81384    141475.51   -49140.265    3754.6299   -52894.895   0.32042546 
  129200    279.04251   -397.37448    141710.77   -49099.594     3831.977   -52931.571   0.32161054 
  129400    272.96521   -682.05766    142130.15   -49094.519    3748.5199   -52843.039    0.3169233 
  129600    273.14385   -605.03871    142041.17   -49092.919     3750.973   -52843.892    0.3052508 
  129800    270.73358   -414.79218    141613.44   -49106.327    3717.8738   -52824.201   0.33171296 
  130000    270.44872   -368.83863    141537.21   -49116.759    3713.9619   -52830.721   0.33601781 
  130200    273.83352   -470.07853    141890.17   -49132.944     3760.444   -52893.388   0.32202645 
  130400    274.98577   -652.67571    142122.72   -49116.523    3776.2673    -52892.79   0.29030038 
  130600    272.66811   -540.57025    141930.28   -49075.971    3744.4398   -52820.411   0.32059362 
  130800    273.29344   -399.81688    141658.37    -49099.59    3753.0273   -52852.617    0.3361176 
  131000    273.65191    -410.9799    141730.59   -49118.708      3757.95   -52876.658   0.30177519 
  131200     270.8576   -586.88065     142022.4   -49091.239    3719.5769   -52810.815   0.32321196 
  131400    275.81118   -620.17714    142031.21   -49091.629    3787.6024   -52879.231   0.31164843 
  131600    271.14022   -453.75848    141731.97   -49087.175    3723.4581   -52810.633     0.318371 
  131800    276.01381   -363.75075    141600.41   -49062.092     3790.385   -52852.477    0.3393301 
  132000    277.77217   -488.78196    141853.31   -49007.727    3814.5319   -52822.259   0.31478389 
  132200    273.05362   -640.24981    142098.81   -49011.041    3749.7339   -52760.775   0.29637951 
  132400    272.34994   -553.34341    141987.92    -49014.98    3740.0705   -52755.051   0.31627559 
  132600    273.06219   -421.07746    141731.22   -48994.085    3749.8517   -52743.937   0.33397899 
  132800    272.82425   -395.59212    141749.69   -48965.047    3746.5841   -52711.631   0.32104784 
  133000    277.12568   -558.94162    142010.93   -48957.564    3805.6538   -52763.217   0.31181577 
  133200    280.95724   -615.90098    142086.89   -48907.046    3858.2712   -52765.317   0.32006987 
  133400    275.62549   -524.10177    141827.59   -48894.731    3785.0524   -52679.783   0.31407226 
  133600     279.1302   -370.36586    141634.36   -48908.466    3833.1811   -52741.647   0.34295643 
  133800    278.19687   -489.37801    141848.11   -48926.565     3820.364   -52746.929   0.32713153 
  134000    282.47285    -636.7839    142169.39   -48875.672    3879.0844   -52754.756   0.29053822 
  134200     276.1167    -585.8088    142087.86   -48887.998    3791.7979   -52679.796   0.31073682 
  134400    277.60455   -383.77812    141686.52    -48890.04      3812.23    -52702.27   0.33529083 
  134600    278.89319   -335.93323    141591.97   -48906.453    3829.9263   -52736.379   0.32239547 
  134800    275.28325   -536.17592     141983.9   -48943.599    3780.3526   -52723.952   0.31691494 
  135000    269.88033   -739.96035    142260.32    -48992.36    3706.1564   -52698.516   0.31300634 
  135200    273.75153   -532.71033    141868.66   -49004.864    3759.3181   -52764.183   0.32174939 
  135400    275.00787   -228.82636    141368.99   -49027.976    3776.5708   -52804.547   0.34126275 
  135600    275.91931   -369.18045    141578.89   -48994.336    3789.0873   -52783.423   0.34658907 
  135800    271.62155   -708.26226    142248.82    -49055.62    3730.0679   -52785.688   0.29093263 
  136000    268.31745   -794.25166    142255.25   -49085.052    3684.6941   -52769.746   0.29731302 
  136200    267.72861   -392.99308    141453.36   -49101.379    3676.6078   -52777.986   0.35307137 
  136400    272.63321   -121.81028    141118.72     -49059.6    3743.9606    -52803.56   0.34949312 
  136600    276.11509   -546.07715    141914.34   -49003.454    3791.7759   -52795.229   0.30683091 
  136800    272.21114   -910.93861    142632.07   -49003.513    3738.1645   -52741.677   0.29957888 
  137000    277.58506   -630.75602    142120.24   -49013.127    3811.9623   -52825.089    0.2944888 
  137200    274.44349   -138.79433    141205.39   -49049.436    3768.8205   -52818.256   0.34368132 
  137400    279.24148   -214.17946     141283.5   -49011.673    3834.7093   -52846.382   0.35338626 
  137600    271.37412   -699.24632    142179.56   -48997.751      3726.67   -52724.421   0.30489981 
  137800    274.28613   -849.96237    142455.22   -48968.006    3766.6594   -52734.666   0.29308549 
  138000    275.01368   -478.00823    141789.65   -48971.757    3776.6506   -52748.408   0.34039375 
  138200    275.91568   -224.17098    141335.92   -49023.206    3789.0374   -52812.244   0.34817045 
  138400    276.05197   -460.65652    141720.59   -49008.751     3790.909    -52799.66   0.31170889 
  138600    273.48096   -718.39883    142259.28   -49016.104    3755.6024   -52771.707   0.31640095 
  138800    273.25187   -659.78931    142162.92   -48969.418    3752.4565   -52721.874   0.31033244 
  139000    277.28354   -380.23707    141664.66   -48962.132    3807.8217   -52769.954   0.31473457 
  139200    273.50071   -316.64115    141560.06   -48963.869    3755.8737   -52719.743   0.34702479 
  139400    275.56687   -524.56111    141941.74   -48987.398    3784.2474   -52771.645   0.31731844 
  139600    279.98276   -689.78167    142184.63   -48967.911     3844.889     -52812.8   0.29085673 
  139800    278.29368   -516.17909    141942.66   -48931.404    3821.6935   -52753.098   0.33324335 
  140000    282.09204   -353.81635    141642.46   -48902.525    3873.8549    -52776.38    0.3345682 
  140200    279.43375    -427.8415    141751.38   -48942.409    3837.3497   -52779.758   0.31532162 
  140400     274.7511   -617.41847    142048.75   -48963.666    3773.0448   -52736.711   0.31846687 
  140600     278.7816    -587.9126    142033.02   -48963.073    3828.3939   -52791.467   0.30950091 
  140800    275.69098   -473.73718    141734.33   -48958.767    3785.9517   -52744.718   0.32559939 
  141000    273.89106   -420.43892    141624.35   -48995.126    3761.2341    -52756.36   0.34429379 
  141200    270.65928   -488.97521    141840.28   -48945.937    3716.8535   -52662.791   0.32864289 
  141400    274.78119   -574.86903    142054.49   -48948.445    3773.4579   -52721.903   0.30287823 
  141600    277.50017   -578.74455    141960.54   -48932.678    3810.7965   -52743.475   0.32771954 
  141800    277.90063   -432.60608    141683.44   -48985.196     3816.296   -52801.492    0.3411461 
  142000    274.07023   -429.99482    141630.93   -49000.637    3763.6946   -52764.332   0.32733289 
  142200    268.99567   -549.30572    141883.48   -48995.823    3694.0077   -52689.831   0.32875934 
  142400    273.53852   -633.99172    142020.95   -48997.285    3756.3929   -52753.678    0.3192335 
  142600    274.99008   -505.85946    141792.28   -48989.481    3776.3266   -52765.807   0.30956099 
  142800    279.42304   -350.34432    141538.76   -48995.406    3837.2025   -52832.609   0.34103056 
  143000    275.29106    -415.3577    141656.34   -49054.286    3780.4597   -52834.746   0.33188864 
  143200    277.69291   -607.77513    141984.79   -49020.737    3813.4435   -52834.181   0.30238956 
  143400    275.05701     -642.637    141998.13   -48985.792    3777.2457   -52763.037    0.3222794 
  143600    276.51485    -426.9422    141666.59   -48978.045    3797.2655   -52775.311   0.33645382 
  143800    279.50627   -317.59023    141531.26   -48990.563    3838.3456   -52828.908   0.32491817 
  144000    276.47014   -507.99021    141838.54   -48977.325    3796.6516   -52773.977   0.32023778 
  144200    275.12781   -642.28788    142125.71   -48949.057    3778.2179   -52727.275    0.3132703 
  144400    272.90313   -611.03285    141960.18   -48952.628    3747.6673   -52700.296   0.31332268 
  144600    278.07644    -346.0028    141573.44   -48930.042    3818.7103   -52748.752   0.33990697 
  144800    279.25173   -352.02312    141574.26   -48901.866    3834.8501   -52736.716   0.34936415 
  145000    281.62704   -600.60139    142040.11   -48941.919    3867.4692   -52809.388   0.29504535 
  145200    276.24246   -724.96245    142228.54     -48966.9     3793.525   -52760.425   0.30184743 
  145400    275.75094   -471.01754    141767.55   -48974.929    3786.7752   -52761.704   0.33270415 
  145600    278.57241   -256.76916    141377.63   -48996.077    3825.5212   -52821.599   0.33314043 
  145800    271.12937   -468.71674    141728.95   -49010.314    3723.3089   -52733.623   0.33374955 
  146000    274.20642   -757.10029    142268.52   -48992.299    3765.5649   -52757.864    0.3042499 
  146200     273.5806   -684.53665    142114.52   -49023.054    3756.9708   -52780.024   0.29498472 
  146400     282.8184   -233.25445    141423.73   -48983.081    3883.8296   -52866.911   0.33913157 
  146600    279.91367   -212.88376    141352.22    -48951.03    3843.9402    -52794.97   0.34670608 
  146800    281.08805   -655.99789    142193.59   -48904.665    3860.0675   -52764.732   0.28945047 
  147000    276.12103   -928.69714    142647.34   -48911.853    3791.8574   -52703.711   0.28516513 
  147200    279.34894   -490.28785    141867.24   -48887.576    3836.1851   -52723.761   0.33690239 
  147400    275.76036   -10.793571    141026.75   -48954.547    3786.9045   -52741.452   0.35277806 
  147600    275.06185   -329.52836     141525.9   -48967.089    3777.3122   -52744.402    0.3347626 
  147800    272.97962   -951.87978    142647.13   -48996.322    3748.7177   -52745.039   0.28467798 
  148000    279.24479   -862.77426    142546.09   -48961.908    3834.7547   -52796.663   0.27413841 
  148200    272.07225   -246.60522    141373.12   -49011.113    3736.2571    -52747.37    0.3513956 
  148400    271.37218   -16.703003    141021.18   -49061.141    3726.6433   -52787.784   0.37666959 
  148600    273.14805   -530.73589    141926.74   -49028.867    3751.0307   -52779.898    0.3006732 
  148800    275.43636   -849.59687    142511.77   -49025.112    3782.4551   -52807.567   0.29122366 
  149000    276.60105   -569.50235    142016.58   -49035.849    3798.4494   -52834.299   0.31164442 
  149200    277.89643   -286.52092    141431.85   -49045.937    3816.2383   -52862.175    0.3293948 
  149400    271.49752   -349.76081    141565.86   -49066.622    3728.3647   -52794.986   0.33587307 
  149600    273.79475   -612.65202    142024.23   -49062.633    3759.9116   -52822.544   0.31889605 
  149800    273.83643   -653.17075    142070.45   -49048.261    3760.4839   -52808.745    0.2912246 
  150000    273.16809   -456.91076    141708.92   -49011.544    3751.3059    -52762.85   0.32711347 
  150200    278.71637   -385.68848    141548.53   -48961.289    3827.4982   -52788.788   0.34290897 
  150400    278.81886   -456.56903     141815.3   -48931.791    3828.9056   -52760.697   0.30578243 
  150600    274.93705   -680.21516    142075.18   -48977.622    3775.5983    -52753.22   0.31709575 
  150800     277.4191   -518.47085    141932.34   -48944.304    3809.6833   -52753.987   0.32929087 
  151000    273.91134   -420.09117    141636.42   -48983.888    3761.5127   -52745.401   0.31655488 
  151200    276.22728   -395.69297     141667.4   -48972.793    3793.3165    -52766.11   0.33188691 
  151400    279.20862   -528.36097     141993.6   -48888.496     3834.258   -52722.754    0.3237673 
  151600    273.45428   -656.08862    142152.95   -48873.685     3755.236   -52628.921   0.29877413 
  151800    279.42071   -500.96263    141913.55   -48887.614    3837.1705   -52724.785   0.31436283 
  152000    280.54026    -382.7923    141635.59   -48891.097    3852.5448   -52743.642   0.35328575 
  152200    276.85742   -440.05807    141750.97   -48909.868    3801.9699   -52711.838   0.31435907 
  152400     274.2624   -636.60065     142090.7   -48952.895    3766.3336   -52719.228   0.31150252 
  152600    278.49345   -623.90415    142067.01   -48923.912    3824.4369   -52748.349   0.32350638 
  152800    282.49166   -407.75081    141767.79   -48861.734    3879.3427   -52741.077   0.31154743 
  153000    282.40597   -383.30978     141720.2   -48929.109    3878.1659   -52807.275   0.31604755 
  153200    282.35055    -577.4174    141992.21   -48871.068    3877.4049   -52748.473   0.32962406 
  153400    278.84541   -647.97189    142100.56   -48920.909    3829.2703    -52750.18    0.2934775 
  153600    279.67902   -464.91528    141831.58   -48948.665    3840.7179   -52789.383   0.31914978 
  153800     277.6787   -378.53563    141572.47   -48977.588    3813.2482   -52790.836   0.35447414 
  154000    278.43585   -456.45594    141710.33   -48990.654    3823.6459     -52814.3   0.32084534 
  154200    274.45624   -538.83171    141999.77   -48936.223    3768.9955   -52705.218   0.31474592 
  154400    277.58017   -594.59396    142023.74   -48929.288    3811.8953   -52741.184   0.32576269 
  154600    275.21573   -452.01849    141762.71   -48951.949    3779.4253   -52731.375   0.32931121 
  154800    276.73538   -375.94513    141639.71   -48967.093     3800.294   -52767.387   0.33071132 
  155000     275.5738   -454.64813    141877.39   -48953.404    3784.3425   -52737.747   0.33062354 
[...]
  163200    274.71598    -554.9808    141847.35   -49019.553    3772.5624   -52792.116   0.31254712 
  163400    274.39903   -609.30409    142038.15   -49050.267    3768.2099   -52818.477   0.31043839 
  163600    274.32549   -515.12252    141909.07     -49003.3       3767.2     -52770.5    0.3189682 
  163800     275.3764   -403.38622    141672.12   -49062.402    3781.6317   -52844.034    0.3100437 
  164000    270.85301   -402.75878     141719.6   -49079.268    3719.5138   -52798.782   0.32713152 
  164200     272.5362   -587.30985    141990.62   -49075.488    3742.6285   -52818.117   0.30911568 
  164400    273.15538   -619.94648    142052.04   -49020.905    3751.1314   -52772.036   0.29432405 
  164600     271.3008   -469.73789    141830.08       -49003    3725.6631   -52728.663   0.33320564 
  164800     274.3026   -398.61828    141710.25    -49041.35    3766.8856   -52808.235   0.31770705 
  165000    275.11602   -501.48917     141893.5   -49017.866     3778.056   -52795.922   0.30578718 
  165200    278.50173   -612.83905     142086.4   -49013.026    3824.5507   -52837.577   0.30394487 
  165400    273.10259   -525.27053    141961.83   -49040.454    3750.4065    -52790.86   0.30181176 
  165600    276.80022   -381.45244    141698.02   -48984.983    3801.1844   -52786.167   0.31897723 
  165800    269.96177   -450.78177    141736.27   -49007.857    3707.2748   -52715.132   0.32578637 
  166000    273.18326   -548.66196     142037.5   -48967.971    3751.5142   -52719.485   0.31665938 
  166200    273.83631   -634.80243    142103.63   -48995.389    3760.4823   -52755.872   0.29611135 
  166400    278.27758   -418.10589    141745.78   -48994.151    3821.4725   -52815.624   0.31341167 
  166600    277.49037    -331.0418    141514.98   -48991.069     3810.662   -52801.731   0.34264231 
  166800     275.4621   -499.32652     141830.6   -49046.534    3782.8086   -52829.343   0.30660484 
  167000    276.01736   -689.09207    142183.12   -49043.456    3790.4338    -52833.89   0.31298864 
  167200    276.42849   -574.82019    141986.96   -48995.328    3796.0796   -52791.408   0.31449802 
  167400    279.56397    -353.8676    141494.46   -49041.415     3839.138   -52880.553   0.32375674 
  167600    271.89387   -279.95799    141485.64   -49024.428    3733.8076   -52758.236   0.34201834 
  167800    272.51684   -603.12521    142026.32   -49086.066    3742.3625   -52828.429   0.30867454 
  168000    273.20504   -734.21018    142248.73   -49072.224    3751.8133   -52824.037   0.30360016 
  168200    272.37025   -477.47154    141741.23   -49072.579    3740.3495   -52812.928   0.32378003 
  168400    275.10213   -240.50284    141267.35   -49034.517    3777.8653   -52812.383   0.35174229 
  168600    275.10846   -394.42498    141627.26    -49044.27    3777.9522   -52822.222    0.3314553 
  168800    271.31372   -805.33261    142315.55   -49075.021    3725.8406   -52800.862   0.30011698 
  169000    274.38947   -734.56243    142193.25    -49061.32    3768.0786   -52829.398   0.31416929 
  169200    278.06938   -251.36381    141401.85   -49038.018    3818.6132   -52856.632   0.32823239 
  169400    274.76727   -182.20817    141231.67   -49064.669    3773.2668   -52837.936   0.34275082 
  169600    270.68639     -575.196    141998.36   -49069.125    3717.2257    -52786.35   0.31896898 
  169800    272.82625   -843.13925    142454.84   -49068.452    3746.6115   -52815.064   0.27686386 
  170000    271.20983   -527.78325    141877.95   -49110.295    3724.4139   -52834.708   0.32510247 
  170200    271.09057   -183.39907    141207.16   -49123.772    3722.7762   -52846.548   0.35271059 
  170400    273.29584   -310.49866    141489.47   -49095.475    3753.0602   -52848.535   0.31165797 
  170600    272.95258   -714.32055    142223.01   -49071.872    3748.3463   -52820.218   0.30411881 
  170800    271.90934   -716.09588    142249.66   -49094.109    3734.0199   -52828.129   0.29573271 
  171000    270.77534   -383.89274    141631.62   -49098.053    3718.4472     -52816.5   0.32587642 
  171200    270.87457   -250.53973    141374.13   -49126.562    3719.8099   -52846.372   0.34178126 
  171400    269.06076   -493.18103    141771.53   -49120.509    3694.9016    -52815.41   0.31765403 
  171600    274.53487   -656.20432    142147.23   -49084.559    3770.0753   -52854.634   0.29090645 
  171800    274.05443   -620.36587     142018.5     -49064.1    3763.4777   -52827.578   0.30442156 
  172000    272.91515    -406.9961     141668.6   -49072.618    3747.8324    -52820.45   0.34391185 
  172200    277.30577    -367.0857    141631.38   -49080.572     3808.127   -52888.699   0.31231819 
  172400    269.99125   -518.81547    141950.82   -49047.612    3707.6797   -52755.292   0.30727749 
  172600    273.73409   -651.08742    142121.31   -49032.756    3759.0786   -52791.835   0.31755542 
  172800    272.38281   -503.92591    141894.41   -49041.144    3740.5219   -52781.665   0.29016564 
  173000    271.64732   -376.80988    141663.18   -49061.526    3730.4217   -52791.948   0.32712941 
  173200    272.64765   -449.41461     141772.6   -49098.327    3744.1589   -52842.486   0.32536731 
  173400     269.6065   -583.41809     142002.4   -49082.441     3702.396   -52784.837   0.29618901 
  173600    271.99956   -567.74023    141998.94     -49035.9     3735.259   -52771.159   0.31673469 
  173800    275.01409   -496.81122    141800.66   -49038.962    3776.6563   -52815.618   0.32734964 
  174000     280.2421   -418.46898    141713.13   -49005.794    3848.4504   -52854.244   0.32406317 
  174200     279.5576   -490.97092    141903.46   -48998.691    3839.0505   -52837.741   0.30806444 
  174400    274.38796   -574.77875    142097.26   -48980.444    3768.0579   -52748.502   0.31690888 
  174600    277.10518   -567.65088     141981.5   -48991.575    3805.3723   -52796.947   0.31513984 
  174800    275.79244   -414.90709    141710.69   -48958.763    3787.3451   -52746.108   0.31427725 
  175000     275.5151   -430.27254    141692.11   -49003.941    3783.5365   -52787.478   0.34537116 
  175200    275.80813   -512.07141    141900.54   -48997.808    3787.5605   -52785.369   0.30524823 
  175400    269.22064   -590.22416    141997.77   -49005.077    3697.0972   -52702.174   0.31732751 
  175600    279.32228   -541.36208    141811.53   -49017.439    3835.8189   -52853.258   0.34675408 
  175800    279.56403   -375.50862    141561.97   -49002.799    3839.1387   -52841.937   0.32297779 
  176000    273.00904   -430.95711    141649.89   -48989.898    3749.1217    -52739.02   0.34065066 
  176200    281.35228   -572.07965    141998.25   -48938.644     3863.696    -52802.34   0.31557213 
  176400    278.51635   -632.72101    142095.41   -48974.434    3824.7514   -52799.186   0.30234955 
  176600    277.13287   -444.08701    141771.56   -48957.551    3805.7526   -52763.303   0.32307368 
  176800    277.47049   -320.23582    141538.58   -48966.921     3810.389    -52777.31   0.34092754 
  177000    274.35968    -492.5643    141816.23   -48980.988    3767.6695   -52748.657   0.32677988 
  177200    279.01436    -653.6465    142178.88   -48990.956    3831.5903   -52822.546   0.28460092 
  177400    274.93113   -601.53422    142017.06   -49075.764     3775.517   -52851.281   0.33904532 
  177600    275.57559   -287.43281    141482.52   -49046.635    3784.3671   -52831.002   0.34306566 
  177800    277.45126   -287.40647    141433.45   -49026.878    3810.1249   -52837.002   0.31646227 
  178000    280.35359   -583.56012    142024.13   -48983.347    3849.9814   -52833.329   0.33101305 
  178200    272.59992   -792.08772    142350.44   -49010.557    3743.5034   -52754.061   0.28914369 
  178400     277.9335   -491.29232     141798.6   -48991.694    3816.7473   -52808.442   0.31790582 
  178600    271.30928   -160.44492    141258.48   -49009.376    3725.7797   -52735.155   0.38175667 
  178800     274.3017   -444.83142    141666.49   -48981.371    3766.8733   -52748.244    0.3249312 
  179000    280.78003   -757.71707    142382.12   -48950.197    3855.8375   -52806.035   0.28716413 
  179200    278.16896    -704.6576    142257.87   -48972.205    3819.9808   -52792.186   0.30234645 
  179400    279.95008   -235.49034    141495.94   -48952.454    3844.4402   -52796.895    0.3381905 
  179600    278.23591   -215.80229    141358.26   -48960.505    3820.9002   -52781.405    0.3380337 
  179800    274.49267   -625.88934    142048.24    -48984.24    3769.4957   -52753.736   0.31672831 
  180000    280.29417   -788.91556    142403.69   -48948.146    3849.1654   -52797.311   0.29701738 
  180200    281.43682   -502.10443    141844.94   -48915.533     3864.857    -52780.39   0.29901552 
  180400    278.81567   -214.56966    141323.94   -48877.613    3828.8618   -52706.474     0.380447 
  180600    281.49391   -409.02192    141688.54   -48961.426     3865.641   -52827.067   0.33261893 
  180800     278.7225   -719.28942    142291.66   -48921.403    3827.5823   -52748.985   0.28225423 
  181000    274.89878   -672.98317    142192.08   -48959.829    3775.0728   -52734.902   0.32820507 
  181200    277.67198    -343.0128    141615.99   -48949.097     3813.156   -52762.253   0.32776001 
  181400    273.15966   -316.55846    141497.02   -48985.652    3751.1902   -52736.842   0.33314087 
  181600    276.87877   -542.27148    141888.63   -49003.479    3802.2631   -52805.742   0.33077293 
  181800    276.33686   -648.59275    142105.14   -48973.502    3794.8213   -52768.323   0.30329006 
  182000    274.68545   -528.49816    141893.78   -48983.347    3772.1432    -52755.49   0.31690509 
  182200    275.88684   -380.52639     141649.5   -49000.267    3788.6414   -52788.908   0.33116762 
  182400    275.87093   -451.08261    141686.66   -49001.605    3788.4229   -52790.028   0.34192138 
  182600    278.85634   -547.79853    141897.63    -48965.66    3829.4203   -52795.081   0.30815339 
  182800    282.01573   -593.98841    141985.97   -48931.532    3872.8069   -52804.339   0.32231877 
  183000    275.41333   -471.40553    141870.05    -48932.75    3782.1388   -52714.888   0.33332411 
  183200    275.47539   -422.59639    141773.86   -48916.585    3782.9912   -52699.576   0.30203785 
  183400    278.01437   -497.63141    141810.72   -48925.539    3817.8579   -52743.397   0.34951997 
  183600    271.77433   -504.91979    141906.57    -48951.26     3732.166   -52683.426   0.32518602 
  183800    275.24462   -548.61922    141906.28   -48982.588    3779.8221    -52762.41    0.3072595 
  184000    270.71189   -493.98217    141780.23   -48994.345    3717.5759   -52711.921   0.35586185 
  184200    274.99492   -437.64586    141701.22   -49035.344    3776.3931   -52811.737   0.32255651 
  184400    274.95452   -487.31936    141765.45    -49044.22    3775.8383   -52820.058   0.32065685 
  184600    273.71251   -556.34608    141872.69   -49051.558    3758.7823    -52810.34   0.33107502 
  184800    273.81818   -589.80218    141841.69   -49040.349    3760.2333   -52800.582    0.3221673 
  185000    273.86686   -438.50912    141690.52   -49032.482    3760.9019   -52793.384   0.33011248 
  185200    273.70281   -468.32741    141697.81   -49087.634    3758.6489   -52846.283   0.32907334 
  185400    273.32685   -555.12547    141834.35    -49066.41     3753.486   -52819.896   0.33340595 
  185600    272.37855   -562.35144    141909.06   -49067.807    3740.4635    -52808.27   0.30204233 
  185800    276.73133   -457.55501    141816.13   -49016.707    3800.2385   -52816.946   0.32560759 
  186000    277.67855   -440.33525    141693.69    -49004.96    3813.2462   -52818.207   0.34175164 
  186200    273.89332   -462.29088    141735.84   -48996.653    3761.2652   -52757.918   0.31168653 
  186400    277.68759   -531.08222     141919.9   -48947.308    3813.3704   -52760.679   0.33330543 
  186600    279.74947   -558.04448    141938.47   -48977.649    3841.6853   -52819.335   0.32090746 
  186800    268.85003   -504.40777    141732.89   -49003.409    3692.0077   -52695.417   0.32123083 
  187000    274.81368   -387.70557    141602.06   -48977.386    3773.9041    -52751.29   0.34521799 
  187200    277.84338   -464.61828     141798.2   -48994.677    3815.5097   -52810.187   0.30999547 
  187400    274.94877   -626.86047    142095.21    -48979.57    3775.7593   -52755.329   0.30603095 
  187600    271.87353   -640.63759    142025.06   -49018.755    3733.5282   -52752.284   0.31999875 
  187800    270.98778   -386.85768    141600.26   -49010.287    3721.3646   -52731.651   0.33936136 
  188000    275.38896   -301.79163    141501.81   -48986.838    3781.8042   -52768.642   0.34193018 
  188200    275.06858    -540.1692    141986.18    -48975.99    3777.4045   -52753.394   0.30694357 
  188400    276.10889   -743.74258    142309.36   -48960.715    3791.6907   -52752.405    0.3051937 
  188600    280.26587     -526.156     141891.8   -48969.957    3848.7768   -52818.734   0.29932505 
  188800    274.93586   -239.81536    141360.18   -48985.263     3775.582   -52760.845   0.34155991 
  189000    278.60559   -347.15951    141608.91   -48979.677    3825.9769   -52805.654   0.34260338 
  189200    277.50259    -706.9469    142312.74   -48977.219    3810.8298   -52788.048   0.28177831 
  189400     274.4182   -740.66141    142305.19   -48939.003    3768.4731   -52707.476   0.31012303 
  189600    280.04891   -353.50805    141561.47   -48959.102    3845.7974   -52804.899   0.33305433 
  189800    275.28335   -203.85076    141316.29   -48998.091    3780.3539   -52778.445   0.34374525 
  190000    272.34165   -552.10665    141990.85   -49025.858    3739.9567   -52765.814   0.32399152 
  190200    275.62016   -823.27971     142492.9   -48996.535    3784.9792   -52781.514   0.28642665 
  190400    275.54531   -576.48995    142029.86    -48998.97    3783.9514   -52782.921   0.31646626 
  190600    281.22871   -200.10827    141379.96   -48949.885    3861.9991   -52811.884   0.33546458 
  190800    280.06346   -316.86213     141560.8   -48980.926    3845.9972   -52826.923   0.33635984 
  191000    272.20987   -661.54919    142220.36   -48987.303    3738.1471    -52725.45    0.2975494 
  191200    272.70236   -711.23031    142258.83   -48979.334    3744.9102   -52724.244   0.29292098 
  191400    275.75658   -389.78731    141621.46   -49008.062    3786.8525   -52794.914   0.34047459 
  191600    278.68035   -227.67685    141330.84   -48968.512    3827.0036   -52795.516   0.33644044 
  191800     278.5221   -509.55744    141821.68   -48999.167    3824.8303   -52823.997   0.32101058 
  192000    273.36276   -722.46842    142295.99   -48993.162    3753.9792   -52747.141   0.30243706 
  192200    273.42876   -600.11795    142040.54   -48965.506    3754.8856   -52720.391   0.30140776 
  192400    277.08505   -269.46894    141484.71   -48976.327    3805.0959   -52781.423   0.34625947 
  192600    279.09394   -322.88854    141499.97    -49006.46    3832.6832   -52839.144    0.3404279 
  192800     277.3195   -607.88687    142042.04    -48979.45    3808.3156   -52787.766    0.3048458 
  193000    274.36105    -702.8541    142234.51   -48966.824    3767.6883   -52734.512   0.30399438 
  193200    280.35761   -489.07279    141803.73   -48925.987    3850.0367   -52776.024   0.32275922 
  193400    278.67469   -280.18998    141483.19    -48930.72    3826.9258   -52757.646   0.34105043 
  193600    276.46769   -485.97543    141795.44   -48941.663     3796.618   -52738.281   0.31838583 
  193800    275.44924   -679.42061    142173.81   -48983.977     3782.632   -52766.609   0.31076797 
  194000    273.73985   -632.23922     142008.3   -49009.935    3759.1577   -52769.093   0.30697136 
  194200    274.43729     -360.693    141595.19   -48999.447    3768.7353   -52768.183   0.33054495 
  194400    275.67953   -389.36461     141627.9   -48982.079    3785.7945   -52767.873   0.33860778 
  194600    275.36377   -615.43457    142034.05   -49002.959    3781.4583   -52784.417   0.29846864 
  194800     272.9969   -633.40045    142148.23    -48987.73    3748.9551   -52736.685    0.3015991 
  195000    277.61932    -459.4814    141797.78   -48974.505    3812.4329   -52786.938   0.32014334 
  195200    278.49838    -303.1514    141572.45   -48962.168    3824.5046   -52786.672   0.32979161 
  195400    280.48701   -461.56903    141807.35   -48964.361    3851.8137   -52816.175    0.3248319 
  195600    276.32298    -661.0937    142136.45   -48966.136    3794.6307   -52760.766    0.3120991 
  195800    277.09824   -575.45574    142018.16   -49008.924     3805.277   -52814.201   0.30389249 
  196000    274.02219   -395.37862    141621.41   -48983.184    3763.0349   -52746.219   0.31696171 
  196200     272.7305   -356.08417    141596.42   -48971.312    3745.2966   -52716.609   0.34113238 
  196400    278.31361    -594.8305       142022   -48969.258    3821.9672   -52791.225   0.31223004 
  196600    277.63274   -661.99583    142197.78   -49029.384    3812.6172   -52842.001   0.28389164 
  196800    275.68289   -480.97612    141782.44   -49024.418    3785.8406   -52810.259   0.33455793 
  197000    277.26632   -254.30971    141445.05    -49037.04    3807.5853   -52844.626   0.31858987 
  197200    271.22535   -480.58405    141725.56   -49088.717    3724.6271   -52813.344   0.31580379 
  197400    274.45517    -636.6229    142139.99     -49044.1    3768.9808   -52813.081   0.31758498 
  197600    273.91381   -604.07515    142037.22   -48962.375    3761.5465   -52723.921   0.31242296 
  197800    275.20332   -368.97425    141643.69   -48953.602    3779.2548   -52732.857   0.33387666 
  198000     277.6002    -409.2056    141639.16   -48982.356    3812.1703   -52794.526   0.33461566 
  198200    270.66792   -602.23241    141995.58   -49005.097    3716.9721   -52722.069   0.31080398 
  198400    278.25303   -625.49597     142110.9    -48933.77    3821.1353   -52754.905   0.29870466 
  198600    278.39673   -451.91453    141784.58   -48926.569    3823.1086   -52749.678   0.33189504 
  198800     277.4588   -367.68529    141533.29   -48959.356    3810.2284   -52769.585   0.35458149 
  199000    279.96402   -473.45916    141739.25   -48963.787    3844.6317   -52808.419   0.32157365 
  199200    273.05515   -662.66725    142105.87   -48954.407    3749.7549   -52704.162   0.32975448 
  199400    273.64615   -608.86039    142071.66   -48964.901     3757.871   -52722.772   0.31284945 
  199600     275.7197   -419.61261    141728.41   -48989.497    3786.3461   -52775.843   0.30516826 
  199800    278.63443   -348.48397    141592.44   -48970.994    3826.3729   -52797.367   0.34557566 
  200000    277.34094   -492.82696    141859.73   -48987.967      3808.61   -52796.577   0.31111213 
Loop time of 237.524 on 6 procs for 200000 steps with 4608 atoms

Performance: 363.753 ns/day, 0.066 hours/ns, 842.022 timesteps/s
98.9% CPU use with 6 MPI tasks x no OpenMP threads

MPI task timing breakdown:
Section |  min time  |  avg time  |  max time  |%varavg| %total
---------------------------------------------------------------
Pair    | 194.55     | 196.83     | 202.35     |  19.5 | 82.87
Neigh   | 12.863     | 13.198     | 13.661     |   9.1 |  5.56
Comm    | 11.821     | 17.325     | 19.792     |  66.4 |  7.29
Output  | 3.0307     | 3.0318     | 3.0357     |   0.1 |  1.28
Modify  | 5.6925     | 5.8049     | 5.9084     |   2.8 |  2.44
Other   |            | 1.332      |            |       |  0.56

Nlocal:        768.000 ave         786 max         753 min
Histogram: 1 0 0 1 3 0 0 0 0 1
Nghost:        1689.67 ave        1702 max        1677 min
Histogram: 2 0 0 1 0 0 0 1 0 2
Neighs:        0.00000 ave           0 max           0 min
Histogram: 6 0 0 0 0 0 0 0 0 0
FullNghs:      24181.3 ave       24842 max       23647 min
Histogram: 1 0 0 1 3 0 0 0 0 1

Total # of neighbors = 145088
Ave neighs/atom = 31.486111
Neighbor list builds = 13307
Dangerous builds = 0
write_data		data.${NAME}
write_data		data.ice_276K_-500atm_mW
System init for write_data ...
Total wall time: 0:05:54
