
# Create simulation box of size 50 x 50 x 50 Angstrom
#
lattice	            sc 1
Lattice spacing in x,y,z = 1.0000000 1.0000000 1.0000000
region 	            all block 0 ${X} ${YZ_LO} ${YZ_HI} ${YZ_LO} ${YZ_HI} units box
region 	            all block 0 53.4 ${YZ_LO} ${YZ_HI} ${YZ_LO} ${YZ_HI} units box
region 	            all block 0 53.4 0.3806038328839918.0 ${YZ_HI} ${YZ_LO} ${YZ_HI} units box
region 	            all block 0 53.4 0.3806038328839918.0 50.52651616711427.0 ${YZ_LO} ${YZ_HI} units box
region 	            all block 0 53.4 0.3806038328839918.0 50.52651616711427.0 0.3806038328839918.0 ${YZ_HI} units box
region 	            all block 0 53.4 0.3806038328839918.0 50.52651616711427.0 0.3806038328839918.0 50.52651616711427.0 units box
create_box          1 all
Created orthogonal box = (0.0000000 0.38060383 0.38060383) to (53.400000 50.526516 50.526516)
  3 by 1 by 2 MPI processor grid

# fill box with 4175 randomly distributed atoms
#
create_atoms        1 random 4608 63782 all
Created 4608 atoms
  create_atoms CPU = 0.001 seconds
mass                1 18.015

# Define potential
#
pair_style          sw
pair_coeff          * * /data/emrosky-sim/Freezing_Simulations/Melting/mW_fancy/mW.sw mW
Reading sw potential file /data/emrosky-sim/Freezing_Simulations/Melting/mW_fancy/mW.sw with DATE: 2019-02-27

# Run minimization
#
minimize            1.0e-8 1.0e-8 10000 1000
WARNING: Using 'neigh_modify every 1 delay 0 check yes' setting during minimization (../min.cpp:187)
Neighbor list info ...
  update every 1 steps, delay 0 steps, check yes
  max neighbors/atom: 2000, page size: 100000
  master list distance cutoff = 6.3065
  ghost atom cutoff = 6.3065
  binsize = 3.15325, bins = 17 16 16
  1 neighbor lists, perpetual/occasional/extra = 1 0 0
  (1) pair sw, perpetual
      attributes: full, newton on
      pair build: full/bin/atomonly
      stencil: full/bin/3d
      bin: standard
Per MPI rank memory allocation (min/avg/max) = 4.236 | 4.254 | 4.260 Mbytes
Step Temp E_pair E_mol TotEng Press 
       0            0      4755405            0      4755405    3383838.2 
     686            0    -52199.73            0    -52199.73     271.0679 
Loop time of 2.16499 on 6 procs for 686 steps with 4608 atoms

99.2% CPU use with 6 MPI tasks x no OpenMP threads

Minimization stats:
  Stopping criterion = max force evaluations
  Energy initial, next-to-last, final = 
      4755405.00305774  -52199.1548011472  -52199.7299396644
  Force two-norm initial, final = 1.0887023e+08 5.3051550
  Force max component initial, final = 57498868.0 1.0839313
  Final line search alpha, max atom move = 0.042527233 0.046096598
  Iterations, force evaluations = 686 1000

MPI task timing breakdown:
Section |  min time  |  avg time  |  max time  |%varavg| %total
---------------------------------------------------------------
Pair    | 1.78       | 1.9187     | 2.031      |   6.0 | 88.62
Neigh   | 0.044989   | 0.046535   | 0.047965   |   0.4 |  2.15
Comm    | 0.064234   | 0.17772    | 0.31735    |  20.0 |  8.21
Output  | 0          | 0          | 0          |   0.0 |  0.00
Modify  | 0          | 0          | 0          |   0.0 |  0.00
Other   |            | 0.02202    |            |       |  1.02

Nlocal:        768.000 ave         771 max         763 min
Histogram: 1 0 0 1 0 0 1 0 2 1
Nghost:        1711.17 ave        1717 max        1705 min
Histogram: 1 0 0 0 1 2 1 0 0 1
Neighs:        0.00000 ave           0 max           0 min
Histogram: 6 0 0 0 0 0 0 0 0 0
FullNghs:      25987.7 ave       26301 max       25744 min
Histogram: 1 1 1 0 1 0 0 1 0 1

Total # of neighbors = 155926
Ave neighs/atom = 33.838108
Neighbor list builds = 40
Dangerous builds = 0

# Add velocity/set timestep
#
velocity            all create ${TEMP} 120598 rot yes dist gaussian
velocity            all create 276 120598 rot yes dist gaussian
timestep            5.0

# Define output
#
compute	            1 all msd
thermo	            100
thermo_style        custom step temp press vol etotal ke pe c_1[4] density

# Neighbor lists
#
neigh_modify        delay 0 every 1 check yes

# Set fixes
#
fix                 1 all momentum 10 linear 1 1 1 rescale
fix                 2 all nve
fix                 3 all temp/csvr ${TEMP} ${TEMP} 500.0 928347
fix                 3 all temp/csvr 276 ${TEMP} 500.0 928347
fix                 3 all temp/csvr 276 276 500.0 928347
fix                 4 all press/berendsen iso ${PRES} ${PRES} 1000.0 modulus 20000
fix                 4 all press/berendsen iso -500 ${PRES} 1000.0 modulus 20000
fix                 4 all press/berendsen iso -500 -500 1000.0 modulus 20000

# Run 0.5 ns equilibration
#
dump                1 all custom 1000 eq.${NAME}.dump id type x y z vx vy vz
dump                1 all custom 1000 eq.liq_276K_-500atm_mW.dump id type x y z vx vy vz
run                 100000
Per MPI rank memory allocation (min/avg/max) = 3.504 | 3.507 | 3.510 Mbytes
Step Temp Press Volume TotEng KinEng PotEng c_1[4] Density 
     686          276    1561.3424    134280.31   -48409.535    3790.1954    -52199.73            0    1.0265579 
     700     139.6528    1464.1989     135532.2   -48204.376    1917.7949   -50122.171   0.08646644    1.0170758 
     800      186.325   -139.30008    137933.56   -46686.721    2558.7252   -49245.446   0.54849671   0.99936893 
     900    216.71852   -350.63468     138646.1   -45715.605     2976.107   -48691.712   0.96839992   0.99423295 
    1000    236.61968   -513.74667    138800.58   -45069.578    3249.4015   -48318.979    1.4625155   0.99312639 
    1100    244.30544   -414.65573    139115.69   -44578.466    3354.9469   -47933.413    2.0532326   0.99087684 
    1200    255.93071   -511.92156     139442.4   -44206.168     3514.592    -47720.76    2.8162623   0.98855525 
    1300     259.9231   -295.88531    139587.13   -43874.216    3569.4179   -47443.634    3.6713196   0.98753027 
    1400     264.5354   -586.41031    139436.75   -43716.611    3632.7567   -47349.368    4.6608104   0.98859533 
    1500     267.4363   -559.92315    139649.69   -43517.668    3672.5936   -47190.261    5.6430042   0.98708786 
    1600    266.19856    -506.3922    139588.33   -43490.959    3655.5961   -47146.555    6.5758471    0.9875218 
    1700    266.87282   -538.97263    139453.68   -43419.331    3664.8556   -47084.186    7.8041312   0.98847527 
    1800    276.28894   -555.98635    139322.17   -43302.515    3794.1632   -47096.678    9.0513812   0.98940833 
    1900    272.15115   -581.75094    139537.28   -43260.167    3737.3407   -46997.508    10.334047   0.98788307 
    2000    275.52921   -510.53918    139400.25   -43163.252    3783.7301   -46946.982    11.750669   0.98885418 
    2100    275.67717   -486.35792    139500.91   -43263.929     3785.762   -47049.691    13.118992    0.9881406 
    2200    275.16306   -669.23687    139256.63   -43285.531     3778.702   -47064.232    14.343295   0.98987402 
    2300    272.30141   -484.45337    139428.03   -43229.843    3739.4042   -46969.247    15.649948   0.98865713 
    2400    278.70134   -381.13101    139360.06   -43216.621    3827.2918   -47043.913    17.087609    0.9891393 
    2500    278.35639   -464.93873    139291.17   -43200.751    3822.5547   -47023.306    18.305962   0.98962853 
    2600    279.14644   -460.30751    139463.44   -43100.268    3833.4042   -46933.672    19.739906   0.98840615 
    2700    277.97248   -360.76736    139447.86   -43073.846    3817.2826   -46891.129    21.315735   0.98851657 
    2800    272.87254   -425.00775    139392.93    -43192.49    3747.2472   -46939.737    22.639256   0.98890608 
    2900    274.99119   -639.35217    139472.01   -43132.995    3776.3418   -46909.337    23.975263   0.98834541 
    3000     277.3938   -443.14167    139311.88   -43082.688    3809.3358   -46892.024    25.145231    0.9894814 
    3100     276.2452   -618.27452    139657.99   -43064.132    3793.5626   -46857.695     26.35524   0.98702925 
    3200    280.27098   -746.68697    139546.41   -43092.412     3848.847   -46941.259    27.739063   0.98781844 
    3300    276.29547   -482.71995    139669.81   -43138.332     3794.253   -46932.585    29.156945   0.98694571 
    3400    277.31209   -740.93783     139582.9   -43090.241    3808.2138   -46898.454    30.421672   0.98756018 
    3500    276.95293   -471.26229    139407.33   -42977.958    3803.2815    -46781.24     31.79919   0.98880394 
    3600    280.25782   -682.40492    139211.55   -42975.473    3848.6662   -46824.139    33.112445   0.99019454 
    3700    274.49663   -480.18521    139062.83   -43037.457    3769.5501   -46807.007    34.451476   0.99125347 
    3800    281.43064    -513.4013    139191.94   -43026.728    3864.7721   -46891.501    35.996088   0.99033403 
    3900    274.48164   -572.14855    139195.68   -43169.773    3769.3444   -46939.117    37.314278   0.99030746 
    4000    271.99247   -524.20468    139176.44   -43207.909    3735.1615    -46943.07    38.584383   0.99044431 
    4100    274.87463   -371.57068    139359.54   -43143.135    3774.7411   -46917.876    40.503372   0.98914306 
    4200    274.67576   -634.88282    139250.61   -43140.748    3772.0101   -46912.758    42.085732   0.98991678 
    4300    281.02479   -666.61607    139264.13   -43110.644    3859.1987   -46969.843    43.579158    0.9898207 
    4400    279.21365   -404.62654    139313.97   -43105.758    3834.3272   -46940.085    45.157555   0.98946655 
    4500    273.77804   -457.75699    139479.32   -43025.221    3759.6821   -46784.903    46.938756   0.98829361 
    4600    276.44808   -612.35647    139248.94   -43091.172    3796.3486   -46887.521    48.079758   0.98992867 
    4700    272.94253   -888.86462    138907.23   -43136.365    3748.2084   -46884.573    49.389777   0.99236389 
    4800    274.70719   -351.03836    138714.35    -43114.34    3772.4418   -46886.782     50.75878   0.99374372 
    4900    272.95839   -460.96432    138883.94   -43089.042    3748.4261   -46837.468    52.168221   0.99253025 
    5000    277.18217   -258.19793     138840.9   -43204.861    3806.4296    -47011.29    53.098182   0.99283796 
    5100    280.47747   -507.80916    138954.81   -43112.308    3851.6826    -46963.99    54.165495   0.99202408 
    5200    277.38447   -587.12968    139078.56   -43173.329    3809.2077   -46982.537    55.710055   0.99114137 
    5300    275.55387   -604.21832    138734.37   -43213.532    3784.0688     -46997.6    56.912099   0.99360031 
    5400    277.67787   -528.72986    138992.48   -43091.176    3813.2369   -46904.413    58.466482    0.9917552 
    5500    277.03181   -383.31358     138932.6   -43028.529    3804.3648   -46832.893    59.639561   0.99218268 
    5600    283.29578   -176.78963    139113.65   -42950.039    3890.3854   -46840.424    61.276841   0.99089138 
    5700    278.93695   -756.58607    138790.84   -43057.109    3830.5273   -46887.636    62.676727   0.99319609 
    5800    276.94048   -438.74051    139027.96   -42977.095    3803.1106   -46780.206    64.107637   0.99150212 
    5900    270.82998   -397.12874    138954.53   -43062.413    3719.1976    -46781.61    65.627004   0.99202608 
    6000    276.63977   -367.95816    139094.96   -43141.235     3798.981   -46940.216    66.776524   0.99102454 
    6100    272.37647   -664.39674    139140.79   -43156.875    3740.4349    -46897.31    68.090248   0.99069811 
    6200    273.35283   -372.74848    139300.38   -43166.065    3753.8429   -46919.908    69.594805   0.98956308 
    6300    271.48875   -289.60821    139300.45    -43188.97    3728.2442   -46917.214     71.26968   0.98956264 
    6400     281.5205   -487.94457    138970.17   -43160.677    3866.0062   -47026.683    72.425863   0.99191445 
    6500    276.56081   -645.77094    138917.37   -43121.039    3797.8968   -46918.936     74.05016   0.99229141 
    6600    274.42701   -535.16381    138859.85   -43184.064    3768.5941   -46952.658    75.594102   0.99270251 
    6700     278.0231    -411.6009    139214.17   -43138.483    3817.9777   -46956.461    77.079185   0.99017588 
    6800    270.45813   -672.30007    139045.76   -43249.097    3714.0911   -46963.189    78.921133   0.99137516 
    6900    275.26743   -592.21396    138802.06   -43207.779    3780.1353   -46987.914    80.249626   0.99311578 
    7000    278.32634   -337.85289    138929.97   -43087.542    3822.1421   -46909.684    81.592329   0.99220144 
    7100    273.26118   -543.12695    139245.34   -43168.544    3752.5843   -46921.129     83.29441   0.98995427 
    7200    273.38614   -473.02697    139061.95   -43198.253    3754.3002   -46952.553    84.790722   0.99125978 
    7300    267.54506   -687.84844    138844.23   -43202.323    3674.0872    -46876.41    86.230266   0.99281416 
    7400    270.80903   -326.33066    138750.18    -43235.92    3718.9099    -46954.83    87.465165   0.99348709 
    7500    275.96592   -553.10764    139003.92   -43164.581    3789.7273   -46954.308    88.991191    0.9916736 
    7600    275.13887   -417.83679    138844.89   -43110.432    3778.3698   -46888.801    90.485161   0.99280946 
    7700    274.74122   -358.85229    139049.98   -43048.579     3772.909   -46821.488    92.168089   0.99134512 
    7800    274.77583   -525.87594    139129.67   -43118.407    3773.3844   -46891.791    93.247917   0.99077731 
    7900    273.90891   -410.23473    139202.39   -43171.043    3761.4793   -46932.523    94.984203   0.99025973 
    8000    273.56672   -534.70614    139156.74   -43210.971    3756.7801   -46967.751    96.423117   0.99058458 
    8100    277.20413   -396.69151    139144.03   -43154.316    3806.7311   -46961.047    97.663646   0.99067506 
    8200    271.34931   -600.56224     139114.1   -43140.835    3726.3293   -46867.165    99.473701   0.99088818 
    8300    274.21166   -466.13443    139072.99   -43116.756    3765.6368   -46882.393    100.70189   0.99118105 
    8400    281.02291   -564.70763    139143.87   -43154.582     3859.173   -47013.755    102.60654   0.99067617 
    8500    274.95926   -565.81711    139035.08   -43239.884    3775.9033   -47015.788    103.85412   0.99145135 
    8600    275.44664   -671.23973    138944.97    -43113.35    3782.5962   -46895.947    105.22799   0.99209434 
    8700    277.02885   -569.53814    138977.36   -43070.038    3804.3242   -46874.362    106.28877   0.99186309 
    8800    283.20462   -550.67455    138938.33   -43007.596    3889.1335    -46896.73    107.83532   0.99214172 
    8900    275.71053   -543.45718    138843.39   -43062.284    3786.2202   -46848.505    109.07961   0.99282017 
    9000    274.86287   -262.52122    138964.48   -42993.988    3774.5796   -46768.568    110.17818   0.99195507 
    9100    276.18603   -460.42204    139085.33   -42974.173    3792.7501   -46766.924    111.85668   0.99109312 
    9200    279.80908    -459.2245    139088.63    -43059.74    3842.5039   -46902.244     112.8681   0.99106959 
    9300    274.42856   -696.55241    139082.28   -43069.093    3768.6154   -46837.708    114.20872   0.99111487 
    9400    273.71004   -201.79555    139016.45   -43076.376    3758.7483   -46835.124    114.87817   0.99158423 
    9500    275.07933   -591.81729    139246.25   -43143.597    3777.5521   -46921.149    116.26196   0.98994777 
    9600    274.46341    -433.7536    139353.83   -43184.718    3769.0941   -46953.812    117.65891   0.98918355 
    9700    277.68099   -518.73321    139346.88   -43088.272    3813.2798   -46901.552    119.21909   0.98923287 
    9800    277.26487   -399.09981    139456.99   -43129.942    3807.5653   -46937.507    120.57164   0.98845182 
    9900    277.21719   -632.57001    139388.05   -43025.653    3806.9105   -46832.563    121.50709   0.98894072 
   10000    274.00523   -476.08255    139307.75   -43196.985    3762.8021   -46959.787    122.56183   0.98951072 
   10100     274.2839   -503.77622    139504.17   -43114.658    3766.6288   -46881.287    124.41173   0.98811753 
   10200    276.22098   -553.51223    139345.45   -43146.109      3793.23   -46939.339    125.44031   0.98924306 
   10300    275.77951   -488.08234    139258.84   -43148.843    3787.1674    -46936.01    126.12475   0.98985827 
   10400    280.70303   -376.15995    139355.31   -43072.427    3854.7802   -46927.207    127.35779   0.98917307 
   10500    277.96784   -396.32365       139508   -43045.348    3817.2189   -46862.567    128.75281   0.98809041 
   10600    279.87709   -443.83443    139488.66   -43076.784    3843.4379   -46920.222     129.8055   0.98822738 
   10700    274.15076   -554.04296    139543.05   -43138.391    3764.8006   -46903.192    131.59165   0.98784222 
   10800    280.36149   -775.03849       138890   -43086.335      3850.09   -46936.425    132.74972   0.99248699 
   10900    280.63774   -309.02054     138769.2   -43001.465    3853.8835   -46855.349    134.22298   0.99335093 
   11000    280.56596   -309.75158    139005.57   -43042.833    3852.8978   -46895.731    136.18693   0.99166184 
   11100    275.81059   -738.93794    138881.55   -43077.963    3787.5943   -46865.557    137.79211   0.99254734 
   11200    271.79682   -568.76953    138745.26   -43056.757    3732.4747   -46789.232    139.25879   0.99352232 
   11300    280.12128   -377.54227    138910.77   -43074.581    3846.7913   -46921.372    140.87527   0.99233855 
   11400    274.33352   -329.15518    138873.46   -43081.872    3767.3103   -46849.182    142.15701   0.99260521 
   11500    267.99324   -452.92712    138963.73   -43219.298    3680.2418    -46899.54    143.85255   0.99196038 
   11600    275.33633   -600.33276    138835.48   -43268.736    3781.0814   -47049.818    144.78967   0.99287671 
   11700    276.34312   -661.84848    138763.59   -43212.899    3794.9073   -47007.806    146.28495   0.99339108 
   11800    272.14552   -481.48146    138825.71   -43167.654    3737.2634   -46904.918    147.69245   0.99294658 
   11900    270.89264   -246.11475    138926.49   -43222.099    3720.0581   -46942.157    149.10332    0.9922263 
   12000    276.42127   -441.52365    139068.11   -43186.267    3795.9804   -46982.247    150.83705   0.99121586 
   12100    273.45674     -532.835    139138.04   -43198.641    3755.2698   -46953.911    152.46578   0.99071766 
   12200    280.72301   -459.04907    139317.69   -43058.063    3855.0545   -46913.117    154.28841   0.98944012 
   12300    278.84847   -374.57991    139419.66   -42999.525    3829.3122   -46828.837    155.84469   0.98871649 
   12400    276.39652   -458.97239    139371.07   -42912.934    3795.6406   -46708.575    157.42247   0.98906122 
   12500    280.30751   -498.60413    139364.26    -42971.25    3849.3486   -46820.598    158.95048   0.98910952 
   12600    279.57202   -556.16151    139414.73   -42990.877    3839.2484   -46830.126    160.37738   0.98875148 
   12700    275.97612    -467.0337    139370.94   -42987.444    3789.8675   -46777.312     162.0625   0.98906208 
   12800     276.2052   -629.72733     139315.3   -43059.604    3793.0132   -46852.617      163.978   0.98945715 
   12900    274.96984   -522.97561    139232.17   -43082.611    3776.0486    -46858.66    165.41674   0.99004788 
   13000     278.2295    -798.5112    138730.91   -43111.849    3820.8122   -46932.661    166.63719   0.99362511 
   13100    278.37168   -408.60686    138539.12   -43129.951    3822.7647   -46952.715    167.70698   0.99500065 
   13200    279.09902   -427.32589    138837.11   -43053.863    3832.7529   -46886.615    169.01015   0.99286505 
   13300    278.97239   -446.31516    138862.16   -43047.674    3831.0139   -46878.688    170.31489   0.99268599 
   13400    279.82689   -518.00605     139008.7   -43090.535    3842.7485   -46933.284    171.42814   0.99163947 
   13500    276.86984   -730.26611    139068.55   -43090.354    3802.1405   -46892.495    172.97765   0.99121269 
   13600    272.20407   -558.10757    138806.18   -43122.434    3738.0674   -46860.502    174.22558   0.99308631 
   13700    276.61837   -524.40694     138826.9   -43133.156    3798.6871   -46931.843    176.16122   0.99293812 
   13800    275.95835   -665.29012    139071.82    -43156.73    3789.6234   -46946.353    178.13023   0.99118941 
   13900    273.04826   -484.37589    139142.18   -43202.644    3749.6604   -46952.304    179.31092   0.99068819 
   14000    269.01538   -424.70638    139149.83   -43285.552    3694.2784   -46979.831    181.22537   0.99063373 
   14100    274.17202   -260.66911    139214.98   -43268.526    3765.0925   -47033.619    182.71925   0.99017014 
   14200    274.48165     -571.065    139342.23    -43194.11    3769.3445   -46963.455    184.43283   0.98926588 
   14300    274.06137    -338.0276    139223.33    -43165.06     3763.573   -46928.633    185.67978   0.99011073 
   14400    269.26063   -409.48649    139404.02   -43198.457    3697.6463   -46896.103    187.44691   0.98882744 
   14500    276.79557   -504.24544     139275.9   -43175.917    3801.1206   -46977.038    189.30106   0.98973704 
   14600    274.36355   -512.17548    139214.42   -43097.358    3767.7227   -46865.081    190.35834   0.99017415 
   14700    275.22484    -579.4542    139145.06   -43023.666    3779.5504   -46803.217    191.28323   0.99066768 
   14800    278.60176   -396.06162     138983.8   -43063.809    3825.9242   -46889.734    193.09522   0.99181712 
   14900    277.32352   -419.75997    139370.98   -43042.564    3808.3707   -46850.935    194.71709   0.98906184 
   15000     270.9391   -710.07643     139268.9   -43146.336     3720.696   -46867.032    195.75026   0.98978679 
   15100    274.80868   -624.34268    139271.98   -43168.771    3773.8354   -46942.607    197.09159   0.98976488 
   15200    274.46708     -461.438     139190.6   -43211.236    3769.1444    -46980.38    198.49087   0.99034361 
   15300    274.51821   -531.76438    139555.91   -43139.515    3769.8466   -46909.362    200.09951   0.98775118 
   15400    280.84888   -570.24677    139545.19   -43116.513    3856.7831   -46973.296    201.06929   0.98782706 
   15500    278.17343    -568.2726    139464.12   -43124.167    3820.0422   -46944.209    202.13707   0.98840132 
   15600    274.37308   -542.67671    139364.77   -43167.285    3767.8536   -46935.139    202.67324   0.98910592 
   15700    274.89414   -668.38455    139132.79   -43151.384    3775.0091   -46926.393    204.00411   0.99075504 
   15800    281.39736   -240.55863    138992.63   -43153.087    3864.3151   -47017.402    205.16462   0.99175411 
   15900    275.59604   -440.66414    139393.45   -43087.423     3784.648   -46872.071    206.93621   0.98890237 
   16000    272.91205   -684.26045    139247.26   -43155.329    3747.7898   -46903.119    208.02919   0.98994059 
   16100    274.57234   -571.15265    139122.11   -43178.379    3770.5898   -46948.969    209.11878   0.99083114 
   16200     279.1874    -513.3598    139117.63   -43095.685    3833.9666   -46929.651    210.94443   0.99086305 
   16300    279.83214   -481.82412    139505.68   -43034.417    3842.8205   -46877.238    212.70574   0.98810683 
   16400    279.70175   -269.93102    139279.09   -43021.391      3841.03   -46862.421    213.80647   0.98971439 
   16500    280.54615   -369.46367    139507.16   -43059.504    3852.6257    -46912.13       215.72   0.98809634 
   16600    277.54322   -610.07172    139381.67   -43127.777    3811.3877   -46939.164    216.86047   0.98898601 
   16700    275.62483   -413.85015     139341.9   -43139.233    3785.0433   -46924.276    218.30924   0.98926826 
   16800    276.60937   -626.50981    139423.04    -43120.47    3798.5636   -46919.034    219.08081   0.98869251 
   16900    275.86729   -557.99462    139097.91   -43130.923    3788.3729   -46919.296    220.19141   0.99100353 
   17000    274.32812   -483.72825     139017.2   -43111.234    3767.2362    -46878.47    221.93068   0.99157887 
   17100    277.10096   -685.62167    138528.38   -43153.258    3805.3144   -46958.572    222.83866   0.99507784 
   17200    278.55408   -571.78168    138790.61    -43082.85    3825.2694    -46908.12    224.89278   0.99319774 
   17300    276.36661   -520.96391    139066.29   -43008.862    3795.2299   -46804.092    226.55004   0.99122886 
   17400    277.50344   -641.95543    139341.82   -43089.655    3810.8415   -46900.497    228.22978   0.98926878 
   17500    275.69002   -562.66074    139253.63   -43101.747    3785.9385   -46887.686    229.47443    0.9898953 
   17600    270.29252   -446.19777    138970.01   -43145.668    3711.8168   -46857.485     230.9697   0.99191557 
   17700    273.56644   -419.71222    139103.86   -43164.917    3756.7763   -46921.693    232.52008   0.99096109 
   17800    273.80044    -393.5577    139164.08   -43174.165    3759.9897   -46934.155    234.07881   0.99053233 
   17900    275.24891   -630.72324    139186.11   -43212.864     3779.881   -46992.745    235.23169   0.99037552 
   18000    271.78387   -724.53155     139276.3   -43262.745    3732.2969   -46995.042    236.74248   0.98973423 
   18100    275.13146   -448.93953    139237.12   -43307.955    3778.2681   -47086.223    238.05447   0.99001268 
   18200    271.17066   -529.98126    139285.06   -43177.954     3723.876    -46901.83    238.87283   0.98967193 
   18300    269.27363    -436.2773    139205.97   -43210.317    3697.8248   -46908.142    239.88901   0.99023422 
   18400    272.38912   -538.44008     139035.8   -43248.437    3740.6086   -46989.045    240.76562   0.99144619 
   18500    272.19614   -370.54327     139131.9   -43149.401    3737.9585   -46887.359    241.72471   0.99076139 
   18600    275.68546   -632.35077    139053.92    -43112.16     3785.876   -46898.036    243.52361   0.99131699 
   18700    275.30823   -451.10027    138715.98   -43075.842    3780.6955   -46856.537    245.29338   0.99373208 
   18800    277.73351   -451.98996    138785.76    -43048.08    3814.0009   -46862.081    246.72918   0.99323243 
   18900    270.00725   -688.21154    138715.18   -43120.331    3707.8993   -46828.231    248.09008   0.99373781 
   19000    276.48693   -402.41804    138580.69   -43087.388    3796.8822    -46884.27    249.50293   0.99470221 
   19100     274.5352   -247.20523    138896.07   -43134.203    3770.0799   -46904.283    251.52245   0.99244359 
   19200    272.65594   -360.87455    139105.21   -43103.154    3744.2727   -46847.426    253.41631    0.9909515 
   19300    276.08936   -442.24001    138927.85   -43075.301    3791.4225   -46866.723    254.26414   0.99221659 
   19400    277.15556   -612.39907    139029.83   -43090.586    3806.0643   -46896.651    255.76315   0.99148875 
   19500    280.51659   -494.49315    138814.03   -43051.215    3852.2198   -46903.435    256.72244   0.99303012 
   19600    280.79672   -560.13589    139068.35   -43080.894    3856.0668   -46936.961    258.80099   0.99121415 
   19700    278.54512   -531.48957     139255.8    -43067.87    3825.1464   -46893.017    260.29363   0.98987993 
   19800    282.87752   -538.58695     139428.9   -42987.616    3884.6415   -46872.257    261.67071   0.98865093 
   19900    280.87598   -572.56989    139640.01   -43015.574    3857.1553   -46872.729    263.59677   0.98715627 
   20000    282.52088    -459.7036    139626.11   -42964.597     3879.744   -46844.341    265.14643   0.98725457 
   20100    278.15921   -562.35518    139264.03    -43024.05     3819.847   -46843.897    265.90544   0.98982142 
   20200    276.56641   -644.21325    139377.35   -42996.204    3797.9736   -46794.178    267.55034   0.98901666 
   20300    279.57066   -472.11594    139304.82   -42953.843    3839.2298   -46793.073    268.17559   0.98953156 
   20400    281.35409   -463.90174    139122.27   -43048.257    3863.7209   -46911.978    268.57155   0.99082998 
   20500    280.23992    -556.2429    139087.35    -42979.09    3848.4204   -46827.511    269.78443   0.99107873 
   20600    276.50409   -513.37427    138756.78   -43051.278    3797.1178   -46848.396    270.54456   0.99343985 
   20700    277.21353   -291.92723    139381.98   -43046.723    3806.8603   -46853.583    272.73893   0.98898378 
   20800    280.12063   -607.92607     139449.5    -43072.68    3846.7823   -46919.462    274.29793   0.98850491 
   20900    273.91972   -408.01527    139199.45   -43109.796    3761.6278   -46871.424    274.82445   0.99028064 
   21000    280.17008   -436.69828    139488.74   -43048.467    3847.4614   -46895.928     276.9861   0.98822681 
   21100    277.10056   -455.74007    139568.78   -43104.389    3805.3089   -46909.698    277.88056   0.98766014 
   21200    272.22745    -552.7658    139197.18   -43238.758    3738.3885   -46977.147    277.83352   0.99029677 
   21300    271.08822   -641.93887    138971.88   -43287.433    3722.7438   -47010.177    278.70808   0.99190221 
   21400    273.67022   -540.68421    138941.63   -43222.374    3758.2014   -46980.575    279.87834   0.99211815 
   21500    277.21661   -469.19003    138975.07   -43044.616    3806.9026   -46851.519    281.25938   0.99187949 
   21600     274.9184    -412.6661    139446.27   -43114.731    3775.3422   -46890.073    283.84762   0.98852784 
   21700    279.25557   -413.54752    139495.08   -43124.532    3834.9027   -46959.434    284.55534   0.98818196 
   21800    275.40265   -397.08534    139460.51   -43051.176    3781.9922   -46833.168    286.11836   0.98842688 
   21900    275.91057   -673.71769    139378.51   -43076.308    3788.9673   -46865.275    287.99687   0.98900839 
   22000    276.64992   -510.02259    139350.44   -43126.172    3799.1204   -46925.293    289.14221    0.9892076 
   22100    276.75832   -578.64229    139385.07    -43088.54     3800.609   -46889.149    290.66545   0.98896188 
   22200     279.8175   -649.40886    139609.13   -43047.761    3842.6195   -46890.381    292.31735   0.98737466 
   22300    277.70396   -719.50808    139466.76   -43052.856    3813.5951   -46866.451    293.45154    0.9883826 
   22400     270.7618   -475.18213    139321.57    -43178.31    3718.2613   -46896.572    294.02976    0.9894126 
   22500    267.39276    -520.0034    139042.03   -43146.217    3671.9956   -46818.212    295.15009   0.99140178 
   22600    276.71536   -604.51199    138857.65   -43144.451    3800.0192    -46944.47    296.43861   0.99271824 
   22700    271.30127   -480.75654     139060.4   -43152.872    3725.6696   -46878.541    298.49891    0.9912708 
   22800    273.39524   -507.61877    139140.72   -43197.615    3754.4253    -46952.04     299.8951   0.99069859 
   22900    274.09389   -446.96366    138951.33   -43249.495    3764.0195   -47013.515    300.58524   0.99204893 
   23000    282.92946   -448.16936     139062.9   -43143.753    3885.3548   -47029.108    301.77822   0.99125298 
   23100    278.19841   -472.86361    139136.92   -43137.224    3820.3852   -46957.609    303.50449   0.99072568 
   23200    274.95809    -449.0488    139132.58   -43121.799    3775.8872   -46897.686    305.12199   0.99075657 
   23300    276.16851   -524.22228     139271.6   -43155.048    3792.5095   -46947.558    306.83114   0.98976757 
   23400    275.68651   -676.03269    139306.39     -43180.2    3785.8904    -46966.09     307.8216   0.98952041 
   23500    271.90308   -545.27496    139289.48    -43149.14    3733.9341   -46883.074    309.10969   0.98964053 
   23600    274.18639   -478.66438    139152.77   -43213.565    3765.2898   -46978.855     309.9395   0.99061282 
   23700    273.79684   -294.42871    139065.83   -43245.089    3759.9403   -47005.029     311.5456    0.9912321 
   23800    269.74912   -442.80127     139090.9   -43208.202    3704.3546   -46912.557    312.94963   0.99105343 
   23900    275.37167   -653.99919    139140.69   -43136.123    3781.5668    -46917.69    314.52425   0.99069878 
   24000    275.74796   -362.38786    138837.81   -43095.229    3786.7343   -46881.963    315.28251    0.9928601 
   24100     270.9937   -641.03608    138972.81   -43100.338    3721.4459   -46821.784     317.4855   0.99189557 
   24200    282.55059   -378.30021    138950.34   -42991.868     3880.152    -46872.02    319.08054   0.99205596 
   24300    275.62934   -489.76963     138904.4   -43056.225    3785.1053    -46841.33    319.85032   0.99238406 
   24400    280.05292   -584.04025     138866.1    -42986.07    3845.8524   -46831.923    321.58749   0.99265779 
   24500     273.7808   -466.59577    139016.23   -43046.521      3759.72   -46806.241    323.04568   0.99158577 
   24600    277.20486   -522.14543    138726.18   -43049.032    3806.7412   -46855.774    324.44794   0.99365897 
   24700    279.30078   -416.75817    138660.32   -43015.131    3835.5237   -46850.654    326.18214   0.99413098 
   24800    284.65422   -376.67969    138866.44   -42972.412    3909.0403   -46881.453    328.03303   0.99265537 
   24900    278.80281   -644.70219    138776.73   -43080.547    3828.6852   -46909.232    329.07394   0.99329705 
   25000    277.30709   -520.00153    138973.75   -43128.265    3808.1451    -46936.41    331.27723   0.99188888 
   25100    271.88889   -434.66177    138849.52   -43117.875    3733.7392   -46851.614    332.00718   0.99277633 
   25200    273.87984   -553.80879    138724.67   -43145.103    3761.0801   -46906.183    333.06125   0.99366982 
   25300    273.66025   -453.61059    138804.33    -43156.09    3758.0646   -46914.154     334.6059   0.99309957 
   25400    270.32696   -459.04752    138858.79   -43136.856    3712.2899   -46849.146    335.98776   0.99271002 
   25500    278.03408   -569.75424    138656.96   -43102.223    3818.1286   -46920.352    336.64091   0.99415507 
   25600    274.00773   -394.56303    138866.34   -43188.035    3762.8363   -46950.871    338.59787   0.99265605 
   25700    272.41934   -531.34485       138981   -43196.111    3741.0237   -46937.135     339.9973   0.99183714 
   25800    271.68242   -449.82962    138980.62   -43207.311    3730.9038   -46938.215    341.63703   0.99183983 
   25900    274.21378   -741.58924    138857.14   -43335.637     3765.666   -47101.303    342.64345   0.99272185 
   26000    278.96114   -477.34311    138638.07   -43180.514    3830.8595   -47011.374    343.59513   0.99429053 
   26100     272.4108   -235.46536    138846.09   -43235.153    3740.9063   -46976.059    345.13009   0.99280086 
   26200    276.94133   -330.53821    139280.13    -43133.87    3803.1223   -46936.992    347.33571   0.98970695 
   26300    275.66567   -560.59627     139104.4   -43093.919    3785.6041   -46879.523    348.38348   0.99095727 
   26400    277.02338   -642.88059    138849.22   -43181.847     3804.249   -46986.096    350.19557   0.99277847 
   26500    281.86949   -401.14995    138925.71   -43036.546    3870.7986   -46907.344    352.25161   0.99223184 
   26600    280.02104   -504.38693    139116.95    -43030.51    3845.4146   -46875.925    353.91175    0.9908679 
   26700    273.89244   -258.37478    139116.05   -43081.581    3761.2531   -46842.834    355.82732   0.99087429 
   26800    274.87269   -467.08739    139035.91   -43033.991    3774.7145   -46808.705    356.79142    0.9914454 
   26900    275.68342   -470.03278    138968.95     -43096.5    3785.8478   -46882.347    358.82843   0.99192313 
   27000    275.66849   -689.11878    138697.98   -43152.008    3785.6429   -46937.651    360.84319   0.99386102 
   27100    274.71324   -397.33193    138837.56   -43152.011    3772.5248   -46924.535    361.92286   0.99286186 
   27200     272.2356    -519.1019    138833.04   -43075.798    3738.5004   -46814.298    362.73409   0.99289416 
   27300    273.88543   -355.54504    138871.77   -43041.339    3761.1569   -46802.496    364.30407   0.99261725 
   27400     280.1839   -536.49701    138987.67   -43008.941    3847.6512   -46856.592    366.72843   0.99178953 
   27500    276.84823   -478.05309    138687.38    -43090.68    3801.8438   -46892.524    367.64112     0.993937 
   27600    277.95736   -558.07379    138883.45   -43038.634     3817.075   -46855.709    369.91385   0.99253378 
   27700    278.52087   -412.71154    138876.33   -43031.483    3824.8135   -46856.297     371.5285   0.99258471 
   27800    283.12978   -529.90692       139072   -43011.256    3888.1057   -46899.362    372.80314   0.99118814 
   27900    276.64918   -545.11307    138946.59   -43056.673    3799.1102   -46855.783     373.6899   0.99208274 
   28000    279.99929   -707.98396    139032.98   -42911.181     3845.116   -46756.297    375.27318    0.9914663 
   28100    279.39103   -623.12643    139061.89   -43009.344     3836.763   -46846.107    376.41679   0.99126019 
   28200     276.4668   -407.06438    138934.23   -43107.889    3796.6057   -46904.495    377.79727   0.99217099 
   28300    266.64866   -412.45834    138933.26   -43186.464    3661.7773   -46848.241    379.30493   0.99217795 
   28400    281.67254   -729.11044    138722.25   -43029.954     3868.094   -46898.048    380.71452   0.99368716 
   28500     275.0534   -573.84864    138784.55   -43075.836     3777.196   -46853.032    382.74116   0.99324108 
   28600    275.05877   -448.69964    138729.29   -43114.578    3777.2699   -46891.848    384.30627   0.99363669 
   28700    274.55678   -492.27169    139087.62   -43202.756    3770.3763   -46973.132     387.0835    0.9910768 
   28800    278.60435   -558.58303    139095.03   -43140.899    3825.9598   -46966.859      388.356     0.991024 
   28900    272.90985   -511.21995    139023.36   -43112.699    3747.7595   -46860.458    389.83736   0.99153491 
   29000    276.78435   -573.58263    138941.58   -43117.119    3800.9665   -46918.086    390.80589   0.99211856 
   29100    278.47106   -386.51387    139067.47   -43049.083    3824.1294   -46873.212    391.91458   0.99122043 
   29200    274.89868   -573.30405    139125.39   -43114.958    3775.0713   -46890.029    393.23923   0.99080774 
   29300    279.74377    -451.6986    139079.31   -43157.693     3841.607     -46999.3     394.2059   0.99113601 
   29400    274.77813   -526.80087    139034.89   -43143.732    3773.4159   -46917.147    394.89048   0.99145269 
   29500    274.45623   -544.32266    138701.12   -43188.606    3768.9954   -46957.602     395.9807   0.99383855 
   29600    279.13071   -341.48147    138960.95    -43158.66    3833.1881   -46991.848     398.0017   0.99198027 
   29700    273.90181   -546.49041    139087.81   -43121.283    3761.3818   -46882.665    399.09616   0.99107549 
   29800    274.47921   -600.68988    138976.43    -43137.58     3769.311   -46906.891    399.72635   0.99186978 
   29900    282.24002   -619.94569     139028.3    -43051.01    3875.8869   -46926.897     400.7746   0.99149972 
   30000    275.63259   -395.99494    139210.96   -43066.973    3785.1498   -46852.122    401.88833   0.99019875 
   30100    278.65496   -664.74411    139294.99   -43043.689    3826.6549   -46870.344    403.45346   0.98960141 
   30200    277.19687   -447.06543    139205.77   -43095.533    3806.6314   -46902.164    404.05798   0.99023564 
   30300    282.47091   -373.26898    139219.61   -43069.314    3879.0577   -46948.371    405.06647   0.99013723 
   30400    275.78341   -419.00603    139437.99   -43172.331     3787.221   -46959.552    406.83341   0.98858654 
   30500     271.2905   -825.05064    139352.19    -43198.75    3725.5217   -46924.272    407.61442   0.98919523 
   30600    277.90224   -423.68364    139173.21   -43159.274     3816.318   -46975.592    408.73431   0.99046735 
   30700     276.4768   -429.50655    139185.42   -43158.506     3796.743   -46955.249     409.9272   0.99038041 
   30800     273.6936   -425.63395    139253.45    -43140.04    3758.5225   -46898.563    412.19358   0.98989658 
   30900    276.43884   -420.52937    139410.25   -43128.824    3796.2217   -46925.046    414.20942   0.98878319 
   31000    277.44526   -608.17269    139454.69    -43151.18    3810.0425   -46961.223    415.19488   0.98846815 
   31100    270.69812   -584.71262    139365.72   -43229.928    3717.3868   -46947.315    415.96906   0.98909914 
   31200    267.69708   -579.61075    139069.19   -43268.995    3676.1748    -46945.17    416.83542   0.99120817 
   31300    283.32801   -625.20969    139006.41   -43153.326     3890.828   -47044.154    417.65764   0.99165584 
   31400    273.97648   -560.89344    138770.71   -43234.001    3762.4072   -46996.408    418.12943   0.99334016 
   31500    277.90299   -521.29837    138731.05   -43160.666    3816.3284   -46976.994    419.12186    0.9936241 
   31600    275.10804   -436.00804    138889.21   -43102.071    3777.9464   -46880.017    420.49939   0.99249265 
   31700    276.23768   -473.28198    138831.05   -43093.624    3793.4593   -46887.083     422.1638   0.99290842 
   31800    272.50972   -417.85537    138924.72   -43090.355    3742.2648   -46832.619    423.02721   0.99223897 
   31900    278.60165   -521.67628    138956.83   -43051.602    3825.9227   -46877.525    424.79149   0.99200964 
   32000    275.95422   -438.10876    138749.45   -43015.426    3789.5667   -46804.993    425.85256   0.99349231 
   32100    276.49324   -359.58211    138934.39   -43082.748    3796.9689   -46879.717    427.69441   0.99216989 
   32200    277.25231   -577.91421    138964.32   -43023.413    3807.3928   -46830.806    429.58458   0.99195618 
   32300    272.46139   -397.12111    138625.86    -43080.42    3741.6011   -46822.021    430.75949   0.99437806 
   32400    278.40269   -516.08555    138890.45   -43023.124    3823.1906   -46846.315    432.43926   0.99248377 
   32500    272.48882   -580.93082     139170.7   -43054.484    3741.9777   -46796.461    434.10221    0.9904852 
   32600    280.70174   -505.24461     139173.3   -43057.246    3854.7624   -46912.009    434.78523   0.99046672 
   32700    281.63282   -423.80746    139147.41   -43045.515    3867.5486   -46913.064    436.53285   0.99065097 
   32800     275.2779   -527.87356    139100.99   -43130.276    3780.2791   -46910.555    437.49505   0.99098159 
   32900    270.70435   -542.65681    139361.85   -43200.071    3717.4724   -46917.543    439.49468   0.98912665 
   33000    273.61205    -531.6348    139446.01   -43156.828    3757.4026   -46914.231    441.77094   0.98852966 
   33100    274.87317    -636.0565    139200.42   -43220.753     3774.721   -46995.474    443.03889    0.9902737 
   33200    276.52912   -650.60464     138850.2   -43126.455    3797.4615   -46923.916    443.66556   0.99277147 
   33300    275.59631   -650.09443    138564.95   -43110.014    3784.6516   -46894.666    445.43229   0.99481516 
   33400     275.4349   -636.01159    138681.91   -43162.453    3782.4351   -46944.889    447.46753   0.99397618 
   33500    279.83178   -445.27696     138750.5   -43053.695    3842.8156   -46896.511    449.35969   0.99348479 
   33600    276.53213   -438.97264    139141.59   -43108.952    3797.5028   -46906.455    452.38108   0.99069242 
   33700    276.94997   -431.93134    139179.92   -43125.962     3803.241   -46929.203    454.83241   0.99041956 
   33800    274.46978   -623.21166    139100.42   -43121.795    3769.1815   -46890.976    456.51201   0.99098561 
   33900    274.55398   -593.92161    138765.88    -43156.16    3770.3378   -46926.497    457.59209   0.99337472 
   34000     275.4912   -626.54254     138690.1   -43105.608    3783.2083   -46888.816    459.82586   0.99391746 
   34100    272.08151   -553.74016    138687.54   -43146.493    3736.3843   -46882.878    460.25812   0.99393586 
   34200    272.56435   -471.79475    138851.27   -43118.934     3743.015   -46861.949    461.41435   0.99276381 
   34300    277.19156   -706.62996    138864.76   -43121.875    3806.5586   -46928.434     462.9659   0.99266737 
   34400    279.71154   -471.44859    139095.31   -43030.787    3841.1645   -46871.952    464.15102     0.991022 
   34500    281.46464   -661.17045    139051.48   -43004.665    3865.2391   -46869.904    465.14179   0.99133439 
   34600    282.83993    -557.3235    139356.41   -43013.565    3884.1253    -46897.69    467.02705   0.98916524 
   34700    275.28824   -471.99168    139196.94   -43079.264    3780.4211   -46859.685     467.3841   0.99029846 
   34800    272.46483   -577.71142    139050.69   -43113.168    3741.6483   -46854.817     467.9292   0.99134007 
   34900    276.99018   -339.00029    139088.09   -43131.935    3803.7931   -46935.728     469.4557   0.99107349 
   35000    276.53142    -367.7041    138974.75   -43182.206    3797.4932   -46979.699    471.48202   0.99188174 
   35100    277.03326   -376.20619    139186.08   -43117.749    3804.3847   -46922.133    474.14575   0.99037574 
   35200     278.4628   -364.72775    139116.04   -42991.555     3824.016   -46815.571    475.30775   0.99087434 
   35300    276.12463   -483.96191     139129.6   -43008.598    3791.9069   -46800.505    475.82483   0.99077781 
   35400    272.21683   -452.22147    139210.15   -43079.607    3738.2426    -46817.85    478.10512   0.99020451 
   35500    274.58233   -556.45161    138938.91   -43058.796     3770.727   -46829.523    479.38116    0.9921376 
   35600    277.38066   -554.92046     139045.9   -43089.051    3809.1555   -46898.206    480.59417   0.99137418 
   35700    274.66826   -496.48674     138794.4    -43075.51    3771.9071   -46847.417    481.62297   0.99317062 
   35800    276.63446   -594.17389    138607.81    -43054.04    3798.9081   -46852.948    482.73403   0.99450756 
   35900    273.94861     -505.851    138677.97   -43037.852    3762.0244   -46799.877    483.78209   0.99400446 
   36000    274.79453   -561.55952    138612.02   -43022.525    3773.6412   -46796.166    485.30098   0.99447738 
   36100    273.77365   -564.09279    138576.68   -43055.655    3759.6218   -46815.277     486.4094   0.99473099 
   36200     275.8839   -251.27029    138506.16    -43013.73     3788.601   -46802.331    487.55364   0.99523743 
   36300    276.44609   -507.25349    138576.32   -43003.276    3796.3213   -46799.597    489.25313   0.99473356 
   36400    279.39009   -517.02189    138785.47   -43010.107    3836.7501   -46846.857    491.60729    0.9932345 
   36500    287.61658   -467.34453    139266.94   -42932.744    3949.7212   -46882.465    494.30777   0.98980072 
   36600    277.52362   -545.60958    139449.93    -43057.19    3811.1187   -46868.309    496.66658   0.98850185 
   36700    278.18935   -371.73085    139478.23   -43055.814    3820.2608   -46876.074    498.71743   0.98830129 
   36800    275.40752   -325.23211    139576.88   -43107.385     3782.059   -46889.444    501.09818   0.98760276 
   36900    273.19361   -677.13385    139525.67   -43151.642    3751.6563   -46903.299    502.04118   0.98796525 
   37000    278.43856   -853.03761    139258.94   -43076.111    3823.6831   -46899.794    502.33437    0.9898576 
   37100    280.12445   -545.19575     138892.9   -43145.132    3846.8348   -46991.967    501.86166   0.99246629 
   37200    276.04074   -477.20844    138973.71   -43135.136    3790.7548    -46925.89    503.52711   0.99188917 
   37300    279.45046   -458.32313    139113.34   -43150.289    3837.5791   -46987.868     505.3604    0.9908936 
   37400    273.41701   -429.58746    139325.07    -43202.11    3754.7242   -46956.835    507.26491   0.98938774 
   37500    272.06441   -416.55103    139141.85   -43244.901    3736.1494   -46981.051    508.38648   0.99069057 
   37600    279.60525   -434.99348    139193.82   -43158.933    3839.7048   -46998.638    510.09151   0.99032063 
   37700    273.42337   -822.81367    139044.85   -43186.273    3754.8115   -46941.084    511.14475   0.99138167 
   37800    278.55474   -547.00269    139068.51   -43221.802    3825.2785   -47047.081    512.72718   0.99121304 
   37900     271.2712   -415.23609    139189.35   -43239.927    3725.2567   -46965.184    514.77361    0.9903525 
   38000    269.90052   -414.40986    139128.72   -43248.838    3706.4337   -46955.271    515.55753   0.99078408 
   38100     276.7745   -428.04438    139000.69   -43257.867    3800.8312   -47058.699     516.9108   0.99169666 
   38200     270.3018   -432.27245    139250.59   -43278.095    3711.9443    -46990.04    519.49794   0.98991693 
   38300    274.71816    -455.1943       139417   -43278.649    3772.5923   -47051.241    521.32749   0.98873535 
   38400    274.40904   -553.94277    139552.55   -43339.433    3768.3474    -47107.78    523.23582   0.98777497 
   38500    269.32393   -620.82431    139360.39   -43365.552    3698.5156   -47064.068    523.86534   0.98913696 
   38600    272.85299   -555.33357    138980.28   -43258.432    3746.9788    -47005.41    523.94478   0.99184228 
   38700     276.8602   -594.99774    139049.59   -43239.463    3802.0082   -47041.471    525.19731   0.99134786 
   38800    275.09999   -521.88562    138772.53   -43168.453    3777.8359   -46946.288    525.60643   0.99332715 
   38900    279.20131    -376.3633    138772.83    -43101.96    3834.1576   -46936.118    526.47147   0.99332498 
   39000     275.4296   -307.90508    139066.47   -43127.259    3782.3623   -46909.621    528.31529   0.99122755 
   39100    272.41603    -511.4513     139099.5   -43094.797    3740.9781   -46835.775     530.4368   0.99099216 
   39200    272.49617   -461.30388    139135.92   -43096.725    3742.0788   -46838.803    531.19333   0.99073277 
   39300    278.03116   -554.23469    139442.29   -43066.765    3818.0885   -46884.854    533.21123   0.98855603 
   39400    278.53167   -731.80206    139297.92   -43085.633    3824.9618   -46910.594     535.3647    0.9895806 
   39500    280.77107   -485.04739    138921.35   -43069.486    3855.7145   -46925.201    535.85861   0.99226302 
   39600    276.95274   -533.53575    138847.26   -43087.186    3803.2789   -46890.465    537.21663   0.99279247 
   39700    273.56369   -434.09559    138702.35   -43099.542    3756.7385   -46856.281    537.79102   0.99382973 
   39800    273.19768   -634.55176    138745.96   -43141.751    3751.7122   -46893.463    539.02673   0.99351734 
   39900    269.87332    -629.3514    138796.24   -43213.053    3706.0602   -46919.113    540.74442   0.99315741 
   40000    274.34616   -404.14239    138838.38   -43201.819    3767.4838   -46969.303     541.8554     0.992856 
   40100    274.61036   -580.86883    139091.98   -43124.623     3771.112   -46895.735    543.99107   0.99104573 
   40200    278.39059   -543.97872    139058.11   -43091.683    3823.0243   -46914.707    545.69973   0.99128716 
   40300    276.79807   -611.88477    139081.95   -43059.122     3801.155   -46860.276    546.91693   0.99111723 
   40400    274.66644   -346.48193    138989.99   -43089.325    3771.8822   -46861.207    547.22741   0.99177297 
   40500    276.03911   -636.04311    139154.83   -43125.134    3790.7324   -46915.867      549.511   0.99059816 
   40600     274.2483   -357.44021    139154.64   -43066.804    3766.1399   -46832.944    551.37939   0.99059946 
   40700    274.80343   -406.92538    138940.99   -43136.464    3773.7634   -46910.227    552.29177   0.99212277 
   40800    278.56325   -511.15053    139190.05   -43116.615    3825.3954    -46942.01    553.42922   0.99034748 
   40900    278.72371   -629.70311    139199.62    -43147.94    3827.5989   -46975.539    554.34017    0.9902794 
   41000    275.87265   -282.62237    139009.76   -43169.642    3788.4466   -46958.088    554.76755   0.99163195 
   41100    274.90544   -493.73387    139200.76   -43207.763    3775.1643   -46982.928    557.01673   0.99027129 
   41200    280.49099   -495.12532    139193.01   -43084.841    3851.8683    -46936.71    557.93349   0.99032643 
   41300    276.57131   -631.49695     139278.9   -43195.162    3798.0409   -46993.203    559.16668   0.98971573 
   41400    276.56468   -541.51075    139381.73     -43174.3    3797.9499    -46972.25    560.47747   0.98898557 
   41500    277.58611   -627.18206    139333.13   -43170.141    3811.9768   -46982.117    560.47455   0.98933048 
   41600    275.70544   -677.12214    139172.18   -43122.213    3786.1503   -46908.363    561.54528   0.99047465 
   41700    272.31828   -545.42023    139044.45   -43268.261    3739.6358   -47007.897     562.3759   0.99138453 
   41800    276.13056   -267.28088    139379.42   -43165.164    3791.9883   -46957.153    564.98829   0.98900193 
   41900    279.88012   -458.98977    139606.82   -43080.811    3843.4794   -46924.291    567.00264     0.987391 
   42000    271.00065   -710.45612     139719.8   -43141.768    3721.5414   -46863.309    568.23965   0.98659255 
   42100    276.06457   -491.92785    139603.53   -43081.447     3791.082   -46872.529    569.91805   0.98741424 
   42200    277.03769   -485.42678    139286.39   -43069.687    3804.4455   -46874.132    570.50457    0.9896625 
   42300    274.48627   -516.01479    139344.58    -43135.74    3769.4079   -46905.148    571.64205   0.98924919 
   42400    273.79436   -380.70992    139278.23   -43173.157    3759.9062   -46933.063    572.38996   0.98972048 
   42500    273.78731   -851.33659    139422.14   -43141.259    3759.8095   -46901.068     573.5534   0.98869891 
   42600    274.86858   -522.51879    139300.45   -43201.428     3774.658   -46976.086    575.25189   0.98956263 
   42700    271.57741   -613.27608    139399.09   -43189.722    3729.4617   -46919.184    576.78232   0.98886241 
   42800    271.76705   -434.61283    139370.74   -43275.142     3732.066   -47007.208     578.1385   0.98906356 
   42900    269.23523   -592.58611    139443.58   -43197.813    3697.2976    -46895.11    580.55041   0.98854691 
   43000    276.04596    -526.4315    139447.68   -43133.892    3790.8266   -46924.718    581.13558    0.9885178 
   43100    275.61251   -566.60184    139208.54   -43198.885    3784.8741   -46983.759    581.89801   0.99021598 
   43200    272.52325   -657.95932    138986.26   -43175.962    3742.4506   -46918.412     582.6782    0.9917996 
   43300     271.3916   -410.24715    139126.99   -43178.491    3726.9101   -46905.401    583.94173    0.9907964 
   43400    274.97751   -415.03542    139014.38   -43249.548     3776.154   -47025.702    584.90482   0.99159901 
   43500    270.73163   -487.40507    138829.96   -43208.942     3717.847   -46926.789    584.60495   0.99291622 
   43600    278.38419   -404.30803    138784.49   -43169.195    3822.9365   -46992.132    585.37837   0.99324151 
   43700    276.14241   -540.30442    138816.97   -43194.427     3792.151   -46986.578    586.48513   0.99300914 
   43800    276.47743   -523.51025    139127.71   -43128.865    3796.7518   -46925.616    589.06335   0.99079126 
   43900    273.22183   -457.58303    139043.81   -43149.152    3752.0439   -46901.196    589.70563   0.99138909 
   44000    277.98478   -376.22936    139049.43   -43146.368    3817.4516   -46963.819    590.44189   0.99134906 
   44100    275.10829   -476.60793    138905.34   -43097.778    3777.9499   -46875.728    590.77265   0.99237741 
   44200    283.44638   -761.02528    138831.09   -43122.709    3892.4535   -47015.162    592.25648   0.99290809 
   44300    265.18344   -334.69064    138817.63   -43184.661     3641.656   -46826.317    593.03243   0.99300438 
   44400     272.2559    -516.8119    138795.28   -43180.773    3738.7792   -46919.552    593.76483    0.9931643 
   44500    270.69743   -672.75015    138806.73   -43255.844    3717.3774   -46973.222    595.26538   0.99308239 
   44600    278.35419   -567.81928    138941.33   -43279.569    3822.5245   -47102.093     596.4528   0.99212035 
   44700    271.77566   -451.16314    139058.83   -43309.545    3732.1842    -47041.73    597.86678   0.99128201 
   44800    277.45332     -681.142    138931.55   -43252.108    3810.1532   -47062.261    599.47129   0.99219017 
   44900     275.5236    -488.7632    139322.09   -43213.365    3783.6531   -46997.018    602.51384   0.98940889 
   45000    273.91199    -591.5962    139285.76   -43200.577    3761.5216   -46962.098    603.18135   0.98966697 
   45100    273.03292   -444.22635    139094.91   -43218.068    3749.4497   -46967.518    603.62783   0.99102488 
   45200    276.21143   -447.11734    139130.39   -43223.062    3793.0988   -47016.161    604.14894   0.99077217 
   45300    278.49109   -529.71289    139241.18    -43226.13    3824.4044   -47050.535    605.50583   0.98998385 
   45400    274.54151   -359.41733    139285.79   -43256.579    3770.1665   -47026.745    606.83743   0.98966678 
   45500    276.31857   -491.33687    139208.27   -43206.302    3794.5701   -47000.872    607.76532   0.99021785 
   45600    275.73633    -498.1116    139095.38    -43211.02    3786.5745   -46997.594    609.14633   0.99102156 
   45700    278.16038   -573.89122    139047.04   -43243.295     3819.863   -47063.158    609.50393   0.99136606 
   45800    272.48001   -398.65968    139028.73   -43138.895    3741.8568   -46880.752    611.94779   0.99149664 
   45900    271.87799   -534.52145    138978.45   -43153.045    3733.5894   -46886.634    613.35351   0.99185535 
   46000    277.92307   -713.79642     139041.2   -43175.086     3816.604    -46991.69    614.00827   0.99140771 
   46100    275.57514   -543.51529    138960.49   -43180.547     3784.361   -46964.908    614.44451   0.99198353 
   46200    274.15993   -460.88166    138841.24   -43158.142    3764.9264   -46923.068    616.42734   0.99283551 
   46300    278.63066   -645.51826    138797.43   -43113.595    3826.3211   -46939.916    618.40743   0.99314894 
   46400    278.53701   -423.55239    138751.57   -43108.899     3825.035   -46933.934    619.23646   0.99347716 
   46500     277.6033   -661.43713    138988.16   -43102.473    3812.2129   -46914.686    621.78899   0.99178601 
   46600    278.49629   -559.01761    139135.41   -43023.777    3824.4759   -46848.253    624.28253   0.99073644 
   46700    276.81176   -376.63255    139402.28   -42996.361    3801.3429   -46797.704    626.65519   0.98883977 
   46800    279.66455   -462.54213    139374.57   -42925.682    3840.5191   -46766.201    627.56809   0.98903634 
   46900    279.30711   -517.48826    139552.55   -42958.875    3835.6105   -46794.485      629.696   0.98777494 
   47000    278.43491   -654.03937    139395.66   -42995.664     3823.633   -46819.297     630.7765   0.98888669 
   47100     275.0839   -404.84893    139398.03   -43019.641     3777.615   -46797.256    632.50077   0.98886988 
   47200    278.61861   -518.53335    139382.24   -43014.899    3826.1557   -46841.055    633.52329   0.98898196 
   47300    281.29199   -739.27329    139526.53    -43063.85    3862.8682   -46926.718    634.56382   0.98795917 
   47400    280.68072   -543.07915    139326.62   -43041.714    3854.4737   -46896.188     635.1923   0.98937671 
   47500    276.55262   -736.76314    139395.27   -43097.972    3797.7843   -46895.756     636.6166   0.98888949 
   47600    277.93932    -455.4609     139143.3   -43074.216    3816.8273   -46891.044    637.22265   0.99068024 
   47700    274.10714   -697.88895    139174.42   -43119.341    3764.2015   -46883.542    638.89704   0.99045873 
   47800    273.88293   -576.14778     138850.1   -43130.164    3761.1225   -46891.287    638.22367   0.99277218 
   47900    277.68487   -214.07036    139120.74   -43141.491    3813.3329   -46954.824    640.47597   0.99084091 
   48000     273.5478   -465.22895    139154.55   -43242.591    3756.5204   -46999.111    641.24889   0.99060016 
   48100    269.98198   -489.97015    138923.02    -43208.68    3707.5524   -46916.233    641.50659   0.99225107 
   48200    272.02029   -445.07875    138963.73   -43173.358    3735.5436   -46908.902      642.869   0.99196038 
   48300    270.46742   -380.92904     139224.8   -43135.903    3714.2187   -46850.122    645.12604   0.99010032 
   48400     275.3823   -522.80854    139471.94   -43068.714    3781.7127   -46850.427    647.02693   0.98834585 
   48500    272.99914   -644.29166    139081.67   -43125.717    3748.9857   -46874.703     646.6939   0.99111923 
   48600    273.38005   -496.09415    139218.41    -43177.69    3754.2166   -46931.907    647.88446   0.99014574 
   48700    276.68874   -602.48991    139068.22   -43225.603    3799.6535   -47025.257     648.9072   0.99121505 
   48800    274.82615   -456.13796    139116.18   -43230.314    3774.0753   -47004.389    651.40091   0.99087334 
   48900    273.56078   -276.83719    139095.08   -43171.352    3756.6985   -46928.051    654.32995   0.99102367 
   49000    277.05932   -569.55028    139204.03    -43196.37    3804.7425   -47001.113    656.49868     0.990248 
   49100     273.7009    -505.5868    139370.69   -43179.245    3758.6228   -46937.868    658.51538   0.98906386 
   49200    270.32432   -579.04427    139527.42   -43267.901    3712.2536   -46980.154    661.35682   0.98795285 
   49300     269.0726    -459.7458    139414.22   -43273.121    3695.0642   -46968.185    662.46014   0.98875509 
   49400    277.86964   -346.37351    139600.33   -43146.903    3815.8704   -46962.773    664.00078   0.98743688 
   49500    276.24383   -543.79897    139778.38   -43121.453    3793.5438   -46914.997    665.88337   0.98617908 
   49600    275.71642   -395.44987    139609.91   -43191.191    3786.3011   -46977.492     667.0403   0.98736914 
   49700    274.63287    -389.2374     140015.4   -43168.971    3771.4211   -46940.392    670.68437   0.98450966 
   49800    276.03935   -504.47376    140144.69   -43113.744    3790.7358    -46904.48    673.39017    0.9836014 
   49900     277.6943   -755.73147    139648.02   -43216.343    3813.4625   -47029.806    672.79439    0.9870997 
   50000    275.38477    -664.0769    139687.53   -43252.188    3781.7467   -47033.935    674.41137   0.98682049 
   50100    270.07637    -468.5759    139436.68   -43303.145    3708.8486   -47011.993    674.78628   0.98859579 
   50200    274.81797   -386.10232    139201.02   -43242.728    3773.9631   -47016.691    674.86449   0.99026947 
   50300    273.57252   -169.27639    139227.91   -43239.076    3756.8598   -46995.935    675.89904   0.99007821 
   50400    271.19549   -589.01626    139451.42   -43200.632     3724.217   -46924.849    677.11468   0.98849131 
   50500    268.03662   -470.22609    139488.59   -43217.109    3680.8375   -46897.946    678.93008   0.98822793 
   50600    273.79747   -565.68887    139360.94   -43194.563    3759.9489   -46954.512    679.15466   0.98913309 
   50700    272.48899   -577.76404     139156.9   -43192.123    3741.9801   -46934.103    679.45136   0.99058341 
   50800    276.31625    -457.7153    139528.07   -43102.211    3794.5383   -46896.749    682.39369   0.98794829 
   50900    280.22702   -636.25733    139264.15   -43100.809    3848.2433   -46949.052    682.89295   0.98982057 
   51000    274.60107   -406.82656     139361.1   -43175.934    3770.9844   -46946.919    684.88791   0.98913198 
   51100     275.5094   -566.28074    138974.34   -43156.591    3783.4581   -46940.049    684.22035    0.9918847 
   51200    278.27097   -390.15836    139242.47   -43094.271    3821.3817   -46915.653    685.73172   0.98997464 
   51300    279.11097   -690.69916    139415.41   -43011.558    3832.9171   -46844.475    687.61246   0.98874665 
   51400    274.94571   -582.73164    139148.65   -43215.317    3775.7172   -46991.034    687.52692   0.99064214 
   51500    272.35201   -443.32996    138989.02    -43220.85     3740.099   -46960.949    689.55001    0.9917799 
   51600    271.39342   -450.76981    139469.78   -43239.745    3726.9351    -46966.68    692.43995   0.98836118 
   51700    276.21811   -390.66349    139564.02   -43196.686    3793.1905   -46989.877    694.98522   0.98769377 
   51800    272.11582   -541.37574    139497.04    -43242.92    3736.8555   -46979.776    695.84835   0.98816802 
   51900    273.54795   -616.25675    139358.72   -43265.042    3756.5224   -47021.565    697.39087   0.98914885 
   52000    276.98409   -482.24835    139402.28   -43267.508    3803.7095   -47071.217    699.83706   0.98883978 
   52100    272.43134   -505.80059    139380.94    -43223.39    3741.1884   -46964.579    701.55753   0.98899115 
   52200    274.72974   -562.13924    139326.91   -43249.464    3772.7514   -47022.215    703.30577    0.9893747 
   52300    275.00853   -353.90983    139432.04   -43136.006    3776.5799   -46912.586     704.5535   0.98862871 
   52400    278.91146    -541.5332    139369.93    -43039.17    3830.1772   -46869.348    706.33534   0.98906927 
   52500    274.57895   -445.32068    139545.19   -43091.906    3770.6807   -46862.587    709.09759   0.98782704 
   52600    277.66514   -574.56533    139544.71   -43199.468    3813.0621    -47012.53     709.0899    0.9878305 
   52700    274.53543   -565.16913     139613.1   -43197.213    3770.0831   -46967.296    710.69699   0.98734658 
   52800    268.12816    -680.6651    139426.12   -43277.988    3682.0947   -46960.083    711.47011   0.98867071 
   52900    265.07535   -329.70995    139289.94   -43315.988    3640.1716    -46956.16    711.72154   0.98963728 
   53000    271.32545   -679.98891    139296.88   -43342.879    3726.0017   -47068.881    712.56705   0.98958797 
   53100    271.14524    -475.5176    139230.22   -43391.556     3723.527   -47115.083    713.75969   0.99006178 
   53200    274.56476   -299.99775    139278.73   -43236.763    3770.4858   -47007.249    715.20628   0.98971691 
   53300     272.6239   -834.01988    139358.72   -43294.789    3743.8327   -47038.622    716.75851   0.98914882 
   53400    277.87599   -344.07103    139205.98   -43181.336    3815.9575   -46997.294    717.95468   0.99023417 
   53500    273.85506   -385.49578    139381.26   -43122.006    3760.7398   -46882.746    719.24563   0.98898891 
   53600    277.35882   -503.62682    139127.98    -43134.34    3808.8554   -46943.196    719.68224   0.99078934 
   53700    275.02079    -394.5323    139207.37   -43089.934    3776.7482   -46866.683    721.03156    0.9902243 
   53800    279.07625   -598.70222    139067.56   -43242.929    3832.4402   -47075.369    721.27435   0.99121981 
   53900    273.68643   -406.63539    139161.83   -43276.643     3758.424   -47035.067    722.98914   0.99054834 
   54000    274.66356   -572.75916     139126.5   -43209.516    3771.8425   -46981.358    723.80541   0.99079986 
   54100    272.22017   -507.74642    139129.62   -43162.478    3738.2885   -46900.766    725.41368   0.99077768 
   54200    277.31343    -456.0829    139413.55   -43138.804    3808.2321   -46947.036    727.74265    0.9887598 
   54300    272.43851   -372.45605    139022.35   -43203.226    3741.2868   -46944.513    728.51801    0.9915421 
   54400    270.78522   -636.62533    139161.71   -43172.323    3718.5829   -46890.906    730.75945   0.99054919 
   54500    273.19136   -441.66222    138949.37   -43178.339    3751.6255   -46929.964    731.62615   0.99206292 
   54600    270.80027   -463.94919    138801.01   -43153.138    3718.7896   -46871.928    731.49739   0.99312331 
   54700    278.12013    -528.0983    138763.27   -43168.772    3819.3103   -46988.083     731.0251   0.99339337 
   54800    275.26297    -514.8393    138587.58   -43227.839     3780.074   -47007.913    732.28335   0.99465274 
   54900    279.64669   -551.99951    138706.99   -43128.745    3840.2739   -46969.019    735.12149   0.99379649 
   55000    275.95128   -355.29395    138751.62   -43098.653    3789.5262   -46888.179    736.71826   0.99347684 
   55100    278.23003   -445.05428    139147.13   -43033.703    3820.8194   -46854.523    740.17599   0.99065294 
   55200     277.6737   -615.61734    139254.98   -43079.042    3813.1796   -46892.221    742.08258    0.9898857 
   55300    280.32989   -375.01641    139213.29   -43059.831     3849.656   -46909.487    744.16674   0.99018215 
   55400    286.68297   -438.59901    139146.83   -43080.007    3936.9002   -47016.908    745.36152   0.99065512 
   55500    282.01513   -491.97985    139205.85   -43078.027    3872.7987   -46950.826    747.59724   0.99023511 
   55600    279.26605   -586.09454    138968.82   -43074.279    3835.0466   -46909.325    749.38317   0.99192408 
   55700    275.76689   -473.02344    138760.45   -43117.445    3786.9942   -46904.439    749.79848   0.99341362 
   55800    275.90642   -401.96128    138802.59   -43164.405    3788.9102   -46953.315    753.12526   0.99311201 
   55900    276.37067   -554.80681    138772.62   -43248.142    3795.2856   -47043.428    754.64566   0.99332649 
   56000    272.08034   -597.28595    138752.82   -43333.341    3736.3682    -47069.71    756.38932    0.9934682 
   56100    272.05804   -640.06365    138517.91   -43285.224     3736.062   -47021.286    757.25076   0.99515299 
   56200    270.88257   -391.48634     138892.2   -43259.067    3719.9197   -46978.987    759.12613   0.99247126 
   56300    277.65603    -339.5392    139072.18   -43191.704    3812.9369   -47004.641    760.28504   0.99118686 
   56400    277.00422   -396.97606    139293.58   -43127.152    3803.9859   -46931.138    762.88586   0.98961143 
   56500    275.61055   -444.57115       139408   -43085.263    3784.8473    -46870.11    764.65685   0.98879917 
   56600    274.93571   -566.55299    139385.61   -43048.061    3775.5799   -46823.641    766.57362   0.98895803 
   56700    275.16814   -538.69103    138853.07   -43092.498    3778.7718    -46871.27    764.10818   0.99275097 
   56800    274.18789   -453.22873    138857.46   -43029.932    3765.3104   -46795.243    765.42688   0.99271958 
   56900    278.66882   -536.60806    138982.94   -43091.678    3826.8452   -46918.523    766.60805    0.9918233 
   57000    276.65255   -306.22392    139002.65   -43147.026    3799.1565   -46946.183    768.57757   0.99168263 
   57100    275.08233   -444.49106    138937.16   -43188.131    3777.5933   -46965.725    768.51477   0.99215007 
   57200    271.16801   -444.20026    138872.56   -43291.663    3723.8397   -47015.502    769.68681   0.99261164 
   57300    272.23946   -534.63458    138968.97   -43344.305    3738.5534   -47082.858    771.86849     0.991923 
   57400    272.27488   -493.20074    139128.78   -43292.993    3739.0397   -47032.033    774.07147   0.99078365 
   57500    273.65697   -516.45732    139024.52   -43252.326    3758.0194   -47010.346    774.95882   0.99152663 
   57600    267.81246   -491.36286    139092.08   -43306.054    3677.7592   -46983.813    775.86969   0.99104505 
   57700    270.77379   -511.35059    139123.91   -43279.387     3718.426   -46997.813    776.95384   0.99081832 
   57800    276.77455   -559.86124     139182.8   -43157.983    3800.8319   -46958.815    779.09418   0.99039906 
   57900    275.48551   -691.79049    138794.43   -43162.162    3783.1301   -46945.292     779.7536   0.99317038 
   58000     271.9747   -406.27904     138608.4   -43287.076    3734.9175   -47021.993    780.67475   0.99450332 
   58100    277.09927   -390.15817    138830.01   -43194.655    3805.2913   -46999.946    783.28122   0.99291585 
   58200    276.34581    -471.5041    138782.36   -43191.208    3794.9443   -46986.153    784.37301   0.99325674 
   58300    270.91563   -592.71324    138635.09   -43275.753    3720.3737   -46996.127    785.50223   0.99431189 
   58400    277.58936   -178.23013    138944.72   -43161.502    3812.0214   -46973.524    789.02496    0.9920961 
   58500    277.05142   -447.27763    138966.26   -43114.107    3804.6341   -46918.741    791.05965   0.99194237 
   58600    270.05537    -504.4694    139189.12   -43172.971    3708.5602   -46881.531    793.46195   0.99035411 
   58700    275.76746   -544.94988    139255.25   -43109.256     3787.002   -46896.258    795.47659   0.98988384 
   58800    270.91283   -385.83497    138992.42   -43156.717    3720.3353   -46877.053    795.93209   0.99175566 
   58900    275.55629   -199.69022    139336.95    -43069.22    3784.1021   -46853.322    798.89225   0.98930337 
   59000    278.34143   -453.87682    139359.81   -43132.608    3822.3492   -46954.958    799.56359   0.98914111 
   59100    278.22092   -569.79614     139112.8   -43120.018    3820.6943   -46940.713    799.60932   0.99089745 
   59200    273.96246   -368.13281    139055.24   -43128.732    3762.2147   -46890.947    800.35832   0.99130758 
   59300    275.76045   -444.42587     139159.7   -43168.113    3786.9057   -46955.019    803.42091   0.99056347 
   59400    282.17957   -347.79348    139215.48   -43093.677    3875.0569   -46968.734     806.2482   0.99016657 
   59500    273.71663   -362.73974    139171.77   -43124.657    3758.8388   -46883.495    807.46672   0.99047756 
   59600    278.16359   -512.14374    139161.47   -43059.473    3819.9071    -46879.38    808.61796   0.99055087 
   59700    277.72963    -836.9388    138914.99   -43068.491    3813.9477   -46882.438    810.23119   0.99230846 
   59800    273.45489   -314.08742    139067.77   -43029.975    3755.2445   -46785.219    811.86243   0.99121827 
   59900    278.62675   -348.12275     139375.3   -43130.628    3826.2675   -46956.895    815.21055    0.9890312 
   60000    276.44766   -479.26326    139239.14   -43117.871    3796.3428   -46914.214    816.27232   0.98999832 
   60100    279.35587   -599.57616    139218.57   -43096.582    3836.2802   -46932.863    818.55704    0.9901446 
   60200    274.50775   -437.98379    139150.75   -43217.184    3769.7028   -46986.887    819.10401    0.9906272 
   60300    265.80304   -459.04711    139160.31   -43192.582    3650.1647   -46842.747    820.35251   0.99055912 
   60400    275.73706    -631.3633    138878.79   -43163.156    3786.5846   -46949.741    820.42452   0.99256711 
   60500    274.61795   -294.38827     138941.3    -43270.67    3771.2162   -47041.887    823.26326   0.99212054 
   60600    271.65363   -589.96553    138882.49   -43246.017    3730.5085   -46976.526    823.44256   0.99254065 
   60700    273.61088   -495.30583    139029.63   -43210.428    3757.3865   -46967.814    825.58069   0.99149021 
   60800    276.22546   -514.99217    139048.27    -43220.17    3793.2915   -47013.462    827.28999   0.99135733 
   60900    274.76635   -510.13338    139158.46   -43151.229    3773.2541   -46924.484    829.28852   0.99057234 
   61000    274.60169   -651.56497    139050.24   -43100.664     3770.993   -46871.657    830.13299   0.99134328 
   61100     273.9837   -395.01906    138888.63   -43028.837    3762.5063   -46791.344    831.30476   0.99249679 
   61200    273.51438   -676.98055    138865.48   -43104.289    3756.0614    -46860.35    831.75306    0.9926622 
   61300    282.00512   -371.28684    138874.54   -43076.477    3872.6612   -46949.138    833.68759   0.99259745 
   61400    279.46715   -422.70751    139145.36   -42969.741    3837.8084   -46807.549    835.22039   0.99066557 
   61500    280.29008   -259.39704    139043.18   -42999.038    3849.1092   -46848.148    836.56002   0.99139356 
   61600    282.68229   -605.23551    139229.62   -43083.409    3881.9605    -46965.37    838.78006   0.99006606 
   61700    275.92456    -207.3411    139077.35   -43137.313    3789.1594   -46926.473    839.61419   0.99115004 
   61800     272.8001   -746.30731    139053.87   -43170.758    3746.2524   -46917.011    841.13513    0.9913174 
   61900    277.38964   -354.34454    139130.89   -43065.345    3809.2788   -46874.623    842.01607    0.9907686 
   62000    272.99231    -491.0352    139284.96    -43169.35    3748.8919   -46918.242    844.53206   0.98967263 
   62100    274.74857   -545.31122    139318.32   -43190.288      3773.01   -46963.298    845.11472   0.98943571 
   62200    274.37986   -509.96154    139294.57   -43186.803    3767.9466    -46954.75    846.02073   0.98960441 
   62300    273.36691   -343.30794    139551.92    -43215.89    3754.0363   -46969.926    846.93403   0.98777947 
   62400    273.50353   -458.72831    139676.41   -43275.881    3755.9124   -47031.794    848.80506   0.98689908 
   62500    279.55632   -443.31127    139497.63   -43236.845    3839.0329   -47075.878    848.56202   0.98816387 
   62600    272.89717   -635.74837    139453.26   -43190.228    3747.5855   -46937.814     848.9081   0.98847829 
   62700    274.87042   -588.34716    139379.02   -43169.782    3774.6833   -46944.465    850.09883   0.98900479 
   62800    275.62732   -337.69983    139396.13   -43171.756    3785.0774   -46956.833     850.4246    0.9888834 
   62900    275.76641   -663.94424    139436.38   -43112.846    3786.9875   -46899.833    851.66133   0.98859793 
   63000    273.08586   -339.08944    139494.71   -43133.234    3750.1767    -46883.41    853.73876   0.98818452 
   63100     276.1589   -324.02039    139753.54   -43115.694    3792.3774   -46908.071     856.2005   0.98635436 
   63200    272.07145   -667.79276    139667.87   -43163.064    3736.2462    -46899.31    857.44128   0.98695941 
   63300    275.74546    -297.0073    139514.84   -43175.006    3786.6999   -46961.706    857.67029   0.98804195 
   63400     272.3736   -574.63634    139536.32   -43282.852    3740.3955   -47023.248    858.64947   0.98788984 
   63500    276.71687   -556.10208    139264.35   -43201.078    3800.0398   -47001.118    859.47436   0.98981915 
   63600    276.64073   -360.40617    139512.42   -43154.533    3798.9943   -46953.527    861.69781   0.98805911 
   63700    278.70272   -638.98933    139350.07   -43209.681    3827.3107   -47036.992     862.6479   0.98921025 
   63800      276.165   -537.10798    139065.66   -43250.432    3792.4612   -47042.893    862.48961   0.99123331 
   63900    277.01213   -464.50363    139236.47   -43180.163    3804.0945   -46984.258    863.92209   0.99001729 
   64000    273.02762   -621.49909    139063.71   -43252.026    3749.3768   -47001.403    863.95678   0.99124722 
   64100    278.41135   -497.22545    139115.56   -43281.092    3823.3095   -47104.401    865.53735   0.99087777 
   64200    273.94701    -463.9264    139129.94   -43272.687    3762.0025   -47034.689    866.81091   0.99077535 
   64300    274.07239   -724.28316    139091.21   -43304.387    3763.7243   -47068.111    868.64136   0.99105125 
   64400    272.41316   -575.54178    138769.02   -43258.464    3740.9388   -46999.403    868.98532   0.99335225 
   64500    272.14943   -480.02579    138915.58   -43339.543     3737.317    -47076.86    870.60327   0.99230423 
   64600    274.32934   -468.86659    138886.73   -43242.319    3767.2529   -47009.572      871.604   0.99251035 
   64700    274.42346   -626.58436    138803.91   -43171.559    3768.5454   -46940.104    871.97247   0.99310257 
   64800     281.0607   -412.66066    138730.83   -43089.646    3859.6918   -46949.338    872.89068   0.99362568 
   64900    276.58755   -507.51678    138756.86   -43086.773    3798.2639   -46885.037    875.74862   0.99343931 
   65000    278.54422   -476.72925    138563.52   -43121.654    3825.1342   -46946.789    875.49352   0.99482547 
   65100    270.92947   -503.18388    138551.71   -43175.899    3720.5639   -46896.463    876.43794   0.99491028 
   65200    278.17092   -646.62356     138699.6   -43130.676    3820.0077   -46950.684    878.67327   0.99384942 
   65300    273.13851    -461.6883    138999.93   -43153.786    3750.8996   -46904.685    882.94659   0.99170207 
   65400    281.93033   -551.15652    139044.63   -43186.044    3871.6341   -47057.678    884.63816   0.99138328 
   65500    274.98377   -308.78277     139150.9   -43141.841    3776.2398   -46918.081    885.74846    0.9906261 
   65600    273.47578    -490.9734    139206.51    -43111.21    3755.5313   -46866.741    888.25658    0.9902304 
   65700     279.8931   -714.40588     139067.8   -43058.186    3843.6577   -46901.844    889.30889   0.99121808 
   65800    272.99027   -538.47161    138814.88   -43146.901     3748.864   -46895.765     889.7847   0.99302406 
   65900    278.15485   -425.52932     139046.8   -43099.729    3819.7871   -46919.516    891.64824   0.99136778 
   66000    275.52273   -488.34604    139011.29   -43097.282    3783.6412   -46880.923    893.41474   0.99162099 
   66100    283.30221   -561.92555    138707.92    -43108.37    3890.4736   -46998.844    893.36342   0.99378984 
   66200    278.24943   -347.63166    138742.86   -43057.422    3821.0859   -46878.508    895.27808   0.99353957 
   66300     275.2581   -465.31772    139012.44    -43059.01    3780.0071   -46839.017    898.06397    0.9916128 
[...]
   84600    268.85541   -497.19221     139184.9   -43210.179    3692.0816    -46902.26    1146.4023   0.99038416 
   84700    270.70022   -460.38029    139237.27   -43268.789    3717.4157   -46986.205    1148.7532    0.9900116 
   84800    272.73992   -471.37927    139093.74   -43214.475     3745.426   -46959.901      1148.06   0.99103321 
   84900    272.53901   -545.09038    139073.55   -43190.642    3742.6671   -46933.309    1150.0703   0.99117707 
   85000    271.74316   -492.24987    138932.01    -43189.53    3731.7379   -46921.268    1151.1677    0.9921869 
   85100    275.49375   -433.28138    138887.44   -43223.605    3783.2432   -47006.848    1151.1554   0.99250529 
   85200    272.13026   -495.20841    138793.07   -43202.947    3737.0537       -46940    1152.5956   0.99318013 
   85300    275.91182   -331.21331    138956.21   -43163.014    3788.9845   -46951.998    1155.1294   0.99201408 
   85400    276.01196   -422.24206     138984.1   -43158.043    3790.3597   -46948.403    1156.0765   0.99181504 
   85500    272.35404   -595.53065     139015.4   -43170.746    3740.1269   -46910.873    1157.6996   0.99159168 
   85600    274.05225   -620.15872    139188.96   -43115.835    3763.4477   -46879.283    1160.2378   0.99035522 
   85700    274.62211   -440.74454    138955.06   -43150.443    3771.2733   -46921.716    1160.3889   0.99202232 
   85800    274.68473   -499.08062    138902.88   -43140.715    3772.1333   -46912.848    1161.2147   0.99239495 
   85900    272.94283   -573.32512    138717.01   -43190.479    3748.2125   -46938.691    1160.4876   0.99372468 
   86000    277.65039    -308.3838    138863.91   -43187.581    3812.8595    -47000.44     1163.253   0.99267346 
   86100    271.91692   -439.66664    138785.54   -43197.596    3734.1241    -46931.72    1163.1902   0.99323402 
   86200    274.81256   -314.44375     138785.5   -43180.072    3773.8888   -46953.961    1164.5018   0.99323431 
   86300    273.01884   -634.64865    138739.77   -43194.214    3749.2563   -46943.471    1165.8597   0.99356165 
   86400    277.83083   -711.28198    138922.58   -43128.565    3815.3374   -46943.903     1168.146   0.99225421 
   86500    273.76824    -590.4946    138949.92   -43138.605    3759.5475   -46898.153    1169.3131   0.99205897 
   86600    274.48173   -520.30487    138961.62   -43134.751    3769.3456   -46904.096    1171.3769   0.99197543 
   86700    275.80855   -594.36486    139196.93   -43167.142    3787.5663   -46954.709    1173.8271   0.99029851 
   86800    274.03846   -292.35524    138985.48   -43129.321    3763.2583   -46892.579    1172.6642   0.99180515 
   86900    273.35249   -374.77959    139138.81   -43164.255    3753.8382   -46918.093    1175.0411    0.9907122 
   87000    278.33805    -571.7727    139248.73    -43205.97    3822.3029   -47028.273    1176.6189   0.98993018 
   87100    273.74494    -271.5213    139411.79   -43228.928    3759.2275   -46988.155    1178.8595   0.98877233 
   87200    275.33831   -420.93362    139457.82   -43219.489    3781.1087   -47000.598    1181.0445   0.98844597 
   87300    275.11566   -482.32973    139305.74   -43094.662    3778.0511   -46872.713    1180.8646   0.98952504 
   87400    272.97449   -398.64226    139238.84   -43101.485    3748.6473   -46850.133    1182.5877    0.9900005 
   87500    272.29611     -546.518    139401.39   -43174.612    3739.3314   -46913.944    1184.7389   0.98884605 
   87600    275.67333    -402.4331    139164.73   -43129.486    3785.7093   -46915.196    1184.6671   0.99052768 
   87700    277.10024   -574.97915    139218.62   -43155.335    3805.3045   -46960.639    1184.8455   0.99014428 
   87800    279.99377   -749.67755    139220.65   -43050.548    3845.0401   -46895.588       1185.7   0.99012983 
   87900    279.55992   -508.38331    139140.69   -43042.932    3839.0823   -46882.015    1185.2013   0.99069881 
   88000    276.46994   -435.72987    139371.44     -43055.3    3796.6489   -46851.949    1188.1094   0.98905856 
   88100    273.70408   -567.01134     139154.1    -43161.27    3758.6664   -46919.936    1188.8363   0.99060333 
   88200    277.30135   -455.67016    139462.03     -43104.8    3808.0663   -46912.866    1191.1529   0.98841609 
   88300    278.75425   -684.24431    139371.67   -43099.152    3828.0184    -46927.17    1192.4546   0.98905691 
   88400    284.23298   -587.10737    139162.07   -43124.738    3903.2555   -47027.993     1192.761   0.99054661 
   88500    273.00324   -465.58929    139112.71   -43182.977     3749.042   -46932.019    1193.9352   0.99089807 
   88600    271.23108   -581.64256    138997.43   -43138.312    3724.7058   -46863.018    1195.5099   0.99171989 
   88700    272.49578   -592.48981     139097.3   -43162.332    3742.0733   -46904.406    1197.4411   0.99100789 
   88800    277.71013   -610.07751    139221.14    -43124.79    3813.6798   -46938.469    1199.4816   0.99012636 
   88900      277.602   -202.80096    138947.51   -43202.326     3812.195   -47014.521    1198.4597   0.99207622 
   89000    272.79637    -692.6105    139005.92   -43179.092    3746.2012   -46925.293    1199.7632    0.9916593 
   89100    270.96599   -342.65646    139173.01   -43140.556    3721.0653   -46861.621    1202.0654   0.99046876 
   89200    277.64207   -605.46063    139473.51   -43183.846    3812.7453   -46996.592    1204.1981   0.98833474 
   89300    274.35697   -422.77335    139221.47   -43172.162    3767.6323   -46939.794    1203.6532   0.99012395 
   89400    282.07631   -579.74011    139125.96   -43110.866    3873.6388   -46984.505    1205.1118    0.9908037 
   89500    273.67515   -541.47375    139056.78   -43217.156    3758.2691   -46975.425    1204.8929   0.99129659 
   89600    272.38196   -375.93803     139024.3   -43174.001    3740.5103   -46914.512    1206.2116   0.99152824 
   89700    278.08003   -755.86625    138959.58   -43118.498    3818.7596   -46937.258    1205.9245   0.99199005 
   89800    274.48414   -395.53863    138760.93    -43192.69    3769.3787   -46962.069     1206.611   0.99341017 
   89900    274.74248   -342.62627    138770.76   -43146.173    3772.9264     -46919.1    1207.3923    0.9933398 
   90000    276.45414   -430.88438    139070.27   -43174.065    3796.4319   -46970.497    1209.7883   0.99120046 
   90100    277.28447   -555.91317    139008.99   -43082.668    3807.8344   -46890.502    1209.0235   0.99163741 
   90200    273.02621   -417.81146     138872.4   -43203.497    3749.3575   -46952.855    1209.8926   0.99261277 
   90300    271.38596   -411.17508    138976.42   -43255.154    3726.8327   -46981.987    1212.0355   0.99186985 
   90400    273.92253   -453.44207    139130.65   -43155.638    3761.6663   -46917.304    1214.8646   0.99077031 
   90500    279.31745   -498.75101    139212.52   -43087.936    3835.7526   -46923.688    1217.0453   0.99018765 
   90600    276.70958   -685.66396    139208.55   -43128.038    3799.9397   -46927.977    1220.0018   0.99021586 
   90700    275.11825   -372.07764    139510.49   -43151.605    3778.0866   -46929.692    1222.8774   0.98807279 
   90800    279.26675   -660.09317    139478.57   -43135.906    3835.0563   -46970.963    1224.3378   0.98829891 
   90900    274.29449   -390.11834    139483.26    -43253.72    3766.7744   -47020.494    1225.7737   0.98826564 
   91000    277.77734   -513.69897    139285.81   -43230.765    3814.6028   -47045.368    1226.3006   0.98966663 
   91100    276.92353    -560.0684    139337.36   -43192.144    3802.8778   -46995.022    1229.6453   0.98930049 
   91200    273.63084   -505.43731    139240.46   -43214.506    3757.6607   -46972.166     1230.789   0.98998895 
   91300    273.16594   -639.55552    138976.64   -43241.235    3751.2763   -46992.511    1230.0499   0.99186826 
   91400    275.41647   -343.63111    139148.28   -43280.744    3782.1819   -47062.926    1233.5529   0.99064475 
   91500    271.23767   -626.91069    139498.54   -43228.476    3724.7963   -46953.272    1235.1302   0.98815741 
   91600    274.54023   -584.28961    139435.13   -43222.029    3770.1489   -46992.178    1236.6478   0.98860676 
   91700    272.89427   -431.16151    139346.31   -43228.368    3747.5456   -46975.914    1236.7469   0.98923696 
   91800    268.10054   -579.64572    139170.89   -43295.589    3681.7153   -46977.305    1237.3247    0.9904838 
   91900    272.01246   -530.95416    139109.16    -43228.41    3735.4361   -46963.846    1236.4314   0.99092334 
   92000     271.6899   -419.47534    139207.79   -43200.666    3731.0065   -46931.673    1237.5557   0.99022128 
   92100    274.16075   -600.31968     138945.9   -43167.592    3764.9377    -46932.53      1238.72   0.99208768 
   92200    277.74279   -309.33015    139354.11   -43057.507    3814.1283   -46871.635    1241.0403   0.98918157 
   92300    282.89058   -465.89416    139313.71    -43081.31    3884.8209    -46966.13    1241.8494   0.98946844 
   92400    268.33814   -359.24245    139030.54   -43163.927    3684.9781   -46848.905     1241.889   0.99148369 
   92500    276.82087   -696.39273    139255.77   -43074.126    3801.4681   -46875.594    1243.8438   0.98988012 
   92600    275.07937   -440.81928    139016.29   -43101.974    3777.5527   -46879.526    1243.3893   0.99158539 
   92700    276.84308   -504.15106    138908.23   -43135.923     3801.773   -46937.696    1244.7476    0.9923567 
   92800    275.69591   -517.26086    139188.72   -43119.437    3786.0194   -46905.456    1247.1149   0.99035696 
   92900    279.30914   -385.93465    139097.04   -43130.289    3835.6384   -46965.927    1248.5743   0.99100974 
   93000    280.32193   -593.81318    139390.44   -43077.919    3849.5466   -46927.465    1250.5502   0.98892372 
   93100    273.23403   -352.70475    139536.13    -43150.98    3752.2114   -46903.191    1252.7441   0.98789122 
   93200    276.71188   -664.67828    139234.98   -43109.774    3799.9713   -46909.745    1251.6413   0.99002792 
   93300    276.62711   -581.90574    139203.62   -43023.647    3798.8072   -46822.455    1253.0201   0.99025092 
   93400    279.38567   -487.02155    139098.97   -43128.396    3836.6893   -46965.085    1253.2862   0.99099595 
   93500    275.07796   -408.90004    139110.12   -43145.901    3777.5333   -46923.434    1255.3158   0.99091656 
   93600    271.97318   -406.18637    139173.62   -43182.299    3734.8967   -46917.196    1257.2531   0.99046439 
   93700    275.26339   -514.49508    139253.84   -43197.847    3780.0798   -46977.927    1260.3578   0.98989381 
   93800    280.54538    -555.3164    139246.24   -43081.319    3852.6153   -46933.934    1261.8404   0.98994785 
   93900     273.8814   -663.28997    139197.62   -43208.438    3761.1014    -46969.54    1262.2903   0.99029363 
   94000    277.14673   -590.16934    139199.89   -43213.067    3805.9429    -47019.01    1262.5253   0.99027745 
   94100    273.55304    -443.2361    139130.25   -43248.993    3756.5923   -47005.585    1263.1287   0.99077317 
   94200    273.63373   -522.03226    139048.34   -43253.901    3757.7003   -47011.601    1264.1571   0.99135676 
   94300    278.77905   -348.53286    138864.21   -43204.855    3828.3589   -47033.214      1265.23   0.99267128 
   94400    276.22565   -369.53112    138886.61   -43197.008    3793.2941   -46990.302    1267.4813   0.99251119 
   94500    273.32442   -536.32875    139051.88    -43225.13    3753.4528   -46978.583    1269.8239   0.99133154 
   94600    265.44736   -249.09956    139054.94   -43300.345    3645.2803   -46945.625    1272.6117   0.99130971 
   94700    269.27274   -575.72189    139144.06   -43222.458    3697.8126   -46920.271    1273.3749   0.99067483 
   94800    276.38123   -665.30708    138927.49   -43152.028    3795.4306   -46947.459    1272.5409   0.99221913 
   94900    276.05205   -395.62011    139073.67   -43092.154    3790.9101   -46883.064    1275.5403   0.99117621 
   95000    275.39629   -452.25238    139122.74   -43095.109    3781.9049   -46877.014      1277.14   0.99082666 
   95100     275.4879   -476.26348    139131.48   -43098.329    3783.1629   -46881.492    1277.8277   0.99076436 
   95200    275.74256   -447.36991    139061.18   -43065.958      3786.66   -46852.618    1279.5487   0.99126524 
   95300    276.45163   -403.20994    138929.51   -43103.313    3796.3974   -46899.711    1279.3287   0.99220476 
   95400    274.39523   -535.81429    139068.77   -43148.314    3768.1578   -46916.472    1282.2571   0.99121115 
   95500    281.64988    -442.2478    139216.77   -43127.273    3867.7828   -46995.056    1284.4697   0.99015742 
   95600    271.22153     -577.768    139231.98   -43248.666    3724.5746    -46973.24      1286.08   0.99004928 
   95700    273.36311   -526.41377    139171.79   -43243.446     3753.984    -46997.43    1287.0965    0.9904774 
   95800    274.45257   -626.02816    138967.29   -43197.567    3768.9451   -46966.512    1287.4358   0.99193497 
   95900    275.37243   -528.76915    138929.06   -43208.494    3781.5772   -46990.071    1287.6379   0.99220792 
   96000    278.12551   -480.95512     139161.5   -43117.357    3819.3841   -46936.741     1290.973   0.99055069 
   96100    276.32637   -570.77191    139157.11   -43128.915    3794.6773   -46923.592    1292.7151   0.99058192 
   96200    277.88849   -368.95896    139333.21   -43110.002    3816.1292   -46926.132    1294.8993   0.98932998 
   96300    275.12153   -676.17213    139184.52    -43097.74    3778.1317   -46875.871    1294.8727   0.99038682 
   96400    274.05208   -517.61883    139095.43    -43192.96    3763.4454   -46956.405    1295.7506   0.99102114 
   96500    277.37576    -493.7989    139082.05   -43118.342    3809.0881    -46927.43     1297.756   0.99111651 
   96600    273.84887   -517.95123    139335.01   -43107.831    3760.6548   -46868.486    1301.7398   0.98931719 
   96700    279.22865   -448.58085    139350.06   -43083.623    3834.5331   -46918.156    1302.2029    0.9892103 
   96800    279.23414   -392.91499    139498.83   -43042.795    3834.6085   -46877.404    1303.4412   0.98815534 
   96900     277.6008   -753.25294    139376.56   -43055.436    3812.1785   -46867.614    1304.9133   0.98902226 
   97000    279.08342   -551.54906    139166.08   -43086.039    3832.5387   -46918.578    1304.9149   0.99051809 
   97100    278.06441   -225.10184    139353.57   -43090.066     3818.545   -46908.612    1307.1417   0.98918542 
   97200    280.41661   -611.35799    139638.48   -43087.302    3850.8469   -46938.149    1310.9013   0.98716714 
   97300    276.55343   -693.44944    139634.96   -43139.753    3797.7954   -46937.549    1312.0326   0.98719199 
   97400    271.88855   -440.11311    139481.11   -43129.057    3733.7345   -46862.791    1310.8116   0.98828091 
   97500     274.2559   -754.82872    139375.79   -43115.791    3766.2443   -46882.035    1309.9704   0.98902768 
   97600    275.87862   -688.30858    139283.01   -43113.368    3788.5285   -46901.896    1310.5393   0.98968651 
   97700    272.10168   -638.94756    138833.78   -43174.419    3736.6613    -46911.08    1309.8239   0.99288888 
   97800    276.04207   -361.07312    138859.35    -43177.03    3790.7731   -46967.803    1311.7177   0.99270606 
   97900    273.26755    -447.4644    139180.16   -43089.354    3752.6718   -46842.026    1314.2696   0.99041783 
   98000    273.46431    -538.2742    139047.08   -43034.032    3755.3738   -46789.406     1315.611    0.9913658 
   98100    280.68092   -636.79074    139483.17    -43080.21    3854.4766   -46934.687    1320.1958   0.98826631 
   98200    275.00886   -660.22352    139240.49   -43064.419    3776.5845   -46841.003    1320.0769   0.98998875 
   98300    278.11314   -489.83668    139304.64   -42982.098    3819.2142   -46801.312     1322.447   0.98953286 
   98400    276.93019   -516.27299     139242.1   -42967.798    3802.9693   -46770.767    1322.6766   0.98997727 
   98500     275.4699   -717.42123    139045.52   -43054.594    3782.9157    -46837.51    1322.8142   0.99137688 
   98600    274.44733   -387.74768    138989.74   -43031.255    3768.8732   -46800.128    1324.3893   0.99177475 
   98700    277.08584   -387.43276    139079.92   -43139.612    3805.1068   -46944.719       1326.1   0.99113171 
   98800    273.59547   -504.38109    139030.02   -43125.135    3757.1749    -46882.31    1327.7582   0.99148744 
   98900    282.75477     -463.686    139061.57    -43097.58    3882.9559   -46980.535    1329.5821   0.99126248 
   99000    275.27667   -425.79113     139441.4   -43039.035    3780.2621   -46819.298    1333.0119   0.98856236 
   99100    273.30009   -534.05436    139500.22   -43130.894    3753.1186   -46884.012    1335.2238   0.98814551 
   99200    282.07215   -847.30092    139114.12   -43051.184    3873.5817   -46924.766     1334.778   0.99088803 
   99300    278.58221   -552.12294    138932.68   -43081.636    3825.6558   -46907.292    1335.5265   0.99218209 
   99400    279.82791   -661.43179    138745.61    -43032.11    3842.7625   -46874.872    1337.3821   0.99351984 
   99500    279.83532   -530.80938    138684.04   -43079.877    3842.8642   -46922.741    1338.6851    0.9939609 
   99600    278.23492   -478.04396    138730.03   -43129.004    3820.8866    -46949.89    1340.5935   0.99363142 
   99700    279.59367   -419.59715    138997.92   -43087.309    3839.5458   -46926.854    1343.9284   0.99171639 
   99800    274.10537   -351.46352    139001.13   -43158.882    3764.1772   -46923.059      1345.15   0.99169346 
   99900    274.80646   -492.60578    139164.75   -43147.075    3773.8049    -46920.88    1347.8164   0.99052751 
  100000    277.80695   -561.10912    139424.85    -43137.33    3815.0095    -46952.34    1350.0005    0.9886797 
  100100    275.42715   -513.19899    139281.42   -43158.442    3782.3287   -46940.771    1350.3703   0.98969784 
  100200    278.81675    -552.0646    139195.36   -43135.955    3828.8766   -46964.831    1351.6824    0.9903097 
  100300    275.21067   -408.35289     139162.1   -43154.491    3779.3558   -46933.847    1352.6966   0.99054637 
  100400    275.53595   -551.31689    138951.34   -43192.536    3783.8228   -46976.359    1352.5746   0.99204886 
  100500    269.84507   -469.00502    138740.75   -43174.752    3705.6722   -46880.424    1351.8844   0.99355466 
  100600    274.09577   -361.57899    138801.57   -43235.795    3764.0454   -46999.841     1354.798    0.9931193 
  100686    274.83621   -494.03924    139151.84   -43153.485    3774.2135   -46927.698    1356.9293   0.99061945 
Loop time of 184.281 on 6 procs for 100000 steps with 4608 atoms

Performance: 234.425 ns/day, 0.102 hours/ns, 542.650 timesteps/s
99.3% CPU use with 6 MPI tasks x no OpenMP threads

MPI task timing breakdown:
Section |  min time  |  avg time  |  max time  |%varavg| %total
---------------------------------------------------------------
Pair    | 161.26     | 164.06     | 166.61     |  14.5 | 89.03
Neigh   | 7.5401     | 7.6035     | 7.7445     |   2.6 |  4.13
Comm    | 7.2174     | 9.9005     | 12.718     |  60.4 |  5.37
Output  | 0.17363    | 0.17434    | 0.17744    |   0.3 |  0.09
Modify  | 1.8449     | 1.9217     | 1.9985     |   3.3 |  1.04
Other   |            | 0.6211     |            |       |  0.34

Nlocal:        768.000 ave         771 max         764 min
Histogram: 1 0 1 0 0 2 0 0 0 2
Nghost:        1671.83 ave        1692 max        1653 min
Histogram: 1 0 2 0 0 0 1 1 0 1
Neighs:        0.00000 ave           0 max           0 min
Histogram: 6 0 0 0 0 0 0 0 0 0
FullNghs:      25522.3 ave       25665 max       25359 min
Histogram: 2 0 0 0 0 0 2 1 0 1

Total # of neighbors = 153134
Ave neighs/atom = 33.232205
Neighbor list builds = 7111
Dangerous builds = 0

undump              1
unfix               2
unfix               3
unfix               4


################################################
#######         Run Simulation         #########
################################################

reset_timestep      0
log                 log.run_${NAME}
log                 log.run_liq_276K_-500atm_mW
