LAMMPS data file via write_data, version 29 Oct 2020, timestep = 100000

8528 atoms
1 atom types

0.41703331227363094 104.06807273400986 xlo xhi
-0.27843690474953675 50.5061997137222 ylo yhi
-0.27843690474953675 50.5061997137222 zlo zhi

Masses

1 18.015

Atoms # atomic

85 1 1.5897986091147074 0.03286816586492769 0.23036134291207777 0 1 0
95 1 6.575410519259785 1.7335125626956058 1.777742161978753 0 1 0
88 1 8.354300966451962 0.026470592761418443 0.3448788632043355 0 1 0
97 1 13.324106532460718 1.6751120291711001 1.7561714858100865 0 1 0
802 1 19.30578891211093 1.6198949908305185 1.5721148877273183 0 1 0
823 1 20.66363014891159 -0.12149444587881475 0.10977349714559198 0 1 0
831 1 25.90714233945989 1.9354709487607948 1.6883364300145212 0 1 0
825 1 26.916051869942038 -0.06886036319587474 0.43670204542296354 0 1 0
833 1 31.671385968414658 1.2745293086711367 1.427110383036312 0 1 0
827 1 33.39859078409153 0.07351732806625688 -0.12341294118325627 0 1 0
100 1 3.648136954195303 4.680381522133306 1.651488006362515 0 1 0
94 1 5.17026356796751 3.296283057160653 -0.14682474628289 0 1 0
103 1 9.826890972555923 4.672800217943866 1.644759747460071 0 1 0
96 1 11.97913792696209 3.1837058872598796 0.10066489262842798 0 1 0
107 1 16.190377123849665 4.983802361589508 0.9358458801667089 0 1 0
916 1 20.980739528275116 3.2462076677064498 2.80876507064234 0 1 0
830 1 24.132826605784 3.2470387990243226 0.1493393966950632 0 1 0
837 1 22.363264846527333 4.939391717710807 1.135585871827106 0 1 0
832 1 30.238779487249126 2.9700693973427157 0.1097945308674968 0 1 0
839 1 28.703242426954215 4.600944087237308 1.741468397273207 0 1 0
842 1 34.724264713391335 4.973845395108508 1.579795915950618 0 1 0
920 1 33.251510896308574 2.9429170790941197 2.759864934645534 0 1 0
367 1 0.6091784155817603 7.984652418171105 1.2591042929965826 0 1 0
110 1 6.610310187076093 8.181938823647673 1.4840001920665262 0 1 0
102 1 8.145112769232886 6.022489461779848 0.010540962141393162 0 1 0
105 1 12.864642819746841 8.19122983153769 1.2394434725075347 0 1 0
104 1 14.443667040936775 6.808896115950983 -0.21510610130632604 0 1 0
836 1 20.853525269799032 6.49645030223565 -0.2313038553917846 0 1 0
1342 1 19.287704664945824 7.991403057024099 1.1558575439230874 0 1 0
924 1 24.06963386823126 6.570520133273791 2.1232123453305007 0 1 0
845 1 25.96530106491263 8.288852541234837 0.8674150737106165 0 1 0
840 1 33.01149071471077 6.376508905246832 -0.19258093265846385 0 1 0
850 1 31.646372882753305 7.6709437575575254 1.6481643306818945 0 1 0
2 1 3.176119526249586 12.108857366512623 1.570003359304092 0 0 0
207 1 2.026165011211643 9.351063386330056 2.9142155221721975 0 1 0
111 1 4.913558141698778 9.53676522461764 -0.11104616014446059 0 1 0
112 1 9.591697333889858 10.976728406936571 1.6196138893226215 0 0 0
7 1 16.26535787447417 11.839901486138313 1.1890163624435977 0 0 0
210 1 14.63334096411517 9.417331102164628 2.6651408583088707 0 1 0
846 1 23.85009796047753 9.390873355704237 0.30173803659442355 0 1 0
843 1 22.081474475044608 12.147251213132042 1.4719091010317578 0 0 0
848 1 30.33623912427824 9.457545009936796 0.2974033445299772 0 1 0
847 1 28.477600097137202 11.804166532438455 1.2964433848239147 0 0 0
752 1 34.61211037364338 10.791666414146976 1.348437204266083 0 0 0
1 1 1.6518901086159483 13.469210239948202 -0.05594632958575599 0 0 0
3 1 6.593441422144888 14.693648331582441 1.38387724095329 0 0 0
4 1 7.967340532392984 13.261414000697386 -0.11410397171835354 0 0 0
13 1 12.739215758153877 14.515636167440606 1.2108101652671013 0 0 0
6 1 14.483030532002461 12.938868498624295 -0.17945100153911292 0 0 0
709 1 19.115602639727626 14.892081671439872 1.5040972828873722 0 0 0
853 1 23.862895918721286 13.220375579866552 2.915606773932801 0 0 0
748 1 25.470063589738466 14.697317700023497 1.4367905618468986 0 0 0
751 1 32.78995742977834 12.97752464373198 0.26248725142148 0 0 0
759 1 31.71311367128479 14.967164830159176 1.802753451181848 0 0 0
10 1 3.4100470459107184 17.93743188495513 1.5689632034607377 0 0 0
11 1 4.841026348378445 16.216744809920634 -0.08182885367536052 0 0 0
125 1 9.257971724427625 18.118722249784764 1.397674230642466 0 0 0
12 1 11.120186945812044 16.537125042853525 0.0319773925194784 0 0 0
127 1 14.012415623165278 16.30005081257289 2.4714745847022526 0 0 0
15 1 17.29961949689591 16.49584300350536 -0.15423687080982504 0 0 0
16 1 15.789062473961218 18.095561002585903 1.4617101192624173 0 0 0
857 1 20.95037126869323 16.651180391014826 2.874025985381521 0 0 0
756 1 23.94045845584267 16.458277273091927 -0.1841965176777559 0 0 0
754 1 22.416597447097814 18.116657350995535 1.3208220059386395 0 0 0
758 1 30.08389738818159 16.302936517532633 -0.038993553880903364 0 0 0
757 1 28.50278688644871 18.071642976441705 1.4543459653090174 0 0 0
761 1 34.80571570590923 17.931386350063438 1.2144685617422675 0 0 0
17 1 1.727459178460107 19.37938830411541 0.08522481473726479 0 0 0
18 1 6.053689730588891 21.189133925106713 1.5574229985252928 0 0 0
19 1 8.226270640385591 19.944613245171492 0.1147515201949888 0 0 0
22 1 12.717483025977176 21.412117446729045 1.2453344631975172 0 0 0
133 1 11.157466132332221 19.5331651208126 2.708132999609374 0 0 0
762 1 21.0287253034559 19.772386384076743 -0.09394109819125532 0 0 0
743 1 19.135108956585228 20.888393880608792 1.3832076442915193 0 0 0
863 1 23.970680396265596 19.510740169938444 2.8570531076929826 0 0 0
765 1 26.64609855146188 19.566849507092716 -0.19486719934354121 0 0 0
764 1 25.345271545968256 21.217048746358397 1.4888325162373297 0 0 0
767 1 33.436996057487505 19.434312098917633 -0.07961363611345004 0 0 0
768 1 31.879299417462498 21.256208502511285 1.5402319455414473 0 0 0
24 1 2.75027547664077 24.278527854039105 1.1472745706420109 0 0 0
137 1 1.800801989399941 22.601106827114034 2.8761857859537865 0 0 0
25 1 4.391349944689246 22.706097268461082 -0.09371528008357607 0 0 0
26 1 9.707691505262439 23.801170150642783 1.4560084688651398 0 0 0
29 1 16.355816249221732 24.482167468466656 1.406558964381763 0 0 0
140 1 14.358178266634402 22.91720020268309 2.84295341798785 0 0 0
28 1 17.724523644751905 23.071953034796802 -0.06697718525568325 0 0 0
866 1 20.851091421332217 22.486007420956582 2.7427785449035222 0 0 0
770 1 22.22111079551105 24.189802963179954 1.3797235837226376 0 0 0
772 1 28.391895205873613 24.376276050711304 1.2910165115911523 0 0 0
31 1 1.5388182122506835 26.027374454454655 -0.07006106785793734 0 0 0
32 1 6.772910902634407 27.17003778214208 1.5126449164249884 0 0 0
33 1 8.353726596006696 25.522392753124496 -0.0067139255493428585 0 0 0
36 1 12.963088438450223 27.26063630079095 1.5808519919971866 0 0 0
35 1 14.393559817048843 25.741460816111122 -0.10554696615539741 0 0 0
834 1 19.40019388453832 27.465719586549444 1.2217854822910779 0 0 0
148 1 18.021572960504002 26.106788561066942 2.763130048120909 0 0 0
777 1 25.595090480785757 27.53456706198051 1.4530528473286053 0 0 0
780 1 31.469830563340043 27.246568416173147 1.0885520116516443 0 0 0
874 1 29.792865130652267 25.817723737668967 2.7078115743611453 0 0 0
779 1 32.900114656170174 25.658203572472644 -0.0034708632912132664 0 0 0
38 1 3.444819263506437 30.663528024621584 1.0921200786928504 0 0 0
149 1 1.913525367886585 29.211363719262618 2.655649327559861 0 0 0
39 1 4.954313529652954 28.828732656137255 -0.08269820028106717 0 0 0
40 1 9.80790725032956 30.45416889485155 1.4938718869733603 0 0 0
151 1 8.296288991477574 28.905575907548393 2.8915742951763552 0 0 0
41 1 11.213504744463112 29.063042044992294 0.12942418514240045 0 0 0
43 1 16.38540977216352 30.57737313459134 1.4127873539941052 0 0 0
152 1 14.620326818746955 29.02540621729561 2.892098179529409 0 0 0
876 1 20.890361117707265 29.04317581098067 2.903484722854212 0 0 0
781 1 22.245860959303112 30.25101088124234 0.9926643956816061 0 0 0
878 1 27.233738790107584 28.938478711734593 2.823173165831192 0 0 0
785 1 30.33718510258303 28.971995663827084 -0.18843752023617596 0 0 0
784 1 28.718873662235968 30.313266888058084 1.2854057255612195 0 0 0
786 1 34.664687507932896 30.432863306116435 1.7573837022436432 0 0 0
5920 1 0.7345871177208536 40.090971697755094 13.908618421066933 0 -1 2
46 1 1.6826124434116938 32.082203220797496 0.10199883767528534 0 0 0
47 1 6.214985437831713 33.73865368087411 1.4831971311733068 0 0 0
49 1 8.005136486714331 31.97971779273742 0.1313234311904375 0 0 0
52 1 12.881844600285113 33.59103058081692 1.4877811615156857 0 0 0
51 1 14.663102950630757 32.02202885180725 0.0918228004091558 0 0 0
774 1 19.417636906309713 33.62865435858831 1.5383431058226051 0 0 0
6242 1 1.1758843621586663 22.052123187495496 19.331329355860234 1 0 0
884 1 23.812006195729488 31.809732506459962 2.4650182732962467 0 0 0
789 1 25.525993536653253 33.43982529823846 1.3812805230312082 0 0 0
793 1 31.557867589563646 33.223672917825894 1.4131959234205977 0 0 0
792 1 33.27850810447104 31.556837360264065 -0.1245999394572905 0 0 0
55 1 3.121048643596659 36.744492713491894 1.4981128769977166 0 0 0
48 1 4.9272842580307445 35.431943605666746 -0.18940025252428683 0 0 0
57 1 9.545262980424535 36.98803672467491 1.2087055246837208 0 0 0
165 1 8.414251174795787 35.091723169967054 2.5704868114432533 0 0 0
50 1 11.296546206696823 35.29668236965995 -0.22490752078912477 0 0 0
61 1 15.914229611302494 36.599161378188555 1.1457861686088995 0 0 0
158 1 14.351869357124801 35.454313354666155 2.7317800688825917 0 0 0
53 1 17.81019609517982 34.99386160352519 -0.15599230201341344 0 0 0
883 1 20.89476214993583 35.35028553508812 2.750506295522746 0 0 0
795 1 22.169388622700605 36.957462808330206 0.9004683224101715 0 0 0
892 1 27.24776074002933 35.11720873739242 2.552577763447695 0 0 0
791 1 30.223142338901244 34.97563800186637 0.0928272079874905 0 0 0
799 1 28.785804332153372 36.7331407760272 1.0655717412676635 0 0 0
801 1 34.162271690942625 36.54355183255741 1.6030628474988677 0 0 0
63 1 6.496596536453482 40.13798439421599 1.3537463151374944 0 0 0
164 1 4.887804030807589 38.32852124027812 2.7393308497950963 0 0 0
58 1 8.148715534196683 38.63619971418099 -0.03500234290875101 0 0 0
66 1 12.892620334534618 40.14899878372944 0.9029971875897502 0 0 0
166 1 11.18443790661134 38.420924157720535 2.746064706115458 0 0 0
59 1 14.332913333863505 38.2660903951176 -0.2357838578801737 0 0 0
173 1 17.385338415227128 38.10194822510475 2.8560089828917876 0 0 0
829 1 19.328952194150624 39.821314504139295 1.482744587247778 0 0 0
891 1 23.76641068276667 38.47544804406445 2.77536467710595 0 0 0
798 1 27.245804857618975 38.61686297518385 -0.08518054814550524 0 0 0
805 1 25.479444269051314 39.904661791620825 1.2039099201479524 0 0 0
808 1 31.24479570976131 40.11504563843975 1.4063572117563223 0 0 0
800 1 32.97880358427662 38.19262818667471 0.1467431718502114 0 0 0
69 1 3.8604293382786152 42.9991854898651 0.7896567341550713 0 0 0
169 1 2.3759968778408744 41.34351589178219 2.6275606516476606 0 0 0
73 1 9.524599168029518 42.9246322174168 1.5365699680177751 0 0 0
170 1 7.992535546872225 41.17737586881546 2.90551283625503 0 0 0
72 1 11.026066449618353 41.45404229793502 -0.20575720709516715 0 0 0
76 1 16.0173229665182 42.95503800446912 1.1908268656247785 0 0 0
172 1 14.499413248301481 41.19155580859244 2.716588250180843 0 0 0
67 1 17.93161968315283 41.20091589762451 -0.06225336016203381 0 0 0
804 1 23.821037967646184 41.2650285239492 -0.2503253292942921 0 0 0
811 1 22.192765667784798 42.996882990681485 1.1022637245862117 0 0 0
814 1 28.640088185420712 42.57419335157279 1.4416281235790305 0 0 0
817 1 34.41774922971843 43.20578906317087 1.3039704832377441 0 0 0
70 1 1.788459203815664 44.54330618907629 -0.046045960792808954 0 0 0
79 1 7.001450019918802 45.99644378598357 1.7151494861035779 0 0 0
177 1 5.288688201898859 44.24701570002266 2.755545747452008 0 0 0
82 1 12.45091495251336 46.00328661312426 1.5841524603124135 0 0 0
75 1 14.29783808698669 44.646613582216986 -0.060634592068751186 0 0 0
644 1 19.043577984617283 45.99416849396627 1.507180809587754 0 0 0
813 1 27.30733304954949 44.71280615807126 -0.04422746345581102 0 0 0
820 1 25.56696220637998 46.04445458420601 1.4978940157090135 0 0 0
904 1 30.002664799001256 44.324336957711154 2.7229051225433474 0 0 0
822 1 31.644787449420807 46.25298854454712 1.1482960096482984 0 0 0
86 1 3.7444800903592665 49.09222410259024 1.6199858285744335 0 0 0
78 1 5.378536267489763 47.22536945416874 0.027681860282138593 0 0 0
89 1 9.98775816430451 49.265599217281604 1.6918898138737728 0 0 0
81 1 11.330723638693915 47.67674768884231 -0.008052427854749467 0 0 0
91 1 15.97373493060872 49.648485135535 1.0657702793782196 0 0 0
185 1 14.550580099100372 47.98398244929717 2.9169638260768975 0 0 0
84 1 17.749771595165306 47.658686309005134 -0.005550305391421595 0 0 0
819 1 24.063358051696238 47.715685580254046 -0.18519861208110466 0 0 0
824 1 22.493112728702076 49.36673824592464 1.6205604195536487 0 0 0
908 1 26.714991883868844 47.87678649761828 2.922681050036527 0 0 0
826 1 28.70288260471303 49.200023517394726 1.5013287894415095 0 0 0
910 1 33.17572886795097 47.686167267689584 2.758418512947987 0 0 0
194 1 2.9948918199577212 1.7856035865570643 4.687054093782564 0 1 0
188 1 5.054649623139382 -0.10394449666207534 3.2940338882448166 0 1 0
196 1 9.739198728695378 1.3523122788044797 4.781146889402017 0 1 0
190 1 11.409262799780793 0.23161316671651655 3.0751733397189627 0 1 0
198 1 16.162970302593227 1.726610987631 4.858944470276358 0 1 0
192 1 17.623550298136905 0.3893259783351457 3.05861074693368 0 1 0
296 1 14.523461617083369 0.09289758853676383 6.061145803114785 0 1 0
1000 1 20.472242351543468 -0.0358277221049251 5.8807475102611395 0 1 0
917 1 22.18605900413049 1.4319839210392775 4.418264769671643 0 1 0
912 1 24.08158804894217 0.14469395798291668 3.064452821297126 0 1 0
919 1 28.97464293881285 1.7265058583942694 4.9169698755380935 0 1 0
914 1 30.15521086267019 50.47416549884919 3.238548470692244 0 0 0
921 1 34.866294114184406 1.7236087206725719 4.388102559064026 0 1 0
193 1 1.8423232740588797 3.383108378570243 3.1316036956649747 0 1 0
594 1 0.474754890092052 4.818574672897796 4.948150544477445 0 1 0
200 1 6.41283614471673 5.368043418460165 4.4936080291497795 0 1 0
300 1 4.842402451952858 3.4175428334835583 5.909426047672409 0 1 0
195 1 8.057692144562171 3.616534503709778 3.2009755990734896 0 1 0
204 1 13.123261140453895 4.7694266747033955 4.722354662024551 0 1 0
197 1 14.87125886266812 3.616092494980281 3.0097410413482426 0 1 0
901 1 19.278424496176502 4.614664503078794 4.472583825257877 0 1 0
1007 1 24.009378646178092 3.230429224687633 5.993836723455764 0 1 0
918 1 27.194035925319415 3.057336327514278 3.5579885758574155 0 1 0
923 1 25.49344984745563 5.229664672045273 4.652445183786302 0 1 0
926 1 31.773664073450917 4.663907298202878 4.78725402742912 0 1 0
206 1 3.4852262535305747 8.003883040933848 4.819284912318914 0 1 0
201 1 4.9033617788122665 6.865234124265322 2.936309356930438 0 1 0
202 1 9.353155138455394 8.345516450403732 4.29736004997844 0 1 0
307 1 8.229899624316834 6.535783200936267 5.875248835662598 0 1 0
203 1 11.235268652326697 6.461834902880402 3.225329607583435 0 1 0
211 1 16.441156430242128 7.9055718687388765 4.4127336032120255 0 1 0
309 1 14.412636569495302 7.0458658399706 5.874773644249552 0 1 0
205 1 17.73509196496175 6.215348601263452 2.9665011500301834 0 1 0
1011 1 21.091881128453327 5.951173231100054 5.83510130184502 0 1 0
922 1 22.361078785679123 7.846053449913553 4.418267166101075 0 1 0
925 1 29.811979861780774 6.202707318786582 3.479955896434096 0 1 0
931 1 28.365619480846803 8.207444185560705 4.90096458864999 0 1 0
934 1 34.80410233183746 7.542497579488888 4.59563980083144 0 1 0
116 1 6.267050383991713 12.25392991883407 4.689320320111887 0 0 0
208 1 7.855848880266137 9.858456145356751 2.954748160220503 0 1 0
209 1 13.185005306189646 10.89599919667135 4.55069087661076 0 0 0
315 1 10.892278982734933 9.830278034220369 5.7863547375811315 0 1 0
927 1 20.550651872438653 9.42744853427773 3.0362241214125842 0 1 0
881 1 19.34617027805112 11.926421642502145 4.540771432148403 0 0 0
319 1 18.1246140308327 9.319593344688409 5.986055717427933 0 1 0
1020 1 24.051502931808958 9.117560999285777 5.708784065534733 0 1 0
930 1 26.914097327623015 9.697006515376714 3.188265788600325 0 1 0
929 1 25.328866597621957 11.803701806480975 4.675546262538223 0 0 0
933 1 33.11089796039824 9.314905417985594 3.1167563924660007 0 1 0
932 1 31.92730342094142 12.017042358716102 4.577075534169593 0 0 0
121 1 2.9054151461072264 14.843569551156437 4.797711561017575 0 0 0
2569 1 31.66611969183339 49.51632423525399 23.525182873387237 0 0 0
115 1 4.713109479915118 13.68519716166605 3.177092882138992 0 0 0
117 1 9.682079662878587 14.69655002529689 4.700005746635242 0 0 0
118 1 11.23915746952379 13.25172029032946 2.9979212394925696 0 0 0
119 1 17.63474850855996 13.16365229145091 3.0195465080535215 0 0 0
120 1 16.011740437204487 14.949495148007363 3.9883280377819466 0 0 0
217 1 14.776884827151228 13.175250506453397 5.905115464965362 0 0 0
852 1 22.5014908380461 14.98259114088319 4.5698988706863855 0 0 0
937 1 21.220372745717327 13.307211833990188 5.985811491709438 0 0 0
940 1 26.878772317343905 12.962476195828039 5.971160524008051 0 0 0
854 1 29.97500691389705 13.324279460834255 3.1423382318781488 0 0 0
855 1 28.291375435805186 14.81225672071703 4.69127625807709 0 0 0
856 1 34.8502973943877 14.665001757012263 4.715368371574361 0 0 0
122 1 1.510709340306285 16.39363419624188 3.1327249853291987 0 0 0
124 1 6.554337515134327 18.02577941079967 4.793594320857139 0 0 0
126 1 8.084145387346197 16.349358676050613 3.1697107747124966 0 0 0
128 1 12.555084171181287 17.886727589283222 4.326364043958935 0 0 0
225 1 17.63484668476595 16.175781443236332 5.7915489209531685 0 0 0
746 1 18.991841698775048 18.0401145606686 4.521451165862248 0 0 0
859 1 26.72051972812698 16.47880132546827 2.993030025901473 0 0 0
858 1 25.17479045502324 17.98085257137016 4.830230059961824 0 0 0
947 1 30.214496267272914 16.340353030215613 6.00102975953148 0 0 0
860 1 33.46729277832284 16.312817291735026 3.10334010814192 0 0 0
861 1 31.943911255191026 18.131636621932625 4.248974547146487 0 0 0
130 1 3.4853097967819564 21.06286372481254 4.305100653215395 0 0 0
226 1 1.7037984791576475 19.664845627827148 6.087282951172425 0 0 0
131 1 5.1255882330278375 19.376323045759527 3.225720313792769 0 0 0
132 1 9.768244532948113 20.951268384764408 4.598228839392665 0 0 0
227 1 7.788314484476422 20.091028132294102 5.953909017905336 0 0 0
231 1 14.115058639594164 19.636863532559016 5.991342562977436 0 0 0
135 1 17.22018861277031 19.72498219868478 3.0072547589255136 0 0 0
134 1 15.804625188874462 21.212845084723735 4.667952533259363 0 0 0
862 1 22.314989049262106 20.75433381632722 4.33293714758012 0 0 0
952 1 27.285705840390904 19.279872474334514 5.883728754904308 0 0 0
865 1 30.111682094780157 19.86496174732608 3.012998656154889 0 0 0
864 1 28.59336488122558 21.246954850221016 4.55255180079944 0 0 0
953 1 33.099098137633234 19.77213188097812 5.922962022415282 0 0 0
138 1 6.654511301402422 24.52973237908165 4.131423636441684 0 0 0
236 1 5.04072308152766 22.797724498597102 5.7004537612701975 0 0 0
139 1 8.039830252146803 22.366481926984843 2.975310302152634 0 0 0
141 1 12.742831025520092 24.192353759078994 4.424087419987301 0 0 0
238 1 11.079063421451423 22.57806961258287 6.076601022960477 0 0 0
241 1 17.57507205586575 22.79304199870956 5.8027590799757025 0 0 0
1374 1 19.156990298558675 24.140834820506964 4.090550809699282 0 0 0
956 1 23.98014795295328 22.57547347109191 5.69931802702191 0 0 0
868 1 26.899308841179103 22.74608636922256 2.9817672091117178 0 0 0
867 1 25.596067098810444 24.566295280062683 4.617124040765842 0 0 0
870 1 31.530433817440613 24.521659690169418 4.473409232348056 0 0 0
869 1 33.31337093133759 22.968683467204077 2.992115485282218 0 0 0
143 1 3.5012138671610584 27.65117526831809 4.153359386411694 0 0 0
243 1 1.6647952219104705 26.202453943444855 5.809177164643823 0 0 0
144 1 4.571667014626331 25.788497726420243 2.96960631767926 0 0 0
145 1 9.935992178718882 27.535276062471727 4.414585451902815 0 0 0
245 1 8.346200809422543 25.92458304877164 5.6895086290584365 0 0 0
146 1 11.259547932830024 25.848644346716448 3.1052834296290945 0 0 0
147 1 16.111325228562634 26.95701981332165 4.423692696390102 0 0 0
247 1 14.5293237302655 25.363432770849453 6.063878513676124 0 0 0
962 1 20.669054370822796 25.526223505468142 5.945124978795298 0 0 0
872 1 23.77198896914011 25.880670958277932 3.0921997588898864 0 0 0
871 1 22.049448824088177 27.48565178086274 4.534275877975597 0 0 0
873 1 28.405021615824477 27.367632098099495 4.339559004766477 0 0 0
875 1 34.6806005935532 27.16053883420123 4.57322875554483 0 0 0
257 1 0.562280957787474 30.37367765829873 4.660060731519517 0 0 0
150 1 6.898328855658983 30.719083327166267 4.3181411250824855 0 0 0
251 1 5.144964864860105 29.12668277908742 6.024771381348134 0 0 0
153 1 13.140890892273227 30.653537560059096 4.421484719821641 0 0 0
253 1 11.804024892894187 28.651306106371003 5.753123845761696 0 0 0
794 1 19.28205307067618 30.687009230317784 4.584110835761677 0 0 0
255 1 17.738774359904607 28.83652713901581 5.8702439082698366 0 0 0
969 1 23.89063150764935 29.17401768381958 6.083431512190887 0 0 0
877 1 25.332301300487803 30.447335323533807 4.352163241940714 0 0 0
879 1 33.1717363954852 28.764152216893617 3.0793989389434806 0 0 0
880 1 31.69652527457329 30.473469836997513 4.72079620844034 0 0 0
154 1 3.4142655995443776 33.09829812595082 4.624836561906812 0 0 0
155 1 4.930724231657346 31.78354400729425 2.985849449378564 0 0 0
156 1 10.08922279284856 33.4687772728673 4.498125926760606 0 0 0
260 1 8.15563295221305 32.29236803358366 6.091207084604926 0 0 0
157 1 11.586931135458444 32.143310982258555 2.938604230793019 0 0 0
160 1 15.703903851326013 33.698244981028694 4.330594015491998 0 0 0
159 1 17.73126236923134 32.095561244820004 2.9502902600693006 0 0 0
882 1 22.528223480261765 33.402391397617535 4.150959774809647 0 0 0
975 1 26.735215663874314 32.246503148967776 5.9787671464774785 0 0 0
886 1 30.101625714854222 31.769156809255914 3.023697689339256 0 0 0
885 1 28.58350195566731 33.39839966778486 4.200969478246381 0 0 0
888 1 34.75027814499774 33.7870354244984 4.822101866496894 0 0 0
162 1 1.9570429807237493 34.9353898361766 3.146743538381954 0 0 0
497 1 0.6473522595535212 36.923085066506346 4.375120264357187 0 0 0
163 1 6.453556952214202 36.61695886523576 4.126717312397789 0 0 0
266 1 5.115402176092984 34.70471541104675 5.708772856313347 0 0 0
167 1 12.642025319272536 36.75972483977843 4.131106879239737 0 0 0
928 1 19.242003957895776 36.49223231253832 4.505645296125878 0 0 0
974 1 23.843145805324795 34.977136081748114 5.947066443501593 0 0 0
890 1 25.439436941158473 36.493843430354275 4.124516343461157 0 0 0
981 1 30.167625046011455 35.076048119654175 5.902671951194375 0 0 0
887 1 32.774759086638625 35.00764240396468 3.06003624265992 0 0 0
894 1 31.79151299281697 37.08982313303791 4.312157304107157 0 0 0
168 1 3.406587546376685 39.79658605575908 4.445445688701925 0 0 0
265 1 2.118862923973989 38.053234394563646 6.050599153204189 0 0 0
171 1 9.741828249332567 39.86631181937487 4.442998470187862 0 0 0
269 1 7.999575083723679 38.01091059159336 5.785021788858968 0 0 0
271 1 14.071368168181579 38.19222759387205 6.053586504699677 0 0 0
174 1 15.779522974897143 39.571600485788835 4.537728464171556 0 0 0
980 1 20.96929559412158 38.33414783721473 5.7984862164700335 0 0 0
895 1 21.906764229766075 39.704490429453756 3.8836045103947887 0 0 0
983 1 26.940667280723662 38.23721255658015 6.0640144166623955 0 0 0
893 1 30.031482386336325 38.40539797113679 3.083532965133228 0 0 0
898 1 28.790544599627893 39.92775627546641 4.7611827707672845 0 0 0
900 1 34.44657989858665 39.63333225828778 4.545619095221365 0 0 0
176 1 6.7968138160610625 43.09570568523053 4.553515707974111 0 0 0
275 1 4.986746079865237 41.679416422640486 5.849681641028755 0 0 0
179 1 12.907781428011342 42.94426087066543 4.3539056630756745 0 0 0
276 1 11.38913281975989 41.637842199717184 5.971586370540135 0 0 0
896 1 20.767678697388224 41.86911340913926 3.017246237752072 0 0 0
737 1 18.793474381191647 42.9420307749636 4.657274688542908 0 0 0
987 1 23.15535237699141 41.28923020596268 5.990039309768105 0 0 0
897 1 26.959385351145148 41.03533053581131 3.1535310737678968 0 0 0
902 1 25.09633845089347 42.730126377290546 4.495531710210194 0 0 0
899 1 33.00079475852047 41.64628767456435 2.9489852635097646 0 0 0
905 1 31.582389342065802 42.84222715483287 4.62554569929271 0 0 0
181 1 3.2439231304840543 45.592986749424696 4.438620491184919 0 0 0
281 1 1.6613801780816715 44.175756884204645 5.935736562212335 0 0 0
2119 1 13.153839907218615 48.902636598999294 23.656282878637082 0 0 0
184 1 10.332106515683096 45.54377438324107 5.351126309880357 0 0 0
178 1 11.149223998553492 44.46475275467304 3.08795739255956 0 0 0
285 1 14.190909823600162 44.58918248868645 6.08115665931048 0 0 0
180 1 17.257106354776205 44.61901657683164 3.0861470830432136 0 0 0
186 1 15.583753326120588 46.19579873114152 4.528347891916216 0 0 0
903 1 23.69149603855384 44.4161105639148 2.945672302529235 0 0 0
906 1 22.038314725136008 45.960189847228534 4.4821527700008295 0 0 0
992 1 26.924147135839352 44.33403531344342 5.973623460374279 0 0 0
909 1 28.25602263256122 45.84449442853767 4.389182411480075 0 0 0
911 1 34.738196075221026 45.982718283925834 4.903569003727322 0 0 0
182 1 2.01514290411942 47.44181610374008 3.197154918659347 0 0 0
189 1 6.610612370733588 48.910261252455655 4.712899384933051 0 0 0
287 1 5.000381141950194 47.178190441602936 6.05740396839003 0 0 0
183 1 8.712706461151482 47.37033496232664 3.321265390795761 0 0 0
191 1 12.777306053974904 49.54472091508224 4.534212648682799 0 0 0
291 1 17.374253038654732 47.63243387248072 6.011700419332654 0 0 0
907 1 20.39825175926725 47.534026766699185 2.9749374837141658 0 0 0
608 1 18.79527277679199 49.197231197017715 4.278684513836659 0 0 0
913 1 25.136142187367565 49.27005760056794 4.747775036313511 0 0 0
998 1 29.843812538683775 47.48857594043096 6.072483334061321 0 0 0
915 1 31.57780414985228 48.95176314209466 4.670606633864305 0 0 0
8 1 0.6753045874790092 1.1872577955126555 7.958472367408016 0 1 0
292 1 1.6191282562414657 -0.2282081472438225 6.198444578395213 0 1 0
299 1 6.642388179661811 1.8742706299678806 7.371188405582452 0 1 0
294 1 8.240785773800503 -0.15392571518331205 6.32096431017784 0 1 0
302 1 13.12951704665631 1.487077734187989 7.680218517137733 0 1 0
420 1 17.552938589959677 0.08753448679073877 9.145789794151055 0 1 0
1379 1 19.21831975193887 1.534300561918381 7.654991146860496 0 1 0
1006 1 25.427546824703786 1.741518253467898 8.129663259211819 0 1 0
1002 1 26.900951750789716 0.11370674893803229 6.156602353923364 0 1 0
1111 1 30.18112514941517 0.26825844158813583 8.810799629509065 0 1 0
1009 1 32.23691575522557 1.5979406762571906 7.6705416138123645 0 1 0
1004 1 33.68321296444026 0.04699612236064188 6.100517433084128 0 1 0
305 1 3.376391898447925 5.076251133090347 7.8314085232107296 0 1 0
308 1 9.418182835304682 4.507427043130805 7.323993782524726 0 1 0
301 1 11.60859566999934 3.008843045448435 6.122896332959813 0 1 0
303 1 17.556034073068506 3.4890773156610306 6.494964455914622 0 1 0
310 1 15.867327115459206 5.253976454971776 7.843909064858542 0 1 0
1114 1 20.84984267303028 3.1708078054421946 8.84417445071932 0 1 0
1010 1 22.42121224794695 4.593627312272708 7.410216596890286 0 1 0
1008 1 30.27066483220711 3.1061324060793845 6.464158136816158 0 1 0
1013 1 28.55830060799486 4.662064595076484 7.81103803915574 0 1 0
306 1 1.9885847910766192 6.775340984098629 6.4601224232690315 0 1 0
727 1 8.280035442454198 47.59093417299066 22.046217911711878 0 0 0
313 1 6.6590013663985985 7.719872796001344 7.84052501991189 0 1 0
317 1 12.585298480369383 8.26911058187945 7.540899408290906 0 1 0
431 1 11.295691941759019 6.28849334426209 9.047252691569545 0 1 0
755 1 19.51163436359297 7.799764707251539 7.557214431222176 0 1 0
1014 1 27.035254802043724 6.319877867171112 6.4664079090924265 0 1 0
1019 1 25.177156587955704 7.73056455308185 7.800214832078453 0 1 0
1015 1 33.45890918065729 6.214940141604258 6.541628393968358 0 1 0
1023 1 31.60249201356102 7.6980213615466715 7.848543664263374 0 1 0
213 1 3.5387818479902355 11.885317157167005 7.873642675430618 0 0 0
314 1 5.097594650584353 9.6677648678065 6.4771799627491715 0 1 0
216 1 9.89148299940023 11.885648349581537 7.830930432259617 0 0 0
318 1 16.41476544579241 10.921751962961686 7.273863699819033 0 0 0
439 1 14.425529978563652 9.581498704426634 8.89828330718178 0 1 0
1017 1 22.755796859938748 10.809855894513658 7.414651135807617 0 0 0
1018 1 21.30043129153983 9.71166104939228 8.880967214818329 0 1 0
1130 1 26.720556388489754 9.58182768992724 8.917120844679184 0 1 0
1022 1 30.605809722420545 9.42457945495764 6.22653705025472 0 1 0
1021 1 28.621696351209255 10.619894557723008 7.499177976189526 0 0 0
2239 1 30.312663087880782 41.38989217532327 25.097280370351108 0 0 0
212 1 1.3714154060569468 13.067852778843971 6.300575787591165 0 0 0
725 1 2.0860829133081022 47.40592740904971 22.125268326771184 0 0 0
214 1 6.364009798498491 15.217312728308183 8.014344504826939 0 0 0
215 1 7.998521624013611 13.632409846774834 6.36107210077615 0 0 0
223 1 13.13617473026581 14.76976384054931 7.661042558670755 0 0 0
324 1 11.85832847087308 13.241188243304014 9.163189457661144 0 0 0
815 1 19.587143796510563 14.97439796923208 7.21261916893542 0 0 0
218 1 17.91466605526405 13.511178211927252 8.731506807025896 0 0 0
939 1 24.169916022911742 12.940876406048414 9.061720811633574 0 0 0
938 1 25.64823038048889 14.675587667702962 7.743740193506531 0 0 0
1029 1 30.4145117592312 12.804663757616458 8.975565164756254 0 0 0
941 1 33.37536730054658 13.179319992975776 6.128433945151345 0 0 0
942 1 31.867605074310422 14.642333279475507 7.58811611235594 0 0 0
219 1 3.3268457463224923 18.191055588037475 7.77960120738047 0 0 0
220 1 4.692146321342143 16.576493337542495 6.223050545055538 0 0 0
229 1 9.64340543197194 18.209293064084783 7.582781959297015 0 0 0
221 1 11.396273603474935 16.37580498438298 6.1764135404401275 0 0 0