LAMMPS data file via write_data, version 29 Oct 2020, timestep = 200000

4608 atoms
1 atom types

-0.12323095796252659 53.52323095796271 xlo xhi
0.19672422218726382 50.71039577781008 ylo yhi
0.19672422218726382 50.71039577781008 zlo zhi

Masses

1 18.015

Atoms # atomic

4479 1 16.99169892055008 19.067734775755312 3.0545128829407586 2 1 0
3249 1 1.6316244681063206 5.985017207114704 9.742920931770614 0 1 1
3926 1 15.532913328177331 32.85523894158425 24.92254331732226 1 1 -1
1066 1 2.4594797521756537 9.869507795227621 22.687086833982118 1 0 1
1273 1 1.2989144250617994 44.0017560011107 6.907758805101942 1 -1 0
3285 1 15.975795664947217 0.6404109115539072 2.4610190288809415 0 1 -1
496 1 14.001755036310321 3.274223697459245 5.038872542794266 1 1 1
2801 1 2.397969328967179 50.01366542959373 9.525753148898387 0 -1 2
4048 1 2.872099783744746 46.029565938492205 13.371067885101208 2 0 0
3698 1 3.013094814239695 13.448174173020577 24.97421594185733 1 1 -1
1494 1 13.252729610030197 1.3770717251926088 3.054797159891318 0 1 2
3046 1 2.7016130994150878 50.62843373024587 16.96669811487688 1 1 1
2514 1 0.13296922074381468 32.5275649930424 23.63263529557313 1 0 0
3746 1 0.35742953150879153 46.46465733481919 14.28724076316442 1 0 0
4523 1 7.623126761616652 6.285450869489257 2.343427036942674 0 1 1
173 1 13.62461726873065 41.17114137256649 24.552338131271473 1 0 -1
3590 1 11.16311715348235 4.4197302604892945 1.5284228681188936 2 0 -1
752 1 12.994392484498643 7.386550410167506 1.0450825851167829 0 1 1
559 1 16.313656614292196 27.615337008840974 24.1812059899015 1 0 -1
3003 1 4.898285402810662 9.759499178007362 4.134424000027472 0 1 0
2387 1 6.390127737430078 9.081591814293068 2.1754937635566955 0 1 1
3088 1 5.935838515502055 13.9534193677144 4.470542509781576 1 1 1
705 1 1.5624376520677747 24.709987790828947 23.094451821023945 0 0 0
91 1 16.594016558481336 18.426219097057345 0.29841969660462486 -1 -1 1
3054 1 0.7801790094218807 11.993892846036992 4.532941207408926 1 0 0
635 1 0.5653632549332772 14.40020663947349 3.0495748917383807 1 0 0
2825 1 4.883095552804564 10.702374817529899 7.112598900912913 1 0 1
309 1 12.773715170488307 11.831844969524262 1.563171737093628 0 -1 0
2413 1 2.617745527992632 50.12004752387603 12.359505640416167 2 0 0
4292 1 2.7837788856666985 15.799796111011537 2.5321419511365337 1 0 1
2539 1 4.23504171467811 33.77616881089084 21.159377677874364 1 0 0
1701 1 10.304025469169481 16.42879966048685 4.00398522682157 1 0 1
4543 1 7.41498457425462 11.760526137852443 3.693190502120976 0 0 0
3166 1 0.8285400964495212 34.381130451723244 12.538172711154095 0 1 -1
1846 1 4.817123303243252 22.261088512189012 1.5536281235347813 1 1 1
1338 1 2.0115655006783717 18.058939772055158 20.700987180234414 0 0 0
4486 1 9.628491461162485 14.461635692097444 1.8343713426369592 1 1 1
4112 1 13.013873722430121 17.156488244391245 2.704479752494761 0 0 0
2264 1 16.79200243092592 24.65907279843142 3.9753756545435293 0 1 0
3897 1 12.389083048475953 19.920521965311842 3.4122955470759986 0 0 1
3566 1 11.146900497482626 34.25897069197073 23.836522422257495 0 -1 -1
2736 1 13.063956260174555 25.08152688178352 1.5844224864347751 0 1 1
2292 1 4.946965147620102 24.546416819229737 2.8612815976079937 0 1 1
3765 1 0.13075940686499538 26.881780571363898 2.6313420496980373 0 0 1
4191 1 10.738365916900573 26.459605333523164 3.238909019467464 0 0 0
1859 1 17.312919138506178 25.91448685606324 6.21743259803573 0 0 2
1877 1 0.34765692695332284 32.49513413334303 0.48597603747784385 2 1 -1
2015 1 14.86785005333543 21.823505080814943 5.841794705311323 0 -1 -1
3080 1 2.026891573608192 28.851379189795548 2.424995980474609 1 0 -1
2744 1 2.141985666379108 25.28109478257961 3.830296860016415 0 0 0
2054 1 1.8985435388573615 45.58403842882635 9.540949655073529 1 -1 -2
2661 1 10.942207717418032 30.334257486567903 6.3301775514059315 2 -1 0
952 1 6.4446021719945525 28.09950742692366 3.386337621327042 0 1 1
3681 1 4.502962129782209 26.467853907246543 23.97167112115249 0 1 1
1134 1 3.0350039543259992 37.772257011614805 23.973912487784386 0 0 0
4059 1 7.666215866872459 12.20145809587058 0.7045866765000451 0 0 2
3591 1 10.284022030329087 28.715460527429713 1.5580068713222284 0 0 0
4067 1 15.411555959354084 27.944413001410787 3.8223478655091423 1 -1 1
330 1 1.8408850439232831 9.638009110154181 1.6348980970711267 1 1 1
74 1 2.66875156472889 5.537779203722349 2.6200888223947185 1 0 2
1226 1 0.7352916530661194 36.76743665052326 15.65154557785006 0 -1 0
1455 1 4.8789978275022 33.580042186858925 2.4740146139458012 1 -1 2
3117 1 0.1850258683891508 44.517910732119724 4.03560847739797 1 -1 2
127 1 9.05197704737932 30.559043862574224 3.682583956872692 0 2 0
418 1 6.706921671617532 32.71305723559395 6.564259486721579 0 -1 0
2048 1 11.316663655909418 34.40716312396595 4.405531936670202 1 0 1
1664 1 15.748337828069598 32.45143300125936 2.9244695245314674 0 -1 1
3394 1 17.48423259513536 8.85704775062969 1.3728063801265884 0 1 -1
4400 1 6.90550022145913 34.90057850926139 3.1730723023011795 1 -1 1
4174 1 8.229729488283477 39.90743020397343 2.7934146567843317 1 0 0
539 1 12.895882257012577 38.265751437288245 3.0896586571758657 1 -1 1
1348 1 0.0784409280361355 40.56122169540248 24.507576150808305 -1 -1 1
99 1 15.47880881462993 37.7860786171303 4.356151356691946 0 0 1
2425 1 16.2765113428565 24.11941083065647 21.97463078297426 0 1 1
390 1 15.64149035360377 16.325757174906943 3.2885267762205763 0 0 0
3751 1 9.436016098206128 32.020057693480496 0.7021090608684558 1 -1 1
2059 1 8.589235911203128 42.63939357507662 2.12894967673086 1 -1 1
2672 1 12.028686484123716 40.36175708825051 4.925588571352324 1 0 1
2581 1 -0.03099095951596162 33.33546197975004 2.959864865076909 1 1 0
3382 1 1.8681437019666407 45.80960501446865 2.5760204852851856 1 0 0
2483 1 4.72087158412786 27.2487190668418 19.76934868435371 1 1 0
358 1 4.5218532766839825 42.42952562423472 24.889525902207602 0 1 0
2879 1 -0.12147317532780086 26.670467470001462 9.883819822956207 0 1 0
90 1 0.2280957616705876 12.937527901864554 12.90905917697308 0 -1 0
1295 1 11.189434678675982 44.903231646249985 4.399466575003788 1 -1 1
2781 1 15.994010826627417 42.04804452791927 19.902528253348766 1 1 0
4043 1 2.6493700879567523 49.529205044440886 1.9444675132825713 0 -1 1
442 1 1.7963442060859536 49.00105124720511 4.657197802977567 -1 1 0
285 1 8.406174019041723 45.90113567998703 0.4324705690352101 0 0 1
449 1 2.9275077830816336 3.5349764467251013 16.26415057251542 0 1 0
62 1 13.14287638811342 43.53570777325488 17.073554829522763 1 -1 0
1462 1 0.071041995484255 47.28562985038843 17.03375447499383 1 0 1
2534 1 16.61734179523634 43.30813542579018 3.992524610320001 1 -1 1
3403 1 0.1239354058441926 49.32693157991256 13.32137563705065 1 0 -1
1648 1 14.719676830732427 34.335858767243124 1.1699447967877927 1 0 0
3975 1 1.2974769724899053 35.99990797210858 3.8355660498786937 1 -1 0
3401 1 9.304756078416357 48.72057753323548 2.887047025549843 1 0 -1
4498 1 -0.041729888545567945 6.851967361405756 7.49772972547963 0 1 1
150 1 0.9537263191543237 7.417008870238328 23.47745134823972 0 1 1
3988 1 15.349676647869375 46.4277910828121 2.912787474258614 0 -2 1
1496 1 1.2475851304008099 21.41205934219583 3.907851111928932 0 0 0
2887 1 -0.08350974948168222 4.841521832583332 3.281390089744998 0 2 -1
146 1 6.175797731709341 48.113158511249935 5.127680916697286 0 1 0
413 1 11.398995104647934 48.92867037939361 7.10185485611558 1 0 -1
620 1 8.824587052402615 0.5720730374009941 4.191682200334876 -1 0 -1
3463 1 16.55392943374006 2.1743518113332714 4.782857565294043 1 0 1
140 1 -0.10452514195645919 50.617091958406576 16.080624884412835 1 -1 1
1495 1 2.75965720815304 1.0663874095292434 4.765333938628604 1 1 0
3091 1 2.9835369497623434 2.829176335029553 2.2992836522087723 1 1 2
3456 1 5.4174225426365075 1.0924073228088944 2.145305039021861 0 0 1
1353 1 6.283020693474002 50.569959463743686 4.798565194006707 0 -1 0
847 1 7.5065786507182555 2.375178958866219 0.4590204375830729 0 1 1
1469 1 16.02216110222829 50.62138150222413 6.543084046337348 0 1 -1
2044 1 5.170596641977761 6.276773099526117 1.1790909723029621 1 0 1
206 1 8.650171740034752 7.276459053209776 4.772251660046005 0 0 0
4012 1 11.344405383918636 8.881059370956029 3.800663406871429 0 0 0
4014 1 14.181300369732755 4.170504373684419 1.510980052026083 0 1 2
3357 1 1.384948509652209 8.052778096243031 5.3573988717211645 2 1 0
1167 1 3.6198742072801124 7.345226141188328 4.506581835220758 1 2 1
1952 1 7.149173410449401 8.615762396371258 6.363547891336537 1 1 0
1003 1 9.628222890293213 10.625065318947218 5.0401168590532945 -1 1 1
2159 1 16.57628990957102 10.581712708478749 3.837552508377617 1 1 -1
3641 1 14.271761637351121 13.251630814608694 5.850605552248439 0 0 0
1550 1 1.2013482071649555 10.062399307278055 7.030777485217977 0 0 -1
2770 1 2.89624731931165 17.250827490596183 5.947897367526761 0 0 1
4142 1 3.3588259535442178 11.83797380027424 3.01103166576826 1 1 1
1083 1 6.377007086457397 12.590413292776342 8.314808422839597 -1 0 1
970 1 8.901948831731065 19.276640485197365 6.724024872583103 0 1 1
2963 1 15.160319134845905 20.505409880934724 20.28024447311706 0 -1 1
1838 1 17.48586526110963 33.05228117502212 20.430030173937187 -1 -1 -1
4490 1 3.4527742294526265 14.559077235681155 4.994342440105891 1 1 1
1756 1 5.414500858321828 17.290642662480057 2.697630864168927 1 1 -1
3237 1 7.974146806938657 17.973347451784036 3.8647812697137818 0 0 0
171 1 7.174470028488976 16.0550045736598 5.737358744046364 1 1 0
3735 1 11.090977570283986 20.962826548809304 5.778844586664921 1 0 0
1382 1 13.300994309847315 17.624299087515165 5.855386545360396 0 0 0
1657 1 6.6571216450952395 36.57324851134173 23.566887012969506 0 1 1
4491 1 2.319259348626861 18.617962618665683 3.704576411638695 1 1 1
4586 1 4.746836864034691 20.767810634296684 3.943404343470341 1 1 0
4132 1 8.060827787442893 25.651198188010675 2.2287282684187413 1 0 0
3615 1 9.301278372923699 21.684891699691185 1.809448213247352 1 -1 -1
1097 1 7.729340386898522 20.82348702907765 4.269497814242487 1 0 1
2081 1 9.911010590335026 23.40050199205476 3.82674856576022 0 0 0
4560 1 12.372914054921857 20.912333248614893 8.127308233979335 1 1 1
1944 1 13.838131346777047 14.337686747498926 18.601556287495466 0 0 -2
4504 1 15.339474827519638 19.26562854976358 7.253493614847241 2 1 1
3096 1 1.6093033581528347 23.082816111755008 5.759263042632117 1 1 0
3839 1 6.731552034377677 25.305528444955797 5.228035476507336 1 0 0
664 1 12.813162228777252 23.456037021699125 3.6761531116473853 0 0 1
3139 1 15.403459006781992 24.487260912275854 8.594651170498562 0 0 -1
2122 1 3.063320308674125 44.02843033908016 23.017505701031457 0 -2 0
2273 1 13.922285344182932 7.526298018589593 23.44781334177304 0 0 0
2789 1 3.5905449750600917 27.650252610499347 4.746680377361754 1 1 1
1291 1 7.900079727234655 28.298670886458797 5.900465238117434 0 0 0
1672 1 13.68162914841775 27.04277419514007 5.838651357515341 -1 0 1
3469 1 14.00140961492818 28.228928468511217 8.2146822274955 1 -1 2
1651 1 2.820876661794859 30.528606894645367 4.842381724072726 0 -1 0
2685 1 1.2516866541275307 7.959018081171774 18.414135149917854 1 0 0
1208 1 13.585577430356055 30.09009344402975 2.8886742368008815 0 -1 1
1399 1 17.359217159651852 30.47848311710364 7.197454174841168 1 1 1
605 1 9.389539273801656 28.36253138198322 9.883928951070025 1 -1 -1
2053 1 0.264868329945526 1.1573681835200391 8.665105148135652 1 1 1
4238 1 1.6743564978805057 6.60655856396414 0.28252722692946985 1 1 1
4335 1 0.17288376095825347 46.44388310087853 25.24436291342043 1 0 1
2341 1 17.17655790939841 7.906473160208405 15.844137655875455 0 -1 0
1488 1 2.899643619681074 33.5117068012499 4.449963029813201 0 -1 0
4232 1 12.983641458927917 31.871988517241874 5.031656906350159 0 -1 1
252 1 12.733386223962468 35.897269643929135 7.746644680025485 0 -2 0
3653 1 14.25163496801363 14.071786995719917 22.964396497392364 0 1 0
4196 1 1.9699940581341888 38.96391203191697 0.8220416900299539 1 -1 1
2897 1 8.942077286944972 38.64632842749234 23.860055497850222 0 -1 2
686 1 3.39861295947974 37.81050998397869 2.777985825199654 0 0 0
2076 1 8.860229961061213 33.36524966520841 4.190146694275935 0 0 0
1009 1 1.118836277155152 27.762871578281242 14.967951971367748 0 0 1
2219 1 1.5608069181990452 39.89802935175627 4.073143538142093 0 -1 -1
3841 1 6.731067348364268 37.1844974975462 4.839598212588794 1 0 1
2312 1 5.4733511661086345 39.73777581374068 3.7929320425697695 1 0 0
2290 1 15.959852498824027 40.2145439850343 5.320749550401076 0 -1 2
2864 1 14.887395890112126 37.61467643087099 8.599478359939381 1 0 1
1133 1 1.3899796578366865 31.916243935438313 14.453592810392784 0 0 1
3854 1 16.91451713015243 25.17496829398565 25.281168418702837 0 1 -1
1934 1 15.581373028010029 11.679359513428635 8.131459516220687 0 1 0
3860 1 2.7882214254455433 42.308275853194345 5.087446120472419 1 1 1
3475 1 4.074086154388269 42.99302459130321 2.559619949913384 0 0 0
3314 1 1.185472218199439 41.87343816295407 1.1222948535527624 1 0 0
1681 1 13.980896990638819 45.62358453155062 5.1067666489271435 0 -1 1
453 1 11.20407279604611 42.95190235669521 6.253097862302415 -1 -2 0
2647 1 12.207393439918519 35.01253731393744 17.315852448619516 0 0 1
3291 1 5.87013765963849 46.2795304679363 1.8140731361401141 1 -1 0
3098 1 3.3453174396024843 45.73683954194462 6.241626053903622 2 0 0
357 1 7.140394634828693 44.611075474758245 3.410907896909341 -1 -1 -1
1912 1 15.35294675410895 46.06490765142738 7.466703367990865 -1 0 0
959 1 2.066893933557048 47.60017652248786 6.933888861100914 -1 -1 1
3767 1 6.750732709544893 47.0616058310536 7.586073323293203 1 0 1
1188 1 8.659141495137074 46.38387128020301 4.810396231009266 1 0 1
2962 1 11.74276007269403 47.93956597676092 4.685854468278933 1 -1 2
3691 1 13.452425946604158 49.16614870581483 2.4407185537522293 0 -1 0
4471 1 2.7609885105814693 32.3893557456373 17.03250593601431 1 -1 0
1180 1 16.0525248576299 21.4064202015418 22.65968108663465 0 0 0
3968 1 4.25131983210333 48.35958795466 14.059126690781518 1 -1 -1
837 1 8.13571660674022 3.011620747511148 10.748240157633084 0 1 0
1567 1 11.016250629675739 0.41302686006656586 9.8057664870138 0 0 0
1323 1 8.918496912951332 3.588993733910902 7.853376218168655 -1 2 1
2819 1 9.563081853428205 1.030142241387845 6.951219546995887 0 0 0
1898 1 14.502803435878949 5.307658041280626 6.873791335652476 0 -1 0
1276 1 0.850868317643724 1.4329106628480728 0.9540125120960573 0 0 1
2468 1 3.1610261904975734 3.904430895340788 7.418013239227777 1 0 1
662 1 5.044086250290027 2.119920366393706 6.477111304381867 1 2 1
3952 1 7.622452276733026 3.5807535357831695 3.1944869803874605 2 0 1
1114 1 6.139504238260625 7.331130842104067 11.076530572063106 0 0 -1
114 1 10.265694429941622 3.0713860769063994 3.9851487293676477 0 0 0
1150 1 13.198949364306806 6.653177270021301 3.9477556315230777 -1 1 2
3834 1 8.760799159842298 41.95345114775697 24.838831696383153 -1 1 -1
4272 1 6.63492705602646 4.484930762659446 6.0092141317838195 2 1 0
55 1 3.6038363310292594 1.870601287604037 9.532839267311727 0 0 0
1142 1 8.24332983248425 7.779022751054114 9.08120111755887 0 1 0
3668 1 14.02681658452291 14.350143012854147 9.1122308448624 2 1 0
3642 1 12.985856133347948 1.503181713829817 7.124578916696914 0 1 -1
627 1 10.69648459233072 44.70742154944176 1.7020470545593032 -1 0 0
3034 1 5.26241535178256 6.594092327933982 6.498517514193671 -1 0 1
4262 1 4.014448997747635 6.699762163989856 8.792843897153805 1 -1 -1
2078 1 13.33713837487964 10.336848716673495 4.772917517379292 0 0 0
2493 1 3.2701327785861247 9.314468687306393 8.422503871553715 1 1 1
2979 1 2.5784023943556 18.56521617191472 10.019071190011044 1 -1 1
4360 1 9.891997432038378 8.66105396177985 11.256817960607124 2 1 2
3177 1 9.98097024149927 17.25465948913242 9.025576336629058 0 -1 0
3311 1 8.552386613831398 13.599269971865398 6.388916640386521 -1 0 0
19 1 11.16539329434848 12.877626578260358 4.336531925296015 0 0 0
1627 1 10.309153329259539 10.550138847421287 1.4497989263064608 0 0 1
4361 1 4.636110474180006 18.145634949764 7.846182377689 0 0 1
4330 1 9.675486105204492 20.06136266237473 9.942816654787404 0 0 0
4254 1 11.126815081995092 16.49779627167744 6.698458944564064 1 1 -1
2013 1 15.317452569913298 16.885939382234003 9.249933089762374 0 0 1
3224 1 13.1717814495869 38.25305268909119 24.39827063122602 0 -1 0
1669 1 0.4492762187822159 21.40628205023946 8.890807054747196 1 0 0
2303 1 5.077805193627812 20.62206750233317 6.794968331506319 0 0 0
492 1 8.216834230245567 23.420826316776584 6.198276505724808 1 0 1
2446 1 16.610467413442535 49.51700934344365 22.011297076002705 2 -1 -1
243 1 -0.11736564059059162 4.7878746233611365 5.998010064899609 2 1 0
389 1 3.3432826060751073 26.571360892028906 7.387518744510292 1 1 0
2629 1 3.525515620402437 22.63361414550348 7.8756495309546874 2 0 1
1853 1 13.244327727362242 24.20591246918641 6.525159333193985 0 -1 1
3710 1 6.782674461250424 42.53570633963996 0.23950803206566051 1 0 -1
1960 1 0.20798497060657017 39.213112000937585 14.237006134669619 0 -1 1
1552 1 -0.09339670953852419 37.45365725056081 18.04668461037662 0 0 0
910 1 5.138728359648697 24.84768084645507 7.730197240800648 -1 0 1
1869 1 5.194655624226883 29.20552232007836 6.766744675597951 0 1 0
4582 1 10.815139761349505 27.7166206242713 5.821593677260167 0 1 1
4310 1 14.60588314207979 25.332064738417316 11.138565274484076 1 0 1
3797 1 7.013442932897413 13.288498413107272 22.325899616858305 0 0 0
3836 1 5.8240561523447285 30.93194827809566 4.0759148400959635 1 1 0
2051 1 7.594468419920675 30.486499154406427 8.224948888157464 0 0 1
1390 1 4.5380930019170505 30.54459863130795 9.449750620868011 1 0 1
423 1 15.153968724564864 31.506990899229205 11.128500052706368 0 1 -1
1316 1 3.230947847584989 5.985976613137327 12.829869784687205 0 1 2
2153 1 0.7488104594056505 31.114862241063523 6.567017573744357 0 -1 1
2100 1 17.424824186053606 31.6121327732453 1.1332374482916965 1 0 1
2678 1 7.600524430625119 35.5324965857363 7.196216680515851 1 0 1
4213 1 9.932300248045268 33.16919232763448 7.477251248647369 2 1 3
4199 1 14.46352903986188 30.90458499205593 7.434106848165667 1 0 0
1394 1 6.212522070802944 32.38203114372693 10.631280412194847 0 0 1
3330 1 6.621870979044912 36.99884402755502 9.337102319014447 0 -1 1
3122 1 10.284451834009541 36.894903632498824 6.804522405699352 1 -1 1
1665 1 16.167416380658654 33.728087727779396 9.830195938003884 0 1 1
1000 1 2.201138658877374 21.452073604211552 1.0247423688875938 0 0 1
4274 1 3.210125512244454 41.74432058450868 10.831175153293486 2 1 0
3082 1 13.7149842376887 39.69341333193335 7.11079813861519 1 0 0
1279 1 9.685930214077775 39.17490431389453 5.219364749181521 -1 -1 1
1890 1 13.404911500588042 40.17609515336232 10.015482930241575 1 -1 0
2634 1 5.458012988106083 44.867574219763675 7.766605577247451 0 -1 0
166 1 11.037483252757799 3.17137958007915 23.185928196183347 1 2 0
3286 1 5.809454912390405 43.41982154323375 5.704522981973201 0 0 2
3986 1 6.5492055562165135 40.88054191261186 5.989173092689446 0 1 1
4148 1 9.064260171162255 41.24907411915891 6.631066164998395 1 0 0
554 1 14.438496126955755 42.89510710170369 6.4038996015039995 -1 0 -1
1271 1 6.799144262544285 49.354476306093886 10.071095473160614 1 -1 1
1328 1 4.061478850258886 46.973406978505146 3.8883850058381597 1 1 1
1238 1 14.007590326741752 43.829980976822995 9.11486037081738 -1 0 0
4322 1 6.193329734200146 49.293356046143415 1.1307270854699594 0 -1 2
4558 1 0.5578980820873779 8.660675508108707 10.515855949208786 0 1 0
3050 1 15.831219941903486 46.11105539283509 10.766765620592182 1 0 -1
618 1 4.473503430346453 48.44743181747796 9.475271348960321 0 -1 0
1565 1 2.266039662170573 2.282743748215663 13.570296330868338 2 0 0
873 1 9.531367751384888 48.511068953004184 10.58716706334047 -1 -2 1
3171 1 6.527743874974959 1.2377610126437473 8.790405831811796 1 1 0
1978 1 13.94314015497685 48.969852522686004 8.0984080451659 2 0 0
1896 1 16.198753621608592 49.74566842942046 11.684706387587314 1 -2 1
1762 1 8.44962985195824 34.55550708069309 22.953400064984464 0 0 0
160 1 16.43950632814948 6.121038989257994 1.5527885919653848 0 0 1
3998 1 15.757353397292558 38.550647203359276 22.93271205733429 0 -1 0
4200 1 6.356691083076824 4.236257473439235 15.746425241209543 0 0 0
4551 1 10.694997778042001 2.89571236073443 11.100036789729927 0 0 1
936 1 8.076313949181996 5.561731590563089 12.050528061666371 1 1 1
1330 1 10.885363189368885 6.115288533883257 11.509038625930671 0 0 0
1186 1 12.133327508261264 2.575378658691123 14.218669161561921 0 0 0
668 1 14.981219901749387 44.77968206094703 19.24903878827921 0 0 -1
1959 1 4.181048682089323 3.3526215819174188 11.968711447363814 2 0 -1
648 1 10.76237251355257 5.3806223258487895 5.532197978545414 -1 0 0
832 1 15.785178857860048 26.345948948281187 1.6031854785739577 -1 0 1
4603 1 12.215796774253306 7.104379612361404 7.829396860344825 0 1 2
1761 1 1.2834684025868417 31.970701859098586 19.584823785668558 0 0 0
4414 1 4.5262167522714485 8.42180259776208 12.536111846534126 2 1 2
4097 1 5.776253967715152 9.397038258413218 14.941773337891249 0 1 1
194 1 11.425471330039265 9.437146062422727 14.514588211966643 -1 0 0
2019 1 11.603113693225067 9.639574187944289 7.325317937986254 -1 1 1
2095 1 16.27197532550218 9.243500674911818 12.258958310363536 0 1 1
1395 1 7.156148050067217 32.46103058101119 21.286824509115533 -1 0 0
3379 1 7.054287173977899 11.345865162594007 13.231491748653998 1 1 -1
641 1 10.029672922553685 11.112643589048112 10.520232208815717 0 -1 2
2785 1 8.594152580315509 10.699805885765596 8.131483515987647 -1 2 0
2798 1 12.083600672024827 11.360614440124353 8.980482241651307 1 0 -1
3509 1 11.555264869429452 13.666801939031046 7.26282874447985 1 0 0
1727 1 13.38696095899287 10.02346923605816 12.247335771354843 0 0 0
3723 1 6.8172020355289975 40.090202311495084 25.333846531273334 0 0 -2
3811 1 0.3601020940579876 14.049884580798063 7.8976898403877875 0 0 1
520 1 2.2413261113795437 12.72904525254694 6.4337494482093485 0 0 0
3878 1 5.381929384043245 11.414666691821308 10.858645504425931 0 1 0
2706 1 8.386396968031885 13.887758978787831 11.867530592900735 0 0 1
3148 1 7.216167488142587 16.706387813972945 8.412088619589762 0 1 0
2936 1 12.858556613240156 14.257243941725203 11.911267024818029 0 1 0
1506 1 14.759912790942558 12.570344327425948 11.199574202648392 1 0 2
2257 1 15.611977283263819 15.638668981124386 6.176479695005343 0 1 -2
2125 1 1.7110200867639827 15.369554265478525 13.07824598001505 2 0 1
3792 1 1.3628023551876722 15.706052911259603 10.047152690376619 2 0 0
4255 1 6.452840216612945 19.49940367626426 10.478699113564847 0 1 1
4026 1 8.649105180840287 19.756151520294157 12.520134683818078 1 -1 1
2397 1 14.52505986506244 16.767822525545633 12.512792705869783 0 1 1
3671 1 16.476760761753326 45.92688834326357 24.535665589375228 1 -1 0
2532 1 2.1281424063277963 40.0280593320291 16.359573337275783 0 0 1
2982 1 10.790283747074291 44.881835579953716 24.75480542561545 0 0 0
2255 1 2.8260084543224986 18.01207546244682 12.72210871312283 1 1 -1
937 1 3.6865487368484695 21.152423086500864 10.166160911090381 1 1 1
2328 1 12.792885933707629 18.12755949408899 9.485038608210376 0 0 0
2576 1 12.990868709564703 19.128877084394393 11.751112107294412 0 1 0
299 1 3.742168234478625 24.999301700319382 11.881221384419648 0 0 -1
3962 1 0.4892716945207395 26.67101978384633 6.931828894020632 2 -1 0
2903 1 7.382422546041826 21.27740225521714 7.639290923643644 1 0 1
2258 1 10.96631539965007 22.64246539632325 9.947964352085402 1 0 0
1466 1 10.655842335151034 23.87821617453273 7.578185770453921 -1 1 2
4072 1 12.766965420559144 27.23376382398352 10.959322965276895 1 1 0
3658 1 15.613805212936823 21.571966558910066 9.207044467210721 0 0 0
730 1 6.5899544770485265 38.3419784661813 0.6207627070833808 0 0 -1
3124 1 1.7150833818769025 18.664829358559377 0.787823175434906 1 1 1
4408 1 6.07940325069068 25.198063752206245 10.219030797575613 2 0 1
867 1 10.844790963746314 26.730457560545617 8.423040439519136 1 0 0
719 1 16.792990169245865 27.73656723468488 8.43026510734076 0 0 0
2073 1 17.23361180795227 40.43233136078925 24.138645369141795 0 0 -1
3785 1 10.236347370864621 7.188189910117656 1.313485428801709 1 0 1
3880 1 2.5391041306531656 28.874934957305427 9.495768342793445 0 -1 0
3794 1 6.53222224396842 27.924909976884255 10.147546482868494 1 0 0
3980 1 9.248435390145898 22.20954494628571 12.96543824295528 1 1 0
1317 1 12.335272239369754 29.664612560798766 12.609367636800956 0 1 0
2764 1 15.45354304813343 28.99339551473439 12.335189277782119 1 0 0
1025 1 8.636284441554638 34.63912263703364 0.7204730515159881 0 0 0
1182 1 2.640689442960265 32.34689222788573 8.000465813238158 -1 -2 1
2284 1 4.375834144576632 34.15356519488788 6.932946475768302 1 0 0
681 1 10.521872654393404 30.571394049663123 10.683744548695703 0 -2 0
907 1 13.029116286121049 34.603755669276325 10.246655787191601 0 0 1
3948 1 8.818373136586828 32.87949145425375 10.168180595695418 1 1 1
1089 1 12.930159793115092 32.10172694116253 9.453214713445883 0 0 1
3640 1 15.878725314656037 4.635506538496302 9.125679746189912 0 0 -1
437 1 4.360014257491657 36.63297034611911 5.675929848421754 1 -1 0
3567 1 2.6024767782912597 37.074066361544986 8.21486958639365 1 0 -1
3492 1 12.550304078528415 37.744722780728765 11.165195517788696 1 1 0
1983 1 12.400961660478629 38.73515758099731 13.804011139055504 0 0 -1
1217 1 16.766546031368232 35.42653342905524 11.53486424853595 0 1 2
331 1 0.4543311336876046 4.155308167295875 20.301499500008706 0 1 -1
2056 1 2.2576706011698513 39.362736505923515 7.115568982616057 1 0 -1
1190 1 5.297515379958912 39.328719656121436 8.042534413745924 0 0 0
3571 1 8.830188676443843 40.285681224524374 9.179233442344122 1 0 0
3686 1 14.642873194487711 39.64589695020599 14.998267864730767 1 -1 1
4499 1 11.470313172901767 41.522398098530466 13.182872181345546 1 0 0
4189 1 16.480325912441582 38.070098372777814 10.731599570272152 1 -1 0
770 1 3.1395199030058016 42.149719799118486 14.179416608522574 0 1 0
192 1 4.296814693335972 46.11293359299892 10.767639517780458 0 0 0
4412 1 9.507159731766833 44.97580229515732 10.104515789529733 1 -1 1
1872 1 6.4247745665147455 43.85806524663367 10.118254823111332 0 0 2
4160 1 11.149899339233281 41.266250673839984 10.63473468349137 1 0 0
104 1 15.491574871845238 41.82867415899634 13.296828294265172 0 -1 -1
2540 1 15.499777235158547 41.28118794910453 10.560313468604878 1 -1 0
2960 1 17.501209851551256 41.72752008644264 1.6410537747825906 0 -1 1
598 1 12.417248152720239 49.978424934840376 12.76472822106817 -1 0 -1
558 1 6.437785052713958 49.47386782289702 12.80185095831117 0 -1 1
3796 1 13.190732876457623 43.62076233307491 13.711628892632438 0 0 1
706 1 9.341811542531586 46.92247105598687 8.229758100341295 0 0 0
1629 1 8.845847663830991 44.49626888869869 16.771094416756778 0 -1 0
1594 1 11.474312862762755 43.37560738753699 8.908781929973216 0 1 -1
3706 1 9.073582019640412 42.65324935306635 22.48555112631532 -1 0 0
2186 1 6.908236789453484 49.870530438460435 16.04638451572001 0 0 1
2658 1 14.228382439153345 48.19914338264007 10.98433775041881 0 0 0
3519 1 10.718893839607762 47.76122947381741 13.058429419610356 0 -2 -1
1374 1 13.717763150741352 2.6461172351839943 9.675504901179284 0 1 2
1482 1 6.583058488431944 1.8394849551992007 13.006660556091086 -1 1 -1
1581 1 7.401266783485918 4.642582679492628 18.409388687718163 0 0 0
2505 1 9.28136726341406 1.9154595090533448 14.117100694754665 0 1 0
2223 1 14.930082993194166 1.2764573342700367 17.532913146327562 1 -1 1
1312 1 16.123520617537437 2.3707137085902734 21.502102387354775 1 0 0
1878 1 2.938372410279169 8.263089308637534 20.740799274084864 0 1 0
1610 1 0.8423346466089399 6.991824287237249 14.226333250430482 -1 1 0
4139 1 8.136879283075018 7.965132224021084 16.541462664407668 1 0 0
1147 1 8.906768509996125 7.997128991793795 14.082366572771098 0 2 1
1728 1 14.723145846916875 5.118053742745983 18.33582700457761 1 1 1
1606 1 12.907834580616008 3.437861741256559 17.13174923190654 1 1 1
399 1 10.077831336808005 5.624634264094163 8.765106560872276 1 0 -1
3466 1 14.508679552742286 4.674213346470662 13.385929055072395 0 0 -1
1596 1 13.697989857697083 43.732300198448876 2.1537322118579714 1 0 1
143 1 1.4182499999665992 10.535428305192612 13.701323692006062 -1 0 0
294 1 2.987562745628997 9.852481355861691 11.43750600295892 0 0 -1
1821 1 4.029199929168337 11.0449497341109 19.632231141447548 0 0 0
1017 1 12.362675925986554 7.548250094567406 16.602270286737642 0 1 2
1558 1 12.99902266780586 7.715760183781352 10.616639736783926 0 0 0
2588 1 4.104609033237672 11.308476725673822 16.38767925473611 1 2 1
825 1 8.662948695164216 11.399079958045297 15.491927880877602 0 -1 1
2596 1 8.874342323958434 9.038140703451694 19.543533459864932 1 0 0
3026 1 11.248010711394263 12.292881243777918 12.61238229192735 0 -1 0
2352 1 10.48638925015298 39.13584453407867 1.1537801244541876 0 1 1
879 1 6.189719393638226 14.959626620971406 10.267605639796411 1 1 0
4318 1 10.756496857067683 15.151962065156136 15.803757802583615 1 -1 1
4128 1 14.350270003665981 12.87966151666957 14.433667732492562 1 1 1
123 1 15.693934521872777 13.625844191468685 20.56584408043295 0 0 0
1900 1 4.915801912787998 6.653938079579428 15.857326733174231 0 1 -2
1240 1 2.6698001752581604 20.42419664845206 13.87387518741437 0 1 2
1880 1 3.5879765381162625 13.331065907156722 14.536752472496802 0 1 0
1294 1 10.094754320963688 15.702270210529685 11.271463558146412 0 0 0
3388 1 8.593744879926724 17.964199938654104 16.729563371482154 1 0 0
4302 1 10.86280972762813 17.9254098607973 13.209289077398006 1 0 -1
3183 1 15.419397719713322 32.37299414751239 22.083164496743642 1 1 0
996 1 3.467955537247906 22.596896232852067 16.304547564278494 0 0 -1
14 1 14.182611537208638 39.496384812782665 1.0866120259634497 -1 0 -1
2563 1 5.7285705559165 17.569579839516297 12.300165089421736 0 -1 0
2378 1 5.530470744708411 20.00884537418232 15.17346723171673 0 0 1
3763 1 15.831395449089019 20.563861196342557 14.111195938473415 2 0 0
1244 1 15.112018187285269 22.607610948441277 16.884016336033966 0 1 -1