LAMMPS data file via write_data, version 29 Oct 2020, timestep = 0

9216 atoms
1 atom types

0.49279579493035186 103.99231025135421 xlo xhi
-0.2413164844184052 50.469079293391545 ylo yhi
-0.2413164844184052 50.469079293391545 zlo zhi

Masses

1 18.015

Atoms # atomic

5 1 1.786658623516085 2.2178468364609962 2.06285297341379 0 0 0
3 1 3.308659806768857 0.8594826302217412 3.6864257255023754 0 0 0
10 1 6.720986001852903 3.440494951454813 3.500571700453914 0 0 0
13 1 8.092876641986788 2.010354369542174 2.0047803505425454 0 0 0
169 1 0.6403990094620866 44.07556379318123 0.5424646346425719 0 0 0
21 1 14.599041510862634 1.6882803889925806 1.939528849974441 0 0 0
19 1 16.37876331179516 0.5909199299901289 3.3059956843831655 0 0 0
338 1 0.8115007492994769 40.6642448611566 10.065555584184455 0 0 0
457 1 0.7383586507507903 18.73268166789932 12.689531030926535 0 0 0
27 1 3.5422453534069005 6.679536495550489 3.6853870902377306 0 0 0
8 1 4.971132741598081 4.961364851628534 2.0370082863659054 0 0 0
16 1 11.241113984951012 5.281276728393133 2.150648161940545 0 0 0
18 1 12.857775977953878 3.262743019020549 3.327757627369524 0 0 0
92 1 16.386229867575906 22.312567529698626 0.4698527852835782 0 0 0
24 1 17.411512971989854 5.240055038266288 1.9647061207711167 0 0 0
43 1 15.903164196090431 6.837434448022932 3.5782907967475346 0 0 0
29 1 1.8621172207518586 8.119384953250318 2.2038177430315162 0 0 0
34 1 6.182023360332424 9.926484950580326 3.6738637556507516 0 0 0
37 1 8.351428226272713 8.683783605539551 2.233301284109017 0 0 0
180 1 9.71990074550422 47.3196314677313 0.6611394562267421 0 0 0
45 1 14.197194114865795 8.449635216740715 1.858887097008974 0 0 0
42 1 12.836075016335837 10.149142497946782 3.362231455057852 0 0 0
148 1 3.6708761898700923 40.992088650543224 0.6107723866684517 0 0 0
51 1 2.883438288349583 13.01136256872038 3.2643149139042924 0 0 0
32 1 4.522113709044623 11.44123068165277 2.025139236437461 0 0 0
59 1 9.830683437564248 12.534702703086875 3.57259748145588 0 0 0
40 1 11.427113922579036 11.879230336143264 1.5661959110915937 0 0 0
48 1 17.835795962675082 11.806551612230303 2.0518382434873423 0 0 0
67 1 16.469089447617932 13.214704487286339 3.5232202660156267 0 0 0
89 1 13.001438594356797 19.198288006039128 0.7451731817452858 0 0 0
53 1 1.6737520242406883 14.75765257229006 2.0487588691393515 0 0 0
58 1 6.90019312021889 15.898645467900677 3.629151133553275 0 0 0
61 1 8.478697857093406 14.253409091581945 2.1120134057816067 0 0 0
530 1 0.932997820273492 41.02317917666634 16.257400402000073 0 0 0
69 1 14.509701590998013 14.472156904228086 2.013324846823733 0 0 0
66 1 13.081321384154618 15.98911154275005 3.697258498839656 0 0 0
626 1 0.5182493533076148 16.055471166232216 22.191932728371814 0 0 0
75 1 3.5769667383328594 19.387028660890323 3.209241050982795 0 0 0
56 1 5.0842543110626774 17.554915535693258 2.0361402106351583 0 0 0
83 1 9.930752679640054 19.177975588205424 3.610405547942637 0 0 0
64 1 11.334295364553588 17.788882393280236 2.247952499439842 0 0 0
529 1 1.0100320431754841 37.82642006924187 13.404133507542504 0 0 0
91 1 16.498639708500285 19.300999718623938 3.5294395504947724 0 0 0
72 1 17.91563244694161 17.554580583720963 1.6055481152222624 0 0 0
722 1 1.1422373578880163 41.34957786768773 22.32244825388594 0 0 0
77 1 1.817336046068371 20.803629929867004 2.220567244428196 0 0 0
82 1 6.3430832732546625 22.457658864797274 3.599746397311615 0 0 0
80 1 5.0572645528837645 24.148473409713688 1.9295941435622808 0 0 0
85 1 8.130617343310355 20.701294322793505 2.249848969024529 0 0 0
88 1 11.417215430467623 24.013409908858748 1.8941387825205627 0 0 0
93 1 14.778850685945937 20.74354352834248 2.2104060832677934 0 0 0
90 1 13.000196314405725 22.310251571402016 3.6043237263700685 0 0 0
96 1 17.921343170606143 23.711031829130473 1.9629532557911455 0 0 0
314 1 0.6831467407669047 34.42531460046321 10.085525803168643 0 0 0
99 1 3.2536694309168808 25.45910373351853 3.614640338165417 0 0 0
101 1 2.2517478604031 27.108728251924234 1.829046891196582 0 0 0
107 1 9.66849236308547 25.702291713560783 3.325656063509686 0 0 0
109 1 8.273986496030485 27.34804529317315 2.0837663425803274 0 0 0
117 1 14.44914376545004 26.978477028035012 1.8832783452822885 0 0 0
2353 1 18.977483848401004 12.76026947989803 24.869697709167852 0 0 0
115 1 16.02814835459956 25.31398485460544 3.2628286877305017 0 0 0
28 1 3.0208814492940435 9.71470544842474 0.5024660176618034 0 0 0
106 1 6.624282691374518 28.84763455025074 3.470484822314974 0 0 0
104 1 5.825713864343542 30.414559763784787 1.576551759477945 0 0 0
132 1 9.886405698192371 34.8395467004995 0.451957331289897 0 0 0
114 1 13.010956295867835 28.858632838094774 3.020394634091959 0 0 0
120 1 18.04258925235084 29.909012179620202 2.056555162935014 0 0 0
409 1 0.5521083171168044 6.541055696565965 13.120303999687215 0 0 0
123 1 3.991969242717717 31.70465292473016 2.9072198703444196 0 0 0
125 1 1.923028071635257 33.24651631097252 2.072738869094271 0 0 0
649 1 0.5497408858559241 19.01080510817026 19.420769938260445 0 0 0
112 1 11.147131081250254 30.161768540527206 1.9132611008284914 0 0 0
131 1 9.647858758621734 31.63020863991992 3.6530412096878577 0 0 0
577 1 0.7552837891723991 0.6470614793700236 19.377378808799143 0 0 0
141 1 14.414119794234225 33.34967268151979 2.0581715645897107 0 0 0
139 1 16.131091000115266 31.660569977484716 3.3078035408332025 0 0 0
290 1 0.6794114653221994 28.37499651016004 9.869428773477217 0 0 0
128 1 5.507856887866952 35.92465873219227 2.1463589092400923 0 0 0
130 1 7.128398141656551 34.697529600925485 3.8313596666647336 0 0 0
133 1 8.35258663012895 33.194900408727264 1.7760793572880864 0 0 0
136 1 11.451342899296765 36.37537710786265 2.110676860199642 0 0 0
138 1 12.569896632337425 34.70436242470189 3.7005541422794135 0 0 0
721 1 0.6342823991062245 38.129769540584334 19.320646160120827 0 0 0
144 1 17.86100700371643 36.35734213152195 2.113175324870456 0 0 0
149 1 1.7246578940868076 39.51154280598614 2.348742099601079 0 0 0
147 1 3.8761894982193725 37.78878427063505 3.736335126600946 0 0 0
116 1 16.133410940071776 28.573966434238812 0.784050829704345 0 0 0
157 1 8.479271387880267 39.505154585342225 2.463092209481756 0 0 0
155 1 10.110340673883416 37.96190593241043 3.8081339971912045 0 0 0
165 1 14.804274001989077 39.84786595435744 1.791608331094487 0 0 0
163 1 16.08756668450778 38.34423211893455 3.1829297718068257 0 0 0
218 1 0.6212777696285195 10.212508575627359 9.958408219661816 0 0 0
36 1 9.904110097885457 10.054032723771597 0.5623958822570658 0 0 0
152 1 5.29988865720263 42.77018698942284 1.9721074096910334 0 0 0
154 1 6.702981457911813 41.20970107161575 3.8938608398102366 0 0 0
160 1 12.098809286289216 42.65777439338625 2.2192352494449965 0 0 0
162 1 13.441811714483077 41.15138591242924 3.87232169729498 0 0 0
168 1 17.98252137442026 42.473565540471945 1.7746933665426852 0 0 0
386 1 0.6372829659280385 3.5653817451589513 15.90801281042863 0 0 0
171 1 3.7799872037725732 44.15226207409142 3.767791252112161 0 0 0
173 1 2.279447456940464 45.638507141320844 1.5974133176423329 0 0 0
181 1 8.270388997862995 45.492408018371925 2.129243068966354 0 0 0
179 1 9.949708650018609 44.14469185282839 3.761072829089632 0 0 0
189 1 14.55973556433893 46.27766504353925 1.9039258735419382 0 0 0
186 1 12.983019680736984 47.65797795866463 3.3563490762657504 0 0 0
81 1 6.449003120181666 19.16888839614491 0.6156965863404483 0 0 0
187 1 16.303892173728556 44.455239349907266 3.0531953059539205 0 0 0
385 1 0.591276183335888 0.7773478558202662 13.410413297350358 0 0 0
20 1 15.86997516709233 3.6876359046444485 0.7284918599216539 0 0 0
178 1 6.737830106741873 47.64870053307715 3.6005482842294665 0 0 0
176 1 5.043558502431634 49.0015463458693 2.0078336919755393 0 0 0
11 1 9.714858835284671 50.439404480593595 3.735963731078291 0 -1 0
184 1 11.207322251687682 49.0127181075943 1.6551514614537062 0 0 0
192 1 17.75015350708855 49.068785019618055 1.8040680459513423 0 0 0
7 1 4.843402871732406 2.433518012084845 5.291165882758717 0 0 0
201 1 6.3950721069199465 1.004343104463297 6.801182631756757 0 0 0
204 1 9.805109036517614 3.44339240325256 6.811852437511598 0 0 0
15 1 11.359910588510633 2.000674830176716 5.1122561668336335 0 0 0
23 1 17.746152066598583 1.9127355757905948 5.133849821933903 0 0 0
212 1 16.125516631765297 3.695967751562855 6.1012151132095 0 0 0
196 1 3.038351162858979 3.5901970047982843 6.90941541810988 0 0 0
6 1 1.6456842439810404 5.137995647603824 5.246862846311424 0 0 0
766 1 14.820758914713991 48.777132940681376 23.751980506021415 0 0 0
225 1 6.681939259904866 6.767754868269028 6.905304196844172 0 0 0
35 1 9.381621091276923 6.860561836349822 3.514348520655437 0 0 0
14 1 8.209510742727673 5.093784852732609 5.283794567057294 0 0 0
22 1 14.12911458265842 5.044549071236065 4.586579111765044 0 0 0
233 1 12.67391356852593 6.628906323270797 6.43875695266726 0 0 0
758 1 8.47532997403389 49.29818206069543 23.73476278166071 0 0 0
220 1 3.6173980794701723 9.800399341659908 6.417524646363773 0 0 0
31 1 5.255278632062032 8.116324175922195 5.339722227137484 0 0 0
228 1 9.891147944232992 9.688967140158319 6.710224315485263 0 0 0
39 1 11.278338673923457 8.272936967312438 4.822891561418798 0 0 0
236 1 15.918704160244191 9.950161447423136 6.779846081958461 0 0 0
47 1 17.332198205964804 8.464473632405246 5.121576041818664 0 0 0
105 1 6.510163141143089 25.792798409044796 0.6144292958564835 0 0 0
30 1 1.9353528135977174 11.336393723310904 4.99069867543089 0 0 0
249 1 6.781966604520667 13.262199863900173 6.244101523850091 0 0 0
38 1 8.165260390760103 11.102111815688792 5.089678283879824 0 0 0
46 1 14.474371764022974 11.652025009566065 4.957514889065351 0 0 0
257 1 12.86138596024697 12.925314449599986 6.536337469238933 0 0 0
121 1 0.6606158769085887 31.709423372802988 0.48820487879999774 0 0 0
244 1 3.63327890007069 16.379079590739337 6.266005206473924 0 0 0
55 1 4.702167177787206 14.519125052408503 5.083982637924323 0 0 0
252 1 10.058650363748923 16.263349815158804 6.526849391853586 0 0 0
63 1 11.380271243488158 14.579183745804082 5.219461406762426 0 0 0
260 1 16.224955842509544 15.685938904932758 6.53594332267851 0 0 0
71 1 18.132411029167457 14.836950585327205 4.877808211065818 0 0 0
54 1 2.0479114044845286 17.936987239656236 4.770484613989235 0 0 0
273 1 7.02542772774975 19.44250274847357 6.430546054678309 0 0 0
62 1 8.421344219219389 17.63164645180023 5.006064688561098 0 0 0
70 1 14.736137087462758 17.751301584495522 5.006587807060422 0 0 0
281 1 13.258863912840061 19.377052801149482 6.533738573898411 0 0 0
268 1 3.5464577400384982 21.818239430279974 6.736793140809203 0 0 0
79 1 5.060699497695467 20.505407319096165 5.100202024179505 0 0 0
276 1 10.211656973723858 22.188176982630804 6.610267740897208 0 0 0
87 1 11.707175852475382 20.864648359359016 5.053025872244484 0 0 0
94 1 14.46807207735706 24.170810456913454 4.846504061609343 0 0 0
95 1 17.842524835973457 20.816968426116205 5.064694817995056 0 0 0
284 1 15.818130064800128 22.417309237457893 6.44298074050641 0 0 0
153 1 6.716589325197952 37.98033240488574 1.0277548028797365 0 0 0
78 1 2.091365399968516 23.652645540252667 5.260860905978277 0 0 0
297 1 6.581306025669638 25.33175632393195 6.239402079868051 0 0 0
103 1 5.0178420408567845 27.0408166070428 4.8540438042166585 0 0 0
86 1 8.539133956454362 23.808750334096718 4.685446594909446 0 0 0
111 1 11.305271018812908 27.13308444287949 4.860767816474027 0 0 0
305 1 12.760727619440404 25.47431359232539 6.243785229707673 0 0 0
292 1 3.5387909112322586 28.506735293826182 6.557664514813345 0 0 0
102 1 2.5097068384449064 30.051403710272307 4.742437000237456 0 0 0
110 1 8.118034824479231 29.885506563412832 5.019982853221423 0 0 0
300 1 9.864770277947985 28.57635912702381 6.555220873829421 0 0 0
118 1 14.615400277662081 29.899665773878912 4.831334451462585 0 0 0
119 1 17.49710657989179 26.81457481351951 4.970551368352642 0 0 0
308 1 15.893638642590489 28.282078624856098 6.649812384309733 0 0 0
97 1 0.5303365999297595 25.212429672389057 0.6447800083812822 0 0 0
321 1 6.924061090550451 31.801032019542767 6.66557654911967 0 0 0
127 1 5.418140169005434 32.95065896187009 4.8702349977038475 0 0 0
135 1 11.27010858912203 33.168077711950396 5.2021606982105535 0 0 0
329 1 13.026095225706014 31.64980859851294 6.466258309352239 0 0 0
143 1 17.369061978810194 33.322116019534974 5.200353035142388 0 0 0
316 1 3.3763642905427513 34.29466236852147 6.550849294888749 0 0 0
126 1 2.149380388481496 36.14078896360543 5.31119859106938 0 0 0
134 1 8.837152938194047 36.06941231875686 5.435127629087168 0 0 0
324 1 10.454185630676626 34.24552194471521 7.462021143241492 0 0 0
142 1 14.666492328870598 36.68216272919893 5.0314171031166 0 0 0
332 1 15.698155184762337 34.896593113877046 6.640445525287998 0 0 0
587 1 10.201427308741959 0.5656803916005337 22.29114738939195 0 0 0
151 1 5.184443725623671 39.374930146605784 5.407935935615432 0 0 0
345 1 6.738131848644413 37.607087427619746 6.824727226909075 0 0 0
159 1 11.529767245870925 39.70999726629425 5.18939533406973 0 0 0
353 1 12.895810590485269 38.240619588902796 6.646301708507101 0 0 0
167 1 17.734970226571846 39.86747952134056 5.172856953741211 0 0 0
150 1 1.9768133992877872 42.856885382981815 5.245743195833598 0 0 0
340 1 3.1276970329085945 41.26171594485796 6.798919718368927 0 0 0
158 1 8.183096171303848 43.08997026807499 5.31501368612257 0 0 0
348 1 9.862144601343294 40.82905805526419 6.892874961990231 0 0 0
166 1 14.986702299856034 43.089528905507976 5.12405868960465 0 0 0
356 1 16.276525417847722 41.202809585794284 6.9705588124495454 0 0 0
124 1 3.946370353093857 34.68029212103523 0.7964233306876884 0 0 0
369 1 6.540644746942689 44.83891869400721 6.6057564478923885 0 0 0
175 1 5.0333770453631095 46.333920692674404 5.050734353202703 0 0 0
372 1 9.476665358957403 47.81203902962977 6.409795358928606 0 0 0
183 1 11.356027456282238 45.93111119092379 5.33933209209224 0 0 0
377 1 13.24125993353176 44.241177053691345 6.83416868155768 0 0 0
191 1 17.84634883331253 45.6849852217088 5.080882009645335 0 0 0
364 1 3.6173146583486933 47.47090504583779 6.930957231846985 0 0 0
174 1 2.160386382620011 48.81611598063869 5.028672816891138 0 0 0
182 1 7.981547976828072 49.32276699437681 5.069146201249434 0 0 0
209 1 13.302913836954916 50.35879328642165 6.6627558473092945 0 -1 0
190 1 14.749132207764486 48.882286821290315 4.77996226929732 0 0 0
380 1 16.554304871876585 47.372737592383636 6.525000250335669 0 0 0
197 1 1.5065939401891326 1.8170761101907098 8.41008264356235 0 0 0
195 1 3.6707919611708926 0.6362692089399259 9.980849902696285 0 0 0
202 1 6.4918897787875025 3.963393815774846 10.121346043467799 0 0 0
205 1 8.124012150718526 2.3808078657018132 8.470490518639695 0 0 0
203 1 10.01420625133064 0.6365999171927849 9.938200099527629 0 0 0
213 1 14.892466227474692 1.9243168356411504 8.015200434885678 0 0 0
215 1 18.025660408564402 2.259753456469671 10.83745994331967 0 0 0
219 1 3.4591656838004745 6.9327894322327595 9.88694591160988 0 0 0
200 1 4.8224703586980135 5.320587471517087 8.33267073331697 0 0 0
208 1 11.516797038159064 5.120192499841406 8.286101906218557 0 0 0
206 1 8.53066815072448 5.302626809094155 11.469851188046745 0 0 0
210 1 13.254154645277392 3.516499188986885 9.768560580941347 0 0 0
235 1 15.865240165162486 6.791057566132977 9.398583672567726 0 0 0
216 1 17.74625009928392 4.920461368306619 7.901799911076196 0 0 0
221 1 1.8384911104574686 8.404424973756274 8.19710161481936 0 0 0
229 1 7.914112307950298 8.829984452255184 8.06392265770177 0 0 0
223 1 5.043310496350473 8.462541339870358 11.282584622767196 0 0 0
227 1 9.76649134254012 6.951000247351403 9.690414388858583 0 0 0
231 1 11.552104139699962 8.151996384765432 11.393990423507438 0 0 0
237 1 14.231607547726735 8.376483784841295 8.101301479573342 0 0 0
234 1 12.625518961854517 10.073181371623122 9.933249074707067 0 0 0
754 1 6.994247879382334 47.564759184501874 22.469722240191846 0 0 0
243 1 3.421136271310028 13.092341443214325 9.23326710632835 0 0 0
226 1 6.597216211015141 10.244329239333824 9.585012527102307 0 0 0
224 1 5.170537542888911 11.532723964142578 7.81083792121998 0 0 0
251 1 10.00909123200985 13.002034174314662 9.602797574540663 0 0 0
232 1 11.20005057808193 11.313390186330258 8.186435302261376 0 0 0
238 1 14.34841195112396 11.355064591506487 11.39827437802899 0 0 0
259 1 16.036606676362833 12.765860678765153 9.913233803958066 0 0 0
240 1 17.68656285347858 11.528048309488854 7.912993682236365 0 0 0
481 1 0.5789495359292577 25.31957698064128 12.671577031058623 0 0 0
245 1 1.799544871135395 14.932476116777636 7.919402384460915 0 0 0
250 1 7.004783835073505 16.241200921533107 9.44108001569632 0 0 0
253 1 8.47118307227549 14.655011434894774 7.799908789433909 0 0 0
255 1 11.283429585577432 14.492519049011293 11.463545901037884 0 0 0
261 1 14.645267034210685 14.094681489087357 8.173731391707422 0 0 0
258 1 12.755028571659839 15.959862301820474 9.826105148179227 0 0 0
267 1 4.014940681429641 19.182792859794603 9.98169023196813 0 0 0
246 1 2.2780793760012306 17.359964049971246 11.28135274848787 0 0 0
248 1 5.274626937661564 17.852430092513206 8.134681429157515 0 0 0
275 1 10.18369242314012 19.16532393692062 9.672411730260077 0 0 0
256 1 11.923952245760447 17.377748361539016 7.86343100857978 0 0 0
262 1 14.834582548136849 17.54007532054988 11.439347571368893 0 0 0
264 1 17.850025845050126 17.562698624002806 7.980379856080878 0 0 0
283 1 16.380122656390753 18.826335907415412 10.089557686008567 0 0 0
265 1 0.6986423461378884 19.097602019858453 6.771965817053762 0 0 0
269 1 2.332134229656468 20.65642073280864 8.511619328524057 0 0 0
274 1 6.577809251299973 22.10987471818629 9.662166469162695 0 0 0
277 1 8.280893801639763 21.01348750776147 8.201020011654963 0 0 0
285 1 14.730168160807022 20.783306351253426 8.233694190251686 0 0 0
282 1 13.059505562316884 22.428294920950144 9.844591315182273 0 0 0
279 1 11.464450997156963 20.79547440113673 11.25188679482767 0 0 0
291 1 3.9980637640255945 25.46049587386323 9.36322033140988 0 0 0
293 1 2.2529487825299093 26.765932196555276 8.16047144401417 0 0 0
272 1 5.245107465879099 23.422308332526185 7.81914485477705 0 0 0
295 1 5.2172506635785645 27.186777616614222 11.288436420113065 0 0 0
280 1 11.524596827058948 24.157200584434968 8.329196148919133 0 0 0
301 1 8.125064070400843 26.723670265737393 7.895282320839603 0 0 0
299 1 9.778798920337644 25.339503045068714 9.614757013120636 0 0 0
309 1 14.187980946365105 26.90472220504737 8.163454428372052 0 0 0
288 1 17.736705471136812 23.80811383626223 8.244478844260712 0 0 0
307 1 15.899040751860092 25.527921441671936 9.417061780393944 0 0 0
298 1 6.673119223721023 28.43404514893783 9.40832902035389 0 0 0
296 1 5.116639448909117 30.38681319621174 7.9598476483243505 0 0 0
304 1 11.509666693384302 30.345299749643413 8.08157416823941 0 0 0
302 1 8.485162113620422 30.045872493009657 11.088968641596097 0 0 0
306 1 12.957029148913945 28.619140722062223 9.69420091067112 0 0 0
312 1 17.04299963415239 30.134186860942656 8.483863257413558 0 0 0
674 1 0.6520394383831558 28.470009723909016 22.17831529828312 0 0 0
317 1 1.7961348196771616 32.87950431760648 8.04577676788519 0 0 0
315 1 3.4839035626965638 31.678338017526908 9.916722591990952 0 0 0
325 1 8.193697480451942 33.55116144233762 8.380629773250783 0 0 0
323 1 10.359170336091337 31.777484174249928 9.93701446988948 0 0 0
333 1 14.307347846708685 33.292325545125436 8.190984278835764 0 0 0
331 1 15.765454916327593 32.18866141399253 9.922420515433597 0 0 0
320 1 5.130254578223887 35.87754868948951 8.167266311403594 0 0 0
322 1 6.842300649661752 35.05027881855262 10.04962829416615 0 0 0
328 1 11.690197479047288 36.486095708222415 8.43066667687558 0 0 0
330 1 13.178213048859714 34.736848867518866 9.904522974905909 0 0 0
336 1 17.48603740876577 36.33112807280569 8.121629575267239 0 0 0
341 1 1.7539446649068429 39.2508481540682 8.308100737528232 0 0 0
339 1 3.780788624550063 37.89504185301378 9.55918343782944 0 0 0
349 1 8.365922140362848 39.32502199442924 8.430441360657655 0 0 0
347 1 10.157660540673067 38.04315262882467 9.80293304429032 0 0 0
357 1 14.639413490711009 39.57148447308648 8.171002676030444 0 0 0
355 1 15.912906710376015 38.128143297968585 9.88963518883817 0 0 0
342 1 2.1441662264024584 42.558780777448014 11.804694571226186 0 0 0
346 1 6.769861205280371 41.35025336804757 9.4791301586785 0 0 0
344 1 4.97250683347965 42.89126949899136 8.019504716055078 0 0 0
352 1 11.728808716153443 42.483167179358944 8.23266293425882 0 0 0
354 1 13.247506694375115 40.963626500266116 9.78770850653495 0 0 0
360 1 17.667552701849946 42.96269940662957 8.604187139759969 0 0 0
1754 1 19.087207114670985 9.839077413271536 9.453138160768388 0 0 0
363 1 3.5086394055960084 44.54755297277402 9.938677491569175 0 0 0
365 1 2.122861100106302 46.24415896513161 8.56939604184524 0 0 0
373 1 8.355051905079478 46.004951385739425 7.985377466890285 0 0 0
371 1 9.541597993378137 43.979560433085524 9.4320045283071 0 0 0
381 1 14.528750455597704 46.51428834721194 7.984902970148547 0 0 0
379 1 15.981314424387596 44.72501848227069 9.951159758975423 0 0 0
383 1 17.982312925823116 46.18704691404761 11.494600760058216 0 0 0
579 1 3.896293330661756 0.8428176332078163 22.182842961075654 0 0 0
370 1 6.786450105598588 47.187309988659194 9.947780661082923 0 0 0
368 1 5.22732597276455 49.13235448382561 8.586428645317387 0 0 0
376 1 11.013539195051411 49.29463007614386 7.896613320956421 0 0 0
374 1 8.508816720777737 48.6990037567087 11.448699774314447 0 0 0
378 1 12.704083708140717 47.73574485701085 9.648593064948129 0 0 0
211 1 16.527952467773787 50.38450840536058 9.381947729565002 0 -1 0
384 1 18.235301466229217 48.78469194429508 8.09602236273626 0 0 0
388 1 3.9843082229274427 3.6241407039346933 13.08793541841739 0 0 0
389 1 2.571883177712005 2.108601455151308 14.680683787888224 0 0 0
199 1 5.221429095039848 2.0817994477699395 11.422930775581015 0 0 0
393 1 6.735377078257873 0.5218327702419145 12.951488215727869 0 0 0
207 1 11.978176438643061 1.9901581796976797 11.268511527454951 0 0 0
396 1 10.300901014849137 4.055566938205437 12.672248408278374 0 0 0
397 1 8.35966448078139 2.051263901213293 14.108511131256218 0 0 0
401 1 13.182093588470797 0.5795210674656488 12.828024663520484 0 0 0
405 1 14.862167148014064 2.3466999108151434 14.325773157802265 0 0 0
404 1 16.323919957129746 3.8161621543216246 12.68658032261446 0 0 0
750 1 2.0295967778055175 49.39457266953941 23.410520201976187 0 0 0
198 1 2.1687706057442684 5.339009461067263 11.657468513330167 0 0 0
417 1 6.974271705125288 7.15657866325521 12.690111922059721 0 0 0
392 1 5.182109249288515 5.455136675155371 14.239186188026448 0 0 0
400 1 11.711948376963147 5.640428843319901 14.347248733774705 0 0 0
214 1 14.702150097209405 5.380622156188693 11.363220721693585 0 0 0
425 1 13.292183933103843 6.951635149504085 12.990888410837206 0 0 0
408 1 17.74399196103431 5.410303475732368 14.697317339414196 0 0 0
412 1 3.699068564609529 10.051300202584969 12.993259818017929 0 0 0
413 1 1.778953435865571 8.515999495386714 14.295877561284204 0 0 0
420 1 9.682593451593135 9.795537006005711 12.856276850490136 0 0 0
421 1 8.020700337789098 8.568304537671773 14.372202303338392 0 0 0
429 1 14.792002109668486 8.603211149272465 14.326066610258044 0 0 0
239 1 17.462176282943698 8.001032788734854 10.99949904468287 0 0 0
428 1 16.30310414894447 9.840985906084352 12.244651481361986 0 0 0
222 1 2.1530224827529096 11.76115089253406 11.40016057059234 0 0 0
441 1 6.7059830436191294 12.988713759131977 12.518832450948931 0 0 0
416 1 5.018998444154196 11.695949998725723 14.375233872718717 0 0 0
230 1 8.432676074638113 11.46234308999214 11.133836972891016 0 0 0
424 1 11.125964502980391 11.505068585836751 14.582767756795684 0 0 0
449 1 12.952180674045847 13.068583144769702 13.20016809162017 0 0 0
432 1 17.548088378874336 11.379996116043731 14.287308881514099 0 0 0
2137 1 19.159074901478323 6.95287843996896 19.349006934792136 0 0 0
436 1 4.034964035286302 15.916615630830721 12.651210270349774 0 0 0
437 1 2.1406518591081456 14.815908880439563 14.10987593876622 0 0 0
247 1 5.215592635619012 14.561045153413605 10.654781623428272 0 0 0
445 1 8.26474690483369 14.456556898959814 14.190570778445716 0 0 0
444 1 9.823991788494126 16.217504067621473 12.879911384309013 0 0 0
453 1 14.365973274115982 14.891133998610734 14.695436100263509 0 0 0
263 1 17.82886369299964 14.315035398041502 11.466369088331556 0 0 0
452 1 16.299529916109506 15.916261671968103 13.086759840991862 0 0 0
465 1 6.746404158513356 18.97380080432218 12.582709288251097 0 0 0
440 1 5.310855336830456 17.718285733652724 14.329445804315075 0 0 0
254 1 8.562446824408884 18.01937873274902 10.963508162328054 0 0 0
448 1 11.149024013069765 17.684006228054454 14.459725739506512 0 0 0
473 1 12.910674332291475 19.204944786639903 12.847611647996777 0 0 0
456 1 17.730852313612434 17.712944166851653 14.556718893158843 0 0 0
170 1 0.7454712456648667 47.451702535858715 3.375981155073296 0 0 0
460 1 3.5557529388134506 22.23746235095272 12.833681408039347 0 0 0
461 1 2.135730456517063 20.397921642924633 14.283710929653617 0 0 0
271 1 5.12829669800366 20.9051093668721 11.497199611116587 0 0 0
464 1 5.012001725110632 23.70878415904821 14.616699811071182 0 0 0
468 1 9.631859116522978 22.712373895386143 12.971919179654845 0 0 0
469 1 7.991996197073443 20.672249563121525 14.282954449239421 0 0 0
278 1 8.229021132307683 23.76282975244958 11.267500239424516 0 0 0
286 1 14.675016502429816 24.20594856143417 11.411543499645253 0 0 0
477 1 14.19065492985883 20.851696602252286 14.348128533599521 0 0 0
287 1 17.64684368867114 20.929656518990566 11.599461095807623 0 0 0
476 1 15.804757872207006 22.601940418514708 13.046163783238274 0 0 0
2257 1 18.87246267680415 37.834758674045666 18.69761732120389 0 0 0
270 1 2.322289816260966 23.955532639782575 10.964006033077032 0 0 0
485 1 1.9022723441056115 26.943752411824182 14.549930219003375 0 0 0
489 1 6.527550821603455 25.16340765001344 12.974057885482825 0 0 0
493 1 8.162517114155012 27.13906331353015 14.209917155651112 0 0 0
472 1 11.405968139233105 23.773070050982604 14.604111263658142 0 0 0
497 1 12.805172345259562 25.534427460431424 12.99235202633603 0 0 0
501 1 14.640759835962408 27.08978777654165 14.18392443578523 0 0 0
311 1 17.65822630117048 26.688060849808277 10.727936988636761 0 0 0
697 1 0.6781018136942711 31.57345398244837 19.236855159319603 0 0 0
484 1 3.651908589828704 28.336611026221494 13.064923956863346 0 0 0
294 1 2.1650817321481446 30.279355329402996 11.466761707686004 0 0 0
488 1 5.205928020141001 30.24425310416781 14.452528619834176 0 0 0
303 1 11.349283719452568 26.918149686680785 11.442434175101416 0 0 0
492 1 9.800740412370876 28.577712756323766 12.868411252374695 0 0 0
310 1 14.619880270810516 30.14320641566543 11.105733476706106 0 0 0
500 1 16.353693638846586 28.42895697803983 12.545113583108536 0 0 0
509 1 1.8065406652244644 33.22266781934729 14.30478286003624 0 0 0
319 1 5.369185071500358 32.92853912348569 11.267069156327294 0 0 0
513 1 6.893570160777655 31.77746913561642 12.796284093418626 0 0 0
327 1 11.595775283117668 33.17968895581968 11.48698135184065 0 0 0
517 1 8.483883744418199 33.46266856937829 14.463003891088501 0 0 0
521 1 13.384941290897627 31.645155911053507 12.941250944485626 0 0 0
525 1 15.022413666018284 33.52687634160849 14.40126371237867 0 0 0
504 1 17.537641534241732 29.959468236570945 14.384698014241332 0 0 0
335 1 17.503652487601364 33.29397380092313 11.227386235497095 0 0 0
318 1 2.465441396685937 36.05647621955591 11.42010974746147 0 0 0
508 1 3.967326952450969 34.47826473874122 13.033627082232028 0 0 0
512 1 5.452755254059035 36.39398186809496 14.35848955875518 0 0 0
326 1 8.893143948029644 36.374291157077344 11.34863059392863 0 0 0
516 1 10.270895752840566 34.774913828250206 13.147043515831207 0 0 0
520 1 11.560066825759451 36.38786323161854 14.500378582741082 0 0 0
334 1 14.50059353026826 36.57953918771869 11.341650436162617 0 0 0
524 1 16.228183131576362 35.25296703461188 12.904512690659308 0 0 0
528 1 18.034874021992145 36.919483898022314 14.86464736328062 0 0 0
33 1 6.550176101793947 6.740801098212315 0.7926705361915622 0 0 0
343 1 5.635678127936381 39.58550184060102 11.457487374494058 0 0 0
537 1 7.315540465616064 37.96899975616797 12.962606118643825 0 0 0
351 1 11.508292898949847 39.64732817275839 11.556384711247329 0 0 0
545 1 13.034774703050063 38.20796679371156 12.818937982416053 0 0 0
549 1 15.024278251151816 39.45167473939713 14.403996398259041 0 0 0
359 1 17.66446174395395 39.56612921153003 11.251137300095118 0 0 0
532 1 4.097465632987101 41.38091169341061 13.315955476528568 0 0 0
350 1 8.054757276321272 42.874540577216514 11.493404159970986 0 0 0
540 1 9.760447125663006 40.98177211303246 13.173439495090424 0 0 0
358 1 14.696072806238131 42.80675933547308 11.46888929569323 0 0 0
548 1 16.336471207158116 40.99010559093408 12.889100371500147 0 0 0
552 1 17.99920653608963 42.702125743296634 13.892722929974713 0 0 0
557 1 2.1709760001892686 46.06080048036143 14.829362046705734 0 0 0
367 1 5.094387076902013 45.814290596561584 11.845708777736295 0 0 0
561 1 6.501238153877036 44.273499273379095 13.366040841166395 0 0 0
565 1 8.618226285521112 45.82390571881913 14.822695798075753 0 0 0
375 1 11.416362414358751 45.75802303616923 11.152744246537177 0 0 0
569 1 12.859315637792742 44.436067446998194 12.77878095533247 0 0 0
573 1 14.443686325528402 45.710662044122344 14.411803842963781 0 0 0
556 1 3.7383120606792497 47.52075614142155 13.4065243819409 0 0 0
366 1 2.3783321621838 49.155394558674686 11.734977990870366 0 0 0
560 1 5.284729741312488 49.04516807748295 14.910428989572633 0 0 0
564 1 10.043254145618198 47.188025006929 12.96561442990221 0 0 0
568 1 11.40585799058023 48.89819795824801 14.469895346890937 0 0 0
382 1 14.541625016101637 49.046214430879054 11.003992636914758 0 0 0
572 1 16.030874733772226 47.584025943371 12.930723433986717 0 0 0
576 1 17.867670421608494 48.99706613156088 14.442796284822702 0 0 0
506 1 0.9258627553530568 34.68343202492135 16.405585600730767 0 0 0
391 1 5.652345317745012 2.179322658635261 17.609640330676413 0 0 0