

read_data data.ice_${TEMP}K_${PRES}atm_mW group ice
read_data data.ice_275K_${PRES}atm_mW group ice
read_data data.ice_275K_1atm_mW group ice
Reading data file ...
  orthogonal box = (0.49279579 0.43804071 0.43804071) to (56.777714 50.469079 50.469079)
  3 by 1 by 2 MPI processor grid
  reading atoms ...
  4608 atoms
  reading velocities ...
  4608 velocities
  read_data CPU = 0.018 seconds
read_data data.liq_${TEMP}K_${PRES}atm_mW add append shift ${X_HI} ${YZ_LO} ${YZ_LO} group water
read_data data.liq_275K_${PRES}atm_mW add append shift ${X_HI} ${YZ_LO} ${YZ_LO} group water
read_data data.liq_275K_1atm_mW add append shift ${X_HI} ${YZ_LO} ${YZ_LO} group water
read_data data.liq_275K_1atm_mW add append shift 50.4690792933915 ${YZ_LO} ${YZ_LO} group water
read_data data.liq_275K_1atm_mW add append shift 50.4690792933915 -0.438040706605669 ${YZ_LO} group water
read_data data.liq_275K_1atm_mW add append shift 50.4690792933915 -0.438040706605669 -0.438040706605669 group water
Reading data file ...
  orthogonal box = (0.49279579 -0.24131648 -0.24131648) to (103.99231 50.469079 50.469079)
  3 by 1 by 2 MPI processor grid
  reading atoms ...
  4608 atoms
  reading velocities ...
  4608 velocities
  read_data CPU = 0.011 seconds

write_data data.icewater_test
System init for write_data ...
WARNING: Communication cutoff is 0.0. No ghost atoms will be generated. Atoms may get lost. (../comm_brick.cpp:167)

# Define potential
#
pair_style sw
pair_coeff * * /data/emrosky-sim/Freezing_Simulations/Melting/mW_fancy/mW.sw mW
Reading sw potential file /data/emrosky-sim/Freezing_Simulations/Melting/mW_fancy/mW.sw with DATE: 2019-02-27

# Delete water and ice atoms that are overlapping
#
delete_atoms overlap 2.5 water ice
System init for delete_atoms ...
Neighbor list info ...
  update every 1 steps, delay 10 steps, check yes
  max neighbors/atom: 2000, page size: 100000
  master list distance cutoff = 6.3065
  ghost atom cutoff = 6.3065
  binsize = 3.15325, bins = 33 17 17
  2 neighbor lists, perpetual/occasional/extra = 1 1 0
  (1) command delete_atoms, occasional, copy from (2)
      attributes: full, newton on
      pair build: copy
      stencil: none
      bin: none
  (2) pair sw, perpetual
      attributes: full, newton on
      pair build: full/bin/atomonly
      stencil: full/bin/3d
      bin: standard
Deleted 688 atoms, new total = 8528

# set timestep
#
timestep 10.0

# Define output
#
compute 1 all msd
thermo 50
thermo_style custom step temp press vol etotal ke pe c_1[4]

# Neighbor lists
#
neigh_modify delay 0 every 1 check yes

# Set fixes
#
fix 1 all momentum 10 linear 1 1 1 rescale
fix 2 all nph iso ${PRES} ${PRES} ${PCOUPL}
fix 2 all nph iso 1 ${PRES} ${PCOUPL}
fix 2 all nph iso 1 1 ${PCOUPL}
fix 2 all nph iso 1 1 10000.0
fix 3 all temp/csvr ${TEMP} ${TEMP} ${TCOUPL} 837492
fix 3 all temp/csvr 275 ${TEMP} ${TCOUPL} 837492
fix 3 all temp/csvr 275 275 ${TCOUPL} 837492
fix 3 all temp/csvr 275 275 5000.0 837492


# Fix ice atoms in place
#
velocity ice set 0.0 0.0 0.0
fix 4 ice setforce 0.0 0.0 0.0

# Run 1.0 ns equilibration of water
#
dump 1 all atom 1000 eq.all.${NAME}.dump
dump 1 all atom 1000 eq.all.coexist_275K_1atm_mW.dump
run 100000
Neighbor list info ...
  update every 1 steps, delay 0 steps, check yes
  max neighbors/atom: 2000, page size: 100000
  master list distance cutoff = 6.3065
  ghost atom cutoff = 6.3065
  binsize = 3.15325, bins = 33 17 17
  1 neighbor lists, perpetual/occasional/extra = 1 0 0
  (1) pair sw, perpetual
      attributes: full, newton on
      pair build: full/bin/atomonly
      stencil: full/bin/3d
      bin: standard
Per MPI rank memory allocation (min/avg/max) = 4.597 | 4.604 | 4.612 Mbytes
Step Temp Press Volume TotEng KinEng PotEng c_1[4] 
       0    125.08924   -1442.9176    266153.58   -86308.863    3179.4392   -89488.303            0 
      50     153.4428   -659.40852    263705.63   -86002.266    3900.1121   -89902.378    1.0201101 
     100    164.89423    407.68349    260081.46   -85737.371    4191.1772   -89928.548     2.356906 
     150     172.8991    457.65967    259059.79   -85438.599      4394.64   -89833.239     3.599577 
     200    174.36622    200.59519    259639.99   -85171.496    4431.9302   -89603.426     4.888062 
     250    179.52843    74.065739    260843.56   -84927.744    4563.1402   -89490.885    6.2355169 
     300    182.16403   -306.08223    261699.61   -84669.512    4630.1301   -89299.642     7.830617 
     350    189.11347    184.37952    261608.19    -84388.17    4806.7665   -89194.936    9.4908856 
     400    191.10902    181.63921    261518.44   -84228.217    4857.4882   -89085.705    11.199496 
     450    193.72994   -21.830165    261569.26   -84037.125     4924.105    -88961.23     12.80915 
     500    198.02727    13.291324    261781.07   -83852.163    5033.3319   -88885.495    14.576873 
     550    202.97194   -70.408605    262218.13   -83692.046    5159.0123   -88851.059    16.512675 
     600    210.23763    73.202501    262660.93   -83516.592    5343.6872   -88860.279    18.627622 
     650    206.75468    69.820769    263008.88   -83371.791    5255.1596    -88626.95    20.626274 
     700    214.57436    20.355884     263209.9   -83177.077    5453.9154   -88630.992    22.748536 
     750    214.76423    178.72475       263154   -83046.527    5458.7414   -88505.268    24.847874 
     800    214.39949    48.269564    263222.55   -82900.987    5449.4707   -88350.458    27.046256 
     850    220.75696    202.99708    263308.25   -82795.801    5611.0608   -88406.861     29.20388 
     900    221.16932    90.882727    263405.25   -82671.024    5621.5419   -88292.566    31.417065 
     950    224.28322    39.310358     263466.9   -82553.964     5700.689   -88254.653    33.789958 
    1000    228.71709    45.555093    263692.99   -82394.922    5813.3863   -88208.308    36.004946 
    1050    227.68497   -17.828239    264109.57   -82294.624    5787.1524   -88081.777    38.329933 
    1100    233.53921   -5.7433979    264406.84   -82156.931    5935.9519   -88092.883    40.955922 
    1150    233.64853   -230.73918    264511.56   -82014.472    5938.7305   -87953.202    43.508042 
    1200    237.03061    -50.46676    264336.07   -81949.421    6024.6941   -87974.115     46.27529 
    1250    238.79796    12.530852    264240.26   -81859.814    6069.6153   -87929.429    48.974887 
    1300    237.78106    138.88128    264211.44   -81808.711    6043.7685   -87852.479     51.65696 
    1350    239.82432    234.98756    264680.46   -81668.836    6095.7029   -87764.539    54.288609 
    1400    240.42242   -161.69703    265430.92   -81579.955    6110.9049    -87690.86    57.229435 
    1450    242.05136   -99.653389    265734.26   -81472.658    6152.3083   -87624.966     60.12027 
    1500    243.98824    13.936212    265704.15   -81440.818    6201.5387   -87642.357    62.500722 
    1550    248.50632    49.868564    265418.08   -81345.928    6316.3763   -87662.305    65.402963 
    1600    251.11777    112.22138    265147.62    -81280.88    6382.7527   -87663.633    68.281136 
    1650    247.50699   -252.88962    265456.54   -81230.687     6290.976   -87521.663      71.1914 
    1700    249.55574    107.73576    265780.99   -81172.543      6343.05   -87515.593    74.476144 
    1750    250.78498   -148.49423    266095.59   -81078.243     6374.294   -87452.537    77.316146 
    1800    251.79992    106.40303    266131.23   -81054.561    6400.0911   -87454.652    80.101619 
    1850    254.00259   -88.647671    266108.18   -80970.838     6456.077   -87426.915    83.285854 
    1900    253.81582    16.798901    266055.88   -80921.025    6451.3299   -87372.355    86.284497 
    1950    255.73178   -4.6994682    266212.07   -80862.154    6500.0287   -87362.183    89.607789 
    2000    257.30187   -75.196764    266291.65   -80769.452    6539.9362   -87309.388    92.852685 
    2050    261.14974   -22.150079    266269.37   -80737.939     6637.739   -87375.678    95.734992 
    2100    260.91112    40.603559    266274.73   -80704.654    6631.6738   -87336.328    99.045298 
    2150    262.24986    169.51191    266375.02   -80610.941    6665.7011   -87276.642    101.84669 
    2200    262.31226   -5.2778555    266622.26   -80560.778    6667.2871   -87228.065    105.16353 
    2250    261.65332    49.964767    266661.49   -80544.797    6650.5386   -87195.336    108.19426 
    2300    260.43778   -205.16708    266725.41   -80527.004    6619.6427   -87146.647    111.34308 
    2350     260.0957   -88.948136    266620.68   -80464.162     6610.948    -87075.11    114.64186 
    2400    266.14932    61.522755    266501.41   -80482.514     6764.815   -87247.329    117.54968 
    2450    263.00952   -84.531639    266603.71   -80503.248    6685.0097   -87188.257     121.1329 
    2500    259.30556   -37.429068    266730.45   -80509.824    6590.8646   -87100.689    124.73985 
    2550    264.30726   -108.38882    267044.71     -80428.5    6717.9948   -87146.495    128.02307 
    2600    263.09423   -75.407565    267064.91   -80436.996    6687.1628   -87124.159    130.69137 
    2650    267.44155   -99.418041    266808.85   -80446.265    6797.6602   -87243.925    133.59979 
    2700    264.54692     284.4352    266663.51   -80403.958    6724.0861   -87128.044     137.0511 
    2750    267.28339   -118.69234    266804.26   -80368.108      6793.64   -87161.748    140.35641 
    2800     264.1133   -45.736345     266861.2   -80397.498    6713.0646   -87110.563    143.08463 
    2850    264.60021    86.787211    266938.71   -80363.567    6725.4407   -87089.008    145.86918 
    2900    266.54023    37.264029    266937.56   -80326.492    6774.7508   -87101.243    148.93928 
    2950     268.0943    177.67469    266800.67    -80323.14    6814.2513   -87137.392    152.34005 
    3000    265.18847     13.33639     266982.2   -80320.574    6740.3928   -87060.967    154.82492 
    3050     270.8029    -48.23542       267114    -80295.28    6883.0967   -87178.377    157.92683 
    3100    266.73751     83.10395    267127.89   -80230.836    6779.7652   -87010.601     161.1702 
    3150    272.27148   -143.01497    267236.76   -80192.353    6920.4242   -87112.777    164.42017 
    3200     270.7481   -77.207421    267344.57   -80158.242    6881.7039   -87039.946    167.06622 
    3250    270.42274  -0.16994868    267478.47   -80130.566    6873.4341       -87004    169.75069 
    3300    269.33955   -289.26894    267670.19   -80146.151    6845.9024   -86992.054    173.34956 
    3350    270.31078   -163.86772     267458.8   -80169.045    6870.5884   -87039.633      176.905 
    3400    274.04231     47.57021    266791.66   -80181.781    6965.4339   -87147.215    180.36465 
    3450    268.76941    34.868957     266351.2   -80234.252    6831.4107   -87065.663    183.35168 
    3500    268.46167    359.17989    266535.24   -80240.467     6823.589   -87064.056    186.34319 
    3550    267.03096   -43.194993    267341.89   -80220.866     6787.224    -87008.09    189.24155 
    3600    269.10058   -134.69543    267691.97   -80198.676    6839.8283   -87038.504    192.78108 
    3650    268.91908   -119.68728    267287.51   -80178.223    6835.2151   -87013.438    195.49128 
    3700    270.80537    246.05853    266693.22   -80137.567    6883.1596   -87020.726    198.20234 
    3750    271.31699    430.89005    266675.98   -80048.563    6896.1636   -86944.727    201.36858 
    3800    268.87923    200.71638    267472.98   -80046.874    6834.2021   -86881.076    205.22949 
    3850    270.65294   -248.99989    268212.84   -80003.653    6879.2852   -86882.938    209.15619 
    3900    275.77167   -2.7238687    268079.13   -79966.633    7009.3899   -86976.023     212.2825 
    3950    272.48751    -91.73295    267601.21   -79964.366    6925.9151   -86890.281    215.30291 
    4000       274.58     252.4203    266947.17   -80022.863    6979.1008   -87001.964    218.71831 
    4050    270.77233    236.29448    266757.07   -80024.378    6882.3197   -86906.698    222.33064 
    4100    271.01897    189.74031    266958.98   -80018.572    6888.5887   -86907.161    226.16694 
    4150    268.03225   -5.0643162     267494.2     -80057.7     6812.674   -86870.374    230.08382 
    4200    273.09617   -14.211686    267860.22   -80025.439    6941.3856   -86966.825    233.54907 
    4250    271.52386   -126.81353    267763.54   -80002.316    6901.4217   -86903.737    235.31028 
    4300    273.10514   -92.354144     267221.8   -79990.903    6941.6136   -86932.516     238.5795 
    4350    277.81921    147.27446    266967.94   -79990.783    7061.4329   -87052.216    242.12243 
    4400    273.33424    -50.04045    267293.31   -80015.604    6947.4367   -86963.041    246.02349 
    4450      277.022   -146.12879    267529.92    -80002.97    7041.1699    -87044.14     248.7927 
    4500    276.34987   -23.960334    267587.03   -79986.231    7024.0862   -87010.317    250.90711 
    4550    275.88278   -51.310348    267412.96   -79976.567     7012.214   -86988.781    253.42245 
    4600    273.29202    49.676066    267350.62   -79946.779    6946.3637   -86893.143    256.60132 
    4650    274.83397   -34.786194    267413.19   -79958.866    6985.5559   -86944.422    259.70618 
    4700    275.00078   -64.464107    267532.13    -79951.04    6989.7958   -86940.836    262.73609 
    4750    276.82283   -246.54003    267636.36   -79980.491    7036.1076   -87016.599     265.9517 
    4800    273.54093   -1.6876378    267374.05   -79948.841    6952.6902   -86901.532    269.92604 
    4850    274.52541    103.80539    267040.82   -79908.902    6977.7133   -86886.615    273.30561 
    4900    276.26119   -21.793185     266980.7   -79918.046    7021.8322   -86939.878     277.2542 
    4950    275.35544    159.27107    267205.69   -79924.358    6998.8104   -86923.169    281.60137 
    5000    276.56732   -121.86653    267557.71   -79915.844    7029.6132   -86945.457    285.57035 
    5050    274.73302    14.022724    267570.57   -79923.491    6982.9901   -86906.481    287.94934 
    5100    271.64802    108.35609    267675.61   -79904.895    6904.5775   -86809.473    291.38161 
    5150    270.56811    16.164414    267611.94   -79929.233     6877.129   -86806.362    294.29921 
    5200    276.37453    15.127986    267362.37   -79886.418    7024.7129   -86911.131    297.26756 
    5250    279.03396   -107.37077    267347.71   -79866.028    7092.3087   -86958.336    300.24194 
    5300    278.93462    -175.2529    267635.14    -79826.09    7089.7838   -86915.873    303.07853 
    5350    271.08805     130.4106    267969.99   -79811.784    6890.3445   -86702.129    306.45066 
    5400    278.48726    43.448639    267969.12   -79821.524    7078.4129   -86899.937    309.09369 
    5450    279.24723    35.871101    267773.96   -79809.653    7097.7295   -86907.382    312.42288 
    5500    277.74307    93.049612    267547.19   -79810.818    7059.4976   -86870.316    315.19092 
    5550    278.70757   -192.29197    267591.51   -79851.451    7084.0128   -86935.464    317.76206 
    5600    278.02521   -163.92521    267357.23   -79815.778    7066.6689   -86882.447    320.17439 
    5650    277.52188     166.0864    267391.52   -79809.368    7053.8756   -86863.244     323.6875 
    5700    276.31993    34.385677     267825.9    -79758.44    7023.3251   -86781.765    327.02702 
    5750     276.6394   -108.59795    268167.74   -79781.778    7031.4451   -86813.223    329.38122 
    5800    277.66178     87.46213    268111.34   -79799.262    7057.4316   -86856.694     333.0971 
    5850    276.93059   -53.971559    267788.53    -79787.83    7038.8465   -86826.676    336.28336 
    5900    279.18311    197.59566    267453.06   -79752.112    7096.0997   -86848.212    339.46588 
    5950    277.53017    154.14443    267556.75   -79735.644    7054.0864   -86789.731    342.78374 
    6000    273.36455   -16.235665    267834.91   -79772.694    6948.2071   -86720.901    345.26912 
    6050    272.29124   -280.56929    268207.51   -79809.366    6920.9265   -86730.292    348.00556 
    6100    280.24183   -118.77397    268059.03   -79814.927    7123.0095   -86937.937    350.80286 
    6150    279.48445    -41.56622    267465.76   -79785.975     7103.759   -86889.734    352.57667 
    6200    278.96717    88.341859    267070.99   -79779.662     7090.611   -86870.273    354.30917 
    6250    273.40683    306.60104    267138.63    -79739.67    6949.2819   -86688.952    357.18041 
    6300    280.83921   -194.55587     267526.1   -79751.288    7138.1933   -86889.481    361.10944 
    6350    278.52924    9.7170061    267894.99   -79785.199    7079.4799   -86864.679    363.92744 
    6400    278.90737   -239.64987    268074.13   -79723.471    7089.0911   -86812.563    367.58471 
    6450    279.77179    119.53634    267840.88   -79721.983    7111.0623   -86833.046    370.22003 
    6500     282.4634   -165.67859    267601.99   -79722.642     7179.476   -86902.118    373.60321 
    6550    280.27535    -50.31405    267412.65   -79729.727    7123.8615   -86853.589    376.79185 
    6600    275.53292      146.999    267369.29   -79811.473    7003.3214   -86814.794    379.19878 
    6650    276.34907    135.37851    267470.98   -79839.312    7024.0659   -86863.378    380.83789 
    6700    275.65887   -140.78985    267556.92   -79857.821    7006.5227   -86864.343    384.26236 
    6750    275.45186    10.883763    267577.34   -79887.755     7001.261   -86889.016     387.7283 
    6800    273.78573  -0.87494335    267554.08     -79892.9    6958.9125   -86851.812    391.50294 
    6850    272.57167    13.147126    267374.29   -79903.204    6928.0544   -86831.258      394.569 
    6900    270.58132    167.20765    267222.92   -79920.656    6877.4648    -86798.12    397.04225 
    6950    275.72979   -88.229544    267337.06   -79903.242    7008.3254   -86911.568    400.25989 
    7000    279.55173   -31.267591    267197.75   -79886.509     7105.469   -86991.978    403.34071 
    7050    274.95027   -5.5506144    267071.16   -79872.161    6988.5119   -86860.673    407.05542 
    7100    277.09377    243.77872    267248.23   -79832.352    7042.9941   -86875.346    410.90989 
    7150    279.79124   -191.75807    267659.03   -79846.197    7111.5568   -86957.754    414.55803 
    7200    275.79777   -234.11724    267601.76   -79819.788    7010.0533   -86829.841    417.77069 
    7250    279.10813    18.264284     267133.3   -79780.956     7094.194    -86875.15     419.5582 
    7300    278.80273    98.220222    267256.53   -79777.992    7086.4313   -86864.423    422.66125 
    7350    280.89951   -103.95834    267763.59   -79800.882    7139.7261   -86940.608    426.17361 
    7400    278.77263   -275.31615    268223.59   -79805.271    7085.6663   -86890.938     429.1871 
    7450     277.8308   -64.713303    268053.98   -79783.591    7061.7274   -86845.318    430.98699 
    7500    277.79842   -82.967533     267470.2   -79814.124    7060.9046   -86875.028    432.12712 
    7550    279.16279    109.84019    266748.15   -79861.533    7095.5831   -86957.116    433.99671 
    7600    279.80034    18.656182    266476.17   -79872.153    7111.7881   -86983.941    435.85996 
    7650    281.30585    362.93226    266728.38   -79856.671     7150.054   -87006.725    439.53457 
    7700    279.97654   -137.02838    267469.94     -79858.3    7116.2666   -86974.567    444.35949 
    7750    274.36624   -250.17861    267881.91   -79877.274    6973.6674   -86850.941    448.65301 
    7800    280.41494   -168.21777    267707.99   -79917.735    7127.4094   -87045.145    451.89089 
    7850    275.98736    10.853738    267450.42   -79902.423     7014.872   -86917.295    455.61067 
    7900     278.4858    40.602566    267274.59    -79867.91     7078.376   -86946.286    458.28636 
    7950    274.89856    170.03941    267153.94   -79884.674    6987.1977   -86871.872    460.65267 
    8000      277.402   -25.379934    267198.57   -79882.425    7050.8285   -86933.253    464.08236 
    8050    278.77839   -75.518413    267239.54   -79896.772    7085.8129   -86982.585    467.08173 
    8100    274.13792   -48.565067    267135.17   -79936.586    6967.8641    -86904.45    470.10009 
    8150    277.31245   -212.43813    266962.16    -79980.71    7048.5523   -87029.262    473.02369 
    8200    280.33175    289.77051    266544.66   -79952.483    7125.2951   -87077.778    475.12181 
    8250     281.5433    108.51272       266704   -79959.969    7156.0895   -87116.059    477.46987 
    8300    277.55169    38.085716     267370.6   -79944.369    7054.6332   -86999.003    480.57617 
    8350     274.1708   -184.62433    268112.12   -80008.296    6968.6999   -86976.996    483.94495 
    8400    267.89593   -280.72319    268213.41   -80012.892    6809.2092   -86822.102     486.6682 
    8450    269.52487   -20.750494     267714.9     -79999.1    6850.6127   -86849.713    488.52339 
    8500    277.56198    140.61413    267257.71   -79952.874    7054.8947   -87007.768    490.89547 
    8550    275.72112    113.75721    267084.11   -79909.115    7008.1049    -86917.22    492.68876 
    8600    274.70429    57.280261    267158.17   -79910.642    6982.2598   -86892.901    494.33358 
    8650    277.46054   -56.130511    267384.71   -79868.105    7052.3165   -86920.422    497.63638 
    8700    276.16213     20.28694    267406.96   -79839.831    7019.3143   -86859.145    501.29003 
    8750    283.16055    162.72455    267370.24   -79826.363    7197.1956   -87023.559    503.49786 
    8800    281.33797   -66.688825       267584   -79814.102    7150.8706   -86964.972    506.36091 
    8850    282.30848   -341.46168    267686.41   -79793.775    7175.5383   -86969.313    509.63803 
    8900    275.35495    149.57321    267444.01   -79799.419    6998.7979   -86798.217    512.12559 
    8950    275.43279   -19.148554    267418.41   -79773.494    7000.7764    -86774.27    514.05706 
    9000    278.95163   -19.791766     267454.3   -79789.792    7090.2161   -86880.008    517.24846 
    9050    279.33742    61.703221    267411.73   -79766.811    7100.0219   -86866.832    521.36827 
    9100    280.42434    52.550278     267506.9   -79787.323    7127.6483   -86914.971     524.4454 
    9150    279.24907   -113.56308    267530.16   -79806.999    7097.7761   -86904.775    527.96463 
    9200    276.69856    13.023571    267382.98   -79766.953     7032.949   -86799.902    530.20053 
    9250    281.02168    145.53503    267412.02   -79758.637    7142.8314   -86901.469    532.97363 
    9300    275.34915   -186.96066     267696.7   -79811.686    6998.6505   -86810.336    536.29875 
    9350      276.909    68.756569    267684.13   -79816.052    7038.2978    -86854.35    538.31298 
    9400    277.83859   -150.17937    267515.34   -79855.958    7061.9254   -86917.883    541.34282 
    9450    280.71386    83.800496    267321.31    -79861.38    7135.0072   -86996.388    543.62517 
    9500    281.21338   -85.846033    267238.57    -79857.48    7147.7039   -87005.184     547.4114 
    9550    281.77164    68.399245    267055.47   -79868.998    7161.8933   -87030.891      549.977 
    9600     278.2482   -82.841324    267150.01   -79866.986    7072.3366   -86939.322    553.22866 
    9650    277.29835    70.055338    267392.52   -79837.716    7048.1939    -86885.91    556.92672 
    9700    279.05592   -192.27232    267689.48   -79839.054    7092.8669   -86931.921    559.76526 
    9750    278.96909   -73.579799    267471.02   -79916.174    7090.6598   -87006.834    562.10554 
    9800    278.87997    178.70206    266902.48   -79894.665    7088.3946    -86983.06    564.20792 
    9850    280.57927    355.03298    266512.45   -79900.311    7131.5864   -87031.898     565.5939 
    9900    278.15404    238.30015    266774.83    -79857.24    7069.9434   -86927.183    568.68594 
    9950    276.09032    25.019726    267522.67   -79866.365    7017.4892   -86883.854    571.83935 
   10000    272.76387   -188.63449    268200.46   -79875.223    6932.9394   -86808.163    576.41648 
   10050    279.76248   -153.75171    268050.09   -79869.494    7110.8256    -86980.32    578.37953 
   10100    280.86261    7.9661993    267454.16   -79863.437     7138.788   -87002.225    580.54188 
   10150    273.96019    252.98682    267130.71   -79857.933    6963.3468    -86821.28    583.94001 
   10200    275.62881    99.262879    267375.15   -79889.013    7005.7586   -86894.771    588.31803 
   10250     276.1704   -153.82398    267820.64   -79840.819    7019.5244   -86860.343    592.85257 
   10300    281.01173   -156.04043    267787.31   -79806.042    7142.5783    -86948.62    595.05455 
   10350    276.20306    99.460891    267499.82   -79830.288    7020.3546   -86850.642    597.56838 
   10400    277.72528   -60.217482    267439.33   -79853.777    7059.0454   -86912.823    600.20117 
   10450    279.01481   -91.942175    267336.19   -79836.029    7091.8219   -86927.851    603.46862 
   10500    279.69222   -80.243434       267416   -79813.985    7109.0398   -86923.025    606.02277 
   10550    277.59384   -14.927026    267604.14   -79792.149    7055.7047   -86847.854    609.41105 
   10600    280.20341   -186.11705     267725.3   -79790.717    7122.0331    -86912.75    612.57769 
   10650     278.3143    62.534634    267579.15   -79822.645    7074.0168   -86896.662    613.74917 
   10700    278.72921    25.186123    267443.07   -79871.995    7084.5628   -86956.558    615.49108 
   10750    274.96148   -113.39831    267372.78   -79862.841    6988.7968   -86851.638    618.93224 
   10800    276.89447      147.981    267119.27   -79870.333    7037.9284   -86908.261    621.35674 
   10850    278.90566    56.042618    267235.93   -79876.826    7089.0475   -86965.873    624.50009 
   10900    277.30265   -271.21603       267612   -79870.864    7048.3033   -86919.168    627.72895 
   10950    276.04242   -293.63742    267582.24   -79905.662    7016.2717   -86921.934    630.95775 
   11000    280.13415    117.47163    267060.02    -79934.32    7120.2725   -87054.593    632.71177 
   11050    278.20821    46.321714    266854.21   -79927.597    7071.3203   -86998.918    634.95795 
   11100     277.8439    -69.63108    266991.32   -79963.953    7062.0605   -87026.014    638.11168 
   11150    278.67851    45.619477    266864.33   -79960.139    7083.2739   -87043.413     640.7277 
   11200    273.21746    234.35555    266958.31   -79977.683    6944.4685   -86922.152      643.311 
   11250    280.42643   -204.94263    267332.75   -79971.436    7127.7016   -87099.137    647.49691 
   11300    271.95455   -66.608502    267646.73   -79992.096    6912.3688   -86904.465    651.60283 
   11350    275.19025   -174.23176    267620.49   -80005.253    6994.6116   -86999.865    655.52443 
   11400    275.80753     85.78914    267309.24   -80022.735    7010.3014   -87033.036    657.20139 
   11450    277.35898   -73.622697    267033.97   -79978.354    7049.7351   -87028.089     659.0606 
   11500    277.49733     130.9845    266794.33   -79909.915    7053.2517   -86963.167    661.84008 
   11550    278.60122    55.225621    266861.71   -79899.545    7081.3096   -86980.854    664.31177 
   11600    275.86533    22.715118    267203.56   -79937.151    7011.7703   -86948.921    668.14197 
   11650    275.23726   -26.148481    267578.04   -80018.426    6995.8065   -87014.233    672.52051 
   11700    274.90147   -25.526499    267692.09   -79988.423    6987.2717   -86975.695    676.33749 
   11750    272.71993   -210.24533    267410.17   -80027.784    6931.8226   -86959.607    677.49172 
   11800    269.97824    244.60165    266800.42   -80060.477     6862.136   -86922.614    678.94387 
   11850    271.73719    205.43217    266529.62   -80077.647    6906.8439   -86984.491    680.41607 
   11900    272.93145    237.80465    266866.02   -80063.803    6937.1989   -87001.002    683.18461 
   11950    273.34431   -144.46073    267521.12   -80042.095    6947.6928   -86989.788    688.41189 
   12000    273.88517   -329.59609     267651.2   -80061.225    6961.4399   -87022.665    691.77412 
   12050    274.14997   -35.693392    267028.98    -80087.29    6968.1705   -87055.461    693.28215 
   12100    270.72789    497.79988    266354.66   -80054.733    6881.1903   -86935.924    694.89812 
   12150    275.84641    63.286938    266807.31   -80019.405    7011.2895   -87030.694    699.07075 
   12200      273.101   -120.29773    267734.96   -79981.357    6941.5084   -86922.866    703.49382 
   12250    277.30814   -252.38315    267952.73   -80010.576     7048.443   -87059.019    707.18792 
   12300    279.29966    -110.1744    267450.76   -79925.841    7099.0619   -87024.903    710.67818 
   12350    275.50353    167.74659    266866.35   -79965.625    7002.5744     -86968.2      713.184 
   12400    278.49111    77.421994    266810.16   -79938.777    7078.5108   -87017.287    715.15156 
   12450    276.26275    88.588771    266992.22   -79918.305    7021.8719   -86940.177    716.82069 
   12500    274.67833    200.05185    267221.56   -79933.961       6981.6   -86915.561     720.2363 
   12550    276.84351    25.087163    267517.33   -79928.467    7036.6333     -86965.1    723.68277 
   12600     277.5118   -40.781528    267465.78   -79954.686    7053.6193   -87008.306    726.25034 
   12650    273.91965    152.00591    267099.09   -79967.289    6962.3163   -86929.605    729.36774 
   12700    274.34716    23.802709    267128.34   -79972.543    6973.1826   -86945.726    732.95381 
   12750    274.24088    129.95407     267364.7   -79968.416    6970.4813   -86938.897    737.68564 
   12800    275.77995   -20.117269    267553.33   -79993.242    7009.6003   -87002.843    740.81802 
   12850    274.70913   -85.353069    267497.76   -80021.296    6982.3828   -87003.679    742.55913 
   12900    272.54734    93.873849    267098.92   -79998.628    6927.4358   -86926.064    744.91548 
   12950    273.52963   -17.204377    266871.94   -79995.485     6952.403   -86947.888    746.55206 
   13000    278.94921    276.23391    266672.27   -79967.616    7090.1544    -87057.77    748.53972 
   13050    273.77537    120.53853    267012.27   -79946.564    6958.6491   -86905.213    751.42227 
   13100    276.28696   -119.86904    267502.17   -79907.088    7022.4871   -86929.575    755.77338 
   13150    274.49713   -44.554732    267839.35   -79919.282    6976.9944   -86896.277    760.18594 
   13200    277.28624   -67.710045    267791.05   -79940.972    7047.8861   -86988.858    761.54875 
   13250    276.09355   -103.37239    267537.85   -79918.079    7017.5712    -86935.65    760.88374 
   13300    275.76184    62.267493    267134.24   -79926.235    7009.1399   -86935.375    762.78865 
   13350    277.63218    54.964228    267087.76   -79921.448    7056.6791   -86978.127    765.11047 
   13400    272.01066   -76.522752     267366.7   -79959.422    6913.7949   -86873.217     768.3113 
   13450     277.1239    137.15769    267448.12   -79925.446      7043.76   -86969.206    770.36966 
   13500    274.99439   -70.736542    267485.81   -79910.981    6989.6334   -86900.614     772.4031 
   13550    276.54879   -165.13122    267221.97   -79898.249     7029.142   -86927.391    775.70496 
   13600    281.59038    311.49766    266773.08   -79919.917    7157.2862   -87077.203    777.33877 
   13650    277.25479     55.18949    267064.74   -79936.189    7047.0869   -86983.276    781.46253 
   13700      274.933     -28.4035    267607.63   -79952.094    6988.0731   -86940.167    785.27545 
   13750    279.61474   -353.13507    267850.96   -79945.978    7107.0707   -87053.049    788.99743 
   13800    275.45935   -145.11065     267418.8   -79927.258    7001.4515   -86928.709    791.09134 
   13850    281.30415   -71.093105    267026.08   -79931.566    7150.0109   -87081.577    792.87126 
   13900    275.92253     152.1856    266933.75   -79950.828    7013.2244   -86964.053     795.0792 
   13950    275.22169    125.27847    267176.33   -79968.258    6995.4108   -86963.669    799.34491 
   14000    269.60903    -90.32213    267368.99   -79971.328    6852.7518    -86824.08    802.16298 
   14050    276.60642   -71.364351    267346.66   -79983.106     7030.607   -87013.713    805.44936 
   14100    275.67642    174.20998    267098.59   -79946.656    7006.9688   -86953.625    808.16425 
   14150    278.30033    36.904434       266878     -79962.6    7073.6616   -87036.262    810.18421 
   14200    276.60837     91.60721     267018.1   -79999.062    7030.6565   -87029.719     812.7285 
   14250    275.46548   -386.28174    267738.26    -80028.43    7001.6074   -87030.037     816.1795 
   14300    273.81404   -127.19153    267731.21   -80031.062     6959.632   -86990.694    820.06065 
   14350    276.27894    9.8671124    267052.47   -80057.711    7022.2833   -87079.994    822.90557 
   14400    277.39039    291.20169    266394.52   -80052.316    7050.5334   -87102.849    824.67345 
   14450    283.40305     179.4861    266452.43   -80053.927    7203.3593   -87257.286    828.88268 
   14500    276.09144   -228.59617    267222.58   -80013.713    7017.5176   -87031.231    833.51263 
   14550    274.50446   -204.96918     267944.1   -80027.213    6977.1806   -87004.394    839.26334 
   14600    272.65925   -161.72242    267963.16   -80045.081    6930.2803   -86975.361    843.13453 
   14650    271.13355    26.491323    267200.27   -80022.068    6891.5011   -86913.569    844.66617 
   14700    275.48425      102.534    266423.08   -79972.358    7002.0844   -86974.442    844.76034 
   14750    279.87029    91.092216    266376.76   -79996.755    7113.5661   -87110.321    845.99444 
   14800    273.48583     152.1098    267098.22    -79994.49    6951.2897    -86945.78    849.65826 
   14850    272.19795   -256.32744    267779.44   -79997.592    6918.5553   -86916.148    853.98578 
   14900    274.98674    81.575552    267713.71   -79988.768    6989.4391   -86978.208    855.54529 
   14950    272.08229   -297.24799    267357.55   -80041.264    6915.6154    -86956.88    856.69168 
   15000    272.85917   -5.7698524    266759.67   -80044.441    6935.3617   -86979.802    858.36454 
   15050    275.79476    7.6254726    266647.11   -80085.495    7009.9767   -87095.471    860.54028 
   15100    276.80767    25.248813    266827.57   -80090.071    7035.7222   -87125.794    864.80187 
   15150    271.11577    50.495931    266979.29    -80107.32    6891.0491   -86998.369    868.11934 
   15200    269.15805   -97.360083    267017.35    -80136.19    6841.2891    -86977.48    870.01673 
   15250    266.89186    61.154676    266982.71   -80108.326    6783.6883   -86892.015     873.1226 
   15300     274.8019   -2.5326081     266903.8    -80115.97    6984.7409   -87100.711    874.46475 
   15350    272.63278    -93.18832    267076.45   -80118.838    6929.6075   -87048.445    875.50798 
   15400     272.5901    81.261658    267196.72   -80141.182    6928.5227   -87069.705    877.27464 
   15450    271.10429   -351.24455    267346.82   -80233.947    6890.7572   -87124.705    880.06053 
   15500    268.72335   -20.058095    267000.48   -80235.354    6830.2402   -87065.594    881.66016 
   15550    268.72813     218.0922     266398.2   -80247.643    6830.3616   -87078.005    883.34475 
   15600    275.72749    -32.51204    266208.75   -80198.645    7008.2669   -87206.912    886.00103 
   15650    272.56317    210.12515    266274.63   -80153.632    6927.8382    -87081.47    889.34825 
   15700    273.40285   -188.70053    266970.79     -80112.7    6949.1806   -87061.881    892.48688 
   15750    274.91801   -272.17989    267471.25   -80077.433    6987.6921   -87065.125    896.23684 
   15800     272.0323   -157.37117    267281.32    -80088.39    6914.3448   -87002.735    897.64764 
   15850    274.17279    52.128443    266897.12   -80089.376    6968.7506   -87058.126    898.99179 
   15900    268.18096   -53.140731    266816.66   -80091.023     6816.454   -86907.477    899.94652 
   15950    270.70018  -0.18747373    266915.97   -80110.214    6880.4858     -86990.7    902.86017 
   16000     270.8662   -139.98508    267094.72   -80078.717    6884.7057   -86963.423     905.7149 
   16050    275.47006   -32.756917    267074.47   -80098.851    7001.7238   -87100.575    907.10994 
   16100    272.71815    69.940512    267070.18    -80098.78    6931.7773   -87030.557     909.5443 
   16150    270.63198    31.591531    267118.72   -80073.744    6878.7524   -86952.496    911.70067 
   16200    275.82646   -194.80077     267144.3   -79996.608    7010.7825    -87007.39    914.87491 
   16250    278.83599   -6.0694856    266998.05   -79988.748    7087.2769   -87076.025    917.22004 
   16300    279.48005    51.652685    267069.87   -79968.005     7103.647   -87071.652    919.29568 
   16350    277.51146   -20.391272    267367.73   -79931.903    7053.6108   -86985.514      922.227 
   16400     277.0343   -24.622867    267558.41   -79966.425    7041.4824   -87007.908    923.34239 
   16450    272.74387    100.42038     267429.8   -79952.726    6932.4312   -86885.157    923.65984 
   16500     273.2115   -177.48656    267273.98   -79959.039    6944.3172   -86903.357    925.30345 
   16550    273.08726    262.28656    266881.37   -80024.993    6941.1592   -86966.152    928.09912 
   16600    275.79495    97.235765    266839.78   -80006.655    7009.9815   -87016.636    929.13811 
   16650    272.98124   -94.137726    267152.12     -80047.5    6938.4644   -86985.964    930.97077 
   16700    267.90623   -173.97258    267526.84    -80015.33    6809.4711   -86824.801    933.88268 
   16750    274.89361   -52.557229    267410.83   -79984.396    6987.0717   -86971.468    937.33655 
   16800    277.50556    -8.077235    267178.79    -79953.47    7053.4608   -87006.931    939.84888 
   16850    275.61424   -2.1724545    267230.42   -79939.445    7005.3883   -86944.833    941.42576 
   16900     274.9089    131.20347    267183.19   -79956.806    6987.4605   -86944.267    944.54547 
   16950    273.92384    163.13857    267150.52   -79955.085    6962.4227   -86917.508    946.93842 
   17000    274.13404    75.555319    267407.41   -79962.572    6967.7655   -86930.337    949.11847 
   17050      277.891   -262.31576    267648.99   -79937.481    7063.2576   -87000.739    952.82522 
   17100    275.18164    120.55863    267530.81   -79929.221    6994.3927   -86923.614     954.6243 
   17150    276.79575   -127.28739    267465.88   -79946.457    7035.4192   -86981.876    958.75986 
   17200    274.03742     111.9839    267419.73   -79966.518    6965.3098   -86931.828     962.0379 
   17250    271.34653   -135.54551    267637.01    -79974.03    6896.9145   -86870.945    966.13486 
   17300    273.32247   -202.31589    267506.79   -79988.813    6947.1377    -86935.95    967.84757 
   17350    276.41407   -287.68544    267275.01   -80018.799     7025.718   -87044.517    968.92272 
   17400    273.35465     55.91328    267051.77   -80030.266    6947.9556   -86978.221    971.98226 
   17450    274.00264    41.937273    267011.68    -80025.71    6964.4256   -86990.135    973.68609 
   17500    275.77138   -70.627395    267094.98    -80092.16    7009.3824   -87101.543    976.10372 
   17550    273.73904   -126.26985    267136.55    -80091.12    6957.7258   -87048.846    979.32893 
   17600    273.16376   -114.48854    267058.17   -80095.184    6943.1035   -87038.288    982.58928 
   17650    271.06359    61.384111    266911.06   -80068.843    6889.7228   -86958.565    985.27483 
   17700    271.71471     228.9958    266960.93   -80101.566    6906.2725   -87007.838    987.01196 
   17750    274.10152   -85.413219     267229.3   -80116.301    6966.9391    -87083.24     989.8944 
   17800    272.08901   -118.90343    267346.93     -80128.9    6915.7862   -87044.687    994.24521 
   17850    269.81594   -193.08997    267149.56   -80150.978    6858.0107   -87008.989    996.60805 
   17900    274.25394    123.76297    266605.08   -80105.955    6970.8131   -87076.768    997.31794 
   17950    270.32512    370.98477    266363.52   -80138.981    6870.9528   -87009.934    999.56249 
   18000    277.28939   -1.5834589    266890.68   -80141.191    7047.9663   -87189.157    1002.9736 
   18050    267.16859   -134.12487    267604.22   -80175.801    6790.7222   -86966.523     1007.494 
   18100    267.24704   -127.14951    267616.78   -80171.013    6792.7161   -86963.729    1010.2686 
   18150     276.1717   -45.447787    266977.92   -80187.008    7019.5576   -87206.566    1011.3864 
   18200    279.76348    49.418945    266351.56     -80187.4    7110.8511   -87298.251    1012.3668 
   18250    270.80025    34.139112    266169.98    -80222.49    6883.0294   -87105.519    1014.4694 
   18300    267.48345   -5.7447769    266585.86   -80200.127    6798.7251   -86998.852    1016.8775 
   18350    270.22279   -72.746161    267107.32   -80169.547     6868.352   -87037.899     1019.831 
   18400    269.36631    53.742148    267314.17   -80199.892    6846.5825   -87046.475    1024.2666 
   18450    269.75225     46.86964    267359.97   -80180.296    6856.3921   -87036.688    1026.9664 
   18500    268.78213   -180.94153    267315.83   -80145.507    6831.7341   -86977.241    1028.7077 
   18550    271.46395    19.245947    267381.08   -80119.892     6899.899   -87019.791    1031.1524 
   18600    277.01628    57.330531    267373.03   -80122.761    7041.0244   -87163.785    1034.6044 
   18650    274.38606    54.789564    267432.21   -80094.102    6974.1712   -87068.273    1036.1735 
   18700    277.52816   -26.673774    267412.24   -80032.483    7054.0352   -87086.518    1040.1815 
   18750    270.40797    122.78896    267166.18   -80021.362    6873.0588   -86894.421     1041.518 
   18800    275.15125   -27.296017    266944.96   -79963.351    6993.6203   -86956.971     1042.853 
   18850    274.27262    173.48043    266766.27   -79975.357     6971.288   -86946.645    1046.4581 
   18900    271.66911    -28.88449    267016.63   -80017.353    6905.1136   -86922.466    1050.5665 
   18950     274.3793    197.50848    267215.23   -80065.259    6973.9996   -87039.258    1055.2524 
   19000    272.39384     212.2954    267441.71   -80041.039    6923.5343   -86964.573    1058.6682 
   19050    274.16758    9.9002966    267584.18   -80065.029    6968.6182   -87033.648    1062.2172 
   19100    272.11055   -136.09717    267617.94   -80050.749    6916.3338   -86967.083    1065.1663 
   19150    273.92457    44.513207    267299.95   -80028.996    6962.4415   -86991.437    1067.8059 
   19200    276.03988    284.49212    266902.51   -80019.855    7016.2071   -87036.062    1070.5724 
   19250     276.1169     52.74722    266698.57   -80011.454    7018.1646   -87029.618    1074.5469 
   19300     280.2521      191.048    266534.14   -80016.369    7123.2707   -87139.639     1076.041 
   19350     276.4062    116.82796    266673.81   -80005.931    7025.5178   -87031.449    1079.1166 
   19400    275.19424   -99.640186    267143.07   -79992.204    6994.7132   -86986.917    1080.9691 
   19450    275.26724   -25.131834    267577.84   -79967.288    6996.5686   -86963.856    1085.0735 
   19500    277.19573    -135.7026    267821.46   -79958.947    7045.5857   -87004.532    1088.6023 
   19550    275.65165  -0.52088638    267624.61     -80003.9    7006.3392   -87010.239    1090.3385 
   19600    276.23166    112.57498    267195.96   -80017.679    7021.0816    -87038.76    1091.1503 
   19650    275.77475    90.918352    266991.39   -80003.725    7009.4682   -87013.194    1090.7706 
   19700    273.73349   -48.274651     267242.4   -80007.992    6957.5846   -86965.576    1094.3879 
   19750    271.97887   -199.09488    267295.88   -79993.941    6912.9867   -86906.928    1096.7903 
   19800    276.48849   -158.61383    267071.96   -79987.241    7027.6096    -87014.85    1097.2154 
   19850    275.56116   -27.674383    266736.38   -79991.027    7004.0393   -86995.067    1097.2213 
   19900    275.87117    276.69651    266713.08     -79971.8    7011.9188   -86983.719    1100.1646 
   19950    276.92203   -53.055231    267029.29   -79981.513    7038.6289   -87020.142    1104.4684 
   20000    276.52022    54.216127    267486.08    -79991.82    7028.4161   -87020.236    1108.4213 
   20050    270.56361   -85.420992    267821.25    -80003.15    6877.0148   -86880.165    1113.3284 
   20100     272.9942   -101.62039    267466.99   -80021.827    6938.7939   -86960.621    1115.4681 
   20150    276.24652    105.96694    266956.31   -80070.628    7021.4594   -87092.087    1117.1419 
   20200    273.42139     51.52142    266885.19   -80059.891    6949.6518   -87009.543    1119.3224 
   20250    271.49004    332.63942    266772.08   -80053.183     6900.562   -86953.745    1119.9272 
   20300    277.10109   -84.294428    266876.25   -80056.302    7043.1801   -87099.482    1124.4906 
   20350    274.89349   -265.93792    267217.31   -80014.487    6987.0689   -87001.556    1128.2662 
   20400    273.88237   -149.64373    267327.35   -80011.713    6961.3688   -86973.081    1129.5269 
   20450    272.92874   -39.184943    267241.02    -80025.72    6937.1299    -86962.85    1132.1077 
   20500    274.29956   -41.220267    267032.79   -80053.259    6971.9726   -87025.232    1133.0977 
   20550    276.05396    164.43808    266978.08   -80031.173     7016.565   -87047.738    1137.0882 
   20600    271.76509    74.336746    267401.19   -80022.126    6907.5531   -86929.679    1140.5521 
   20650    273.52234    116.26062    267809.58    -80043.09    6952.2177   -86995.308    1144.5612 
   20700    272.76082   -179.47439    267841.28   -80055.134     6932.862   -86987.996    1145.9599 
   20750    277.13091   -67.170069       267270   -80014.594     7043.938   -87058.532    1146.0516 
   20800    275.47266   -10.689759    266743.24   -80044.383    7001.7899   -87046.172    1146.3969 
   20850    273.43756    314.05627    266600.02   -80016.849    6950.0628   -86966.912    1147.5333 
   20900    272.53341    73.218944    267026.41   -80016.189    6927.0817   -86943.271    1153.1321 
   20950    273.46687   -61.859561    267490.03   -80049.426    6950.8078   -87000.234    1158.1525 
   21000    272.95893   -141.97709    267618.24   -80022.873    6937.8973    -86960.77    1160.0129 
   21050    275.10057    32.287949    267238.21   -80043.979    6992.3323   -87036.312    1161.1504 
   21100    274.74731    149.36909     266760.6   -80048.755    6983.3532   -87032.109    1162.9634 
   21150    274.86485    72.083903    266770.45   -80044.782    6986.3408   -87031.123    1165.1253 
   21200    279.41382     207.7094    266929.34    -80027.29    7101.9638   -87129.253    1167.0693 
   21250    273.66608    25.425712    267129.01   -80037.095    6955.8713   -86992.967    1172.3209 
   21300    269.82541   -8.7291976    267173.28   -80020.473    6858.2515   -86878.725    1175.1832 
   21350    276.45249    96.081796    267127.22   -80021.213    7026.6945   -87047.907    1178.6799 
   21400    278.02235   -201.93004    267064.54    -80014.71    7066.5963   -87081.306    1182.7274 
   21450    275.83279   -148.08393    266901.99   -79969.938    7010.9434   -86980.881    1185.0847 
   21500    273.04632    315.47408       266852   -79975.964    6940.1186   -86916.082    1188.1729 
   21550    270.03303    90.034107    267296.15   -79958.075    6863.5288   -86821.603    1192.2856 
   21600    274.04177    96.507077    267721.43       -79946    6965.4204    -86911.42    1195.5875 
   21650    274.24285   -70.110048    267946.14   -79909.307    6970.5313   -86879.839    1199.4083 
   21700    278.51019   -275.79161     267593.4   -79873.507    7078.9958   -86952.503    1198.1706 
   21750    275.63394    91.175536     266946.6   -79904.547    7005.8891   -86910.436    1199.9536 
   21800    278.67391    16.542505    266882.04   -79880.739    7083.1571   -86963.896    1201.8578 
   21850    278.28611    31.683818    267049.93   -79860.101    7073.3003   -86933.401     1205.103 
   21900    277.29881   -68.990487    267342.41   -79880.174    7048.2056   -86928.379     1209.184 
   21950    278.35012    106.79444     267584.6   -79891.024    7074.9273   -86965.952     1212.819 
   22000    282.21724   -184.37577    267708.33   -79899.906    7173.2194   -87073.125    1216.9132 
   22050     280.7308   -17.554371    267526.47   -79869.734    7135.4377   -87005.172    1220.8476 
   22100    274.29307   -110.86346    267368.11   -79856.173    6971.8076    -86827.98    1222.3997 
   22150    275.54327    35.171024    267429.38   -79871.389    7003.5844   -86874.973    1224.1895 
   22200    281.94906   -93.782203    267705.74   -79820.293    7166.4027   -86986.695    1226.9345 
   22250    273.27159    186.87648     267649.6   -79812.632    6945.8443   -86758.476    1227.9352 
   22300    275.87663    168.34692    267567.12   -79753.927    7012.0576   -86765.985    1230.7738 
   22350    282.79704   -35.006031    267626.57    -79773.17    7187.9561   -86961.127    1235.0385 
   22400    277.94939   -86.062603    267756.01   -79797.522    7064.7419   -86862.264    1238.1816 
   22450    282.68008    4.0138328    267569.74   -79803.879    7184.9833   -86988.862    1238.9675 
   22500    280.55447    127.13918    267214.19   -79779.359    7130.9561   -86910.315    1238.0787 
   22550    278.32061    252.86362    267085.57   -79790.545    7074.1772   -86864.722    1238.1395 
   22600    281.11804   -80.513907    267303.84   -79849.737    7145.2806   -86995.018    1240.2641 
   22650    279.80285   -28.867972    267497.56   -79819.899    7111.8518   -86931.751    1243.3735 
   22700    277.99727    240.25032    267659.57   -79841.242    7065.9588   -86907.201    1244.8036 
   22750     275.0234   -80.613408    267833.08   -79829.001    6990.3707   -86819.372    1247.3912 
   22800    278.20074    28.551555    267516.77   -79842.756    7071.1303   -86913.886    1250.4239 
   22850    276.88074    204.63686    267075.74   -79849.512    7037.5795   -86887.092    1253.9716 
   22900    278.24749     60.46966    266926.75   -79875.401    7072.3187    -86947.72     1254.425 
   22950     273.4324    29.403859     267046.3   -79887.039    6949.9318   -86836.971    1257.0711 
   23000    280.99766    32.708825    267267.91   -79914.009    7142.2207    -87056.23     1260.323 
   23050    276.87786    39.658729    267623.43   -79861.625    7037.5062   -86899.131    1262.9739 
   23100    279.23649     -320.284    267803.27   -79844.743    7097.4563     -86942.2    1266.7802 
   23150    279.21151    85.162824    267548.86   -79854.289    7096.8215    -86951.11    1269.9969 
   23200    273.40067    19.807473    267419.83   -79851.264    6949.1254    -86800.39    1271.3485 
   23250    275.70609     3.343231    267180.57   -79868.817    7007.7231    -86876.54     1273.905 
   23300    276.79889    19.834131    266951.61   -79886.246    7035.4992   -86921.745    1275.7779 
   23350    277.58726    142.70529     266897.6   -79890.976    7055.5374   -86946.514    1278.6783 
   23400    277.04617    101.41878    267202.55   -79909.995    7041.7844   -86951.779    1281.9311 
   23450    279.13639   -175.66702    267754.76   -79915.345    7094.9121   -87010.257    1286.6931 
   23500    274.23822    -118.9642    267871.88   -79950.962    6970.4136   -86921.375    1290.6467 
   23550    272.18888   -65.978947    267340.33   -79944.782    6918.3248   -86863.107    1293.0996 
   23600     275.8676    26.989292     266596.2   -79917.526    7011.8282   -86929.354    1292.9155 
   23650    277.14856    123.26154    266464.85   -79893.673    7044.3868    -86938.06    1295.6356 
   23700    281.15752    6.3411558    267173.72   -79854.061    7146.2841   -87000.345    1300.3492 
   23750    277.70861    35.517847    267908.29   -79855.375    7058.6219   -86913.997    1307.6176 
   23800    275.91826   -57.630463    267970.46   -79825.185    7013.1157   -86838.301    1309.0636 
   23850    276.67479    13.003802    267586.71   -79843.435    7032.3447   -86875.779    1310.5741 
   23900    279.83489   -10.573485    266986.38    -79861.31    7112.6661   -86973.976    1309.3893 
   23950    278.99233    4.1033886    266774.09   -79908.147    7091.2506   -86999.398    1310.7551 
   24000    274.77939     175.8807    267212.56    -79923.74    6984.1686   -86907.909    1314.2188 
   24050     273.6194    -256.7752    267744.24   -79887.196    6954.6847   -86841.881    1318.1233 
   24100    276.96191   -83.821718    267744.69    -79852.68    7039.6427   -86892.323    1321.3395 
   24150     273.5492    78.529981    267510.51   -79871.192    6952.9006   -86824.093     1324.314 
   24200    279.76784    13.228068    267326.81   -79897.732    7110.9619   -87008.694    1325.0824 
   24250    276.05414   -1.4253047    267085.12   -79922.543    7016.5694   -86939.112    1326.0037 
   24300    278.41056    299.83489    266995.74   -79904.843    7076.4634   -86981.307    1328.8749 
   24350    272.73652   -25.842935    267474.89   -79919.502    6932.2443   -86851.746    1332.7885 
   24400     277.1372   -160.98106     267601.2   -79888.863    7044.0979   -86932.961    1334.5597 
   24450    277.92988   -143.85758    267316.34    -79951.42    7064.2457   -87015.665    1335.3664 
   24500    276.50626    406.34111    266904.89   -79956.478    7028.0611   -86984.539    1335.9539 
   24550    277.84057   -111.46155    267012.65   -79937.437    7061.9759   -86999.413     1337.806 
   24600    275.58725    22.315411    267329.15   -79931.666    7004.7025   -86936.368    1342.7289 
   24650    276.08569   -26.151129     267678.7   -79917.575    7017.3713   -86934.947    1346.2495 
   24700    275.84881   -100.35293    267866.31    -79868.86    7011.3505   -86880.211    1348.2066 
   24750    275.55012    -122.3217    267682.88   -79850.978    7003.7586   -86854.737    1349.6347 
   24800    284.13005   -3.5446814    267143.76   -79789.533    7221.8379   -87011.371    1350.7781 
   24850    284.37382    92.831113    266661.67   -79766.446    7228.0339    -86994.48    1351.0541 
   24900    284.47911    412.11188    266859.77   -79753.025    7230.7101   -86983.735    1353.6437 
   24950    282.35301   -79.856341    267832.49   -79792.207      7176.67   -86968.877    1357.9638 
   25000    278.38909   -309.62335    268410.54   -79824.576    7075.9178   -86900.494    1362.7515 
   25050    272.07502   -215.58983    268063.25   -79846.121    6915.4307   -86761.552    1364.7857 
   25100    280.73421   -97.290101    267323.03   -79806.874    7135.5245   -86942.398    1364.0482 
   25150    277.34223    232.68224    266939.53   -79838.668    7049.3094   -86887.977    1365.3579 
   25200    274.46121    -158.6699    267258.92   -79862.983    6976.0815   -86839.064    1367.9017 
   25250    274.03051   -13.074661    267657.78   -79911.725     6965.134   -86876.859    1369.9416 
   25300    273.95676   -143.76863     267602.5   -79949.811    6963.2596   -86913.071    1370.9547 
   25350      277.572    18.499915    266880.04   -79991.254    7055.1494   -87046.403    1372.5817 
   25400    274.57321    287.52229    266487.33   -80006.464    6978.9282   -86985.392    1374.8397 
   25450    276.88543     2.002938    266800.18   -79959.937    7037.6986   -86997.636    1379.4901 
   25500    276.74874    1.9666379     267305.6   -79956.515    7034.2244    -86990.74     1382.676 
   25550    271.78733   -310.83515    267761.24   -79987.884    6908.1184   -86896.002    1386.8221 
   25600     274.0218    -63.72563    267838.22   -80002.382    6964.9127   -86967.295    1389.5274 
   25650    275.94925   -134.78619    267425.95    -80008.68    7013.9035   -87022.583     1391.636 
   25700    278.19709    95.970496    266544.32   -79987.216    7071.0375   -87058.253    1391.5744 
   25750     279.7907    425.74782    265970.28   -79985.826     7111.543   -87097.369    1391.3817 
   25800    275.72899    50.529363    266502.07    -79994.43     7008.305   -87002.735    1395.6031 
   25850    277.49882    -149.3342    267413.35   -79988.415    7053.2894   -87041.704     1401.788 
   25900    277.82813   -74.909664    267953.05   -79938.695    7061.6597   -87000.354    1405.7677 
   25950     274.6663   -289.64056    267916.86   -79967.181    6981.2943   -86948.475    1407.8893 
   26000    274.21881    69.308243    267486.02   -79944.441    6969.9201   -86914.361    1408.1118 
   26050    273.07056    79.296178    267105.36   -80018.734    6940.7348   -86959.469     1409.836 
   26100    274.86801   -76.300386    266810.61   -80047.947    6986.4212   -87034.368    1411.3828 
   26150    274.17772    295.05469    266651.22   -80048.851    6968.8757   -87017.726    1414.5089 
   26200    274.35605    77.383441    266872.12   -80051.107    6973.4084   -87024.516    1415.1796 
   26250    270.54625    42.539624     267204.1   -80038.773    6876.5735   -86915.347    1417.5871 
   26300    273.25756    35.790596    267386.72   -80065.084    6945.4878   -87010.572    1420.4552 
   26350    273.13653    138.85455    267159.36   -80078.774    6942.4116   -87021.186    1421.3946 
   26400    272.96725   -78.145585    267096.01   -80068.142    6938.1088   -87006.251    1423.8108 
   26450    273.43709     306.2652    267088.64   -80025.254    6950.0509   -86975.305    1424.8875 
   26500    275.13724   -86.764581    267283.56     -80032.8    6993.2642   -87026.064    1428.0674 
   26550    273.33084   -169.99852    267465.48   -80028.729    6947.3504   -86976.079    1431.4751 
   26600    271.44107     50.51855    267260.77    -80040.02    6899.3173   -86939.338    1434.9715 
   26650    277.05503    2.8756128    266835.98   -80036.364    7042.0095   -87078.373    1434.4797 
   26700    277.30782   -71.253765    266509.05   -80009.813    7048.4346   -87058.248    1436.9133 
   26750     276.6114    115.10465    266723.48   -80018.807    7030.7335   -87049.541    1441.3847 
   26800    272.47822   -274.63269    267351.79   -80062.376    6925.6789   -86988.055    1447.2978 
   26850     273.8385   -6.9899602    267461.02   -80056.413    6960.2537   -87016.667    1450.1385 
   26900    272.26133   -117.19057    267460.69   -80010.192    6920.1661   -86930.358    1454.0912 
   26950    270.53585   -5.5669207    267192.27   -80034.258    6876.3091   -86910.567    1456.9077 
   27000      273.891    150.20186    266951.38   -80040.577    6961.5881   -87002.165    1461.5445 
   27050    270.11834   -13.595635    267084.08    -80055.67     6865.697   -86921.367    1466.2378 
   27100    272.24817    90.999022    267097.05   -80021.487    6919.8319   -86941.319    1469.6235 
   27150    277.44992   -101.92193    267011.53   -80040.419    7052.0465   -87092.466    1469.7615 
   27200    278.87621   -15.799291    266976.06   -80031.692     7088.299   -87119.991    1470.9066 
   27250    274.92401    31.473618    266769.71   -80015.716    6987.8445    -87003.56     1472.964 
   27300     273.2786    268.24101     266764.2   -80015.118    6946.0225    -86961.14    1475.8941 
   27350    275.88179    5.6065932    267267.31   -79993.089    7012.1888   -87005.277    1481.0042 
   27400    272.68787   -70.737967    267678.68   -79952.814    6931.0077   -86883.822    1483.6145 
   27450    274.43413   -271.80656    267857.24   -79972.104    6975.3931   -86947.497    1487.7939 
   27500    278.97774   -115.16698    267667.34   -79956.891    7090.8796   -87047.771    1491.1684 
   27550      275.961    204.21615    267350.04   -79959.709    7014.2022   -86973.911    1493.3478 
   27600    272.36486    144.06308    267184.13   -79965.773    6922.7977    -86888.57    1494.4147 
   27650      276.305   -33.542587    267160.11    -79988.99    7022.9457   -87011.936    1497.8951 
   27700    271.89533    88.194317    267177.18   -79998.863    6910.8635   -86909.727    1500.8411 
   27750    272.43653   -11.030968    267195.76   -79965.349    6924.6195   -86889.969    1502.2296 
   27800    273.64408   -42.569456     267113.3   -79974.118    6955.3121    -86929.43    1503.8366 
   27850    279.13653     14.55594    267091.59   -79946.157    7094.9158   -87041.073     1505.919 
   27900    270.33206    57.594591    267277.96     -79958.1    6871.1292   -86829.229    1507.5034 
   27950    272.22057   0.99896515    267503.06   -79969.483    6919.1301   -86888.613    1512.4967 
   28000    277.44263   -93.013507       267558   -79969.838    7051.8612   -87021.699    1516.1442 
   28050    275.64141    25.602674    267094.08   -79955.208     7006.079   -86961.287    1517.7869 
   28100    276.05519    342.30256    266501.04   -79975.422    7016.5962   -86992.018    1518.2673 
   28150    278.27406    62.734107    266705.14   -79966.245     7072.994   -87039.239    1519.3701 
   28200    274.72425    -128.9165    267455.49   -79970.997    6982.7672   -86953.764    1527.5992 
   28250    273.27218   -228.32719    268164.33   -80023.426    6945.8594   -86969.285     1530.713 
   28300    272.79639   -81.013079    267750.25   -80016.165    6933.7662   -86949.932    1529.7095 
   28350    273.31015    70.283452    266827.75   -80013.938    6946.8245   -86960.763    1527.2437 
   28400    280.12217    237.96369    266226.55   -79974.991     7119.968   -87094.958    1526.4962 
   28450    272.79694    124.73968     266554.8   -79975.822      6933.78   -86909.602    1531.2131 
   28500    271.93057    124.46829    267130.71   -79983.499    6911.7591   -86895.258    1536.1778 
   28550     275.7749   -16.238203    267566.48   -80001.755    7009.4719   -87011.227    1539.6054 
   28600    271.38162    158.67316    267392.56   -79983.953    6897.8064    -86881.76     1542.501 
   28650    269.51816   -30.536801    267137.59   -79999.887     6850.442   -86850.328    1543.4713 
   28700    276.54283     293.6959    266947.03   -80010.183    7028.9907   -87039.174     1545.613 
   28750    277.27655    121.37127    267128.57   -80013.808    7047.6399   -87061.448    1549.2712 
   28800    271.32381    52.554368    267489.49   -80027.912    6896.3369   -86924.249    1554.2022 
   28850    276.72375   -148.56794    267424.87   -80008.092    7033.5891   -87041.681    1555.0171 
   28900    272.12923    211.11591     267028.7   -80053.633    6916.8086   -86970.442    1556.9293 
   28950     276.3174    106.65891    266709.74   -80075.976    7023.2607   -87099.236    1559.7172 
   29000    268.98298   -31.049717    266728.32   -80094.432    6836.8392   -86931.271    1563.4482 
   29050    272.59688    60.022941    267091.42   -80083.775     6928.695    -87012.47    1566.6909 
   29100    265.87785   -60.595282    267527.73   -80103.733     6757.915   -86861.648    1570.2815 
   29150    272.25288   -255.52772    267638.93   -80094.838    6919.9515    -87014.79    1573.8464 
   29200    270.12108    99.042712    267194.94   -80103.793    6865.7667    -86969.56    1577.2227 
   29250    272.91031    260.86193    266667.02   -80110.086    6936.6615   -87046.748    1578.1186 
   29300    274.21656    -237.2245    266617.41   -80132.738     6969.863   -87102.601    1579.4261 
   29350    266.80111   -136.12809    266715.52   -80124.406    6781.3817   -86905.787    1582.0702 
   29400    276.31652   -91.660228    266968.75   -80100.862    7023.2384     -87124.1    1584.3354 
   29450    273.35279   -128.09901    267186.43   -80073.542    6947.9084    -87021.45    1586.4902 
   29500    277.22234    33.185838    267230.36   -80058.276    7046.2621   -87104.538    1591.4105 
   29550    271.82021     77.87997     267266.7   -80004.063    6908.9541   -86913.017    1594.4922 
   29600    273.56158    8.0214829    267233.34   -80003.618    6953.2151   -86956.833    1596.3775 
   29650    275.85312    145.17201    267239.99   -79980.772    7011.4601   -86992.232    1598.5356 
   29700    275.46867    77.511524    267414.01   -79982.066    7001.6884   -86983.755    1602.2536 
   29750    275.02075   -68.915985    267712.47   -79939.548    6990.3034   -86929.852    1608.5498 
   29800    276.52491    72.896589    267445.82   -79913.132    7028.5353   -86941.667    1609.5938 
   29850     276.0973    11.596983    267119.42   -79875.242    7017.6664   -86892.909    1608.4644 
   29900    276.02793    236.13311    267062.84    -79882.85    7015.9032   -86898.753    1611.5361 
   29950    271.74035   -59.897296     267461.4   -79880.241    6906.9242   -86787.165    1615.2927 
   30000    278.08863   -207.92754    267474.44   -79864.082    7068.2808   -86932.363    1619.5005 
   30050    277.83954    182.11501    267280.55    -79855.98    7061.9496    -86917.93    1623.5441 
   30100    275.48134    256.76253    267331.67   -79865.187    7002.0105   -86867.197    1625.8416 
   30150    275.01766   -69.663627       267732   -79851.177     6990.225   -86841.402    1629.6563 
   30200    276.70868      -125.54    268093.73   -79877.061    7033.2061   -86910.267    1635.6298 
   30250    272.97122   -214.43781    268322.58   -79896.867    6938.2099   -86835.077    1637.5931 
   30300    272.88574    6.3880195    267655.81   -79944.489    6936.0371   -86880.526    1636.4099 
   30350    273.39287    421.65388    266759.44   -79969.206     6948.927   -86918.133     1634.628 
   30400    276.30171    198.47154    266496.66   -79999.092    7022.8622   -87021.955    1638.4647 
   30450    271.94342    173.08025    266777.81   -80031.736    6912.0857   -86943.821    1644.1645 
   30500    278.22815   -27.326982    267326.03   -80027.278     7071.827   -87099.105    1649.8733 
   30550    274.37715   -192.39173    267705.23   -79960.784    6973.9448   -86934.729    1653.7793 
   30600    276.32072   -12.595931    267473.42   -79930.879    7023.3451   -86954.224    1657.1434 
   30650    274.33828    166.61025    266950.35   -79888.741    6972.9567   -86861.698    1657.0738 
   30700    275.50055    68.156671    266776.12   -79887.608    7002.4986   -86890.106    1659.1396 
   30750    279.74264    202.22266    267045.17   -79882.454    7110.3215   -86992.776    1661.0426 
   30800    276.30968   -164.14304    267672.44   -79885.907    7023.0647   -86908.972    1666.8618 
   30850    273.40644   -115.06641    267962.72    -79851.26    6949.2719   -86800.532     1670.694 
   30900    275.89316    19.846432    267805.58   -79834.334    7012.4777   -86846.811    1672.6801 
   30950    276.26566    149.51274    267596.61   -79866.509    7021.9457   -86888.455    1673.6624 
   31000    274.21329    172.40339    267567.36    -79871.28    6969.7799   -86841.059    1676.3433 
   31050    277.59726    -52.88988    267651.83   -79905.353    7055.7916   -86961.145    1680.2083 
   31100     280.7275   -173.98296    267544.65   -79875.168     7135.354   -87010.521    1680.8743 
   31150    279.72985    22.704276    267385.71   -79847.649    7109.9963   -86957.646    1684.2789 
   31200    278.68724    38.809441    267479.54   -79878.723     7083.496   -86962.219    1690.5574 
   31250    278.96515    -233.3527    267790.56   -79899.194    7090.5596   -86989.754     1695.503 
   31300    277.30941   -84.667374    267718.74   -79888.759    7048.4752   -86937.234    1698.7073 
   31350    279.34338   -71.042659    267497.29   -79899.998    7100.1732   -87000.172    1702.3973 
   31400    276.95606    42.371023    267277.97    -79909.45    7039.4939   -86948.944    1705.4824 
   31450    280.29963    136.29859    267333.51   -79912.594    7124.4787   -87037.072    1710.1402 
   31500    277.23438   -145.31005    267801.55   -79952.889     7046.568   -86999.457    1717.0302 
   31550    274.06167   -69.957349    267668.45   -80015.864    6965.9262    -86981.79    1721.2999 
   31600    274.71263    84.024996    267296.26   -79962.098    6982.4717    -86944.57    1721.9765 
   31650    276.50638    251.07436    266980.13   -79942.434    7028.0642   -86970.498    1723.0063 
   31700    276.27432   -119.80835    267096.19   -79910.735    7022.1658   -86932.901    1729.0789 
   31750    276.53181     13.93646    267114.37    -79885.69    7028.7106     -86914.4    1732.8859 
   31800    277.69004   -46.053995    267055.94   -79940.429    7058.1499   -86998.579    1736.6881 
   31850    277.82631   -118.87745    267103.69   -79922.019    7061.6133   -86983.632    1739.0076 
   31900    277.37936    69.646141    267084.15   -79909.314     7050.253   -86959.567    1742.7005 
   31950    273.90805    237.95033    267348.86   -79897.744    6962.0214   -86859.765    1750.1661 
   32000    276.39662    -221.4538    267872.43   -79880.904    7025.2745   -86906.179    1754.8596 
   32050    270.27104    133.24166    267901.72    -79900.58    6869.5783   -86770.158    1757.9316 
   32100    277.22168   -161.54421    267719.19   -79916.574    7046.2452   -86962.819    1760.8518 
   32150    275.50111    76.084489    267266.05   -79952.732    7002.5129   -86955.245    1760.4918 
   32200    273.57216    20.051436    267043.31   -79960.668    6953.4841   -86914.152    1762.1268 
   32250    277.80778   -16.848198    267185.55   -79896.218    7061.1423    -86957.36    1765.6558 
   32300    276.43635    47.851629    267568.41   -79895.015    7026.2843     -86921.3     1769.377 
   32350    276.56952    -368.9998    267862.35   -79931.755    7029.6691   -86961.424    1774.2747 
   32400    270.36472    135.78513    267288.35    -79968.19    6871.9593   -86840.149    1773.5363 
   32450     278.2754     339.8069     266662.3   -79924.354     7073.028   -86997.382    1773.4528 
   32500    278.34553    175.90794    266677.35   -79906.338    7074.8107   -86981.148     1777.728 
   32550    276.47853   -8.5792635    267144.49   -79896.657    7027.3564   -86924.014    1784.3051 
   32600    277.17015   -271.52212    267667.99   -79921.002    7044.9356   -86965.938    1790.0477 
   32650     271.9137   -157.16987    267739.13   -79910.932    6911.3303   -86822.262    1793.7673 
   32700    278.82111    -180.6159    267433.91   -79918.045    7086.8985   -87004.944    1792.9278 
   32750    278.79612    172.82186    267109.03   -79931.252    7086.2634   -87017.516    1794.4997 
   32800    276.94031    54.205814    267128.83   -79907.914    7039.0935   -86947.008    1798.7852 
   32850    272.38239   -48.200818    267429.87   -79894.649    6923.2434   -86817.893     1803.798 
   32900    279.06309   -119.90522    267401.59   -79872.604    7093.0491   -86965.653    1807.6557 
   32950    276.72413   -103.79888    267265.85   -79897.539    7033.5989   -86931.138    1810.2017 
   33000    276.55036    158.11989    267330.53    -79903.76     7029.182   -86932.942    1811.8936 
   33050    274.80598   -10.545578    267764.45   -79891.367    6984.8446   -86876.212    1817.3512 
   33100    278.27541   -185.79812    268020.01   -79896.223    7073.0284   -86969.252    1820.5778 
   33150    276.87696   -53.364094    267667.24   -79888.423    7037.4833   -86925.907    1821.0752 
   33200    278.55232    62.158676    267258.98   -79913.362    7080.0666   -86993.428    1822.0221 
   33250    278.07518   -119.88925    267145.98   -79876.028    7067.9389   -86943.967      1823.15 
   33300    279.32657   -37.636165    267184.62   -79856.944    7099.7461    -86956.69    1827.5588 
   33350    279.78344    -88.78586    267244.65   -79857.388    7111.3585   -86968.746    1830.8215 
   33400    276.00739    92.415139    267155.06   -79863.843    7015.3811   -86879.224    1832.4126 
   33450    279.14992   -113.55114    267346.55    -79829.22    7095.2559   -86924.476     1834.275 
   33500    279.79337   -153.43812    267526.58   -79793.651    7111.6108   -86905.262    1835.9822 
   33550    277.79596   0.78945535    267587.18   -79736.139    7060.8419   -86796.981    1839.1009 
   33600    281.52056   -53.801939    267659.63   -79747.275    7155.5115   -86902.786    1842.8649 
   33650    272.90667    89.542766    267660.44   -79741.138     6936.569   -86677.707    1843.1731 
   33700    276.95897    146.02762    267703.78   -79755.246     7039.568   -86794.814    1846.8059 
   33750    278.53365   -327.18863       267694    -79796.61     7079.592   -86876.202    1850.5771 
   33800    278.41005   -88.515969    267413.82   -79826.593    7076.4505   -86903.043    1854.5652 
   33850    279.89391    107.97942    267141.99   -79871.777    7114.1662   -86985.943     1855.366 
   33900    279.50289    55.708024    267031.84   -79865.042    7104.2277   -86969.269    1856.0875 
   33950     278.1285    99.478265    267142.76   -79864.162    7069.2942   -86933.456    1858.0623 
   34000    278.26808   -132.37849    267756.09   -79861.269    7072.8421   -86934.111    1864.1554 
   34050    277.08001   -350.03689    268129.57   -79901.511    7042.6444   -86944.155    1867.2698 
   34100    276.48899   -175.17228    267693.56   -79911.139    7027.6221   -86938.761    1867.6847 
   34150    276.99069    15.368843    266713.35   -79935.104     7040.374   -86975.478    1864.4672 
   34200    276.11223    319.45325    266184.83    -79924.74     7018.046   -86942.786    1862.2686 
   34250    276.63712    92.876698     266625.4   -80002.333    7031.3873   -87033.721    1865.2519 
   34300    274.92546   -162.38425    267479.06   -80026.986    6987.8813   -87014.867    1872.1816 
   34350    274.31775   -134.74136     267842.5   -80007.627     6972.435   -86980.062    1876.4748 
   34400    270.02733   -100.97043    267538.54   -80049.211    6863.3839   -86912.594    1878.7039 
   34450    276.43794    157.33023    267013.23   -80020.702    7026.3247   -87047.027    1878.6089 
   34500    276.00739    19.692226    266859.89   -80054.498    7015.3811    -87069.88    1878.3357 
   34550    269.98827    194.26234     267008.9   -80007.351    6862.3911   -86869.742    1881.5385 
   34600    274.99199    125.71381    267358.14   -79986.282    6989.5724   -86975.854    1885.0921 
   34650    275.98834   -163.43868    267329.53   -79982.601     7014.897   -86997.498    1889.6357 
   34700    273.11323    84.167188    267040.15   -79957.559    6941.8193   -86899.378     1891.501 
   34750    273.20916    98.123236    266988.09   -80049.505    6944.2576   -86993.762    1894.4045 
   34800    274.61214   -184.64363    267160.72   -80035.705    6979.9176   -87015.623    1897.5521 
   34850    274.40888    -48.83899    267207.45   -80068.009    6974.7513   -87042.761    1899.2203 
   34900    271.07272    27.054722    267264.79    -80038.57    6889.9548   -86928.525    1901.0005 
   34950    274.10693   -67.135445    267276.62   -80065.367    6967.0766   -87032.444    1903.2967 
   35000    273.25515    46.075946     267240.4   -80045.783    6945.4265    -86991.21    1905.9957 
   35050    273.55606   -136.57017    267256.65   -80078.288    6953.0748   -87031.363    1907.6194 
   35100     274.9872    76.903847    267198.51   -80075.223    6989.4506   -87064.674    1910.6121 
   35150    272.72713   -54.027763    267157.03   -80065.712    6932.0056   -86997.718    1913.7693 
   35200    274.18697   -80.845763     267147.1   -80037.618     6969.111   -87006.729     1914.813 
   35250    272.65523   -13.760749    267014.18   -80048.766     6930.178   -86978.944    1916.9295 
   35300    276.35168    42.750743    266818.25   -79990.891    7024.1321   -87015.024    1918.3454 
   35350    277.55787    58.530955    266902.22   -79992.548    7054.7904   -87047.338    1923.1158 
   35400    270.76422    194.87476    267027.13   -79961.743    6882.1137   -86843.856    1927.3855 
   35450    273.92206    -7.405628    267211.33   -79995.403    6962.3775    -86957.78    1930.1969 
   35500    270.97981    87.604493    267316.92    -79992.56    6887.5934   -86880.154    1934.6275 
   35550    271.74576    11.145619    267470.17   -79993.022    6907.0619   -86900.084    1937.1796 
   35600    276.65095    47.222646    267522.87   -79944.129    7031.7388   -86975.867    1940.1004 
   35650    276.08444    78.081282    267365.38   -79949.206    7017.3397   -86966.545    1941.6314 
   35700    276.42979   -153.87365    267196.55    -79962.06    7026.1175   -86988.178    1941.9757 
   35750    277.35269    33.026599    267045.97    -79943.71    7049.5753   -86993.285    1939.8129 
   35800      277.254   -8.1101574    267145.03   -79942.528    7047.0667   -86989.594     1940.014 
   35850    277.16577   -127.57785     267312.7   -79945.186    7044.8241    -86990.01    1943.6461 
   35900    274.72132   -170.90432    267329.61   -79902.874    6982.6926   -86885.567    1947.7646 
   35950    274.12292   -43.484178    267177.02   -79925.033     6967.483   -86892.516    1947.8304 
   36000    275.03434     99.18113    267007.46    -79924.37    6990.6488   -86915.019    1949.5586 
   36050    277.98038    39.675109    267062.42   -79976.435    7065.5294   -87041.965    1952.8418 
   36100    276.91476   -66.287344    267030.97   -79931.604    7038.4443   -86970.048    1954.3681 
   36150    278.35848    157.04522     267187.3    -79945.18    7075.1398   -87020.319    1956.9983 
   36200    273.47097    -45.46275     267588.8    -79974.26    6950.9121   -86925.172    1962.6107 
   36250    275.97243   -90.438533    267702.73   -79987.444    7014.4926   -87001.937    1965.7598 
   36300    280.11253   -167.71863    267472.86   -80000.245    7119.7229   -87119.968    1968.0214 
   36350    272.14247    277.13541    267059.89   -80017.895    6917.1451    -86935.04    1968.8359 
   36400    271.08148    113.50303    266876.04   -80013.256    6890.1776   -86903.434    1972.2237 
   36450    276.17139   -32.826454    267135.37   -79964.408    7019.5498   -86983.958    1977.2222 
   36500    281.68307     7.213838    267661.08   -79915.827     7159.642   -87075.469    1982.5133 
   36550    272.28142   -224.93627    268142.78    -79916.87    6920.6769   -86837.547     1987.912 
   36600    270.74186   -182.45355    268072.37   -79972.402    6881.5453   -86853.948    1990.7342 
   36650    275.72462    176.21999    267517.59   -79987.234    7008.1939   -86995.428    1990.8174 
   36700    273.17256     95.25831    267202.72   -80019.337    6943.3273   -86962.664    1991.7768 
   36750    278.20381    -132.2255    267088.23   -80014.122    7071.2083   -87085.331    1994.9341 
   36800    272.63956    55.329155    266840.94   -80015.718    6929.7799   -86945.498    1996.3857 
   36850     273.6369    155.99053    266722.64   -80007.308    6955.1295   -86962.437    1997.0214 
   36900    274.05806     93.36951    267169.05   -79996.378    6965.8344   -86962.212     2002.553 
   36950    273.14321   -30.640957    267691.11   -80003.473    6942.5814   -86946.055    2008.9678 
   37000    272.38085   -270.26607    267925.47   -80008.629    6923.2041   -86931.833    2010.0884 
   37050    273.75123    -25.90518    267418.84   -79998.025    6958.0354   -86956.061    2008.3424 
   37100    279.19129    314.53411    266591.87   -79938.569    7096.3076   -87034.876     2004.871 
   37150    277.93123    220.41176    266402.06   -79929.087    7064.2801   -86993.367    2007.1251 
   37200    276.10644    126.89772    267076.61   -79943.704    7017.8989   -86961.602    2011.6027 
   37250    273.69315   -232.92583    267931.93   -79966.245    6956.5592   -86922.804    2018.4675 
   37300    271.09041   -208.51501    267950.96   -79992.581    6890.4046   -86882.985    2020.1086 
   37350    276.48908   -149.53427    267368.16   -79967.314    7027.6244   -86994.938    2019.0961 
   37400    276.77216    271.85639    266967.77   -79941.208    7034.8195   -86976.027    2016.8063 
   37450    269.68971    270.69749    267152.92    -79924.62    6854.8024   -86779.423    2020.4677 
   37500    279.17058   -269.11566    267722.78   -79887.248    7095.7812   -86983.029    2025.4734 
   37550    275.26874   -152.07939    268006.68   -79944.443    6996.6066    -86941.05    2031.5766 
   37600    274.97992   -22.780211    267979.95   -79961.236    6989.2655   -86950.501    2034.4259 
   37650    275.21615   -5.5486402    267533.85   -79960.884    6995.2699   -86956.154     2036.313 
   37700    275.47879    385.29316     266791.6   -79956.636    7001.9456   -86958.582    2035.7497 
[...]
   90850    274.20133    286.75782    266342.25   -80057.861    6969.4759   -87027.336    4841.1671 
   90900    272.73078     14.92736       266678   -80049.425    6932.0985   -86981.524    4851.4315 
   90950    272.16636   -112.13728    267338.55   -80051.684    6917.7522   -86969.436    4861.9329 
   91000    273.23317   -201.70482    267762.52   -80066.217    6944.8679   -87011.085    4871.0641 
   91050    270.41556   -75.114157    267472.13     -80095.7    6873.2517   -86968.951    4873.1906 
   91100    274.14708    51.916063    267020.04   -80045.152    6968.0969   -87013.249    4873.8979 
   91150    273.60766    315.89866    266794.92   -80015.445    6954.3863   -86969.831    4876.7178 
   91200     271.2431   -165.21788    267034.37   -80036.573    6894.2856   -86930.859    4886.2626 
   91250    274.70028   -52.042951    267306.08    -79999.55    6982.1579   -86981.708    4895.3987 
   91300     270.0698    180.16731    267401.45   -80013.055    6864.4634   -86877.518    4902.3932 
   91350    276.01752    -29.08573    267428.58   -80024.628    7015.6388   -87040.267    4906.8941 
   91400    272.71065    76.595797    267106.64   -80053.286    6931.5868   -86984.873     4907.036 
   91450     274.9111     34.97166    266733.96   -80005.687    6987.5164   -86993.204    4907.1071 
   91500     274.3294    76.632605    266648.19   -80047.077     6972.731   -87019.808     4908.996 
   91550    277.76222   -50.307729       267187   -80019.156    7059.9843    -87079.14    4920.2743 
   91600    273.72405    127.50244     267601.9   -80026.769    6957.3448   -86984.113    4928.2942 
   91650    270.82539   -51.554299    267707.84   -79997.118    6883.6684   -86880.787    4931.0187 
   91700    274.66251    71.446971    267485.94    -80012.86    6981.1979   -86994.058    4934.1983 
   91750    272.83313   -292.32315    267059.66   -79984.675    6934.6999   -86919.375    4933.7649 
   91800    275.25858    208.76905    266355.84   -80003.343    6996.3484   -86999.692    4925.2711 
   91850    276.29158    253.97646    266300.38   -80007.664    7022.6044   -87030.268    4926.7128 
   91900    272.46466    191.32999    267078.16   -79990.678    6925.3344   -86916.012    4936.0633 
   91950    270.10834    9.0309554    267870.15   -79972.049    6865.4428   -86837.492    4947.4046 
   92000     273.8144   -432.41059    268017.66   -80027.168    6959.6412   -86986.809    4949.2368 
   92050    277.49676   -199.99672    267355.02   -80039.981    7053.2372   -87093.218    4946.0489 
   92100     275.8963    20.349457    266650.24   -80014.288    7012.5576   -87026.846    4938.3211 
   92150    275.66368    346.51839    266237.14   -80052.097     7006.645   -87058.741    4932.0918 
   92200    273.99219    268.39317    266637.05   -80028.712    6964.1602   -86992.873    4941.9366 
   92250    278.21848   -227.60886    267530.98   -80005.486    7071.5812   -87077.067    4960.1564 
   92300     273.0943   -57.939012    267760.91    -79989.14    6941.3382   -86930.478    4964.9665 
   92350    275.60768   -204.86301    267375.78   -79950.899    7005.2217    -86956.12    4960.4957 
   92400     273.4654    126.51116    266789.92   -79972.791    6950.7705   -86923.562    4956.4042 
   92450    277.22503   -4.0391352    266660.48   -79987.197    7046.3305   -87033.527    4959.5114 
   92500    272.62849    103.48895    266880.18   -80037.076    6929.4985   -86966.575    4963.7729 
   92550    273.32558      22.0742    267420.12   -80070.402    6947.2166   -87017.618    4974.2715 
   92600    272.70358   -217.86932    267814.71   -80042.223    6931.4071    -86973.63    4978.5368 
   92650    271.55245   -184.99526    267562.55    -80009.04    6902.1484   -86911.188     4975.094 
   92700    271.99406    380.34855    266869.76   -80013.994    6913.3729   -86927.367     4969.311 
   92750    274.72522    544.32669    266574.75   -79994.626    6982.7918   -86977.417    4967.5352 
   92800    276.02205    78.062438       267167   -79990.086     7015.754    -87005.84    4979.3901 
   92850    277.14019   -224.55021    267957.93   -79948.198     7044.174   -86992.372    4988.5571 
   92900    273.66224   -258.75437    267981.75   -79934.992    6955.7736   -86890.766    4991.8844 
   92950    273.00496   -62.979164    267213.77   -79906.775    6939.0674   -86845.842    4985.7668 
   93000    280.67245     292.4901    266469.46   -79851.366    7133.9547   -86985.321     4979.575 
   93050    282.23817   -12.159388    266863.35   -79836.513    7173.7511   -87010.264    4987.5084 
   93100     278.1221   -108.76051    267673.15   -79870.645    7069.1315   -86939.776    5001.2915 
   93150    275.23259   -172.57486    268177.57   -79895.618    6995.6878   -86891.305    5011.9264 
   93200    276.33438   -376.24561    268043.44   -79935.409    7023.6924   -86959.101    5011.4572 
   93250    281.56062   -18.427553    267231.45   -79936.688    7156.5297   -87093.218    5002.6724 
   93300    277.43839   -31.232416    266678.86   -79930.652    7051.7534   -86982.405    4997.9754 
   93350    281.79715    127.13703    266650.46   -79946.819    7162.5416   -87109.361    4998.2355 
   93400    276.27243    93.065234    267091.88   -79913.751    7022.1179   -86935.869    5004.6938 
   93450    275.20738   -95.625499    267750.99    -79918.54     6995.047   -86913.587    5017.0699 
   93500     272.4002   -116.76277    268037.43   -79938.151    6923.6958   -86861.847    5023.2069 
   93550    279.22681   -241.05092    267760.01   -79909.169    7097.2104    -87006.38    5020.3881 
   93600    278.18899   -56.971926    267362.83   -79896.119    7070.8316    -86966.95    5017.7606 
   93650    283.26962   -272.68638    267324.53   -79879.621     7199.968   -87079.589    5020.7521 
   93700    278.75408   -31.609771    267336.95   -79844.824    7085.1947   -86930.018    5025.0787 
   93750    275.10271   -97.125854    267220.81    -79889.53    6992.3866   -86881.917    5027.6631 
   93800    278.87617    211.58022    266876.06   -79914.368    7088.2981   -87002.666    5024.3593 
   93850    276.11015    206.85537    266957.55   -79921.091     7017.993   -86939.084    5027.1935 
   93900    273.86473    238.21786    267321.98   -79913.656    6960.9203   -86874.576    5031.7647 
   93950    276.91439   -149.95523    267719.72   -79918.129    7038.4347   -86956.564     5037.283 
   94000    276.07708    8.8241297    267680.11   -79962.632    7017.1525   -86979.785    5040.7846 
   94050    272.74316    41.698476    267256.01   -80023.629    6932.4131   -86956.042    5038.0361 
   94100    276.54955    9.7904144    266912.85   -80038.948    7029.1614   -87068.109    5036.3673 
   94150    273.21416   -58.460292    266539.02   -80070.414    6944.3846   -87014.799      5033.72 
   94200    277.21315    -36.54226    266560.21   -80037.967    7046.0285   -87083.996    5037.3161 
   94250    272.56729     338.7477    266958.09   -79990.291     6927.943   -86918.234    5047.1843 
   94300    274.02808    -152.4864    267693.13   -79981.007    6965.0724    -86946.08    5059.9849 
   94350    275.17608   -452.77804     267885.9    -79998.61    6994.2515   -86992.862    5066.2613 
   94400    275.47055    6.3172179    267245.61   -79997.969    7001.7361   -86999.705    5062.2714 
   94450    273.44425    317.71901    266689.18   -79990.309     6950.233   -86940.542    5059.4771 
   94500    273.09849    210.15885    266767.43   -80016.734    6941.4447   -86958.179    5062.6337 
   94550    271.97214    37.214099    267184.23   -79998.037    6912.8159   -86910.853    5069.4417 
   94600     274.1185   -135.97351    267649.47   -79989.587    6967.3706   -86956.957    5078.6855 
   94650    269.37824   -48.676614    267798.46   -79998.249    6846.8858   -86845.134    5081.3122 
   94700    275.31286   -276.27982    267502.48   -79982.206    6997.7282   -86979.934    5080.1427 
   94750    275.72267    194.82105     266975.1   -80026.795    7008.1444   -87034.939      5076.93 
   94800    275.47826   -13.155498    266749.25   -80065.859    7001.9322   -87067.791    5076.5683 
   94850    272.02957    219.99866    266845.56   -80099.029    6914.2754   -87013.304    5081.0547 
   94900    271.83579   -151.58649    267202.42   -80100.479      6909.35   -87009.829    5089.9061 
   94950    274.78954    59.685162    267278.49   -80052.899    6984.4266   -87037.326    5095.7297 
   95000    268.16657   0.61734091    267082.77   -80115.117    6816.0882   -86931.205    5098.2851 
   95050     274.0208    28.646874    266777.82   -80131.753    6964.8873    -87096.64    5097.2125 
   95100     268.9045    46.718584    266499.35   -80091.351    6834.8445   -86926.196    5095.3854 
   95150    271.09282    159.40971    266583.66   -80063.144    6890.4657   -86953.609    5097.6002 
   95200    273.04031  -0.63129991    267289.53   -80079.725    6939.9658   -87019.691    5112.4807 
   95250    268.77697   -62.822294    267951.96   -80090.516    6831.6031    -86922.12    5125.2664 
   95300    272.01838   -163.71172    267999.88   -80107.071     6913.991   -87021.062    5126.4289 
   95350    269.87809   -59.180211    267273.66   -80100.365    6859.5906   -86959.956    5117.4711 
   95400    274.84924    55.772899    266386.27   -80055.539     6985.944   -87041.483    5108.3948 
   95450    273.35313     329.8483    266228.58   -80052.783    6947.9169     -87000.7    5108.3841 
   95500    273.66147    353.25964    266807.13   -80033.412    6955.7542   -86989.166    5119.2151 
   95550    273.40425   -285.18216    267700.61   -79982.655    6949.2163   -86931.871     5130.507 
   95600    276.66909   -357.55601    268175.23   -79994.874    7032.1998   -87027.073     5137.331 
   95650    272.70524    -209.3287    268086.54   -79957.657    6931.4491   -86889.106    5138.4491 
   95700    274.29118    68.375864    267551.12   -79952.706    6971.7597   -86924.465    5136.1641 
   95750    278.93998   -32.520806    266972.53   -79953.213    7089.9199   -87043.133    5129.6573 
   95800    276.66552    123.06935    266362.93   -79949.421    7032.1092   -86981.531    5125.8765 
   95850     278.0558    144.73445    266325.56   -79945.307    7067.4465   -87012.753    5130.5248 
   95900    277.16486    109.27183     266979.9   -79959.062    7044.8011   -87003.863    5140.3056 
   95950    271.49908   -320.82625    267845.84   -79940.698    6900.7918   -86841.489    5153.9957 
   96000    275.73899   -51.753968    267890.94   -79931.524    7008.5592   -86940.083    5155.0546 
   96050    276.39116   -292.71243    267528.93   -79923.463    7025.1355   -86948.598    5148.7754 
   96100    277.11448    6.4460661    267051.67   -79989.797    7043.5205   -87033.317    5146.4781 
   96150    275.65509    39.337974    266940.94    -80002.53    7006.4268   -87008.956    5149.1831 
   96200     272.4069   -244.82714    267201.82    -79988.91    6923.8662   -86912.777    5158.1923 
   96250    279.18652   -213.37479    267300.67   -80012.712    7096.1864   -87108.899    5161.8457 
   96300      273.296   -193.07014    267290.37   -79979.482    6946.4649   -86925.947    5164.5054 
   96350    275.39878    34.504532    267144.87   -80005.836    6999.9119   -87005.748    5163.9986 
   96400    276.53482    29.828812    267230.84   -80029.777    7028.7871   -87058.564    5164.8078 
   96450    274.65236  -0.91260988    267442.72   -79996.339    6980.9399   -86977.279    5171.8325 
   96500    277.69819   -100.66008    267454.69   -79984.945    7058.3568   -87043.302    5178.3109 
   96550    274.83014   -59.195029     267136.8    -80004.77    6985.4585   -86990.228     5174.388 
   96600     272.5727    250.45879    266776.56   -80063.607    6928.0804   -86991.688    5173.1734 
   96650     274.1575    162.37137    266926.63   -80087.024    6968.3619   -87055.386     5175.768 
   96700     273.3689   -91.930045    267187.38   -80092.656    6948.3177   -87040.974    5182.6579 
   96750    270.06911   -202.13036    267256.18   -80119.468    6864.4459   -86983.914    5187.8911 
   96800    271.96418   -192.95628    267163.69   -80141.666    6912.6136   -87054.279    5191.3239 
   96850    271.23382    86.243841    266904.08   -80123.639    6894.0497   -87017.689    5193.3071 
   96900    272.00887    225.89116    266993.14   -80104.306    6913.7493   -87018.055    5200.1628 
   96950    276.16716   -243.45278    267332.98   -80099.214    7019.4422   -87118.656    5206.8605 
   97000    266.63309   -164.10222    267496.62   -80022.943    6777.1112   -86800.054    5209.7214 
   97050     274.8767   -100.44683     267429.2   -80018.161    6986.6422   -87004.803    5211.5625 
   97100    274.48738    107.55685    267181.72   -80026.299    6976.7466   -87003.045    5210.7392 
   97150    275.43854   -100.65026    267194.87   -80061.878    7000.9224   -87062.801    5209.6288 
   97200    276.46396    204.86749     266911.3   -80039.841     7026.986   -87066.827    5204.9381 
   97250    273.25983    128.72499    266856.34   -80037.885    6945.5455    -86983.43    5205.9399 
   97300    274.47512   -74.617159    267025.26    -79989.97    6976.4351   -86966.405    5211.8904 
   97350     276.9515   -38.360966    267133.42   -79958.684    7039.3781   -86998.062    5215.0237 
   97400    274.36826    60.895227    267363.94    -79936.97    6973.7188   -86910.689     5220.602 
   97450    277.43898   -363.06385    267663.55     -79930.7    7051.7684   -86982.468    5227.4767 
   97500    274.24405    80.106295    267645.56   -79945.642    6970.5617   -86916.204    5228.9677 
   97550    278.44039   -121.39031    267287.94   -79943.466    7077.2217   -87020.687    5225.7531 
   97600    276.64246    284.27294     266798.7   -79927.547    7031.5231    -86959.07    5222.8842 
   97650     275.4709    102.21939    266849.25   -79911.084     7001.745   -86912.829    5226.6658 
   97700    278.20321   -46.185907    267276.18   -79912.795    7071.1933   -86983.988    5235.7198 
   97750     278.1913   -291.60265    267646.46   -79905.526    7070.8905   -86976.416    5241.4533 
   97800    274.27768    120.83824    267607.03   -79921.848    6971.4165   -86893.265    5241.3141 
   97850    274.07497    205.50479    267389.37   -79938.906    6966.2641    -86905.17     5238.539 
   97900    275.19045   -42.333266    267164.83   -79930.518    6994.6167   -86925.135     5239.113 
   97950    277.03808    263.07724    266915.28   -79924.989    7041.5787   -86966.568    5242.0774 
   98000    275.29604   -95.670306    267042.49   -79905.755    6997.3005   -86903.055    5250.2942 
   98050     272.2757    117.74759    267189.14    -79924.08    6920.5315   -86844.611     5255.293 
   98100    278.39621   -141.12437    267544.89   -79924.487    7076.0986   -87000.585     5262.278 
   98150    274.22177   -13.031955    267639.13   -79945.059    6969.9954   -86915.054    5267.9964 
   98200     278.7601   -139.44022    267533.14   -79918.571    7085.3479   -87003.919    5265.9448 
   98250    281.26516    -82.95748     267126.9   -79864.213    7149.0199   -87013.233    5267.3286 
   98300    275.76375    231.77947     266925.4   -79857.479    7009.1884   -86866.667    5271.6789 
   98350    280.72141    68.336391    267260.99   -79816.582    7135.1992   -86951.781    5278.9515 
   98400    278.42815   -107.45554    267773.61   -79846.922    7076.9105   -86923.832    5285.1861 
   98450    279.50604   -166.97497    268231.27   -79872.899    7104.3077   -86977.206     5293.801 
   98500    277.72724   -306.21033    268229.65   -79915.073    7059.0954   -86974.169    5293.5356 
   98550    278.16895   -216.67228    267653.79   -79910.961    7070.3224   -86981.284    5288.6683 
   98600    275.57538    272.53879     266922.2   -79906.499    7004.4007     -86910.9     5278.974 
   98650     279.3336     127.5181    266731.46   -79861.709    7099.9247   -86961.634      5278.34 
   98700     278.2138     78.41839     266948.3   -79882.826    7071.4624   -86954.289    5283.6864 
   98750    273.59251    4.0001677    267419.49   -79853.433    6954.0013   -86807.434    5294.1327 
   98800    274.62881   -176.47883    267885.19   -79867.104    6980.3413   -86847.446    5300.7984 
   98850    277.91451   -220.85049    267694.65   -79880.674    7063.8553   -86944.529    5297.9354 
   98900    278.28397    32.920801    267169.04   -79881.155    7073.2458   -86954.401    5291.1403 
   98950    282.06845    71.015062     266764.8   -79868.383    7169.4374    -87037.82    5290.2339 
   99000     278.2832    80.928731    266786.24   -79877.131    7073.2262   -86950.357    5294.7319 
   99050    274.55902    101.81558    267232.28   -79920.033    6978.5674     -86898.6    5300.8418 
   99100    276.91784   -77.322004    267782.61   -79878.103    7038.5224   -86916.625      5307.81 
   99150    277.11768   -187.55481    268058.77    -79940.64     7043.602   -86984.242    5310.8972 
   99200    270.62938   -227.19721     267655.2   -79997.197    6878.6863   -86875.883    5305.6872 
   99250    272.87155     36.96731    267071.51   -80026.412    6935.6763   -86962.088    5302.4902 
   99300    271.36385    226.50136    266708.95   -80044.985    6897.3547    -86942.34    5299.9676 
   99350     273.8342   -191.93841    266733.77   -80093.811    6960.1445   -87053.955    5301.4168 
   99400    271.31573    163.32089    266676.83   -80124.719    6896.1316   -87020.851     5300.921 
   99450    276.50385   -8.6927344    266793.24   -80116.566    7027.9998   -87144.566    5302.9602 
   99500    270.71403   -44.580646    267139.23   -80111.886    6880.8379   -86992.724    5307.1053 
   99550    270.11785   -10.914106    267437.05   -80134.906    6865.6845   -87000.591    5313.4399 
   99600    271.33856   -160.91934    267600.07   -80145.259    6896.7118   -87041.971    5316.7328 
   99650    274.51365    172.52007    266938.73   -80092.184    6977.4142   -87069.598    5309.0403 
   99700    273.47397    75.419265    266542.69   -80078.228    6950.9885   -87029.216    5305.1664 
   99750    270.68923    187.31177    266676.61   -80054.656    6880.2077   -86934.863    5312.0889 
   99800    276.67702   -110.57016    267104.57   -80075.279    7032.4014    -87107.68    5318.5321 
   99850    272.14083    132.64977    267051.69   -80110.084    6917.1034   -87027.187    5321.8342 
   99900    275.97262   -80.399414    266914.81   -80089.292    7014.4974    -87103.79    5320.2773 
   99950    272.78147     199.3872    266851.09   -80070.936    6933.3869   -87004.322    5322.1954 
  100000     272.1483   -157.90339    267324.25   -80075.669    6917.2934   -86992.963    5328.1284 
Loop time of 358.19 on 6 procs for 100000 steps with 8528 atoms

Performance: 241.212 ns/day, 0.099 hours/ns, 279.181 timesteps/s
99.6% CPU use with 6 MPI tasks x no OpenMP threads

MPI task timing breakdown:
Section |  min time  |  avg time  |  max time  |%varavg| %total
---------------------------------------------------------------
Pair    | 178.01     | 235.39     | 301.97     | 326.5 | 65.72
Neigh   | 31.83      | 37.48      | 41.638     |  65.0 | 10.46
Comm    | 8.3866     | 79.121     | 142.2      | 604.9 | 22.09
Output  | 0.13403    | 0.13588    | 0.14302    |   0.9 |  0.04
Modify  | 4.9586     | 5.0009     | 5.0539     |   1.7 |  1.40
Other   |            | 1.06       |            |       |  0.30

Nlocal:        1421.33 ave        1474 max        1368 min
Histogram: 1 1 0 0 1 0 1 1 0 1
Nghost:        2197.33 ave        2262 max        2137 min
Histogram: 1 1 0 0 1 0 1 1 0 1
Neighs:        0.00000 ave           0 max           0 min
Histogram: 6 0 0 0 0 0 0 0 0 0
FullNghs:      45238.3 ave       46859 max       43157 min
Histogram: 2 0 0 0 0 0 0 2 1 1

Total # of neighbors = 271430
Ave neighs/atom = 31.828096
Neighbor list builds = 20502
Dangerous builds = 0

# Create data file for import to other simulations
#
write_data data.${NAME}
write_data data.coexist_275K_1atm_mW
System init for write_data ...

Total wall time: 0:05:58
