LAMMPS data file via write_data, version 29 Oct 2020, timestep = 100000

8505 atoms
1 atom types

0.2870354261025767 104.49336420220897 xlo xhi
-0.4396041697024131 50.652528274839206 ylo yhi
-0.4396041697024131 50.652528274839206 zlo zhi

Masses

1 18.015

Atoms # atomic

2432 1 34.73218484857524 38.0809102310653 -0.394486756062336 0 0 1
2159 1 6.508920450957242 0.6401562664767038 2.347106534080879 0 0 0
2051 1 4.95316472552183 2.051021345645206 0.9208018806537037 0 0 1
2052 1 11.317806540020493 1.8223536833211402 0.9603564966645033 0 0 1
1673 1 9.804030092329848 3.2514245981510714 2.529856635987401 0 0 0
2106 1 12.872387945050585 0.3141372368650962 2.4685779742979896 0 0 0
2055 1 17.345950211164098 2.0190265659872075 0.8066309710012469 0 0 1
2856 1 19.340933725040596 0.3306939828989812 2.445062912756983 0 0 0
2789 1 23.93374510072872 1.7876706915333158 1.4152428294869184 0 0 1
2788 1 25.493258123150934 3.313903476440297 -0.22806258205608318 0 0 1
2784 1 28.259468777579187 0.6438288731962598 -0.03178405748271973 0 0 1
2859 1 28.323128230071283 3.2345960267837017 2.435605419471122 0 0 0
2790 1 30.159559677492442 1.9867542095046615 1.1188479694087916 0 0 1
2056 1 1.7421297554081774 5.055483947394816 0.903580826214418 0 0 1
2149 1 3.3808159910337476 3.6569087739109323 2.4085683411772054 0 0 0
2059 1 8.205985442558664 4.605742711173936 0.965160180619612 0 0 1
2158 1 6.782760917732594 6.024198248561633 2.4770919517401295 0 0 0
2062 1 14.442125175507101 4.910181838944257 0.9839638692888639 0 0 1
2103 1 15.9655016688187 3.622727788837329 2.538948077619006 0 0 0
2854 1 19.291184573252075 3.995199923332991 -0.26389667707137887 0 0 1
2794 1 20.892545215334007 5.2745816025135825 1.4732446283585765 0 0 1
2798 1 26.66687926620938 5.087048425300489 1.438228949633717 0 0 1
2797 1 28.676901299489497 6.294379846264137 -0.24069641913500242 0 0 1
2860 1 31.48360883833846 6.383408218219553 2.544536055863622 0 0 0
2799 1 33.236337432380736 4.9436070621545944 0.9636482559675934 0 0 1
2066 1 5.239328639492345 8.204409933398635 0.889561135506044 0 0 1
2068 1 11.268117338621655 8.051582560175238 0.6145178670175311 0 0 1
1379 1 9.778806878450045 9.572860744477845 2.5632981308254514 0 0 0
1507 1 13.083759635006368 6.725972010018523 2.4029262332886394 0 0 0
2070 1 17.3379849393856 8.130519695240952 0.9603587428851124 0 0 1
2766 1 19.149146902944167 6.911800625064955 2.404292516379881 0 0 0
2446 1 22.238817805094094 9.67104415946557 2.1926867187247487 0 0 0
2069 1 12.813517854363278 9.729487188427221 -0.41101642549269507 0 0 1
2254 1 24.795246589973893 6.782587829284865 2.4849465971413824 0 0 0
2802 1 23.609133921212567 8.478362613130003 0.07649750378195508 0 0 1
2849 1 28.339209880421848 9.75305746504001 2.2765506386959475 0 0 0
2803 1 30.158386546763158 8.143942555392114 1.141195603808029 0 0 1
2072 1 1.5270123722088 11.424143123537544 1.050842903920512 0 0 1
2116 1 3.553030443843215 10.070381204371706 2.395597363753212 0 0 0
2075 1 8.257749729350355 11.205463325756405 1.0364990501547973 0 0 1
2076 1 14.360589149477642 11.342275115271057 1.074230866360953 0 0 1
2146 1 19.078319112395867 12.88873499903141 2.2789842366004494 0 0 0
2808 1 20.945966884265946 11.700314112580013 0.6695118835157106 0 0 1
2810 1 26.801950316147973 11.538823835671623 0.7352398404205347 0 0 1
69 1 0.2940256742467544 19.122504644368263 9.612739680756963 0 0 0
2812 1 33.21562139093112 11.07361209712285 1.102030031518761 0 0 1
2128 1 0.8123254484382498 13.553551310292164 2.161241673943833 0 0 0
1625 1 6.5792983872738295 13.233134295057125 2.1536819205604982 0 0 0
2081 1 4.985342382807679 14.882290459217916 0.8599293760494073 0 0 1
257 1 0.3051057755766695 0.7536554098146155 9.663405114394479 0 0 0
2077 1 11.116055941852256 14.585112870509066 1.1572583201043285 0 0 1
2085 1 17.742213002552358 14.277703833488955 0.7720938310411514 0 0 1
2845 1 25.33411790607037 13.154368184988522 2.0116785699297517 0 0 0
2815 1 23.691695719598076 14.976530780116873 0.5110319391780141 0 0 1
2716 1 28.689354169738476 15.707871694387027 2.3076090061223717 0 0 0
2817 1 30.182066758976347 14.155261785221304 0.7853519311910433 0 0 1
2080 1 1.8547165477144791 17.746738357551596 1.0474670746191455 0 0 1
2154 1 3.523202261744882 16.347849787986064 2.5418339912761043 0 0 0
2090 1 8.223446952857401 17.84846404445062 1.010131688037702 0 0 1
1538 1 12.677215052717568 18.78191675093337 2.5673175667733585 0 0 0
2093 1 14.380114483730429 17.49597799429424 0.9664161198374515 0 0 1
2852 1 21.905750833170355 16.380717323792897 2.1768468985304636 0 0 0
2814 1 20.666201892190696 18.075086270758447 0.7645783151995538 0 0 1
2822 1 26.886094152626583 17.436208116744496 0.7300453936207445 0 0 1
2642 1 31.39424545725911 19.22457344667141 2.360126854223081 0 0 0
2385 1 34.84060336364555 16.27212948396518 2.468345083914302 0 0 0
2825 1 33.122557687797745 17.84009885563683 0.9905664633219287 0 0 1
2089 1 4.887135971631888 21.01678801019738 0.9117797641090484 0 0 1
2092 1 11.147460160540982 20.730794064142344 1.1670606204511036 0 0 1
2153 1 9.941083261292855 22.475853950627315 2.5343541705423562 0 0 0
2098 1 15.506686777172657 22.399369530881483 2.159034413992693 0 0 0
2095 1 17.500669631013505 20.865605681018593 1.0526999775264452 0 0 1
2842 1 22.293487850771033 22.230539694032345 2.47837653011969 0 0 0
2821 1 23.860595085850896 21.084463149070984 0.731243698007142 0 0 1
2206 1 25.628907513115273 19.420675534697626 2.5292977507675385 0 0 0
2508 1 28.60720892067943 22.27902981833252 2.2387326271505654 0 0 0
2831 1 29.917520355276654 20.590875618206958 0.4399970793118594 0 0 1
2212 1 34.52718111104624 22.381772269132092 2.312377954783498 0 0 0
2104 1 0.37825458429244063 22.574491300251406 -0.21607511136159654 0 0 1
2097 1 1.7749027129169255 24.485494313502713 1.107962706974473 0 0 1
2100 1 8.372607947474492 24.090333636035975 1.213094130353964 0 0 1
2054 1 12.755828949419051 25.624361275660938 2.4130116354809217 0 0 0
2101 1 14.248687542285124 24.209379921372165 0.9379948235423945 0 0 1
2828 1 20.57127156861049 23.81621588604883 0.9434680353936711 0 0 1
2197 1 25.515423019813504 25.61383900622817 2.1650158882387376 0 0 0
2832 1 27.058381709743887 23.786218595337182 0.5196151789372706 0 0 1
2807 1 32.79465575654968 23.864437848856387 0.83888814587553 0 0 1
1471 1 0.660330842427724 28.757544688810942 -0.26308545938226485 0 0 1
1932 1 5.257971170527628 27.265329406157434 1.112226004177165 0 0 1
1926 1 11.084618587208128 27.22610591227488 1.2106225586958093 0 0 1
1385 1 15.962649462092719 28.477768392219147 2.311513611667627 0 0 0
2049 1 17.49979313462794 26.99564484401631 1.0491616463771236 0 0 1
2850 1 21.688735829576093 28.17566832989421 2.483381508382017 0 0 0
2833 1 23.760481135404497 27.144887483769033 0.9161860709363503 0 0 1
2806 1 30.050040302141806 26.847016288895826 1.0123932523382453 0 0 1
2361 1 34.858593125222754 28.661923849696237 2.484363306752346 0 0 0
2064 1 2.1313056563422785 30.128471852011483 1.270616096115234 0 0 1
2038 1 8.3131435702012 30.147763032850932 1.2225375329285497 0 0 1
1757 1 9.940321648585831 31.808512050422536 -0.15245554311537113 0 0 1
2010 1 14.327865854642464 30.214300883274383 0.9071679257347005 0 0 1
1455 1 19.078325822510006 31.86096278344138 2.1776869139651707 0 0 0
2792 1 20.354196312844763 30.042349335507012 0.8832806279074463 0 0 1
2543 1 25.151231158467226 31.542063669810712 2.354298733702233 0 0 0
2804 1 26.88599898865445 30.125988618696656 0.8383396314045517 0 0 1
2744 1 34.75850668072631 31.58391274026679 -0.3362403797890985 0 0 1
2800 1 33.016565794084556 30.250375703667885 1.3133191551233847 0 0 1
2086 1 5.0025609313569745 33.11988887104329 1.2525614493115569 0 0 1
1958 1 6.6379512273801335 34.80437324107004 -0.33585746414252166 0 0 1
2087 1 11.224854971231395 33.81510485607732 1.1872661631159924 0 0 1
1611 1 13.040853112970717 32.13001703252743 2.5739298256234053 0 0 0
1519 1 15.866466106872478 35.18633761466257 2.3504710962259936 0 0 0
2024 1 17.3214127874876 33.49390717066924 0.7529187554520205 0 0 1
2827 1 24.00309999840394 33.30880258836243 0.9892733606890538 0 0 1
2220 1 22.42752479399389 35.11925125640322 2.299369921647372 0 0 0
2864 1 28.696297965991963 34.80334834052195 2.5425124448318006 0 0 0
2773 1 30.248657600832185 33.27841910945173 1.0120065562014924 0 0 1
1986 1 1.7032150449687864 36.22147305252363 0.9846982500464896 0 0 1
1814 1 3.26628055480674 38.13824749061646 -0.185262482697568 0 0 1
1918 1 8.040131417521405 36.3479022509542 1.5391055750950093 0 0 1
1853 1 14.34829866049156 37.06812091257939 0.8744086264236368 0 0 1
2203 1 19.14659752930583 37.86826693501168 2.521437943193576 0 0 0
2628 1 22.044120580185552 38.25647555989028 -0.33004528693025764 0 0 1
2698 1 20.461319390669097 36.4502392767631 0.7580971004100168 0 0 1
2238 1 25.42436652236287 38.019119700379854 2.566689814516432 0 0 0
2664 1 27.193610475234774 36.25721417612817 0.9604583474195016 0 0 1
2658 1 33.48569602236788 36.2021362724146 1.1342898872318066 0 0 1
2067 1 5.201442415722615 39.58982463672885 1.2620196355690474 0 0 1
2157 1 9.461719592153209 41.31493342177304 2.2397899932797176 0 0 0
2071 1 10.852381072671653 39.50200125998886 0.8805908286325317 0 0 1
2039 1 12.863034013069953 41.181796496367454 -0.2560219302403246 0 0 1
1965 1 17.538050268358994 39.596220198630064 1.0197099276979464 0 0 1
2862 1 22.33048772667306 41.230653926844354 2.4484415867618776 0 0 0
2609 1 23.869587365017274 39.56265881555042 0.8674084294498383 0 0 1
2295 1 28.311812977399235 41.30704392028785 2.512006775174562 0 0 0
2441 1 30.110498016695768 39.890007164772776 0.965798106738023 0 0 1
2843 1 34.88374498418618 41.25575560378209 2.137515199645268 0 0 0
1911 1 2.038380061534113 42.980939177821945 1.1708447350294011 0 0 1
3425 1 5.436839482541616 44.64666483970548 0.9938009018234659 1 1 0
1483 1 7.808477450381292 43.037936997952706 0.9773528082934038 0 0 1
1419 1 14.855302659376466 42.54118474048736 1.1851375849698402 0 0 1
2391 1 20.98109878513548 42.5418798184972 0.637315577360356 0 0 1
2355 1 26.79834329980817 42.56761439790521 0.9058079315729077 0 0 1
2326 1 32.94808528367778 42.807649255218145 0.8615255522475029 0 0 1
2160 1 0.3090892290495898 45.38439430569308 2.4770427935822643 0 -1 0
2033 1 4.772230453993539 47.00379413305776 0.6629504142565124 0 -1 1
2035 1 11.379674197049164 46.500313158682026 1.1080264862519225 0 -1 1
2037 1 18.00272831477633 46.673920936062615 0.813390802973776 0 -1 1
2775 1 23.768122426085846 46.61902956181283 1.0035195220117463 0 -1 1
2274 1 28.569238845124165 48.004782352046895 2.221125078116604 0 -1 0
2776 1 25.592276613589238 48.06692588589443 -0.32083683460964063 0 -1 1
2778 1 30.04483450964646 46.241965912134674 0.6719553718166476 0 -1 1
2040 1 1.8986344539194981 49.75290741315165 0.9880572846896707 0 -1 1
1825 1 3.376281057171942 48.50324674306471 2.5334220568018524 0 -1 0
2044 1 7.990211464342783 49.89323164546792 1.140121927394273 0 -1 1
2156 1 9.781036524717925 48.413689579855685 2.5693074621212144 0 -1 0
1939 1 12.699609891331855 48.50745229524117 -0.1336437845388863 0 -1 1
2045 1 14.514584022476587 49.9806713260676 0.8112444989421868 0 -1 1
2114 1 16.174192797214992 48.182983648573696 2.2581441931879898 0 -1 0
2840 1 22.246219504747845 48.20796191278038 2.245787700244739 0 -1 0
2782 1 20.585060896209665 49.7307658341607 0.9495925383160757 0 -1 1
2785 1 26.9169809403438 49.87400734684062 1.0254732269001747 0 -1 1
2851 1 31.8318664086854 0.011603073449716228 2.5607798422644117 0 0 0
2786 1 33.60011162396942 49.52136072800197 0.8628516458735362 0 -1 1
16 1 1.8272367445047852 2.168898216119499 4.918682915715156 0 0 0
18 1 7.845969123469933 2.2301476488338086 4.780675563638646 0 0 0
20 1 14.418843721898668 1.9254431052896734 4.804033515996478 0 0 0
759 1 20.769585295129307 1.973094395592288 4.987273281658369 0 0 0
763 1 26.987136535731466 2.03509512432761 5.053924064540724 0 0 0
764 1 33.308450945840846 1.7563482664323242 4.736524400686803 0 0 0
2824 1 25.315151903780436 28.614505155202284 -0.4348596700429325 0 0 1
24 1 5.0315972097538895 5.34805893051264 5.14105901404435 0 0 0
26 1 11.559815642296845 4.932731852728918 4.683679923136255 0 0 0
27 1 17.772425213116225 5.253199224325369 4.782643768747079 0 0 0
985 1 22.248566894044686 3.43906556169952 3.5028026280041265 0 0 0
769 1 23.852943264689994 5.27715157115128 5.18780580459086 0 0 0
771 1 30.03598428896168 4.8491071810311785 5.005199989542887 0 0 0
1371 1 34.735986228789876 3.506679040027226 3.4383885569178028 0 0 0
29 1 1.9951476585793941 8.141154327924541 4.587914609890787 0 0 0
32 1 8.0686523031044 8.312960954105192 4.585575439012359 0 0 0
33 1 14.836176627957915 8.053943909865245 4.832237854494488 0 0 0
774 1 20.76886223529823 7.959715440776877 4.646378582158311 0 0 0
778 1 26.726192391429112 8.286217448806168 4.327101911765859 0 0 0
779 1 33.26956157008351 7.6143949269683056 4.97960992699345 0 0 0
1372 1 34.705685553809445 9.429552519817332 3.3881863260808447 0 0 0
39 1 5.216830852576066 11.568383303701339 4.79758877891951 0 0 0
41 1 11.352808665374663 11.33201673207366 4.965938171011614 0 0 0
729 1 13.058706246939337 12.857443007520287 3.5280084836032817 0 0 0
737 1 16.069963919237118 9.822148294399417 3.482825944287968 0 0 0
44 1 17.641749433341374 11.604779882597887 4.92495400765861 0 0 0
783 1 23.998361981958293 11.157001147706525 4.348816541337739 0 0 0
785 1 30.35985946248423 11.00716026202113 4.939965991115801 0 0 0
47 1 1.9005736310359211 14.731665311652655 5.120795982084105 0 0 0
42 1 7.837161658110181 15.026864299730116 4.929515125078601 0 0 0
52 1 14.688803154755517 14.480978525937314 4.971082958623853 0 0 0
99 1 16.181900119529118 16.078427836618392 3.4320351926816115 0 0 0
787 1 20.64199204730021 14.808450969008883 4.644032851305584 0 0 0
791 1 27.10108417285814 14.148730026243733 4.595930745026439 0 0 0
1337 1 31.76856042945502 12.95696841279255 3.391724669796374 0 0 0
793 1 33.08236815966093 14.9895353718386 5.212045122149723 0 0 0
670 1 16.064130476850004 0.15522688231689485 25.08501528078294 0 0 0
57 1 5.013066487557865 18.214983903177732 4.729168570196986 0 0 0
48 1 9.636892206927294 16.44662124488314 3.393277047961509 0 0 0
50 1 11.465307559239525 17.390189385303106 5.069355266529803 0 0 0
54 1 17.061031142504362 17.914485364742863 4.960277236477415 0 0 0
796 1 23.857874494762424 17.61290978047659 4.72520575332279 0 0 0
798 1 30.130900701893328 17.298659349745403 4.550318128097512 0 0 0
56 1 1.6094836238142978 20.956011918267475 4.694277113044382 0 0 0
43 1 3.3199222475992207 22.262738107587534 3.4948318522163597 0 0 0
77 1 6.7987373543984 19.630881800468494 3.4023214494260237 0 0 0
59 1 8.174545942691953 21.209650797097417 5.117360768533842 0 0 0
60 1 14.406014668459646 20.63790274589452 4.524370739956527 0 0 0
739 1 19.09021784737807 19.391125657272898 3.528070423789262 0 0 0
801 1 20.61874698070682 20.79830076573493 4.780422924143493 0 0 0
802 1 27.293905956492043 20.98657440593277 4.611361323373726 0 0 0
805 1 33.193770188748935 20.856060490531956 4.6716751240397505 0 0 0
2276 1 19.400128659267907 9.622081486210785 -0.3647877699775385 0 0 1
64 1 5.102844375710107 23.935607102651925 4.903792963183466 0 0 0
396 1 6.8323395183254 25.531779767455713 3.5419887991046495 0 0 0
65 1 11.403048678936141 24.142203828358465 5.02445556682818 0 0 0
68 1 16.997903067889176 23.92853504075547 4.626200646740552 0 0 0
3 1 18.828940018536066 25.22818986247103 3.3668761957059945 0 0 0
804 1 23.885686976616586 23.94194750982475 4.5034506919165365 0 0 0
810 1 30.00526594747289 24.1857499232269 4.79745922807906 0 0 0
1055 1 31.795126445335132 25.631537783875846 3.523009055151628 0 0 0
76 1 2.028310465751067 27.167357484557346 5.057190866669714 0 0 0
327 1 3.5096679668258313 28.474462899719974 3.3962849008140723 0 0 0
72 1 8.64054257833561 27.254478159324883 4.956154405588936 0 0 0
74 1 14.29934429285978 27.083287212322364 4.728662777033831 0 0 0
808 1 20.478361610734726 26.594419932810613 4.955294249816839 0 0 0
809 1 26.63278785200037 27.266948535119223 4.686070643655665 0 0 0
1375 1 28.31622200354034 28.740715267614515 3.362599498724065 0 0 0
812 1 33.35862413963468 27.367590015517198 5.044289032519238 0 0 0
1826 1 12.97401620926199 35.38932467714825 -0.3966813611555642 0 0 1
78 1 4.65766506270856 30.335730743393558 5.110630031439773 0 0 0
339 1 6.765747360567363 31.78738393483433 3.4765040964360385 0 0 0
5 1 9.980094128761637 29.079766838472686 3.6472875094360067 0 0 0
80 1 11.516386408475753 30.56894151355288 5.002124608852254 0 0 0
83 1 17.617524063635535 29.900369353024363 4.803006007189481 0 0 0
817 1 23.808496077302273 29.449265324939788 4.350166835268818 0 0 0
819 1 29.602210804207655 30.523629968967352 5.1043031841645865 0 0 0
858 1 31.59629149277904 31.85091027324401 3.9419807885657283 0 0 0
85 1 1.6309757752500238 33.24916312206005 4.963272520585041 0 0 0
63 1 3.1398412918748773 34.79886715011726 3.409755181995621 0 0 0
88 1 8.394737428522728 33.30341146745168 4.947278951448897 0 0 0
456 1 9.835066347768144 34.97108483247473 3.8434692383178453 0 0 0
90 1 14.454360176018072 33.64924635252565 4.885474050576149 0 0 0
822 1 20.907463042105558 33.3436076435207 4.7232684836032055 0 0 0
825 1 26.859031769551667 33.54493547667727 4.876431125032451 0 0 0
827 1 33.11307526982553 33.334351987030445 5.376640657617436 0 0 0
797 1 34.5984482468288 34.71615775999047 3.497806940542737 0 0 0
94 1 4.721289288123256 36.55165747939599 4.938691596781624 0 0 0
388 1 6.646832242694404 37.97871090314749 3.4468736498603096 0 0 0
95 1 11.286156401077772 36.53212048218497 5.252848412561678 0 0 0
741 1 12.698085039689188 38.361494570882336 3.438421203030355 0 0 0
98 1 17.54555767193982 36.48631353200427 4.880691974665975 0 0 0
830 1 24.073382696408185 36.71108992448764 5.058514152652319 0 0 0
832 1 29.930315488703084 36.75063602073656 5.157346362656592 0 0 0
1373 1 31.68617795851568 37.79751370516822 3.578406530272586 0 0 0
841 1 34.82818282644389 38.44558409925185 5.9570172861941195 0 0 0
101 1 1.4761719904236568 39.63663805712086 4.941460615786591 0 0 0
66 1 3.4910452822070157 41.11636192962401 3.6092710830865204 0 0 0
104 1 8.310561404822831 39.54257959067179 4.853447012923943 0 0 0
106 1 14.29542263527388 39.73411622634781 4.972904123124287 0 0 0
30 1 16.21054606509083 41.157593879491664 3.7545386736477724 0 0 0
836 1 20.391199303546856 39.4595380262611 4.9381664524323865 0 0 0
837 1 27.107693698550065 39.5719624561367 4.816140046249499 0 0 0
839 1 33.040316676195104 39.88477798580928 4.68649049243195 0 0 0
569 1 16.1094076481944 48.194189891799404 22.441539892694358 0 -1 0
110 1 5.259450352085839 42.9690885552082 5.482317239930166 0 0 0
2961 1 8.630422383571307 42.74456163297195 4.74273775593556 1 1 -1
112 1 11.450975694964141 42.62485105257202 4.577194545640982 0 0 0
116 1 18.03213478487123 42.901597939140046 4.777503538206646 0 0 0
886 1 19.933640718421955 44.084956215397526 3.5906950140827902 0 -1 0
843 1 23.56272151069809 42.613353513365716 5.064639177552937 0 0 0
1377 1 25.098917056605064 44.37712312716298 3.5819219527910784 0 -1 0
845 1 29.804431716648352 42.82971670346645 4.8327195426824145 0 0 0
1376 1 31.62973366390482 44.187863760223024 3.501164136062937 0 -1 0
1 1 2.13856476947846 46.77048871013147 4.759053838601502 0 -1 0
328 1 6.656967715548233 45.32674471622095 3.5694981949688405 0 -1 0
6 1 8.300318694357495 46.95077974784562 5.045006460914695 0 -1 0
734 1 13.242692905638306 45.38844592293328 3.389387852867383 0 -1 0
8 1 14.53265919344807 47.08847371853734 4.949920256353373 0 -1 0
743 1 20.71161629573599 46.84169179735625 5.179110662654379 0 -1 0
747 1 27.14730042084116 46.66499730436827 4.801435009034909 0 -1 0
748 1 33.45932722129951 46.23104155431139 4.8317296546015145 0 -1 0
1374 1 34.936614408407074 47.98211480309081 3.3959218677164706 0 -1 0
727 1 0.36315204016334973 0.10652685959728103 3.6236515163084917 0 0 0
11 1 4.937764271803115 50.141997207276276 4.77822526977479 0 -1 0
13 1 11.195310938510127 50.06964988624863 5.081531149317086 0 -1 0
14 1 17.679765855252736 49.5236699822559 4.755745452067768 0 -1 0
846 1 25.365890766334743 -0.016344005412741336 3.5275066575852674 0 0 0
752 1 23.523848378418275 49.61350841597342 5.097515853575514 0 -1 0
753 1 30.242904846843835 49.33436692735708 4.612840431097771 0 -1 0
10 1 3.4841729559444037 0.4610844757969086 6.341057491474938 0 0 0
132 1 4.933202314751523 1.855176199116222 8.287636906254567 0 0 0
12 1 9.333359958020178 0.30422610848877685 6.45653855816646 0 0 0
134 1 11.327998983188294 1.8623354843493805 8.072257544412649 0 0 0
136 1 17.598656082015996 2.200718592184354 7.851453406724035 0 0 0
15 1 16.21431184194648 0.37973686036425536 6.233503906125813 0 0 0
750 1 22.250481169248914 0.6672309270927981 6.574693750719294 0 0 0
866 1 24.579640345292233 1.6959149027484748 7.895445189530033 0 0 0
868 1 30.089359428748242 1.7250547806204546 8.259222977158737 0 0 0
765 1 31.639904977420006 2.9429283785303544 6.409918571407224 0 0 0
754 1 28.756685357538757 0.31648026042690325 6.4400420164119 0 0 0
266 1 0.6541152824491496 3.8980079873511784 6.510561379009286 0 0 0
138 1 1.663457034927625 5.395027652346425 8.307476615374345 0 0 0
17 1 6.4788905762923665 3.9525358032445688 6.6185949491275995 0 0 0
140 1 8.334645677405199 5.2613358114773385 8.078397406238691 0 0 0
21 1 13.064695435324273 3.444535241608514 6.54256736144269 0 0 0
141 1 14.642541297230162 5.081900402041772 8.292209313601218 0 0 0
789 1 19.3139862264799 3.737463646805879 6.436895913125422 0 0 0
870 1 20.686918509487636 4.905113497522226 8.004378065487929 0 0 0
768 1 22.05979552277225 6.385626937813846 6.430035738764349 0 0 0
762 1 25.629772945166643 3.707417074730663 6.6678482284302625 0 0 0
872 1 27.00748607109705 5.391440810053718 8.209614795180205 0 0 0
873 1 32.862922653476886 4.881906023523998 7.926293333137076 0 0 0
773 1 34.941200414487675 6.430035634854574 6.630669616187345 0 0 0
22 1 3.210611733405787 6.738585306545315 6.825427671429251 0 0 0
144 1 5.237883170488863 8.39896055568645 8.17772858853675 0 0 0
25 1 10.039332634252865 6.652719888840667 6.146905080054752 0 0 0
146 1 11.398608823357026 8.271281250941893 8.108914975401222 0 0 0
34 1 13.240665717988625 9.453498737577684 6.51697200326908 0 0 0
28 1 16.162135968143005 6.567487331828697 6.486210060761974 0 0 0
148 1 17.755826123854714 8.183058832880215 7.943161719161372 0 0 0
876 1 23.588992147930465 8.139347420624162 8.124763867060034 0 0 0
777 1 25.52044270758452 9.731379179244847 6.470342573420016 0 0 0
770 1 28.563121005203193 6.763999939024866 6.3738321917347704 0 0 0
878 1 30.34208549817969 8.309522464616327 8.141898865669537 0 0 0
780 1 31.898474979522693 9.400078447611952 6.413750439328531 0 0 0
149 1 2.061102409317567 11.595379815713427 7.65672370091421 0 0 0
5686 1 0.5260815052571111 27.852538246783553 19.634256455049332 1 3 -1
31 1 6.7405536109658035 10.081890505106186 6.408978795339227 0 0 0
152 1 8.30360898990195 11.73278061653694 8.193837178436006 0 0 0
153 1 14.78088376686923 11.383906469833812 8.150229946390334 0 0 0
782 1 22.21636846590778 12.566954395414152 6.009410689588756 0 0 0
833 1 19.283947134234893 10.001608690245288 6.160688666550696 0 0 0
881 1 20.687228404943554 11.414707862930326 7.711093946994733 0 0 0
883 1 27.046206890117407 11.314608105008672 7.754099836257414 0 0 0
784 1 28.854095577368017 12.552383140750814 6.311309715605045 0 0 0
884 1 33.1558386264393 11.353705546629026 7.996835754695308 0 0 0
36 1 3.6287829203456217 13.252648730475267 6.39203354495116 0 0 0
157 1 4.9443914442167065 14.915833653113088 8.365992523686065 0 0 0
40 1 9.556133975860266 13.252675090144141 6.404753805976821 0 0 0
159 1 11.648951590779815 14.347503879543938 7.941293578532928 0 0 0
53 1 13.023741799275115 15.818258555450392 6.564943946264614 0 0 0
45 1 16.194367499274897 13.075264153026119 6.478026092184699 0 0 0
669 1 18.991252954298588 12.969625542758022 9.012534185787011 0 0 0
160 1 17.339220870973506 14.89205793759635 7.80746531527217 0 0 0
887 1 22.194414965710717 15.575214606978815 9.026496124947505 0 0 0
888 1 23.777353293625442 14.416367658016412 7.09471991333817 0 0 0
790 1 25.547079992791474 15.66324823379647 6.078208540531987 0 0 0
890 1 29.91895763987692 14.683641126060463 8.237753712091857 0 0 0
794 1 31.55345284266371 15.968925980176344 6.839586628569315 0 0 0
570 1 17.547013225040384 49.9414438543708 23.656844277902998 0 -1 0
156 1 1.6404021437211544 17.82524054329058 7.73653272758288 0 0 0
49 1 6.249953425646404 16.73377413981392 6.535179274637806 0 0 0
166 1 8.001313272055505 17.765629959402563 8.084075828152367 0 0 0
165 1 9.319799788522296 19.236037538134365 6.456876618031112 0 0 0
167 1 14.14482666408115 17.810914716338164 7.997470199673435 0 0 0
433 1 18.931089530377847 16.2473438598254 6.337545442279257 0 0 0
892 1 20.51296003175376 17.69074894609656 7.770825839999302 0 0 0
795 1 22.250342989331074 19.16176224367661 6.457908403496319 0 0 0
894 1 25.230939044580715 19.104269191032653 9.171981048416223 0 0 0
896 1 26.940888823887608 17.47899428259169 7.457160746717646 0 0 0
799 1 28.742359754961996 19.188207175833533 6.05600087148881 0 0 0
897 1 32.9090972284277 17.935468972914844 7.997205116075918 0 0 0
800 1 34.62696539722669 19.287672195202543 6.313803151630004 0 0 0
55 1 3.4916087653473444 19.583096982353478 6.33818271241697 0 0 0
164 1 5.1903885752476855 20.91204327154344 8.256461566919464 0 0 0
173 1 11.021583609948472 20.836171710484628 7.940045084203547 0 0 0
62 1 15.80678635708534 19.363604380303062 6.4860491570808785 0 0 0
67 1 12.968556164302766 22.25704867443176 6.241789104887437 0 0 0
169 1 17.421428992722426 20.790070576999984 7.612136690703474 0 0 0
895 1 23.821877277610614 20.959668822704714 7.820927141406008 0 0 0
901 1 30.137510698872 21.109657819284557 8.250886261848855 0 0 0
171 1 1.7262094415728944 23.940271244802073 8.344671016387384 0 0 0
70 1 3.3988980256588297 25.242848418649498 6.486606228218055 0 0 0
172 1 6.735026768982962 22.585961151671743 6.711722292034658 0 0 0
175 1 8.23981522411043 24.194015339997932 8.43067620696714 0 0 0
176 1 14.449246834895071 23.807992070281134 8.10702678486253 0 0 0
75 1 15.7331578192189 25.42775778194519 6.37880259379359 0 0 0
736 1 19.048547182622038 22.735704196592142 6.16772567401047 0 0 0
900 1 20.471229201961762 24.082141499746783 8.015140307636308 0 0 0
807 1 22.45222577533211 25.679147563822468 6.243728270871498 0 0 0
803 1 25.53526690486952 22.548324506358725 6.017610312835855 0 0 0
903 1 26.991405942902716 24.08397341183645 7.730047473504374 0 0 0
806 1 31.85800294641324 22.588703096799666 6.457174618625278 0 0 0
904 1 33.31355707365506 23.925609019575724 8.112013796192384 0 0 0
102 1 0.5195188325317233 28.680994458127422 6.476893866544064 0 0 0
180 1 4.990640726074242 26.953462561954304 8.13107201728472 0 0 0
73 1 9.451830526055804 25.770500467631322 6.7179731070992235 0 0 0
79 1 6.645961683713226 28.746379334705242 6.675963102606754 0 0 0
181 1 11.117476072532135 27.29136482981 8.327797069950345 0 0 0
82 1 12.56177203875786 28.551582515806064 6.133188792014626 0 0 0
183 1 17.59945316750702 26.76064940029494 7.93464874603203 0 0 0
113 1 18.923192577728106 28.463818816504368 6.601816434728031 0 0 0
906 1 24.11853838752632 27.041552669708086 8.111719463415847 0 0 0
818 1 25.24908786886812 28.65818250376107 6.416839965593683 0 0 0
811 1 28.53059470929138 25.790499058313042 6.070423626524387 0 0 0
907 1 30.002357004443066 27.030417081433214 8.106232695194889 0 0 0
814 1 34.76906906916581 25.8720352496069 6.883855134693429 0 0 0
186 1 1.837057786607515 30.300812723459178 8.17971316930777 0 0 0
187 1 8.073070273877399 30.27846778372944 8.497019527866211 0 0 0
89 1 9.606017261787299 31.785571615435927 6.657418657595885 0 0 0
189 1 14.45629448470871 30.083926604237554 8.172606926469577 0 0 0
91 1 16.078237339293416 31.667954615658296 6.259291265605872 0 0 0
911 1 22.30320102194707 29.04979792725022 9.019892722380803 0 0 0
910 1 20.54893334021087 30.32399741908602 7.8346892361430385 0 0 0
823 1 22.46339616434002 31.313301556020182 6.146148344077356 0 0 0
912 1 26.68872905378867 30.57590365745758 7.8354859640702585 0 0 0
826 1 28.288321565412257 32.04316420342628 6.527861232976398 0 0 0
820 1 31.80125842592698 28.92174354726527 6.5669326000281405 0 0 0
914 1 33.31147509100325 30.34914787636784 8.240382422554712 0 0 0
86 1 3.4260002400497984 32.13052649591693 6.661683775246311 0 0 0
192 1 4.730990809630369 33.522375457881445 8.19807106190277 0 0 0
199 1 6.4276668352697035 34.989719506418815 6.368956418908397 0 0 0
194 1 11.109840930846108 33.265247558617375 8.244780603567246 0 0 0
97 1 12.81177663164653 34.91739789042219 6.889903931980262 0 0 0
196 1 17.611483888895528 33.463558420413136 8.244326986860536 0 0 0
792 1 19.338841927890588 35.01252395601209 6.504191577003011 0 0 0
917 1 24.025469602459612 33.63993751423779 8.203817654914289 0 0 0
831 1 25.293914773104383 35.01577187519996 6.434713194715151 0 0 0
919 1 29.91046243686229 33.556837506617505 8.248581993427617 0 0 0
834 1 31.733428491997046 35.265366007711805 6.529939547972091 0 0 0
197 1 1.7233375878022132 36.85830344289781 8.214133674481449 0 0 0
100 1 3.0351665375518144 38.07977347278179 6.148037061141229 0 0 0
200 1 8.028836857980103 36.603345033137394 8.113826234460635 0 0 0
105 1 9.671674183646184 38.15971378245134 6.692755194732523 0 0 0
202 1 14.724742945488305 36.72119175042241 8.008544679111482 0 0 0
107 1 15.940426273586768 37.94590298264582 6.429113104413811 0 0 0
922 1 20.404404966690702 37.04804635051446 8.213893675305545 0 0 0
835 1 22.376902140073618 38.34097073382429 6.403170262394373 0 0 0
923 1 27.054509426967705 36.52726263875832 7.761519181086614 0 0 0
838 1 28.48665017762476 38.4727805359327 6.386379823262023 0 0 0
925 1 33.556828888528806 36.8253060855646 7.823117897735587 0 0 0
206 1 4.960556070175072 40.12609286624718 8.002257848610768 0 0 0
109 1 6.931535804843177 41.12453995840124 6.584208525958027 0 0 0
207 1 11.40958511942533 39.76877338690818 7.789303861574588 0 0 0
114 1 12.959757739182281 41.55675996725854 6.403229449771687 0 0 0