LAMMPS data file via write_data, version 29 Oct 2020, timestep = 200000

4608 atoms
1 atom types

-0.4298923848850862 53.82989238488551 xlo xhi
-0.04178503149310231 50.94890503149135 ylo yhi
-0.04178503149310231 50.94890503149135 zlo zhi

Masses

1 18.015

Atoms # atomic

1316 1 0.4785980528141691 35.08433616596578 1.9552108312581764 1 -1 1
756 1 5.401412496707514 1.5699700617157286 4.754205240862289 1 1 1
1652 1 6.260884482610354 1.163303108667166 1.8157616964372092 0 1 0
3418 1 0.5755449442861542 3.169595538225085 1.2102796282013835 2 1 0
105 1 -0.05702378617768272 22.596293543080876 9.628450140258364 0 1 -1
4561 1 16.78948489590986 3.747109218897185 0.5530641073447785 1 1 1
82 1 4.615390969977837 15.1159911506167 1.9873051446072578 0 0 0
1477 1 0.04579256418655181 27.60168983290292 16.475005556863206 0 0 1
3574 1 0.6147580501855379 45.33293858174481 6.666729791188488 1 0 1
395 1 12.479679202105876 35.09352629249486 24.472875348286603 0 1 -1
3240 1 8.467913368226363 40.11788573102143 21.973736488451543 1 0 0
4521 1 10.305870352279511 4.304341124062812 1.5026819377297467 0 -1 1
2390 1 -0.2493251223305852 1.6488885608453427 12.705242101635319 0 0 0
1947 1 13.649970332049921 0.18454309906930702 24.79199536009519 0 0 0
3312 1 2.454467709820819 9.512973388745642 3.0816603566614287 0 -1 -1
1364 1 15.572959533565808 31.328462800827328 24.635035382376675 -1 0 0
1222 1 14.427654781560333 7.646579168462819 2.181017742066125 1 1 1
2665 1 17.146708809094456 27.0464442898678 22.692774485807973 0 0 -1
2369 1 4.057699414549542 26.695814910176427 9.530676913423902 2 0 0
3344 1 5.702059566604519 26.055010003479723 0.3169791022486733 0 0 0
3681 1 2.3715931466374114 38.40114305460702 21.79665045880709 0 -2 1
4169 1 13.307078049855848 8.683455759554409 4.621268390024396 0 1 0
1426 1 7.908264760268986 7.81820270680153 2.4029503379196226 0 0 1
3241 1 13.773241254208576 11.441338786640605 3.794722230200579 2 0 0
1851 1 5.463397158527286 37.1190856985469 23.528572130409497 0 0 -1
1449 1 -0.030845558026838693 4.569697017397783 12.070133149076446 1 1 1
98 1 -0.20548662113533311 30.78850478416495 23.478077810643967 0 0 0
3901 1 3.8197058652511613 27.419756476453678 24.90795647239509 1 -1 -1
1119 1 2.796871231498783 30.057323515239446 24.690385827698968 0 0 1
2183 1 12.127117728298039 15.369281203078186 3.16870714127745 1 1 1
3025 1 -0.16581004429235985 20.466888032768868 14.229548957058444 0 -1 0
2529 1 2.238503712986048 16.186148064072228 16.594427440940137 1 -1 0
590 1 4.006363175975592 13.71233822046152 4.371846138063104 0 0 1
110 1 -0.4242127249908471 1.8959490541592081 25.394380740899155 0 2 0
2490 1 17.230945585173288 7.8129197507990815 2.5053933450796335 0 0 0
1761 1 7.903199063725301 19.2196522462196 1.6783443615930622 0 1 1
581 1 14.513299651774258 9.845734025593885 23.648577940976807 0 1 1
2970 1 2.5854486237059935 32.97896739206881 2.3922682872515235 1 0 1
1747 1 -0.40130469986342376 26.666592555168442 10.880838021542042 0 0 0
1684 1 7.77960100979055 20.98529141758597 4.22944970838118 1 0 0
2712 1 15.887189084090444 25.25926395362022 13.313901802424402 0 -1 1
769 1 17.48841239006927 43.97752890924757 12.299991841287149 0 -1 0
1503 1 11.981432707643698 11.362495022701616 1.652321629067957 0 1 1
2901 1 1.5454633976923828 22.339130048731203 2.908024842050473 0 0 1
2658 1 1.9414793267955677 24.810311327590913 4.170424514932172 1 -1 1
2090 1 5.7534695384151 23.63169998335605 2.5455705821426107 -1 0 0
2865 1 1.3142469753075434 28.662799929886447 2.7266988248416446 0 0 1
1571 1 1.0654813855917238 15.188884556565872 9.612405489518489 1 0 0
4203 1 0.7502603544158257 42.47979571216641 2.6732721359231095 2 -1 0
2790 1 1.2703001778393934 1.092246722392759 3.1173147951167115 1 1 -1
335 1 0.41420156056383006 31.78852957105521 14.05399417551228 0 1 0
389 1 0.297973883418437 21.085331764951555 4.886064130311785 2 1 0
1026 1 9.930419159133956 27.336079312336352 2.546487168720809 0 0 0
288 1 8.440107652324464 23.103957745168547 1.8310255970699392 0 0 1
3672 1 14.15110071596748 25.587143787704925 0.2950658673723167 2 0 0
512 1 0.007110822041873965 38.919993390096735 1.4871001311611154 0 0 -1
4246 1 5.425048668134919 1.2948359422365467 20.508194195566755 2 0 0
3114 1 11.36981566401873 25.030654713032337 1.2432241845545424 1 0 1
2154 1 0.2608138911344857 0.4678613371920093 10.147231464239878 1 -1 -1
1796 1 12.699363319463126 29.629204500849163 1.422374835569346 0 -1 1
3391 1 0.9840190587061708 39.47320214891809 4.243764336752417 0 2 1
3182 1 15.422893576107443 39.24706603855569 5.720725293397294 0 -1 0
25 1 6.199300680748166 30.693826195375383 4.691792256904275 0 0 1
668 1 11.64362872789123 36.42659982936934 8.388165735069032 1 0 1
4142 1 9.89638215329958 30.669534871722444 3.207972115832187 0 0 0
3955 1 10.090858706697542 33.46259286818423 5.94709390505763 1 0 0
99 1 8.888169745951274 42.21024548408121 1.6972071545960967 0 0 0
697 1 14.126893248391605 33.738983871268715 2.2337602942770447 1 -1 0
3349 1 4.549891587821935 34.882342565888365 0.459641886443807 1 -1 1
1775 1 3.93794583036225 50.80883829230592 0.90053420571422 1 1 -1
3902 1 4.16949857957332 35.071488713748025 3.7459389554737452 0 0 1
3225 1 6.273380368639755 37.0326828149167 2.453659173225775 1 0 0
1215 1 8.33264160912363 32.95645831951623 3.3259423572795286 1 0 1
2585 1 9.161141327337635 47.04183221265444 23.76178749952158 0 0 0
3824 1 13.087167837229083 31.85702311422803 6.635471747189676 1 -1 2
3508 1 15.060586412220664 38.186462690794926 3.066501506822107 0 -1 0
806 1 4.815464861142209 40.385974196702605 3.1583923322861516 1 0 1
1961 1 2.3208014319143455 48.27684957188767 0.2874562974634688 1 1 0
1001 1 10.898608728075306 35.5779969686388 3.765503519822612 1 -1 0
3328 1 9.098406218279857 39.50879890774961 3.085805222385874 2 -1 1
1723 1 8.598440432502606 38.87778194266498 0.5411189989508326 0 0 1
70 1 16.919877663790775 13.6825435216145 24.524882946247583 0 0 1
355 1 7.288469528353669 44.67279695424101 1.4050980745728 0 0 0
2428 1 11.827719431023562 40.294255529095025 3.591351479362633 1 0 -1
4228 1 16.692183045425953 33.288550582064744 3.5649938420077594 1 0 1
220 1 6.489915161054267 31.579335305141655 23.915332804870523 0 1 -1
4583 1 0.45852234642589806 41.81255621721448 14.490129328796105 1 -1 2
2472 1 3.731021366492003 50.2031692749902 3.713540932229989 1 0 1
1162 1 1.0525354295413896 24.78492924080544 13.567667690687202 0 0 1
211 1 15.734499552752055 10.675402792620199 1.5366796982518958 0 0 1
3117 1 16.246651818728136 46.8015801195676 1.6054373408406832 0 0 -1
1040 1 17.464468344594955 18.743163749261825 5.22564417184024 -1 -1 0
1698 1 10.894235389187198 4.457302398678043 25.09305372015948 1 1 -1
2469 1 15.42276059923075 19.66586496757998 0.4629510314714218 0 1 0
4042 1 15.334240065055342 29.539205735152493 0.7271325725975504 0 0 2
3832 1 11.55155832721717 49.38214514354664 2.379037066751987 2 0 0
3286 1 8.805238869167047 49.41971552572565 4.219150376782918 1 -1 0
338 1 -0.3587838254527327 4.31094934504602 23.71810538786435 1 2 0
2437 1 1.764955832450688 31.081691319996548 0.3252269932590309 -1 0 1
4085 1 0.042340563403431064 22.74803280829637 18.645034575740485 0 0 1
320 1 2.3157644585711052 47.27769408864262 5.9746987527388296 -1 0 0
3891 1 16.697038113628604 45.58474953808046 18.62975135986651 1 -1 0
3139 1 5.888390070708458 0.9137062910173148 7.1729403403492205 1 1 0
3045 1 9.965566301791766 2.63597173742216 4.107712818611954 1 1 0
4205 1 9.178977486491325 4.965857205621264 5.296103917172966 1 -2 0
1834 1 12.732780404255013 2.1797522795780075 4.171594488450243 1 1 0
3800 1 15.751002030797217 41.327857188350265 24.605856367890947 -1 0 0
1626 1 2.855874561628712 2.277830277624695 5.712684364840819 1 0 1
3165 1 0.23570450638264917 10.297606304640615 1.2099423314039404 2 0 -2
2640 1 13.435890415987437 4.723934381288261 5.460780949605681 1 1 0
2560 1 17.33675763503572 38.374092724189495 20.91555228426629 1 -1 0
3496 1 2.4573906209000658 6.8020834642707975 3.074400923529534 2 0 1
552 1 7.11965058435298 5.775917656344859 3.9894131174088567 -1 0 -1
3465 1 4.62239359811449 4.1107867322998635 3.6635228572114324 2 1 0
1527 1 5.721208773917895 6.665432589680499 6.4302446138107365 -1 1 1
3200 1 11.369442693102354 7.029032085482157 5.542843692975192 1 1 0
4239 1 15.37043309882739 7.744791019735706 6.185240076185125 0 0 -1
4323 1 11.264665702567829 41.28949069720565 22.41708550728152 0 0 0
2550 1 11.132549296301594 48.939724026424415 24.483021609347087 0 0 0
3374 1 3.124360476993704 9.46743388346246 5.912780053316653 1 0 0
1921 1 5.858191968376458 10.463973580637747 5.617816395191353 1 1 1
1870 1 7.287714173373427 8.591295615775817 6.854642478974246 1 0 0
4314 1 9.586947689633565 14.246159441267398 5.831389910813498 0 0 1
1448 1 16.148008085284026 12.048559901494466 5.16746789552839 1 0 1
1056 1 9.540044591104882 16.017940649818293 2.223647864773135 0 0 -1
176 1 15.284475963030792 34.8852527929738 24.36920112501377 0 -1 -1
1762 1 1.6379552079990836 11.779386916684292 4.496169438057362 0 -1 0
2337 1 4.182950101455791 11.952984206544217 1.8948988238759465 0 2 1
3190 1 6.977756482823439 11.24955494232578 3.61610964457366 1 -1 0
3529 1 9.570407294029271 11.885130113844978 3.888049499906015 1 -1 0
853 1 8.972262836541217 13.530268306957664 1.485936267659111 1 0 0
200 1 17.338312195056517 10.387696821153845 21.466299535064174 0 1 1
1267 1 15.129496483248968 16.882715445373442 0.37517343098056516 0 -1 0
976 1 1.465405319092149 16.003534262084553 2.2521682312794846 0 1 0
4540 1 6.406113895643971 17.878328487136272 3.4429882497764353 1 0 0
2926 1 3.6343812259063357 18.339874088917565 3.0861077263909196 1 1 1
913 1 12.707738006558333 18.05029485908407 6.343021936853237 0 0 1
3616 1 14.881996752357754 18.860350266265236 4.621773368466174 0 1 0
2082 1 0.07660110725028113 45.93868741306787 10.673509695808766 0 -1 -1
1421 1 -0.004494655708457418 3.2860152890103755 18.93770600690482 0 0 -1
1726 1 3.9641664583033727 21.178139100215727 2.1007254888547555 1 1 0
4095 1 2.523232165159255 21.036200919055165 6.434397100119642 1 -1 1
4270 1 7.875246295235712 18.29876071974006 5.767703566459019 0 0 1
1903 1 14.37317234791544 20.82771689206686 2.8905579365981238 0 1 -1
1252 1 11.621506147794294 19.41554803155012 3.664803430894069 0 0 0
2182 1 17.454046522130717 42.52995706613406 15.546796122812191 0 0 0
2176 1 11.711050118711148 22.423055621026602 2.3653721627534345 -1 0 1
3609 1 5.730439391552458 40.0722864604859 23.375377404226697 1 0 1
4490 1 2.5589083781772377 24.05601082164347 6.964646526841677 1 0 0
957 1 11.968865895943276 20.72971041480572 7.509644005571397 0 0 1
3939 1 10.496160974440246 21.695334670492482 5.1345724723235024 1 1 2
3356 1 0.26627076404688077 44.07847171762327 23.395708102525088 2 -1 -1
3977 1 3.6969584902759696 30.038975638822876 6.103085285805802 0 0 0
4077 1 10.220901479609703 6.949638599441061 1.1244474939067837 0 2 0
2281 1 17.38488544072158 6.616505380272071 -0.013482793558013115 1 1 2
2834 1 5.028762991120917 21.14986105168971 4.9607053985549205 0 -1 1
206 1 7.086249053489484 26.78814207194513 3.1282515452380704 1 0 0
4276 1 10.150888200697985 25.514463382070016 5.178231989999268 1 0 2
3138 1 7.782055251780548 23.71833772446223 6.180207545949852 1 -1 0
3577 1 -0.412731064753039 41.314937872158055 23.640897563912308 2 0 0
1464 1 2.6935042406649754 26.48403170638811 2.3183041000370883 0 1 0
783 1 16.17701050765667 2.587968719326464 11.76701050446749 -1 1 1
285 1 8.532488974447585 27.886641035367155 12.123556167120016 0 0 -1
3419 1 12.498432760925386 28.876098735512542 4.13750772593494 2 0 0
260 1 13.383766910180332 26.352002275562224 5.271564792588042 -1 0 0
3176 1 1.8426618127237413 31.204789284443358 4.367393627000586 1 1 1
1337 1 8.222194373051959 28.947729885959646 5.569225123280817 0 0 0
956 1 10.837103347448215 30.320818930795 5.9778381127301445 -1 0 0
136 1 17.472289192947784 50.75057061683697 7.94192050773401 0 -1 1
4112 1 12.79150389840391 34.135024347694625 4.59363807052688 1 0 1
646 1 3.115536661578446 42.51402851391718 22.971027636896732 1 -2 -1
3673 1 8.277041326566108 32.822337682604044 8.926221051357022 0 1 0
3333 1 8.507564709685404 35.737416175131415 10.386976245644007 0 -1 0
1137 1 8.019122570628303 38.70696547903165 5.627392516044126 -1 -1 0
3914 1 15.692638450655704 5.329398189653587 12.341721414423375 0 1 0
1925 1 13.993286167039154 45.64643365271358 22.58352270033809 1 1 0
3095 1 9.458662299277348 8.910588909615244 4.56716718873966 2 -1 0
3987 1 4.240452514191044 40.99916670211864 7.334254854341953 1 -1 1
3125 1 6.640471897332401 42.07488971537626 3.50098912618916 1 0 0
91 1 8.182147286278651 35.56735712627254 7.2767802212332215 0 0 -1
2072 1 15.006903166374618 41.95549039256798 4.769899843610712 2 2 -1
272 1 8.169422351716761 44.329096814410704 6.149637784822685 0 -1 0
4343 1 0.5179841336871658 7.415722084971525 19.245479705782774 1 0 0
1742 1 13.855581809989394 36.85127537719569 21.66563731119428 0 0 -1
881 1 1.4912795908274943 44.98996462825842 1.6522859554649345 0 -1 1
1984 1 2.9889821815038706 41.60211515234843 4.649784665538309 0 -1 0
44 1 3.095348058905133 40.71490566471529 0.9320681607770092 0 -1 1
693 1 11.624854979410134 43.22769930610281 7.81074078471597 0 0 1
3723 1 1.4264666527511116 26.97916964907906 6.695648236234394 0 -1 0
2024 1 3.3817268844149204 46.20721683767144 3.449611212922469 0 1 1
2613 1 3.7313349729230367 46.1698935792121 8.225603512150151 1 0 1
2186 1 5.375095330596764 48.068363217664896 2.5228885521885553 -1 -1 1
2604 1 4.547671573222405 43.94313047301493 4.693578792267025 0 0 1
645 1 11.218158636660249 43.00997300422729 3.0785166766924963 0 0 -1
4582 1 8.390571186754164 45.65261787754581 3.8558181227947146 0 0 -1
656 1 15.69569932207963 43.06814198604978 1.5184139176325133 0 -1 0
3447 1 16.150007150608086 0.2122844517004694 16.507977744381108 0 1 0
1076 1 6.75230525154683 47.75308129979754 4.501863952195681 0 -1 1
1256 1 9.595706836395522 2.076804192598209 8.39439899162098 0 2 -1
862 1 13.457132780422755 50.51083209142486 3.8703378156238157 1 0 2
1111 1 12.914801196520717 50.336047280333375 6.645665665385294 0 1 1
1118 1 -0.011111971066821213 35.40797682778634 13.03809475295132 -1 0 1
319 1 4.283999987329837 0.9193999347864742 10.460214270235026 -1 1 1
1038 1 6.129098747815937 2.414343146256857 9.6409071139764 0 1 1
1754 1 12.038530789241271 2.464551986546728 7.364228347701308 0 0 0
467 1 9.407714760341664 1.07197357000178 11.082230422299675 1 0 0
375 1 12.761066763665218 4.575482754049067 9.013586035697513 1 1 0
1160 1 7.749085354801679 34.45719321531921 1.3043492994568702 0 0 1
3397 1 4.499068354034337 45.68077421052352 23.33415973344911 2 1 1
2867 1 3.1822762363421955 4.2411692342627 7.610692750947758 2 1 1
4529 1 5.54069950829938 5.1629534206434275 8.990206952745956 1 1 2
761 1 4.369443446172421 6.206158176066516 11.413965723557087 0 1 1
3332 1 8.233127111813388 4.739604357370322 7.913550627967564 1 1 0
227 1 13.338029719017825 8.191164235014377 9.145697013309634 0 0 1
2972 1 14.983968718755769 5.992842583729326 7.757510008287849 1 -1 1
3734 1 1.4121721330708037 9.253370576030601 8.353958668385662 1 -1 0
780 1 2.935057237799153 6.811125813469883 5.830701076951852 -1 -1 -1
3237 1 7.119200821917091 7.153568454451664 9.990482504459147 0 0 0
1992 1 12.990137004120298 10.134770387970391 7.112867794008521 0 0 0
2467 1 17.332545974089868 24.132502283085522 20.77410827482504 0 0 0
1194 1 3.772469549715619 13.348244624755262 8.967047676635842 -1 0 0
1585 1 11.13287124469377 12.792365526012016 8.30522210083003 0 1 0
1960 1 15.658405982433813 10.545091323506588 7.186530845001277 -1 1 0
878 1 16.73341267605118 3.873557524535566 7.556131115739777 0 1 1
1298 1 7.1882073312887504 15.226331325433389 3.9000296094292355 0 0 1
3513 1 7.525313191689822 14.272258762452681 7.284567312509234 1 0 0
1988 1 10.458154424729859 16.954350065032106 5.200957019520611 0 1 0
4579 1 12.493094935963883 13.217091372373307 5.355762464166456 1 1 0
2287 1 13.162458392557264 13.885752871871563 9.769428367828125 0 0 1
2228 1 3.0972389084662764 17.286520318967597 8.77955645496395 1 -1 0
4175 1 0.6966200061661503 12.65206015882907 7.194753308786368 1 0 2
3792 1 7.326423164742981 18.50579355126185 10.156422957220213 0 -1 -1
2117 1 9.411233350536016 19.133646192597737 7.753966095001817 1 1 0
3275 1 13.501969348254963 16.41179495196078 8.624407812730473 0 1 0
3504 1 14.810700201131967 16.582562119317096 3.041653750298757 1 -1 0
2616 1 14.895593837268997 14.224833623823201 6.997826952509872 -1 0 0
4340 1 1.1255475988449228 20.28179314441959 8.659171715535214 1 1 1
1822 1 6.08605026938011 16.948066790577442 7.214142766082326 1 0 0
2591 1 3.480650905241132 18.23505794921666 5.934414406131767 0 0 0
3215 1 7.963322278617445 23.671771216142183 9.04377948133954 1 0 1
3061 1 16.458781369493174 22.45337192618223 7.487153800350069 1 -1 -1
1710 1 17.36783315144471 36.65787299206144 17.844942774727194 0 -1 2
3214 1 3.5625528395759347 23.978872142224024 9.395605849662097 0 1 0
2773 1 5.142314347676293 23.679569168913346 5.193542356073351 0 0 1
4226 1 15.594257320436629 19.288795190027987 7.974643867109139 1 -1 0
2081 1 0.8855472047150033 25.3195876505248 22.882594267944953 1 -1 0
767 1 0.5575040445713796 31.136740297296246 11.175430869491288 -1 0 0
334 1 6.655911766993913 26.693060904678163 6.326987895506407 0 0 0
2678 1 4.0185789644644645 27.320872668415507 6.653691451017971 1 1 0
1601 1 10.961213829160357 23.95452005645531 10.146628273071343 0 0 0
4360 1 12.54734306058005 23.859714122010732 5.768332164918691 1 0 0
2280 1 14.913812970333895 23.323889243952998 3.6726096937218347 0 -1 1
2089 1 3.8652418305988236 30.442211183956193 10.293945904787178 2 0 0
4378 1 2.2457614526931042 31.130398003315918 8.205791127736115 1 -1 1
1235 1 8.11836166438079 27.452192352917795 8.606523153196093 0 1 2
1302 1 7.122866544970635 30.27559614576048 12.178100863275574 1 0 2
474 1 10.736063024293669 27.29142236211028 7.535873722599267 1 0 0
3274 1 16.688187140411483 29.33359526596859 8.119613006802938 0 0 1
596 1 2.023857922023098 36.857752885729994 3.960163491736047 1 -1 1
4588 1 9.267187259574143 33.89851462355308 13.563084829416066 0 1 1
677 1 5.981350838855787 29.798901189905408 8.51451831354744 0 0 0
1743 1 11.798259168036346 29.557726344646056 9.190530840384836 0 0 0
1539 1 16.24062396613863 26.139178468052567 6.773807977230427 0 0 0
3260 1 16.035435581424622 1.9733208858696636 9.117924916824165 1 0 0
2442 1 1.4205981439159048 46.87249178380905 14.931232697297709 0 -1 0
4526 1 6.729351676665901 37.40046228503617 12.221763141763576 0 0 0
3786 1 6.513953933417056 34.01442827933235 5.389685910814812 1 0 0
4564 1 11.015538098134831 34.67527010685956 11.081115652471096 1 0 0
1359 1 6.997829740614208 33.16486662720726 11.335379513293498 1 -1 1
3285 1 12.243573220913733 39.75169329318524 6.307958823332867 0 1 -1
3507 1 5.170913382365825 38.096694671015925 5.149218269052508 1 0 0
291 1 3.5606743870212667 38.55028794287173 7.785467402911262 0 1 1
2041 1 7.799328338652053 41.50623721694774 6.094819592472184 1 0 0
593 1 7.285834754532563 45.55911755254955 9.332853988358245 0 -1 1
2857 1 13.896315354115057 43.90998748167843 8.992289852166454 0 0 1
800 1 17.2993479669368 40.820038077883055 8.796868043670127 0 -2 0
170 1 11.814228021187432 31.915346734954944 1.4628125173445194 0 -2 0
4285 1 4.515176590269291 37.44862020280826 10.937562485197658 1 0 1
2696 1 5.59249548239915 44.29512722927194 7.359205501024138 0 0 1
2111 1 9.96212524420043 45.29577610589327 8.17019188742048 1 0 -1
4299 1 15.708883657853633 44.98295453107619 7.3303336668542425 1 -1 1
1564 1 12.971484251717342 43.61509291190305 5.64154276446339 1 0 0
4434 1 2.4457555066813788 42.98631357895745 7.848341805777271 1 0 1
4041 1 3.2250563416855713 49.69400278134495 8.975010175829865 1 1 1
4484 1 10.943672399705754 46.88348132659955 3.9151396888893624 0 0 0
346 1 11.443219230373789 46.88248395730372 6.474570853082495 0 0 0
3009 1 14.173062879370331 46.58060869581723 5.6098448195804655 1 1 0
1410 1 15.076347261176233 48.87661294160125 7.39441895252239 0 0 1
1713 1 1.583285885436239 0.21029591517617707 7.200724581661968 1 2 0
64 1 7.169644009428119 48.3248755311447 9.323031048481583 1 1 0
1357 1 5.512276536695607 48.89608306128798 6.881721729465116 0 0 1
520 1 8.398240938663882 0.9573411035409455 6.3123009874854485 0 2 0
3014 1 13.510329267987514 0.8048158127068256 9.197632332967428 1 1 0
1595 1 2.1344176460588686 2.6670265066836714 10.182384910414397 0 1 -2
404 1 5.7624883228866395 48.27534840910987 11.543371965773707 0 0 1
922 1 7.760510213266935 3.506840724420395 11.51229469451079 0 1 1
3928 1 6.492737659375124 1.93246221158139 13.449530901055963 1 0 2
4035 1 13.315432183238492 2.9278282121800165 11.50250698165438 0 0 1
2319 1 9.469875146559925 49.543033187669835 9.35968815972248 1 0 0
2309 1 10.510295966572212 5.883643102532209 9.911831884805983 0 1 2
640 1 2.927669311262505 3.990789505491901 12.320790433106616 0 1 0
1691 1 0.8931968078837675 7.24809513362562 12.524332370934754 1 1 -1
34 1 8.456137480029042 6.11880605697668 12.096918697241417 0 0 -1
667 1 12.132751142587082 7.430719901426861 11.824573338891323 0 1 1
4234 1 10.092544518979677 7.868124136811298 8.120154362554272 1 0 0
345 1 15.090186591921837 43.92986435934934 24.947451246480437 0 -1 1
1492 1 13.60150499168483 5.286795193665508 13.852321022723629 0 0 1
1576 1 3.571636946655179 10.081684323590215 11.496686757498482 0 0 1
3146 1 6.66911691404002 9.711131414374735 11.058416879324104 1 0 0
3576 1 10.032294468091381 10.299778820052012 13.678112720241495 1 0 -1
1216 1 10.308404423284335 10.304718004784897 9.641185064131262 -1 1 0
615 1 9.685064832839405 8.901263278751117 11.766052955205389 0 0 1
2820 1 14.904586977440092 9.744607213909195 11.111055072666414 -1 1 1
4316 1 2.6029714899453196 7.654668774820705 10.66044476092317 1 1 0
619 1 5.452434238039795 14.518304925612831 10.731630517108538 -1 1 -2
707 1 7.669220204694453 12.784743975123856 11.495321982370507 0 1 0
4213 1 8.056491628807684 14.68074366322801 13.445266943604501 0 0 -1
2661 1 9.076523264846536 14.618729041807848 9.577509677944436 1 1 0
3141 1 10.697790078170405 12.696021431584281 11.90948342114292 0 1 -2
3926 1 15.3507589067255 12.218910763968973 9.805276400427083 0 1 0
766 1 5.474481379696986 12.778859684772515 6.886166873079345 -1 1 0
3971 1 7.731316052999134 10.837690788155507 8.744883471948382 0 0 1
348 1 6.412355910309041 16.476251955463194 14.510799841047453 1 0 -1
4180 1 9.937155917966257 16.566189004399046 12.269697136731757 1 0 1
1281 1 0.38862256793729943 12.027398768360547 21.56892916113973 1 0 1
1363 1 4.932022682926018 17.392897230698004 10.755743972131196 0 1 0
1929 1 4.154991278168618 17.746992523202337 13.25831268044641 2 0 0
4134 1 8.81333940294155 19.083741270904486 12.987424419344096 2 1 0
3089 1 7.056407693764116 21.220934981537795 10.662930309617794 0 0 1
2587 1 11.434043568129585 17.69289089750143 14.81630944178873 0 0 0
2214 1 13.6931981508737 21.401889856877233 24.735536689850026 0 0 0
3845 1 4.6009556248066295 48.519819326231996 23.429999064775615 1 0 -1
3424 1 15.101693876486339 17.094941047801658 12.151831880922142 1 -1 0
3753 1 2.168387104665599 15.627391047361595 12.34715389391854 1 0 1
2766 1 1.7983574450838873 18.92788137083376 11.129173670169212 0 0 1
1578 1 6.951248667401988 21.740833702322647 13.629350986063185 0 0 0
1648 1 9.928133759151859 21.112326044987608 10.299831219745673 1 -1 0
3058 1 12.208422685571565 20.328593613226808 11.599791515956527 0 0 0
3013 1 8.809665225074243 0.6880955697855149 2.1007277046162005 1 -1 1
3019 1 4.4106902778452035 20.429420922740526 14.439226242740839 0 -1 1
3322 1 2.100081647697362 21.131031350120683 12.855551122976795 -1 -1 0
4341 1 6.701796765608453 25.741577409202122 10.445387435965221 0 0 1
601 1 13.692449738552385 22.391315419888215 11.230643592521789 0 1 -1
1345 1 15.894074818914785 24.12359893717531 10.660809574080501 0 0 0
2242 1 13.593693922058675 22.733453171096617 8.019265054302291 0 1 0
1837 1 16.456931558844346 18.23277465637266 14.333444532101632 0 0 0
3337 1 4.673701436846295 28.962221187465456 12.49092320982068 1 0 -1
1749 1 7.205303938127949 26.93348093453935 15.778405411970809 -1 0 -1
2944 1 12.649380396883103 25.706791044182367 8.401700898875639 1 -1 0
3251 1 14.930509007088384 7.759558255441047 21.93120744116059 0 1 0
4190 1 3.847862102971477 33.99182129944691 7.978901692408559 1 0 0
9 1 0.8535777608452053 29.12285937143924 13.70541261311158 0 0 -1
28 1 10.066795787250285 31.314652810645615 12.767660049794852 1 -1 0
480 1 11.316759528274515 25.20537900515282 12.728170187418772 0 0 0
4051 1 7.358568153094964 32.3736534563497 15.15186698131487 1 -1 1
2080 1 15.045045983912354 26.52028636766682 9.64896528585951 0 0 1
498 1 3.918434070186491 32.805386423168 11.268734612662975 1 0 0
2715 1 5.875100805931823 32.325001656494976 7.350725986976348 1 -1 1
207 1 13.480011033413597 34.43137468751189 14.410621938962787 0 1 1
4585 1 14.479914256617995 29.998870880445867 10.053356258238914 0 -1 2
860 1 10.484475571363442 37.45300176595106 5.664028009695419 0 -1 0
3982 1 15.60792879146674 32.410810080246364 0.02324866373595759 1 -1 0
121 1 15.793326788095492 16.79826658652831 25.01622723946144 0 1 -1
4335 1 1.8921010321830054 36.29520259406425 6.923132417275384 1 1 0
1149 1 5.553089462377734 36.03359440788485 8.015701453997954 1 0 0
3257 1 2.9102569877191846 35.10519012318164 11.331100781685103 1 0 1
4291 1 10.38470729592986 31.445165749738997 9.929657062238599 0 0 0
1887 1 12.357679418567093 33.3821275779527 8.859878391776878 1 -1 1
2631 1 2.2236663241217824 39.82037169891353 12.960474067184627 1 -1 2
3957 1 0.43659039722918624 37.69349952364928 11.362421370850557 1 -1 0
3851 1 8.269938417428163 39.57943508313333 13.233525078498243 1 -1 0
4183 1 9.560173296924416 41.06393309929683 11.433127741244665 1 0 0
284 1 9.898769216111232 40.85500310877802 7.763028640752069 1 -1 0
1511 1 11.992347103068731 36.97546340068662 12.171672815123559 0 -1 1
1188 1 13.89800464112763 48.27531886300447 0.4415291981416573 -1 1 1
4305 1 16.569931283544737 32.20866440374742 17.328711266202735 -1 -1 2
24 1 17.60032820561987 50.59841683399891 5.259246256403195 -1 -1 1
304 1 11.618395973151145 45.37637167419756 10.724894461017866 0 0 0
4024 1 15.43047451577285 12.209548643043775 22.57536955298911 1 0 0
2202 1 15.154563729775711 3.688422946466158 16.721162395261747 0 0 0
4437 1 2.574309863807086 44.081799372395594 15.611397827354114 0 0 0
3907 1 3.2768473771085413 39.91315274721883 10.719536964089828 0 -2 1
3621 1 5.593808936148983 46.33344363737773 13.44146972609611 1 0 0
447 1 2.2772617296826034 44.674592377938836 10.163795223253695 1 -1 -1
2994 1 3.5458928025051217 48.23248517258723 15.140762972190194 0 0 0
2725 1 8.11527271114906 46.22931075732129 14.01147251068522 0 -2 1
1028 1 14.378567715640882 45.21236366670648 11.956808494563353 0 1 0
1705 1 16.667244689751655 46.95776830028346 8.819661711374916 1 0 0
883 1 1.3488751219167059 48.93744187591582 11.204527439343842 0 0 0
251 1 3.5168343230366794 49.5708668660391 12.70011686951502 0 -1 1
811 1 10.32561540837229 49.59897330503516 7.102610272906372 1 -1 2
3855 1 8.594321954890814 28.310055685503833 23.76589126768511 1 1 0
2774 1 15.313072460667481 47.766406103154566 11.297297842496123 1 -1 0
3848 1 14.072781732045994 50.375865647118516 11.999759922232029 0 -1 0
959 1 5.088592588977553 1.8660064906027098 17.80278804010868 0 0 1
1023 1 3.500728273320814 50.83403103968759 15.980606271821724 0 -1 0
2589 1 7.856417455762768 3.0249542033042855 17.62637039525986 -1 2 1
3725 1 10.958042344953446 2.7199899378823447 13.300034175642585 0 -1 0
1741 1 16.31603880296392 0.4523141246587006 13.650191466534013 0 1 0
1292 1 14.623387839037182 29.655284587431048 6.241804240357299 0 1 0
1913 1 2.065872807582977 4.180462779785886 15.600083398139445 0 1 0
1322 1 5.89525702608093 6.184322187678985 15.82973594543562 0 1 0
485 1 3.309813530608477 11.593341798129535 14.104718282359173 -1 0 -1
2985 1 13.481920402426733 8.586752732946357 14.00594552633011 1 -1 2
515 1 10.282337061765226 5.33456529047734 13.96147997409064 -1 1 -1
1167 1 17.567258367814148 4.0604610828968974 15.847261128847753 1 0 1
4251 1 2.944275244795875 8.781950692795363 16.344845702539743 1 0 1
1376 1 6.175376502979234 7.398068838871797 13.410527797682192 -1 0 1
1294 1 10.153906680372678 6.726456500940833 16.340516125625463 0 0 1
2020 1 13.900636952691652 5.6931835057316444 16.368052186820307 0 1 0
168 1 0.7270495777659551 10.53753994038647 17.224318338287738 1 1 0
909 1 6.256073221901699 12.536112338780837 16.886656454128133 -1 1 0
1460 1 7.318830070045712 11.761965895873473 14.472440726600109 0 1 1
2559 1 9.127921138709903 10.832377177124883 17.01399622804146 1 0 1
386 1 12.387993286664605 8.90465927047111 0.7631511093825173 1 2 -1
1234 1 13.111113590167147 11.22199587726078 13.113594479239014 0 1 -1
3645 1 0.5896632393687322 12.04769742955869 14.330105870505356 2 0 1
2843 1 4.337575936907427 13.987615725710743 13.209630498745137 1 2 1
3364 1 3.5917560111780675 9.761898640033849 19.434808644667687 1 -2 0
4059 1 11.137204406960457 16.727051172015546 17.48266856725384 0 0 -1
2886 1 12.72629064035088 13.456686139257625 14.583597476915457 0 0 0
3854 1 12.767297344022229 15.284249553507422 12.719409732272634 1 -1 0
4425 1 15.852053594596818 25.493872032725147 24.893973848474257 2 0 1
3917 1 0.5199661858515477 12.528121038617439 11.600370634619626 0 0 1
4206 1 1.9976483178707793 20.66866814154365 17.32970722553375 0 1 1
1239 1 5.3284655599831 16.666746980640774 18.40827512455639 1 0 1
4604 1 4.998730898651646 15.370635823747925 16.243654252977556 0 1 0
1634 1 10.994163702395705 20.667681941366453 14.09607343586414 0 0 0
4106 1 11.175855540828072 13.754198156457495 16.683277452446582 1 -1 0
1002 1 8.40068838093697 17.694825894922626 15.926821437606707 0 -1 0
2723 1 8.748168317844366 24.98082767690868 13.974083526709034 -1 1 -1
2194 1 8.440144050800752 16.146154346147995 18.678279450446777 1 0 1
651 1 13.815736317626827 18.804896310957474 15.437502253503952 -1 0 1