LAMMPS data file via write_data, version 29 Oct 2020, timestep = 0

9216 atoms
1 atom types

0.39048519085901034 104.38991443745212 xlo xhi
-0.3888829789232983 50.60180708406116 ylo yhi
-0.3888829789232983 50.60180708406116 zlo zhi

Masses

1 18.015

Atoms # atomic

5 1 2.28622961571559 1.9006122759238238 1.7497567726894188 0 0 0
3 1 3.2872827930974267 0.44619184863031014 3.6373075680918547 0 0 0
1657 1 18.94346646687471 31.391775283984025 0.3603432699650284 0 0 0
10 1 6.605668984244993 3.502419432241112 3.3070832765428557 0 0 0
132 1 10.11218977921021 35.235705032856686 0.6401978327787732 0 0 0
13 1 8.435749504496002 2.0805453494778234 2.035141641933213 0 0 0
2 1 0.41583256514785916 3.664224027525398 3.1897252968883594 0 0 0
21 1 14.655715819290918 2.217965931616326 1.9402442290815025 0 0 0
18 1 13.347324493508069 3.8037860499734566 3.9856308893717785 0 0 0
27 1 3.629166124712844 6.6738444773183145 3.3286193897419842 0 0 0
8 1 5.079871364813123 5.265426712064979 1.768890139379472 0 0 0
35 1 9.466739685906283 6.517297549082983 3.44387117114307 0 0 0
16 1 11.324993800895243 5.19322303516233 2.0715938113154437 0 0 0
24 1 17.796573965334456 4.648327163075363 1.746454954889454 0 0 0
43 1 16.334029580928718 6.592658375908247 3.2212793498315393 0 0 0
29 1 1.9755197261532706 8.378267388470514 1.9090689095428997 0 0 0
34 1 6.617937794618491 10.1583635997315 3.60560580246216 0 0 0
37 1 7.982302035366284 8.439395211692029 1.7713355682347527 0 0 0
649 1 0.4710539614601321 19.409573603474122 18.908220034573397 0 0 0
45 1 14.542126326026217 8.135295652772221 1.7946471438570706 0 0 0
42 1 13.190666673114224 9.651371662796382 3.529729165994135 0 0 0
51 1 3.356148052373338 12.938881458859194 3.8120278626339106 0 0 0
595 1 16.03686407602138 50.538710240261494 22.4273292073108 0 -1 0
32 1 5.173517999389336 11.551115944439738 2.1310034846876253 0 0 0
59 1 10.171310667863436 12.853186525181265 3.1348524639544073 0 0 0
40 1 11.688774788065711 11.136613490054541 1.6745325105882884 0 0 0
48 1 17.889049349941786 11.456444580253791 1.7732998655124232 0 0 0
67 1 16.281957301252824 12.768123195663408 3.4734837615785112 0 0 0
53 1 2.1430972565501754 14.338665708199779 1.5789573374088266 0 0 0
188 1 16.330271280946405 47.289551795891086 0.7472360520018168 0 0 0
58 1 6.879081302700733 16.275548593487684 3.3964058372495924 0 0 0
61 1 8.204543082113158 14.510131215846007 1.5766228109063243 0 0 0
69 1 14.958630626156204 14.25162844463758 1.822795483219362 0 0 0
66 1 13.366287570390298 15.64840448493065 3.504184626879128 0 0 0
482 1 0.6216140560106496 28.5749380041393 15.645951792925576 0 0 0
75 1 3.773488968994252 19.440011343401274 3.379494231309096 0 0 0
766 1 14.620224245172686 48.98178212190351 23.656464163883655 0 0 0
50 1 0.4257523968440911 16.41667916182259 3.3271862339000364 0 0 0
56 1 5.358383864611083 17.759089991105068 1.7882152026733567 0 0 0
83 1 9.689071390501269 19.440037650734773 3.3921892365171327 0 0 0
64 1 11.482178819252008 17.523192720459285 1.9562303404985257 0 0 0
85 1 7.973512057048127 21.21070424401715 1.9198796117767953 0 0 0
100 1 3.4652415327820147 28.432211372768275 0.488044873141509 0 0 0
72 1 17.758633024250024 17.795414305339865 1.9153275503620015 0 0 0
91 1 16.314124837342717 19.262978959395323 3.4653160421028555 0 0 0
587 1 10.128118668034272 50.47779528879066 22.690441231538898 0 -1 0
77 1 2.0487110037995526 20.916091367478455 2.1107806845617487 0 0 0
84 1 9.769669277755607 22.627642290861058 0.38669170386937424 0 0 0
82 1 6.389455193991961 22.914225049605285 3.5223557480839975 0 0 0
88 1 11.59445434886944 23.569336996080224 2.05944210349382 0 0 0
385 1 0.48751239294372567 0.5972661720445296 12.668341334614578 0 0 0
93 1 14.81154975996347 20.665902315236686 1.9613649132406947 0 0 0
90 1 13.149794349670094 22.000527202665513 3.5520613225653235 0 0 0
96 1 17.179067737674153 24.092591996600955 1.9505806456340054 0 0 0
99 1 3.6365871704686183 25.757890620053182 3.3257503184989186 0 0 0
101 1 1.7581989498197865 27.128079661507496 1.6851086599931937 0 0 0
80 1 5.1550240695621286 24.392493901348686 1.7199308408727352 0 0 0
721 1 0.5470995310835374 38.0697565124222 18.707137838097548 0 0 0
109 1 8.310226472049916 27.381214945543494 2.107352291557902 0 0 0
117 1 14.529322744409548 26.810602088374687 1.5155396325257227 0 0 0
265 1 0.6909512329275537 19.658729738134824 6.169287149641872 0 0 0
115 1 15.927313229564778 25.53883381606554 3.4733231773682016 0 0 0
148 1 3.285518124103368 40.9434501880784 0.40313712090554077 0 0 0
104 1 5.2446237055579665 30.10175892073686 1.8942085207068653 0 0 0
112 1 11.532319082296482 30.307945452878364 2.0146315512255355 0 0 0
172 1 3.636024806112656 47.248401711215266 0.6022568872649282 0 0 0
114 1 13.094718284644443 28.426533235864436 3.22954809850086 0 0 0
120 1 17.116065002556404 30.09470090027367 1.6171673581173103 0 0 0
289 1 0.4453528150441055 25.298212778712593 6.5938057211083185 0 0 0
123 1 3.5440605060531785 31.406404735899095 3.473879142452109 0 0 0
314 1 0.6860511342611959 34.70741839632818 9.598580347563354 0 0 0
133 1 8.775297880926058 33.41404042696486 1.9464660005417018 0 0 0
131 1 9.58497503305799 31.93300914255518 3.704786647138111 0 0 0
141 1 14.422864160653722 33.243189376077666 1.719426051951454 0 0 0
139 1 15.85383087965043 31.590946965445593 3.366289549933523 0 0 0
125 1 2.17619421964804 33.327092728510294 2.0473018558003666 0 0 0
105 1 6.937149523503546 25.80558056239061 0.39571814786054915 0 0 0
128 1 4.800328286956175 36.489175247192804 2.1006349182042587 0 0 0
130 1 6.784677185780499 34.90297946314533 3.662860052648591 0 0 0
136 1 11.645431782097459 36.7219229821504 1.9923449309089791 0 0 0
577 1 0.5342679059187263 0.5759346330820704 19.370499313791957 0 0 0
138 1 12.688741820641782 34.70856940933572 3.1211634093231106 0 0 0
144 1 17.734455753518944 36.054678257938264 1.7936216751479483 0 0 0
313 1 0.5658859328342487 31.704147778649055 6.885112722937387 0 0 0
149 1 1.7796484290295407 39.39682306559767 1.9535699826664379 0 0 0
147 1 3.5711089095530633 38.280407469547185 3.648609076599905 0 0 0
697 1 0.6366361095238978 31.762771795220782 18.679843603896668 0 0 0
157 1 8.529980772199421 39.45096370201328 1.9376081684339692 0 0 0
155 1 9.738855634186994 37.93613748990798 3.6443524272528216 0 0 0
165 1 14.577572262954167 39.79611193901458 1.875925979924963 0 0 0
163 1 16.19822525141288 37.81875401627107 3.247015509038052 0 0 0
1897 1 18.82824309500226 44.67775025392935 6.961394693176191 0 0 0
242 1 0.6008694095546925 16.460496536273457 9.85098968059719 0 0 0
152 1 4.86382618777568 42.69276038809021 1.9290378637833692 0 0 0
160 1 11.415658891659458 42.67326218118842 2.242570927645999 0 0 0
698 1 0.5881678365840202 34.43155528853211 22.253405591591374 0 0 0
162 1 12.93825003453612 41.06174558803194 3.8763761068914624 0 0 0
168 1 17.66263224961749 42.62754617977258 1.871153398728447 0 0 0
92 1 16.301682211323687 22.260179923059713 0.4253728950865252 0 0 0
171 1 3.181051199359204 44.21784233850022 3.1359821975157036 0 0 0
173 1 1.6251520039443181 45.77161580012314 1.9318013849580629 0 0 0
122 1 0.6703982612856649 34.83772440690032 3.4641860644731675 0 0 0
218 1 0.9078655521709625 10.11621859366944 9.72645834912447 0 0 0
181 1 8.445971878268582 45.67774408482907 1.8439625312992738 0 0 0
179 1 9.80438219557289 44.297623928327624 3.679618804419721 0 0 0
189 1 14.418950289439293 45.868900428442714 1.9631824618562523 0 0 0
187 1 16.0606878067504 44.08423764547361 3.416500170066674 0 0 0
481 1 0.40278588590343506 25.661202001843286 13.070438058127335 0 0 0
178 1 7.0696843053472564 47.25656350268139 3.5712876528307866 0 0 0
176 1 5.400918743978078 49.097449786061546 2.471584149362017 0 0 0
11 1 10.140731810251053 0.47125872874011066 3.5011411265288612 0 0 0
184 1 11.58015094021672 48.75389575992985 1.5682585576270642 0 0 0
1658 1 19.037531889543054 34.620979963060265 3.5888606014588182 0 0 0
186 1 13.085937328616561 47.687925347571834 3.3906679068900134 0 0 0
19 1 16.314477478094613 0.45492009354009455 3.3852557580825278 0 0 0
192 1 18.148243273666903 49.03009317122982 1.7681698407943498 0 0 0
626 1 0.7192937827200915 16.053900037553085 22.459468058846046 0 0 0
196 1 3.7398998020500103 3.518028249335217 6.543703619764989 0 0 0
7 1 5.311780640984754 1.5791555754940474 5.3394560404074864 0 0 0
15 1 11.61267098954243 1.8675946325724861 4.982286861530588 0 0 0
204 1 9.878820768593572 3.7531628033581623 6.767902560727074 0 0 0
209 1 12.966933654005459 0.594335211386479 6.493873044825314 0 0 0
23 1 17.996425063721997 2.100523684907042 4.958732445740521 0 0 0
212 1 16.123927083567963 3.2528278531256443 6.389831367116223 0 0 0
386 1 0.8379730692440029 3.8845644170457807 16.110821955615553 0 0 0
6 1 1.8316820372729088 4.902846698826992 5.069721494672478 0 0 0
225 1 6.681357174170358 6.540972944936939 6.7238277222872 0 0 0
14 1 8.08109076952889 5.063089604238954 5.0131988143065245 0 0 0
22 1 14.973711881279328 5.2354091528348645 5.239970625196559 0 0 0
233 1 13.083007547619824 6.283687708843823 6.770820879351442 0 0 0
220 1 2.6361131269407996 10.535231085525917 7.611130442531351 0 0 0
31 1 5.075318465433562 8.065168260100503 5.271333910999323 0 0 0
228 1 10.263071337707753 9.911529278017913 6.205434586864323 0 0 0
39 1 11.457418396180866 8.072313330719727 5.056382180465006 0 0 0
236 1 16.42352270829025 9.722277201080294 6.75171458630057 0 0 0
47 1 17.71562523389016 8.410024585830936 4.8360164448647165 0 0 0
758 1 8.322400312725792 48.70022318135291 23.762522327123385 0 0 0
30 1 1.8120651978318276 11.597991410838823 5.291134228783117 0 0 0
249 1 6.95755838509875 13.063857565316352 6.579097847701124 0 0 0
38 1 8.470008332021246 11.464565012378973 5.062509851720974 0 0 0
46 1 14.765379754407785 11.285485868270914 5.2758972399253 0 0 0
257 1 13.258008746657659 13.163366044667429 6.58271991367386 0 0 0
244 1 3.55971808942131 16.288678091384433 6.448287800760074 0 0 0
55 1 5.379394383578139 14.59596006698172 5.161643813993279 0 0 0
252 1 9.923273761096326 15.993084541651566 6.516265862632757 0 0 0
63 1 11.527888041959718 14.468534266879015 5.09296682887617 0 0 0
260 1 16.362968136042547 15.959398502257697 6.5859491087092445 0 0 0
71 1 17.872483217831874 14.380487012619614 4.927542672328213 0 0 0
54 1 2.2089210554828123 17.78603290209572 4.641673370894123 0 0 0
578 1 0.556119446646135 3.1367491336829243 22.10261985588934 0 0 0
273 1 6.824683515971285 19.396622215905904 6.8555129045930965 0 0 0
62 1 8.439033267225307 17.923160896446028 5.17772042061714 0 0 0
70 1 14.903447547909943 17.574979432208536 5.134199769837211 0 0 0
281 1 13.439159269080406 19.18924378984347 6.512280751937819 0 0 0
268 1 3.135030969052131 22.6592237874342 6.794111091879177 0 0 0
78 1 1.7890560816393275 24.003524368913542 4.7213239383764165 0 0 0
79 1 5.086485379111648 21.099894046472087 5.349533954958635 0 0 0
276 1 9.933792397067227 22.453344865144885 6.376936970065131 0 0 0
87 1 11.777733758950173 20.53269268001613 4.925678240854447 0 0 0
95 1 17.456705126140104 21.076165537150178 4.792115690866766 0 0 0
284 1 15.898326371028809 22.352118749131368 6.517245223093418 0 0 0
674 1 0.7119017386299543 28.126366265023297 22.42213312762124 0 0 0
297 1 6.89159648431381 25.750510390161725 6.870618279748483 0 0 0
103 1 5.331994087882199 27.084198313627926 5.240220469661434 0 0 0
107 1 9.4532064398473 25.411520255246522 3.4442085597966323 0 0 0
86 1 8.137337751329763 23.944032140617317 5.068176999244604 0 0 0
94 1 14.268653323459759 23.98922698559719 4.981743324465405 0 0 0
305 1 12.872846717430011 25.549290934346644 6.413552539940827 0 0 0
119 1 17.53875002534907 26.96246779337112 4.597174887278045 0 0 0
292 1 3.6394371480370857 28.43004014553705 6.53542511257654 0 0 0
102 1 1.8746930108601807 30.106413802326962 5.328254781075759 0 0 0
106 1 6.873565434149601 28.754792664123507 3.6985482429389434 0 0 0
111 1 11.15161140438286 27.00847739399957 4.9244322253849235 0 0 0
300 1 10.210549092640287 28.611261191656048 6.6558839037952255 0 0 0
110 1 8.375366162647975 30.35965409382364 5.414089210112611 0 0 0
118 1 14.57246907426564 29.974397265395734 5.091082387300662 0 0 0
308 1 16.161263014846668 28.732407306291233 6.577521542932371 0 0 0
362 1 0.5987009492544522 47.41007671994706 10.00842704373521 0 0 0
321 1 6.844909437606674 31.98745846832888 6.498100328599822 0 0 0
127 1 5.1326428339682595 33.11362248989053 5.115079878406785 0 0 0
135 1 11.247313474448086 33.45085385972173 5.311414337512671 0 0 0
329 1 13.300777730171442 31.92938988459101 6.510123637738566 0 0 0
143 1 17.716420736784556 32.92119215481031 4.919046601532582 0 0 0
754 1 6.706766601425846 46.95154210777349 22.164970901935497 0 0 0
316 1 3.766394016086035 35.145016047395416 6.767276619904535 0 0 0
126 1 1.9853212687782542 36.45432655627283 5.163624454420008 0 0 0
134 1 8.208952281094959 36.43202598196255 5.480300807708352 0 0 0
324 1 9.719277665236953 34.95688850669535 7.086474774841842 0 0 0
142 1 14.57950273111498 36.237871059994376 5.1565323208805935 0 0 0
332 1 16.137603482321815 34.30521751790175 6.357694825900151 0 0 0
146 1 0.41656245557324073 41.653973746119604 3.3585513937105067 0 0 0
151 1 4.873508447110774 39.669492943925945 5.181945897795204 0 0 0
345 1 6.69293905684865 38.22931285962933 6.708800146085296 0 0 0
159 1 11.239693492179159 39.41287556683767 5.228562698622345 0 0 0
353 1 12.863108107982201 37.76116738043031 6.4077039451279925 0 0 0
167 1 17.728427571422724 39.610792686482554 5.228109982562082 0 0 0
150 1 1.8718268590963048 42.99879751231873 5.1979766183861065 0 0 0
340 1 3.3618046377064608 40.87168113620375 6.964995354363006 0 0 0
154 1 6.566815757283656 41.13392361093952 3.3564629244269706 0 0 0
158 1 8.164806689738514 42.74434531725258 5.097868336730893 0 0 0
348 1 10.04840822535447 41.322742683909595 6.6949883886114225 0 0 0
166 1 14.847418192978841 42.86195805230045 4.9927958157514345 0 0 0
356 1 15.905407465354017 41.06957232746649 6.5276755223681935 0 0 0
505 1 0.4617871664683477 31.779026861538842 12.83501121607565 0 0 0
369 1 6.606507872205438 44.29966477895444 6.876350681964786 0 0 0
175 1 5.102617910536781 46.26009880676196 4.986521467623876 0 0 0
183 1 11.538842544817404 45.90348877792232 4.773990296362992 0 0 0
377 1 13.27771590280051 44.51329390366483 6.613547048449767 0 0 0
191 1 17.47893382025287 45.76382079698497 5.143717364892326 0 0 0
2161 1 18.84643589848565 12.805522844317391 19.07837118412476 0 0 0
364 1 3.1775990377612477 47.65322644574012 6.719418341414014 0 0 0
174 1 1.736358562899356 49.0006586602958 4.909025396643105 0 0 0
1993 1 18.697661218442537 19.292650474806972 13.440213277548287 0 0 0
201 1 7.045488023673097 0.44781620364783237 6.879576865546404 0 0 0
372 1 10.131165931733301 47.29268854667062 6.962066444622788 0 0 0
182 1 8.715626344506497 48.96942014767143 5.285131041304272 0 0 0
190 1 14.625760733336831 49.205659384234224 4.9978519314311685 0 0 0
380 1 16.417051260294162 47.62225189051611 6.795720147509485 0 0 0
197 1 2.056080498627999 2.035932510616442 7.998626855136923 0 0 0
195 1 3.864024686796077 0.6740008882720792 9.843456398220162 0 0 0
205 1 8.436375574115432 1.9533822989676501 8.455861026733862 0 0 0
203 1 10.12846769372006 0.4264119135805366 9.59265319348207 0 0 0
213 1 14.453180750040493 1.9056764137719215 8.152774354776332 0 0 0
210 1 12.83141639238161 3.1854904364996677 9.692058980842933 0 0 0
211 1 15.910583055189772 0.6082444417672832 9.71841814002541 0 0 0
1946 1 18.892401404126876 9.815715774289249 16.086978525183603 0 0 0
219 1 3.3664955216732646 6.577542364473613 9.397733436009753 0 0 0
202 1 6.77408188727183 3.4504500427911333 9.912596187393145 0 0 0
200 1 5.048338303164674 5.023203349971125 8.44996239428531 0 0 0
227 1 9.670150801517277 6.506147737252714 9.704346269856977 0 0 0
208 1 11.350747731273389 5.292869915526431 8.32977824194354 0 0 0
206 1 8.226836732652421 5.066941510686421 11.41652576873295 0 0 0
214 1 14.481756946233407 4.508589877993704 11.636462172018504 0 0 0
216 1 17.514357010734997 4.819608956039762 7.933095479506768 0 0 0
235 1 16.07903289646942 6.365484497056483 9.806961977368026 0 0 0
221 1 3.005913955841859 7.892572750571955 7.196680539560175 0 0 0
226 1 7.122243268698554 9.811133803990684 9.81958395945741 0 0 0
223 1 5.003179505190974 8.530381641290456 11.05630797718405 0 0 0
229 1 8.364780115056092 8.144100473905718 7.965080409221786 0 0 0
237 1 14.666599510502293 8.1061843565242 8.12217044035407 0 0 0
234 1 13.118240184276301 9.640337573261435 9.904214783855462 0 0 0
243 1 3.649238247549785 13.128739237835417 9.516046504819435 0 0 0
224 1 5.530316247511581 11.294028187350637 8.289865003061042 0 0 0
251 1 9.53529135562103 12.986856824722201 9.779161991306113 0 0 0
230 1 8.220149591150784 11.648068878890582 11.435317343729318 0 0 0
232 1 11.337281820527794 11.320612906879287 8.314531127253677 0 0 0
259 1 16.56283690325773 12.448723991684808 9.53130120202012 0 0 0
240 1 18.199203505435666 11.313829071645968 7.623935876020262 0 0 0
2281 1 19.079962204954708 43.9776249032756 19.16374211654407 0 0 0
245 1 1.9071254700499138 14.75348504295109 8.16206840432764 0 0 0
250 1 6.80011987002638 16.332398372960327 9.773199307613945 0 0 0
247 1 4.987528305008733 14.6731000960556 11.272163322486398 0 0 0
253 1 8.21716951772286 14.56942413104064 8.1633030838291 0 0 0
261 1 15.028573199358023 14.347775606514999 8.15692389256856 0 0 0
258 1 13.180020810713453 16.02802453427561 9.953790599161286 0 0 0
255 1 11.551601861324803 14.308678408088438 10.992519400465854 0 0 0
217 1 0.4564109170634464 6.965834517744234 6.644370559566288 0 0 0
267 1 3.5552208105430383 19.415546559026442 9.631898518136305 0 0 0
248 1 5.182132613058924 17.767133404333695 8.116228884521533 0 0 0
275 1 9.986909242018028 19.136704863131186 9.816415828963494 0 0 0
256 1 11.665925189400435 17.734899804658646 8.013096174058301 0 0 0
277 1 8.676143772796143 20.739078946188936 7.903551283348961 0 0 0
283 1 16.17489817832143 19.45729127318705 9.931921087134036 0 0 0
264 1 17.824088151563718 17.837871701865406 8.276099585132707 0 0 0
269 1 1.9304158005467429 20.94355487583264 8.358643678143908 0 0 0
26 1 0.8047274727110667 10.103944047699065 3.497786730782467 0 0 0
274 1 6.758177633889404 22.250934998091623 9.463161301778323 0 0 0
285 1 14.410324650980195 20.862364117465432 8.27428063786584 0 0 0
282 1 12.874782668222043 22.649825592537994 9.36113795329469 0 0 0
291 1 3.6692280278772107 25.517009686295847 10.024974903381555 0 0 0
272 1 5.132795306634935 24.195857779915748 8.108874040048613 0 0 0
299 1 9.980035784461846 25.095496490645633 9.975276530053208 0 0 0
280 1 11.161160045736075 24.079634541542983 7.898961141774361 0 0 0
288 1 17.445191577344595 23.92852204941326 8.041578369610669 0 0 0
307 1 16.007164567984987 25.19863223078791 9.65768306744285 0 0 0
433 1 0.4336367014633242 13.261463126350288 12.596539326738096 0 0 0
293 1 2.092562349425691 26.74408078658253 8.49473336193905 0 0 0
298 1 7.062311203394052 28.561828339202528 9.81571718621005 0 0 0
296 1 5.379674852715212 30.08777298223405 8.192811589376905 0 0 0
295 1 5.337056558890408 27.001957379272408 11.20006142510911 0 0 0
301 1 8.62858636813553 27.045344113011026 8.321745379262175 0 0 0
309 1 14.998461184242856 26.803266935125208 7.908338088259511 0 0 0
306 1 13.437723342360469 28.486412690267354 9.413415530144437 0 0 0
312 1 17.87824860607894 30.160567948097945 8.361057527383482 0 0 0
317 1 2.2605219237524343 33.32284965908448 8.288383857855724 0 0 0
315 1 3.75864446664803 31.499987564147364 9.895699547471699 0 0 0
304 1 11.769224474454182 30.05804267082606 8.136026844463615 0 0 0
325 1 8.300607215563087 33.036977852141135 8.272712980666544 0 0 0
323 1 9.980968775350313 31.628870810078425 9.765729366220567 0 0 0
331 1 16.194645029139608 31.86446406891971 9.879681383800621 0 0 0
750 1 1.9741816771272696 48.92709651924304 23.70555598683764 0 0 0
322 1 6.684584470829296 35.12720765534263 9.67003592496565 0 0 0
320 1 5.30011254471956 36.94833096454191 8.23197265460653 0 0 0
328 1 11.080470462073722 36.471729192377936 8.506410194658427 0 0 0
333 1 14.508313751027163 33.262018354254266 8.475660449019795 0 0 0
330 1 12.874288764871144 35.21247195582282 9.834558493875104 0 0 0
336 1 17.55416589150357 36.17608538195681 7.872692371256305 0 0 0
865 1 0.7698765308218529 25.319929301368525 25.09885486874276 0 0 0
341 1 1.4327987285617434 39.42230032098635 8.162197886205698 0 0 0
339 1 3.3927351612085186 38.330327169293014 9.75659426529942 0 0 0
349 1 8.089632535373811 39.64990918417553 8.067720084250851 0 0 0
347 1 9.57467999264998 38.45911095095701 10.192480297733427 0 0 0
357 1 14.119785602009891 39.61017378299876 8.224129075717524 0 0 0
355 1 15.789249067496902 38.06106684926591 9.40864496816603 0 0 0
342 1 1.7371811505095305 42.876534559758454 11.432864987587378 0 0 0
344 1 5.212588494624499 42.7737142439061 8.103651885635395 0 0 0
346 1 6.519291052889025 41.3692875796924 9.900004538331402 0 0 0
352 1 11.641729201377427 42.936315243683055 8.036799964527832 0 0 0
350 1 8.187134495664967 42.78907032524222 11.2633147127435 0 0 0
354 1 12.808737977507068 41.570400826576375 10.163558151606127 0 0 0
360 1 17.548013640179224 43.13114479994964 8.41284914587519 0 0 0
763 1 15.952297989500083 43.924203981333676 22.391031098227533 0 0 0
363 1 3.2049958671263163 44.22833219469619 9.666820527569683 0 0 0
365 1 1.8589215486530508 45.60752086069961 7.998019625469939 0 0 0
370 1 6.288624915711132 47.62681951078562 10.011811766376947 0 0 0
371 1 9.700664904859174 44.452563805722875 9.816275415259572 0 0 0
373 1 8.00239052851426 45.84445448647526 8.134493796374366 0 0 0
381 1 14.87177371177575 45.97586667110782 8.734426204013575 0 0 0
379 1 16.01999037284245 44.392707701929794 10.32038047882675 0 0 0
366 1 2.1680796104434252 49.323783286796925 11.149794067877943 0 0 0
2017 1 19.199846375484753 24.977744912185273 12.586718959004058 0 0 0
368 1 5.097439078998075 49.08810086485059 8.341830753759828 0 0 0
376 1 11.720822380806744 49.09793386195999 8.144949320937123 0 0 0
374 1 8.351883175845753 49.276624154327024 11.075412418285495 0 0 0
378 1 13.225913579616423 47.603672131453024 9.952187492037343 0 0 0
384 1 17.892334080724805 49.013927483664574 8.40649020968071 0 0 0
124 1 3.6546105157729443 34.63160291266547 0.38969358469018933 0 0 0
9 1 6.795661365365059 0.4597348061187438 0.5625629674013459 0 0 0
389 1 1.5336946778936889 1.904081937690641 14.739370259560332 0 0 0
388 1 3.4018975740787174 3.365818826535333 13.240515376195475 0 0 0
199 1 5.357531832792817 1.9374898246465293 11.521442622231167 0 0 0
393 1 6.79961875015463 0.3502479695462035 12.85474911026661 0 0 0
396 1 9.792973162932332 3.374822637163565 13.132464107851773 0 0 0
207 1 11.314589426095004 1.7950213703076447 11.823268086041166 0 0 0
401 1 12.898281662080297 0.5127086971604224 13.352944458107114 0 0 0
405 1 14.562392539926211 1.7447894692414008 14.6153884691264 0 0 0
215 1 17.76879960534325 1.7292472997684136 11.239728673818611 0 0 0
404 1 16.364838141566104 3.173860455799137 12.926615190029853 0 0 0
153 1 6.904225030628911 37.93794621098384 0.46975350674489613 0 0 0
290 1 0.5160834125903054 28.77441161109379 9.6575169951705 0 0 0
198 1 1.802617488913634 4.8142180231906035 11.28496163758743 0 0 0
417 1 6.3028180845857555 6.490176612234753 13.03918265884955 0 0 0
392 1 4.696149354358118 5.214368665725668 14.758974673039104 0 0 0
400 1 11.364113252978793 4.716834897784759 14.68923297117693 0 0 0
425 1 12.978585429519617 6.470644739049877 12.898114441340054 0 0 0
408 1 18.083192920115955 4.8014855407529895 14.480000949981005 0 0 0
412 1 3.520991471236745 10.028366588160697 12.923249032507792 0 0 0
413 1 1.6759953743297202 8.43005228507293 14.523225031109357 0 0 0
420 1 9.469310086985537 9.66688575673899 12.703522871209474 0 0 0
421 1 8.332727632431514 7.947358942694711 14.650867757998975 0 0 0
231 1 11.435642005002695 8.109116676114034 11.488994009258139 0 0 0
429 1 14.534099769849561 7.892578329600428 14.456503773410233 0 0 0
239 1 17.635353245243692 8.256985511145503 11.125420797898977 0 0 0
428 1 15.71036686726932 9.438077679936217 12.461528377851035 0 0 0
222 1 2.168664994714158 11.663993084594583 11.385156660616474 0 0 0
441 1 6.419153668243784 12.986866845643172 12.758730218328168 0 0 0
416 1 5.410853235006843 11.467290507338186 14.246670103334877 0 0 0
424 1 11.331407311421295 11.160183375809712 14.155278492860894 0 0 0
238 1 14.886800009544347 11.455558044805972 11.258309030757362 0 0 0
449 1 13.083043381827334 12.886965319314392 12.814082109176752 0 0 0
432 1 17.178385878887177 11.139120959973976 14.194581759877543 0 0 0
436 1 3.667049405036783 16.40120200005684 12.635324589580248 0 0 0
437 1 1.929489110755881 14.758256299546058 14.432157825716649 0 0 0
444 1 10.035336629135108 15.860127901820535 13.251368820574621 0 0 0
445 1 8.239661987573959 14.182400583738264 14.35088549701234 0 0 0
453 1 14.767646796083985 14.528344095350187 14.488572422354347 0 0 0
263 1 17.948443515100564 14.204438211212464 11.032488596739876 0 0 0
452 1 16.342108739398512 15.810238551414603 12.600503246227415 0 0 0
602 1 0.4760206983846942 9.349529465535312 22.26872766195414 0 0 0
246 1 2.286412380611888 17.738954164798937 11.295672839129193 0 0 0
465 1 7.009300214785118 19.114611012012062 12.50150505435785 0 0 0
440 1 5.507486097029669 17.881845941373555 14.300455495615598 0 0 0
254 1 8.710612609638662 17.396110037059938 11.4791478911041 0 0 0
448 1 11.640920916968396 17.499711788703397 14.618301025259694 0 0 0
262 1 14.899776547473472 17.48303566454331 11.511781572124969 0 0 0
473 1 13.227075622726248 18.827757946640965 12.88859198123552 0 0 0
456 1 17.52943849919569 17.23756113105114 14.502079944473797 0 0 0
461 1 1.9632569993517373 20.673335731923878 14.526778945197716 0 0 0
271 1 5.253220156871907 21.055991173212245 11.314756841079221 0 0 0
460 1 3.565553487011444 22.121039125041527 12.85678704653059 0 0 0
469 1 8.348716444931444 20.85754552805575 14.259448559510917 0 0 0
279 1 11.567993426168263 20.493057406570934 11.513285674079738 0 0 0
468 1 10.281979418601635 22.323455385327758 12.716508861113267 0 0 0
477 1 14.49286150479893 20.746131737451446 14.515247189860924 0 0 0
287 1 17.37092565014674 20.992021503642796 11.543785566984278 0 0 0
476 1 15.915914443392104 22.358722733460393 12.851423136354796 0 0 0
480 1 17.34989986321737 23.735872827516665 14.714414525024702 0 0 0
177 1 6.785546016284819 44.11698042652648 0.44018189081385994 0 0 0
270 1 2.197434612285811 24.01786000826559 11.811981966502167 0 0 0
464 1 5.067266112450784 23.893034559468195 14.534928160958888 0 0 0
489 1 6.746346733018587 25.487632051973215 13.115827555678548 0 0 0
278 1 8.286489027474051 23.733018838927713 11.51303537737905 0 0 0
286 1 14.483217546932371 23.778559962690718 11.30717907331132 0 0 0
497 1 12.926634492690704 25.42381384257914 12.830186728416724 0 0 0
472 1 11.630620774402553 23.698834547614105 14.573058486622308 0 0 0
129 1 6.970684971022885 31.694762417436802 0.535108190879242 0 0 0
485 1 2.4814279525052148 27.174855364921417 14.148731213120442 0 0 0
484 1 3.90742995986344 28.95345973938913 12.548490652968916 0 0 0
294 1 1.9066578417810183 30.129418923382918 11.299071706200557 0 0 0
488 1 5.542500558929399 30.172892876824744 14.232126592684041 0 0 0
303 1 11.468269024284114 27.243477935992633 11.186488530587422 0 0 0
493 1 8.670712594851931 26.944159530745704 14.435763226581905 0 0 0
492 1 10.009409040139339 28.64438660767536 13.14134031514878 0 0 0
496 1 11.744994220784235 30.620850701579936 14.31624707678618 0 0 0
501 1 14.180388378647596 26.965078980129697 14.497429488046514 0 0 0
311 1 17.29504379663765 26.898328464535574 11.359355690911562 0 0 0
500 1 16.150152417684176 28.429459936387094 13.027022907019628 0 0 0
504 1 17.972199879272605 30.146997976503098 14.403669693162593 0 0 0
509 1 2.0844501503701567 33.230144408298045 14.277972450152271 0 0 0
319 1 5.230870358810696 33.496473115125525 11.204376208682515 0 0 0
513 1 6.880079691208117 32.04040777200032 12.470876008601836 0 0 0
302 1 8.646845205008669 30.34935559092711 11.465155925226 0 0 0
327 1 11.427820291625062 33.35256170530626 11.358573224020503 0 0 0
310 1 14.496964755785525 30.058373622984433 11.477638021094936 0 0 0
521 1 13.261801711394506 31.97207842153783 12.753060713454971 0 0 0
525 1 14.392635296895358 33.460942046565094 14.65944081168724 0 0 0
335 1 17.777163617279463 33.14453923887811 11.613021566025264 0 0 0
318 1 1.7661308385078271 36.8345404909448 11.383759175091413 0 0 0
508 1 3.861419957116476 34.75145030899601 12.79504089060569 0 0 0
512 1 5.333728873612964 36.50830694174911 14.287515586648095 0 0 0
326 1 8.313657575969753 36.57361370067849 11.709781700545879 0 0 0
516 1 10.154069042401085 35.12007990470819 13.108676116500384 0 0 0
334 1 14.687024676948017 36.85324773876937 11.463594223600127 0 0 0
524 1 16.2774641428093 34.967257447567164 13.062791054426453 0 0 0
533 1 1.7420554795585215 39.64963462777972 14.440525063088781 0 0 0
767 1 17.500374691360705 45.50599638182223 23.78729457479779 0 0 0
343 1 5.051636296513993 39.971719672639765 11.519209729510157 0 0 0
537 1 6.711096515699456 38.28596528874829 13.09654259340316 0 0 0
351 1 11.431754866890218 39.791931409934605 11.65175241401918 0 0 0
545 1 13.140305479925214 37.916391884718635 13.18356544595522 0 0 0
549 1 14.548720762494021 39.69892315994832 14.642504300194098 0 0 0
359 1 17.428228337940876 39.876291011282035 10.830208488032373 0 0 0
1610 1 19.045413162955597 22.42876056696526 3.325114313647659 0 0 0
532 1 3.2810621887352958 41.297877109426764 13.043861020549542 0 0 0
536 1 5.277248434468171 42.95400542427673 14.645591784965273 0 0 0
540 1 9.75398254288362 41.45617036813243 13.000254655846996 0 0 0
544 1 11.3529388636023 42.905246538487674 14.60723889142514 0 0 0
358 1 14.685953511710876 42.807275179109865 11.893005848140392 0 0 0
548 1 16.189264084131995 40.87468021754688 13.108781788387645 0 0 0
556 1 3.068375909480563 47.99582555852041 13.394337505006062 0 0 0
690 1 12.908074752020658 28.073257129004187 21.88557433559019 0 0 0
367 1 4.328846613028687 46.454749867212016 11.796488752893008 0 0 0