
# Set production fixes - Nose/Hoover
#
fix                 2 all nph iso ${PRES} ${PRES} ${PCOUPL}
fix                 2 all nph iso -1000 ${PRES} ${PCOUPL}
fix                 2 all nph iso -1000 -1000 ${PCOUPL}
fix                 2 all nph iso -1000 -1000 10000.0
fix                 3 all temp/csvr ${TEMP} ${TEMP} ${TCOUPL} 837492
fix                 3 all temp/csvr 275 ${TEMP} ${TCOUPL} 837492
fix                 3 all temp/csvr 275 275 ${TCOUPL} 837492
fix                 3 all temp/csvr 275 275 5000.0 837492

# Define Order parameter
#
compute             2 all orientorder/atom nnn NULL cutoff 3.5
thermo              200
thermo_style        custom step temp press vol etotal ke pe c_1[4]

# Run 1ns simulation
dump		    1 all custom 400 prod.${NAME}.dump id type x y z vx vy vz c_2[*]
dump		    1 all custom 400 prod.ice_275K_-1000atm_mW.dump id type x y z vx vy vz c_2[*]
run                 200000
Neighbor list info ...
  update every 1 steps, delay 0 steps, check yes
  max neighbors/atom: 2000, page size: 100000
  master list distance cutoff = 6.3065
  ghost atom cutoff = 6.3065
  binsize = 3.15325, bins = 18 16 16
  2 neighbor lists, perpetual/occasional/extra = 1 1 0
  (1) pair sw, perpetual
      attributes: full, newton on
      pair build: full/bin/atomonly
      stencil: full/bin/3d
      bin: standard
  (2) compute orientorder/atom, occasional, copy from (1)
      attributes: full, newton on
      pair build: copy
      stencil: none
      bin: none
Per MPI rank memory allocation (min/avg/max) = 5.839 | 5.839 | 5.839 Mbytes
Step Temp Press Volume TotEng KinEng PotEng c_1[4] 
       0     277.8335   -962.34159    142840.16   -48992.601    3815.3741   -52807.975   0.26539838 
     200    276.99272    -995.8486    142819.33   -48983.491    3803.8279   -52787.318   0.27683229 
     400    271.68007   -968.04968       142783   -48977.437    3730.8715   -52708.309    0.2732767 
     600     275.1322   -1000.3149     142789.2   -49013.432    3778.2783    -52791.71   0.27315589 
     800    273.85043   -990.70313    142802.66   -49027.359    3760.6763   -52788.036   0.27801886 
    1000    275.63465    -971.9085    142803.97   -49039.891    3785.1781   -52825.069   0.26070954 
    1200    270.75127   -1016.4452    142803.61    -49063.29    3718.1166   -52781.407   0.26188589 
    1400     272.4492   -1025.0117    142807.04   -49055.373    3741.4337   -52796.806   0.28055446 
    1600     268.0139   -1050.6303    142778.72   -49057.912    3680.5256   -52738.438   0.26932766 
    1800    278.49821   -929.68441    142723.41   -49065.155    3824.5022   -52889.657   0.26666004 
    2000    269.54333   -1008.5219    142754.55   -49020.826    3701.5285   -52722.355   0.28396048 
    2200    275.26249   -1011.4505    142856.14   -48989.827    3780.0674   -52769.894   0.26125187 
    2400    267.17132   -1037.6946    142872.66   -49005.275    3668.9547   -52674.229   0.27857851 
    2600    272.92396   -995.87929    142737.01    -49049.93    3747.9534   -52797.883   0.28535381 
    2800    274.15738   -914.17099    142611.33   -49067.958    3764.8915    -52832.85    0.2751389 
    3000    270.33101   -961.37463    142709.74   -49077.748    3712.3454   -52790.094   0.27094731 
    3200    271.53894   -1061.8302    142908.26   -49023.427    3728.9335   -52752.361   0.26769069 
    3400    275.14711   -1104.7367    142932.87   -49060.176     3778.483   -52838.659   0.26555591 
    3600    276.91654   -960.91889    142651.63   -49092.122    3802.7818   -52894.904   0.28411225 
    3800    271.27326   -841.45138    142434.94   -49023.572    3725.2849   -52748.857   0.30698906 
    4000    273.99708   -998.00099    142710.78   -49014.996      3762.69   -52777.686   0.27289664 
    4200     272.3559   -1171.9602    143093.87   -49022.869    3740.1524   -52763.021    0.2531475 
    4400    271.00868   -1091.9578    142924.26   -49012.319    3721.6515    -52733.97   0.27475944 
    4600    275.15136   -819.52175    142458.46   -49000.045    3778.5413   -52778.586   0.28779141 
    4800    272.45796   -817.50177     142448.1   -48991.197     3741.554   -52732.751    0.2932627 
    5000    275.66227   -1057.1386    142933.94   -48964.221    3785.5575   -52749.778   0.27602704 
    5200    274.60274    -1219.113    143180.53    -48960.47    3771.0074   -52731.477   0.25837733 
    5400    276.24624   -991.23266    142799.83   -48927.607    3793.5769   -52721.184   0.27527051 
    5600    278.53227   -817.06097     142393.7   -48918.877    3824.9699   -52743.847   0.30837218 
    5800    275.50692   -892.69495    142619.81   -48906.331    3783.4241   -52689.755   0.27775996 
    6000    280.82638   -1136.0138    143182.34     -48883.4    3856.4741   -52739.874   0.26370579 
    6200    276.01425   -1183.7667    143235.22   -48873.955     3790.391   -52664.346   0.26535853 
    6400    281.89763    -873.9321    142668.41   -48853.085    3871.1852    -52724.27   0.27826779 
    6600    278.14222   -768.10774     142385.2    -48895.59    3819.6136   -52715.204   0.30317964 
    6800    276.54365   -991.95553    142817.05   -48929.341    3797.6611   -52727.003   0.28086885 
    7000    278.24031   -1208.9125    143244.02   -48925.166    3820.9606   -52746.126   0.24894588 
    7200    276.57991   -1135.9055    142999.47   -48879.081    3798.1591    -52677.24   0.28492255 
    7400    281.45649   -833.06332    142479.57   -48871.785    3865.1271   -52736.912   0.29195766 
    7600    275.16765   -836.01751    142531.47   -48904.977     3778.765   -52683.742   0.27553152 
    7800    280.32643   -1112.7256    143058.71   -48924.926    3849.6085   -52774.535   0.26607244 
    8000    273.35515   -1200.9739    143210.72   -48887.835    3753.8747    -52641.71   0.26780844 
    8200    275.54499   -958.91872    142748.68   -48929.216    3783.9469   -52713.163   0.27586367 
    8400     275.8099   -788.97095    142398.83    -48958.69    3787.5848   -52746.275   0.30057641 
    8600    272.22474   -964.58616    142678.11   -48915.796    3738.3513   -52654.147   0.28964213 
    8800    278.68963   -1159.1635    143146.62   -48842.144    3827.1309   -52669.275   0.25774223 
    9000    280.44912   -1135.6396    143096.51   -48822.764    3851.2934   -52674.058   0.27235696 
    9200    277.04426   -910.11082    142661.55   -48815.011    3804.5358   -52619.547   0.30156254 
    9400     280.3163   -834.30826    142551.38   -48864.998    3849.4694   -52714.467   0.27924332 
    9600    280.04061   -1048.0075    142874.18   -48851.057    3845.6834   -52696.741   0.28076891 
    9800    277.70346   -1117.1305    143098.28   -48862.527    3813.5883   -52676.115   0.27129048 
   10000    281.32702   -1006.9481    142886.97   -48861.999    3863.3491   -52725.349   0.26949736 
   10200    278.33433   -912.67213    142626.93   -48858.729    3822.2517   -52680.981   0.30449211 
   10400    280.52194   -966.99068    142741.17   -48845.636    3852.2934    -52697.93   0.29693633 
   10600    282.59123   -1114.2234    143038.38   -48823.933      3880.71   -52704.643   0.26293831 
   10800    279.92228   -1113.4849    143041.42   -48854.258    3844.0585   -52698.316   0.27531384 
   11000    272.81506   -907.79868    142748.31   -48896.433    3746.4579   -52642.891   0.29520842 
   11200    278.64901   -889.04993    142622.13   -48914.337    3826.5731    -52740.91   0.26836582 
   11400    272.11362    -1004.997    142820.04   -48938.278    3736.8253   -52675.104   0.29034277 
   11600    275.73024   -1053.9184    143023.15   -48907.952    3786.4908   -52694.443   0.27340133 
   11800    273.78219   -1042.2029    142917.45   -48978.589    3759.7391   -52738.328   0.26498275 
   12000    275.13196   -939.29941     142645.1   -48983.692    3778.2749   -52761.967    0.3002012 
   12200    275.63049   -873.53094    142620.95    -48963.72     3785.121   -52748.841   0.28647826 
   12400    279.50837   -1004.3774       142888   -48930.171    3838.3743   -52768.545   0.25985303 
   12600    276.43013   -1123.0296    143044.17   -48936.873    3796.1022   -52732.975   0.27278637 
   12800    274.60625   -986.84816    142841.63   -48950.123    3771.0556   -52721.179   0.27837949 
   13000    277.07626    -895.3123    142609.79   -48936.358    3804.9752   -52741.333   0.28456498 
   13200    282.62119   -959.92902    142682.45   -48909.117    3881.1214   -52790.238   0.27920557 
   13400    276.56476   -1050.4416    142935.38   -48923.193    3797.9509   -52721.144   0.27554155 
   13600    275.11398    -1088.786    142986.77   -48912.504     3778.028   -52690.532   0.26291334 
   13800    278.91708    -967.3925    142769.92   -48911.701    3830.2544   -52741.955   0.28914175 
   14000    279.27977   -895.65458    142623.54   -48933.283    3835.2351   -52768.518   0.29767051 
   14200    276.28514    -982.7582    142758.98   -48956.521     3794.111   -52750.632   0.25600811 
   14400    276.76197   -1065.7797    142916.01   -48977.259    3800.6592   -52777.918   0.28214811 
   14600     274.9563   -1049.6221    142843.08   -48974.179    3775.8627   -52750.041   0.28499749 
   14800    278.28138   -914.73934    142678.27    -48960.95    3821.5247   -52782.475   0.27606419 
   15000     273.2324    -984.4402    142687.14    -49010.97     3752.189   -52763.159   0.29583326 
   15200    276.91875    -1027.775     142845.4   -49059.293    3802.8121   -52862.105   0.26742167 
   15400    275.08412   -1062.9648    142874.77   -49074.007    3777.6179   -52851.625   0.25608609 
   15600    268.75687    -946.6046    142686.13   -49111.134    3690.7285   -52801.862    0.2814476 
   15800    273.07137   -923.51458     142572.7   -49068.001    3749.9777   -52817.979   0.29390597 
   16000    272.39518   -984.68804    142748.93   -49052.915    3740.6918   -52793.607   0.27460283 
   16200    274.95627   -1080.1167    142942.24   -49000.038    3775.8622     -52775.9   0.26520103 
   16400    272.12296    -1060.186    142872.45   -48997.116    3736.9536    -52734.07   0.28401062 
   16600    273.03595   -934.89666    142671.65   -49016.613    3749.4912   -52766.104   0.26401788 
   16800    274.30594    -924.6378    142640.71   -48974.329    3766.9315    -52741.26   0.29582329 
   17000    272.61616   -1011.2662    142840.34   -48993.097    3743.7265   -52736.824   0.27913402 
   17200    273.69356   -1101.5224     142995.2   -48973.123     3758.522   -52731.645   0.25796452 
   17400    274.90628   -999.68874    142827.37   -49019.109    3775.1757   -52794.284   0.28384882 
   17600    276.10105   -895.49966    142534.88   -49059.609     3791.583   -52851.192   0.29265993 
   17800    269.10838   -861.14977    142542.38   -49076.626    3695.5555   -52772.181   0.26865748 
   18000    269.68059    -1072.055    142874.12   -49103.466    3703.4135   -52806.879   0.26928505 
   18200    270.64366   -1175.5451    142999.22   -49125.012    3716.6389   -52841.651   0.26637016 
   18400    268.60713   -985.38794    142624.06   -49150.441    3688.6722   -52839.113   0.27698779 
   18600     269.3181   -766.33032    142317.48   -49113.618    3698.4356   -52812.053   0.29784227 
   18800    274.06691   -951.95378     142628.2    -49048.31     3763.649   -52811.959    0.2926279 
   19000    269.53124   -1225.2653    143130.89   -49066.486    3701.3625   -52767.848   0.24099265 
   19200    271.52398   -1148.7114    143039.11   -49042.697     3728.728   -52771.425   0.26625235 
   19400    276.94818   -823.18192    142477.89   -49042.695    3803.2163   -52845.911   0.29791925 
   19600    269.03107   -802.02299    142381.06   -49072.149    3694.4939   -52766.642   0.28068637 
   19800    271.96149   -1119.3209    142942.61   -49063.208    3734.7361   -52797.944   0.27566593 
   20000    270.75254    -1267.725    143258.99   -49046.389    3718.1341   -52764.523   0.26209415 
   20200      275.007   -1036.4523    142804.34   -49078.902    3776.5588   -52855.461   0.26171572 
   20400    272.62077   -738.56398    142271.94   -49066.949    3743.7897   -52810.739   0.30795162 
   20600    271.59917   -912.42905    142535.69   -49061.406    3729.7605   -52791.167   0.30198518 
   20800    274.51583   -1258.1342     143184.7   -49053.509    3769.8138   -52823.323   0.25090702 
   21000     266.6595   -1220.1127    143186.74   -49046.539     3661.926   -52708.465    0.2596961 
   21200    270.54043   -876.39357    142538.56   -49047.141    3715.2213   -52762.363   0.29334958 
   21400    274.05645   -721.03956    142242.66   -49046.814    3763.5054    -52810.32   0.28888211 
   21600    273.37471   -1017.0649    142748.03   -49000.986    3754.1433   -52755.129   0.28380282 
   21800    273.71351   -1275.7502    143290.92   -48944.505    3758.7959   -52703.301   0.27471454 
   22000     279.0821   -1095.7791    143034.37   -48952.943    3832.5205   -52785.464   0.24199063 
   22200    276.22035   -830.48341    142452.53   -48922.386    3793.2214   -52715.607   0.30042018 
   22400    275.80333    -803.4478    142494.32   -48900.313    3787.4945   -52687.807   0.30056449 
   22600    272.61942   -1174.5328    143075.27   -48898.887    3743.7712   -52642.659    0.2572711 
   22800    277.84681   -1222.9459     143251.1   -48929.754    3815.5569   -52745.311   0.26907276 
   23000    276.61221    -960.3974    142770.56   -48954.594    3798.6026   -52753.197   0.27979581 
   23200     278.9025   -817.15052    142436.71   -48953.904    3830.0542   -52783.958   0.27899842 
   23400     272.7075   -938.41885    142710.19    -48959.21    3744.9808   -52704.191   0.28597181 
   23600    272.91964   -1163.1578    143114.28   -48969.121     3747.894   -52717.015   0.26242874 
   23800    278.47448   -1075.7967    143048.65     -48911.9    3824.1764   -52736.077   0.26014812 
   24000    274.41044   -935.30368    142697.65   -48952.274    3768.3665    -52720.64   0.28483232 
   24200    277.54048   -888.46736    142623.69   -48938.821    3811.3502   -52750.172   0.28954874 
   24400     276.4843   -1020.7602    142913.23    -48940.62     3796.846   -52737.466   0.24948249 
   24600    272.14348   -1113.4485    143069.24   -48936.901    3737.2354   -52674.137   0.26538485 
   24800    280.69431   -991.37464    142880.74   -48867.718    3854.6604   -52722.378   0.27891911 
   25000    279.00454   -920.03855    142742.06    -48868.56    3831.4554   -52700.015   0.26737546 
   25200    275.56981   -1014.1877     142848.8   -48889.907    3784.2878   -52674.195   0.28837368 
   25400    279.05783   -1046.1783    142984.81   -48948.077    3832.1873   -52780.264   0.26470619 
   25600    275.50476   -1030.9726       142880   -48970.914    3783.3945   -52754.309   0.25068042 
   25800    274.86854   -934.16954    142733.57   -48950.843    3774.6575     -52725.5   0.28619304 
   26000    276.33102   -976.86636    142763.94   -48930.378    3794.7411   -52725.119   0.28038934 
   26200    273.28943   -1047.1691    142890.44   -48973.319    3752.9722   -52726.292   0.26530296 
   26400    269.88738   -1081.8395    142874.62   -48995.026    3706.2533   -52701.279   0.28293586 
   26600     273.4743    -989.4591    142722.76   -49006.106    3755.5109   -52761.617   0.28552604 
   26800    272.34927   -985.97114    142711.19   -49011.027    3740.0614   -52751.089   0.27665619 
   27000    274.60974   -1029.9986    142832.12   -49010.515    3771.1036   -52781.619   0.27367095 
   27200    271.80537   -1055.1605    142858.51   -49003.208    3732.5922   -52735.801   0.27413198 
   27400    273.38228   -979.23239    142736.94    -48971.92    3754.2473   -52726.167   0.26784704 
   27600     273.5418   -904.49999    142651.44   -48976.882    3756.4379    -52733.32   0.28614853 
   27800    271.79161   -1014.7734    142733.97    -48972.01    3732.4032   -52704.414    0.2860462 
   28000     273.2468   -1036.4654    142849.34   -48958.706    3752.3868   -52711.093   0.26412167 
   28200    269.33769   -1057.1509    142820.36   -48975.279    3698.7046   -52673.984   0.28019579 
   28400    273.16286   -998.09914    142672.85   -48972.807     3751.234   -52724.041   0.28440872 
   28600    276.34969   -939.48358    142665.18   -48993.076    3794.9975   -52788.074   0.27133771 
   28800    273.92631   -1001.0983    142829.54   -49001.179    3761.7183   -52762.898   0.27175734 
   29000     273.2686    -1057.058    142892.62   -49034.257    3752.6862   -52786.944   0.27226353 
   29200    274.54861    -962.7964    142702.37   -49071.394     3770.264   -52841.658    0.2679162 
   29400    270.82575   -895.64388    142553.21   -49073.981    3719.1395   -52793.121   0.28240589 
   29600    272.16498   -949.49898    142697.85   -49034.772    3737.5306   -52772.303   0.29504476 
   29800    276.71852   -1082.1317    142932.81   -48957.205    3800.0625   -52757.267   0.26251282 
   30000    281.68117   -1051.9151    142921.48   -48947.725    3868.2125   -52815.938   0.26761057 
   30200    273.57744   -928.56795    142691.25   -48960.519    3756.9273   -52717.446   0.28254726 
   30400      275.721    -923.5462    142612.15   -49011.425    3786.3639   -52797.789   0.26912606 
   30600    276.45873   -992.65354    142800.06   -48958.947    3796.4949   -52755.442   0.28440316 
   30800    277.52347   -1097.8576    142987.03   -48924.818    3811.1165   -52735.935   0.27303443 
   31000    276.92013   -1020.4222    142923.23   -48913.416    3802.8311   -52716.247   0.26307134 
   31200    272.74162   -946.14732    142714.12   -48918.144    3745.4494   -52663.594   0.27630839 
   31400    272.45421   -912.29185    142673.99     -48917.4    3741.5025   -52658.903   0.28691985 
   31600    274.73333   -1042.4928    142824.96   -48973.656    3772.8007   -52746.457   0.27350764 
   31800    280.23898   -1037.4057    142889.01   -48945.513    3848.4076   -52793.921   0.27449988 
   32000    274.82234   -1016.9151    142755.03   -48919.033    3774.0231   -52693.056   0.29565204 
   32200    272.47646   -951.53243    142625.54   -48952.712     3741.808    -52694.52   0.27546594 
   32400    277.91811   -956.58283    142698.83   -48946.353     3816.536   -52762.888   0.28085693 
   32600    276.88017   -1057.9501    142878.43   -48929.978    3802.2824    -52732.26   0.28586628 
   32800     274.7485   -1061.0611    142879.54   -48925.403     3773.009   -52698.412    0.2682537 
   33000     279.0355   -956.85916     142680.3   -48916.959    3831.8807    -52748.84    0.2958744 
   33200    279.82964   -903.09051    142662.73   -48911.911    3842.7863   -52754.697   0.28114397 
   33400    278.30439   -1065.9844    142936.56   -48872.137    3821.8406   -52693.977   0.26373673 
   33600    281.00795   -1113.5546    143112.28   -48805.928    3858.9674   -52664.895   0.26999825 
   33800    279.90926   -1073.8504    142904.48   -48842.247    3843.8797   -52686.126    0.2717481 
   34000    278.79756   -865.47642    142592.34    -48868.15    3828.6131   -52696.763   0.28229354 
   34200    275.59842   -928.87148    142661.63   -48897.008    3784.6806   -52681.689    0.2859567 
   34400    276.63716   -1120.2737    142978.16   -48954.752    3798.9452   -52753.698   0.27799715 
   34600    275.09625    -1141.564     142967.4   -48929.278    3777.7846   -52707.063    0.2678815 
   34800    275.17794   -938.70916    142583.47   -48973.766    3778.9063   -52752.672   0.28096973 
   35000     276.2388   -862.35806     142413.9   -48999.877    3793.4748   -52793.352   0.30844867 
   35200    274.27417   -1002.5379    142767.68   -48983.889    3766.4952   -52750.384   0.27150579 
   35400    277.91443   -1169.2599    143098.69   -48941.052    3816.4854   -52757.537    0.2793431 
   35600    277.46296   -1054.3768    142846.74   -48938.807    3810.2856   -52749.093   0.28030998 
   35800    274.64111   -843.82805    142422.03   -48945.039    3771.5343   -52716.573   0.28348664 
   36000    277.45138   -874.48652     142527.3   -48945.753    3810.1266    -52755.88   0.30562009 
   36200    276.38185   -1090.4054    143031.02   -48952.414    3795.4391   -52747.853   0.26246795 
   36400     274.2631   -1157.7405    143182.93   -48975.436    3766.3432    -52741.78   0.25721571 
   36600    278.94384   -935.49956    142752.58   -48958.382    3830.6219   -52789.004   0.28210888 
   36800    278.26947    -779.0417    142415.47   -49006.257    3821.3611   -52827.619    0.2850576 
   37000    276.29788   -942.19808    142676.54   -48993.156     3794.286   -52787.442   0.28293633 
   37200    276.24127   -1151.9602     143121.9   -48949.067    3793.5087   -52742.576   0.26934514 
   37400    276.94559   -1084.9092    143025.64   -48942.426    3803.1807   -52745.607   0.26887424 
   37600    274.48837   -885.56548     142532.6   -48976.007    3769.4367   -52745.443   0.27770829 
   37800    276.67685   -762.26643    142412.21   -48944.939    3799.4903   -52744.429   0.29599267 
   38000    275.99975   -1039.6441     142870.2   -48990.087    3790.1919   -52780.279   0.28499609 
   38200    271.11399   -1228.6299    143178.15   -48978.474    3723.0978   -52701.571   0.25148905 
   38400    274.04064   -1010.7145    142839.74   -48951.548    3763.2883   -52714.836   0.29044911 
   38600    276.83029   -802.74354    142439.38   -48954.483    3801.5975    -52756.08   0.29051802 
   38800    272.39206   -911.83474     142586.4   -49001.431     3740.649    -52742.08   0.27747036 
   39000    270.18104    -1152.011     143011.2   -49020.962     3710.286   -52731.248   0.28786826 
   39200    269.91824   -1152.6724    143012.57   -49039.236     3706.677   -52745.913   0.26510242 
   39400    277.81975   -899.00769    142573.01   -49036.175    3815.1853   -52851.361   0.28046476 
   39600    274.21234   -824.24314     142385.1   -49105.931    3765.6462   -52871.577   0.29780476 
   39800    273.72826   -978.56107    142726.19   -49091.709    3758.9986   -52850.708   0.27536259 
   40000    271.04809   -1147.7242    143056.36   -49096.759    3722.1928   -52818.952   0.25910393 
   40200    272.55384   -1091.2451     142862.1   -49076.201    3742.8707   -52819.072    0.2753517 
   40400    274.51275   -828.39819    142453.16   -49076.871    3769.7715   -52846.643   0.29419561 
   40600    272.36321    -861.9313    142475.59   -49104.515    3740.2528   -52844.767   0.27485114 
   40800    270.06687    -1091.732    142902.47   -49115.546    3708.7182   -52824.264   0.28578027 
   41000    273.07144    -1124.949    143051.06   -49071.284    3749.9787   -52821.262   0.26482053 
   41200     271.3522   -960.92457    142688.82   -49107.868    3726.3691   -52834.237   0.25861423 
   41400     274.5147   -800.23238    142377.15   -49079.452    3769.7983    -52849.25    0.3098384 
   41600    275.80691   -938.14195    142631.66   -49072.793    3787.5438   -52860.337   0.27039346 
   41800    269.09394   -1180.1383    143108.09    -49063.75    3695.3573   -52759.108   0.26551067 
   42000    272.11401   -1174.7444    143075.95    -49037.75    3736.8306   -52774.581   0.28128916 
   42200     275.0775   -901.41411    142553.39   -49070.959     3777.527   -52848.486   0.27435939 
   42400    269.96397   -777.22679    142291.76    -49122.68    3707.3051   -52829.985   0.29516919 
   42600    263.72559   -1035.2957    142735.52   -49142.126    3621.6359   -52763.762    0.2841078 
   42800     273.0136   -1261.8071    143244.09   -49134.749    3749.1843   -52883.933   0.26017438 
   43000    269.53098   -1086.0238    142958.47   -49094.612    3701.3589   -52795.971   0.25099208 
   43200    272.21872    -712.4371    142239.71   -49109.354    3738.2686   -52847.622   0.30325711 
   43400    270.52983    -767.6979    142279.09   -49101.559    3715.0758   -52816.635   0.30453141 
   43600     271.6043    -1199.716    143155.12   -49086.006    3729.8309   -52815.837   0.23640816 
   43800    273.03624   -1371.2259    143546.88     -49052.1    3749.4952   -52801.595   0.26148413 
   44000    273.79477   -969.65886    142748.89    -49083.07    3759.9119   -52842.981   0.26939605 
   44200    272.24823   -538.64383    141972.38   -49135.084    3738.6738   -52873.758   0.28236418 
   44400    270.80844    -842.8319    142453.17   -49107.696    3718.9017   -52826.598   0.30892277 
   44600    269.37371   -1347.5136    143388.33   -49031.447    3699.1992   -52730.646    0.2455257 
   44800    272.96744   -1290.2341    143312.63   -48998.274    3748.5504   -52746.824   0.25400615 
   45000    275.56923   -824.71076    142414.07   -49045.901    3784.2797   -52830.181   0.29856906 
   45200    270.54184   -657.23791    142101.18   -49068.301    3715.2407   -52783.541   0.29834512 
   45400    274.46084   -1018.9983    142771.82   -49107.006    3769.0587   -52876.065    0.2751653 
   45600    270.13033   -1308.1873    143313.77   -49085.129    3709.5896   -52794.719   0.25107624 
   45800    270.09946   -1119.8492    142931.38   -49066.254    3709.1656    -52775.42   0.27877923 
   46000    274.68456   -792.70448    142329.34   -49072.556     3772.131   -52844.687   0.27823477 
   46200    270.20327   -821.41601    142426.86   -49102.887    3710.5912   -52813.478   0.30030919 
   46400    270.99344   -1091.4477    142968.51   -49077.756    3721.4423   -52799.199   0.27019987 
   46600    271.53143   -1192.9093    143112.72   -49071.953    3728.8303   -52800.784    0.2506886 
   46800     271.8423   -965.72118    142717.12   -49043.808    3733.0993   -52776.907   0.30838303 
   47000    274.49029   -837.36285    142463.95   -49027.805    3769.4631   -52797.268   0.27665075 
   47200      278.942   -945.77446    142707.85   -48997.408    3830.5966   -52828.004   0.27107407 
   47400     281.3718   -1138.2963    143045.27   -48926.649    3863.9641   -52790.614   0.27914865 
   47600    273.09652   -1105.2997    142985.14   -48901.649    3750.3231   -52651.972   0.26683411 
   47800    277.36251   -881.39526    142661.12   -48876.849    3808.9062   -52685.755   0.28450975 
   48000    281.13348   -853.66854    142641.68    -48881.56    3860.6914   -52742.251   0.27810543 
   48200    278.33088   -1038.4654    142939.83   -48878.157    3822.2044   -52700.362   0.28449376 
   48400    279.71746   -1100.3649    143089.49   -48856.484    3841.2458   -52697.729   0.26010701 
   48600    274.42846   -1038.7704    142843.37    -48921.08    3768.6141   -52689.694   0.27774454 
   48800    277.88752   -851.44439    142561.83   -48869.756     3816.116   -52685.872   0.30906904 
   49000    279.09072   -927.31974    142684.99   -48846.861     3832.639     -52679.5   0.26089972 
   49200    280.95851   -1077.0749    143005.87    -48874.12    3858.2886   -52732.409    0.2837586 
   49400     278.6724   -1140.5908    143042.73   -48882.991    3826.8944   -52709.885   0.27589907 
   49600    274.13305   -922.59452    142772.19   -48903.629    3764.5573   -52668.186   0.26420925 
   49800    285.19165   -842.26076    142622.66   -48887.324    3916.4205   -52803.745   0.29262315 
   50000    272.74132   -1007.8371    142833.49   -48885.626    3745.4452   -52631.072   0.27436989 
   50200    280.08593   -1086.0026    143027.48   -48918.821    3846.3058   -52765.127   0.26761756 
   50400    280.07091   -1043.0887    142895.35   -48924.591    3846.0995   -52770.691   0.27190335 
   50600    274.19685   -952.90839    142632.14   -48948.401    3765.4334   -52713.835   0.28767329 
   50800    275.04795   -920.94184    142646.89   -48958.748    3777.1213   -52735.869   0.28636566 
   51000    280.92808   -1105.7314    142942.06   -48895.394    3857.8707   -52753.265   0.27011351 
   51200    276.57399    -1110.951    143054.32   -48921.171    3798.0777   -52719.248   0.27314931 
   51400    278.11815   -968.92224    142769.14   -48890.954    3819.2831   -52710.237   0.26731471 
   51600    277.32037   -897.74092     142544.9   -48895.433    3808.3274    -52703.76   0.29247941 
   51800    273.73827   -946.80975    142745.41   -48888.875    3759.1359   -52648.011   0.28081878 
   52000    277.44504   -1139.8482    143050.79   -48847.268    3810.0395   -52657.307    0.2575328 
   52200    278.16378   -1095.4862    142980.51   -48820.798    3819.9096   -52640.707   0.28865575 
   52400    275.30001   -904.10221    142665.64   -48807.571    3780.5827   -52588.154   0.27402384 
   52600    276.88479   -859.89095    142648.97   -48845.225    3802.3458    -52647.57   0.28184188 
   52800    278.27446   -1090.8762     143016.5   -48857.846    3821.4296   -52679.276   0.27455474 
   53000     276.3413   -1171.3744     143166.8   -48859.576    3794.8823   -52654.459   0.25894533 
   53200    278.52859   -999.70429    142806.25   -48873.696    3824.9195   -52698.615   0.28927291 
   53400     277.6347   -822.83271    142485.25   -48906.436    3812.6441    -52719.08   0.28525979 
   53600    278.51019   -941.37512    142718.33   -48929.054    3824.6667    -52753.72   0.27682017 
   53800    278.91557   -1133.3173    143164.11   -48899.545    3830.2337   -52729.778   0.25227247 
   54000    282.39703   -1136.9217    143095.38   -48891.741    3878.0432   -52769.784   0.27268466 
   54200     277.3999   -850.11567    142580.18   -48905.209    3809.4197   -52714.629   0.29531597 
   54400    276.47724   -811.74555    142420.11   -48933.267    3796.7491   -52730.016   0.27594278 
   54600    275.39798   -1035.3353    142860.12   -48922.791    3781.9281   -52704.719   0.29320959 
   54800    278.00194   -1165.4169    143213.52   -48863.349    3817.6873   -52681.036   0.25380333 
   55000    275.07001   -1060.2422    142918.58   -48870.063    3777.4242   -52647.487     0.270749 
   55200    275.85491   -832.79427    142449.89   -48903.852    3788.2029   -52692.055   0.31771303 
   55400    273.37559   -911.31819    142581.07   -48924.749    3754.1554   -52678.904   0.28168563 
   55600     274.5099   -1157.8916    143102.85   -48952.008    3769.7325    -52721.74   0.27249701 
   55800    272.36371   -1207.6768    143164.83   -48923.623    3740.2597   -52663.883   0.26732779 
   56000    275.09336   -884.97082    142675.91   -48916.899    3777.7448   -52694.644   0.28007611 
   56200    276.01659   -795.78429    142419.02   -48954.637    3790.4232   -52745.061    0.3043524 
   56400    277.11349   -1017.2969     142816.2   -48953.091    3805.4864   -52758.577   0.27626044 
   56600    273.23651    -1226.448     143219.3   -48949.306    3752.2454   -52701.551   0.26624294 
   56800    278.77638   -1064.3147    142965.72   -48906.079    3828.3223   -52734.401   0.25443833 
   57000    279.09103   -826.04975    142478.61   -48919.876    3832.6432   -52752.519   0.30711695 
   57200    273.88749   -816.82313    142565.36   -48948.309    3761.1852   -52709.494   0.27981816 
   57400    270.59076   -1124.8262    143093.33   -48959.021    3715.9125   -52674.933   0.25213301 
   57600    274.34069    -1221.455    143179.49   -48947.478    3767.4088   -52714.887   0.28494513 
   57800    273.53309   -976.36943       142700   -48966.334    3756.3182   -52722.652   0.25958881 
   58000    273.59959   -777.82195     142382.1   -48984.471    3757.2316   -52741.702   0.29320963 
   58200    277.57498   -977.11015     142716.1    -49018.94    3811.8239   -52830.764   0.29069941 
   58400    269.06043   -1174.2514    143130.96   -49003.948    3694.8971   -52698.845   0.24626184 
   58600    272.67709   -1076.1681    143013.36   -48985.206    3744.5632   -52729.769   0.27624814 
   58800    272.49824   -912.05915    142592.04   -49023.425    3742.1072   -52765.532   0.28815799 
   59000    278.16414   -856.02988    142491.02   -49048.996    3819.9146    -52868.91   0.28666146 
   59200    272.27494   -1051.9529    142820.56   -49044.244    3739.0407   -52783.284   0.26280314 
   59400    276.61633   -1146.6853    143052.88   -48985.108    3798.6591   -52783.767   0.26563487 
   59600    276.47017   -1016.0124    142855.05    -48984.48     3796.652   -52781.132   0.28596606 
   59800    275.05163   -866.00018    142548.04   -48974.727    3777.1717   -52751.899   0.27536398 
   60000     274.2961   -895.64454    142628.02   -48962.112    3766.7965   -52728.909   0.30650639 
   60200    276.00451   -1081.2327    142985.89   -48931.282    3790.2573   -52721.539   0.26148229 
   60400    275.44266   -1141.0146    143069.29   -48897.312    3782.5417   -52679.854   0.25648095 
   60600    279.08764   -982.95281    142767.41    -48939.86    3832.5966   -52772.456    0.3024976 
   60800    276.81085   -838.73487    142520.15   -48886.062    3801.3305   -52687.393   0.28315816 
   61000    272.00246   -976.29382    142716.65   -48922.077    3735.2987   -52657.376   0.30073452 
   61200    277.17877   -1141.8472    143018.59   -48920.953     3806.383   -52727.336   0.26856401 
   61400    272.97593   -1080.9425    142967.72   -48917.465    3748.6671   -52666.132    0.2648111 
   61600    275.36098   -906.29127       142662   -48913.984    3781.4199   -52695.404   0.29199391 
   61800    276.06402   -877.40076    142604.36   -48914.668    3791.0746   -52705.742   0.28742652 
   62000    276.74021   -1034.1801    142845.19   -48935.081    3800.3603   -52735.442   0.28788058 
   62200    275.96905   -1108.8142    142993.66   -48942.815    3789.7703   -52732.586   0.26436235 
   62400    275.12881   -983.15028    142816.38   -48906.198    3778.2317    -52684.43   0.29169351 
   62600    278.59859   -894.67553    142573.68   -48930.142    3825.8807   -52756.023   0.28387476 
   62800    278.19064   -914.38756    142630.34   -48906.761    3820.2785    -52727.04   0.27720924 
   63000    280.41637   -1053.8594    142962.47    -48871.15    3850.8436   -52721.993   0.29103148 
   63200    279.64169   -1142.1626    143111.76    -48872.89    3840.2052   -52713.095   0.25237543 
   63400    278.56251   -1020.2327    142802.87   -48836.288    3825.3853   -52661.673   0.29605446 
   63600    276.76743     -808.489    142495.69   -48822.651    3800.7341   -52623.385   0.30443296 
   63800    278.35046   -950.02359    142757.99   -48847.094    3822.4733   -52669.567   0.26717465 
   64000    276.53837   -1179.4788     143270.3   -48831.923    3797.5886   -52629.512   0.26430079 
   64200    277.22225    -1175.856     143178.5   -48834.958      3806.98   -52641.938   0.27572121 
   64400    279.95082   -808.93813    142533.86   -48832.524    3844.4504   -52676.974   0.29580892 
   64600    275.89378   -788.31672    142333.29       -48888    3788.7367   -52676.737   0.29870449 
   64800    277.19415   -1038.8251    142903.37    -48891.53    3806.5942   -52698.124   0.27055372 
   65000    276.43159   -1294.4418    143365.66   -48872.988    3796.1222    -52669.11   0.25646252 
   65200     278.5447   -1108.6076    142927.75   -48904.798    3825.1408   -52729.939   0.27696194 
   65400    273.61197   -741.73511    142268.92   -48938.634    3757.4016   -52696.035   0.33318321 
   65600    279.63672   -805.83315    142430.03   -48960.504     3840.137   -52800.641   0.28084348 
   65800    278.74646   -1195.0671    143118.72   -48925.746    3827.9114   -52753.657   0.26595253 
   66000    275.76524   -1225.9237    143252.85   -48920.767    3786.9715   -52707.739   0.26559272 
   66200    270.92703   -940.05965    142653.15   -48953.681    3720.5304   -52674.211   0.28225498 
   66400    278.19063   -707.96176    142274.12    -48955.12    3820.2784   -52775.398   0.31417189 
   66600     277.8168   -944.74748    142701.82   -48962.918    3815.1448   -52778.063   0.28204184 
   66800    275.20966   -1221.6056    143207.17   -48936.689    3779.3419   -52716.031   0.25601744 
   67000    275.17708   -1100.2852    143007.57   -48967.217    3778.8945   -52746.112   0.26975376 
   67200    276.32662   -857.24718    142453.64   -48995.514    3794.6807   -52790.195   0.29589488 
   67400    278.61206   -816.95192    142405.31    -49029.21    3826.0657   -52855.276   0.29486889 
   67600    274.74323   -1050.3469    142885.23   -48980.265    3772.9367   -52753.202    0.2689468 
   67800     277.9758   -1174.3532    143122.72   -48925.744    3817.3282   -52743.073   0.27228664 
   68000    277.42886   -1004.3875    142812.12   -48925.958    3809.8174   -52735.776   0.26703081 
   68200    273.65724   -861.55492     142519.4   -48999.653    3758.0232   -52757.677   0.28638258 
   68400    277.30839     -904.502    142676.28   -48945.295    3808.1629   -52753.458   0.28615227 
   68600    276.66938   -1127.4115    143068.81   -48925.504    3799.3877   -52724.892   0.25483873 
   68800    277.82495   -1164.3337    143113.62   -48894.903    3815.2567   -52710.159   0.28512604 
   69000    274.46512   -940.72148    142769.63   -48942.008    3769.1175   -52711.126   0.28220706 
   69200    278.12199   -854.82984    142540.71   -48951.541    3819.3358   -52770.877   0.27798937 
   69400    274.40384     -982.025    142755.13   -48986.604     3768.276    -52754.88    0.2750371 
   69600    269.30803   -1138.6822    143052.06   -48994.039    3698.2972   -52692.336   0.26316856 
   69800    275.29163    -1073.341    142955.89   -48963.699    3780.4676   -52744.167   0.27162654 
   70000    277.35314   -886.14327     142656.8   -48931.312    3808.7776    -52740.09   0.28771298 
   70200    277.94912   -912.05775    142641.87   -48916.192    3816.9618   -52733.154   0.29303427 
   70400    279.71379    -1011.107    142899.92   -48926.093    3841.1953   -52767.288   0.26336132 
   70600    278.56687   -1122.2087    143038.12   -48897.318    3825.4451   -52722.763   0.25923789 
   70800    273.62926   -1059.3671    142854.86   -48923.812    3757.6389   -52681.451    0.2968291 
   71000    277.28755   -869.42884    142639.02   -48969.513    3807.8768    -52777.39   0.27303168 
   71200    274.89299   -959.28131    142723.15     -48976.9    3774.9933   -52751.893   0.28209346 
   71400    275.09639   -1050.3093    142989.99   -48942.817    3777.7864   -52720.603   0.27395183 
   71600    274.66954   -1105.0917     143043.5   -48920.734    3771.9247   -52692.658   0.25445202 
   71800     274.3052   -1012.2774     142812.5    -48942.97    3766.9213   -52709.891   0.28225424 
   72000    271.89787   -902.46071    142645.21   -48969.602    3733.8625   -52703.464   0.29428638 
   72200    273.05776   -991.58911    142759.39   -49002.495    3749.7908   -52752.285   0.27747854 
   72400    275.93313   -1106.4529    142971.58    -48981.89    3789.2771   -52771.167   0.25952985 
   72600    273.22003   -1064.5498    142964.88   -48949.461    3752.0191    -52701.48   0.27602347 
   72800    267.05417   -1017.3766    142746.69   -49024.074     3667.346    -52691.42   0.28686573 
   73000    275.49322   -915.34198    142616.54   -49024.102    3783.2359   -52807.338   0.26683771 
   73200     274.4429   -981.89315     142753.3   -49035.254    3768.8123   -52804.066   0.28841936 
   73400    276.52797   -1007.2687    142916.47   -49028.222    3797.4457   -52825.668   0.25327636 
   73600    274.36196   -1066.3796    142899.41   -49011.691    3767.7009   -52779.392   0.27105553 
   73800     274.8565     -980.855    142725.12   -49009.169    3774.4921   -52783.661   0.30078033 
   74000    270.17465   -901.30515    142653.13   -49055.492    3710.1982   -52765.691   0.26984106 
   74200     273.8687    -1027.364    142797.04   -49051.106    3760.9271   -52812.033   0.27743642 
   74400    273.58256   -1069.5251    142925.54   -49012.725    3756.9976   -52769.723   0.28500244 
   74600    272.69401   -1011.2919    142829.17   -49036.057    3744.7955   -52780.852   0.27340499 
   74800    270.57009   -908.94509    142652.97    -49047.54    3715.6287   -52763.169   0.28057786 
   75000     276.4737   -934.72854    142712.34   -49013.313    3796.7005   -52810.014   0.27478459 
   75200     275.4146   -1061.8473    142948.52   -48997.535    3782.1562   -52779.691   0.26755424 
   75400    274.49188   -1074.0184    142975.72   -48985.619    3769.4849   -52755.104   0.26445693 
   75600    275.84876   -982.96365    142747.11   -48968.988    3788.1185   -52757.106    0.3025976 
   75800    273.61847   -914.78998    142630.56   -48948.713    3757.4908   -52706.204   0.29291181 
   76000    276.47242    -988.3485     142837.5   -48932.733    3796.6829   -52729.416   0.25965406 
   76200    275.84051   -1137.2194    143041.89   -48954.781    3788.0052   -52742.786   0.28582827 
   76400    274.51824   -1009.2617    142857.63   -48927.186    3769.8469   -52697.033   0.27169899 
   76600    275.07469   -865.07119    142567.58   -48919.107    3777.4885   -52696.595   0.28605915 
   76800    276.27946   -895.67503    142652.47   -48917.845    3794.0331   -52711.878   0.30094389 
   77000    281.00524   -1133.3325    143041.39   -48915.197    3858.9303   -52774.128   0.25703718 
   77200    276.29933   -1137.4292    143131.95   -48955.262    3794.3059   -52749.568   0.25473785 
   77400    272.09922   -953.32928    142722.27   -48952.218    3736.6275   -52688.846   0.29109628 
   77600    272.98713   -770.58424    142408.71   -48971.054    3748.8208   -52719.875   0.30158747 
   77800    277.96844   -956.84028    142749.55    -48980.54    3817.2271   -52797.767   0.27377371 
   78000    274.26473    -1246.208    143292.19   -48970.419    3766.3656   -52736.785   0.26020023 
   78200    271.81921   -1181.2436    143140.04   -48965.463    3732.7823   -52698.245   0.27089689 
   78400      275.178   -793.10937    142442.94   -48995.121    3778.9072   -52774.028   0.27294274 
   78600    273.36992   -700.56307    142270.14   -49015.748    3754.0776   -52769.825   0.31833037 
   78800    273.89118   -1092.9511    142943.47   -48994.102    3761.2358   -52755.337   0.27035352 
   79000    273.16047   -1285.1392    143381.95     -48968.2    3751.2012   -52719.401    0.2391699 
   79200    275.76642   -1021.7118    142878.86   -48985.692    3786.9877    -52772.68   0.28988191 
   79400    277.89902   -720.03308    142234.27   -48950.619    3816.2738   -52766.893   0.29455411 
   79600    275.15467   -828.10285    142513.01   -48939.688    3778.5868   -52718.275   0.28655236 
   79800    275.19082   -1225.9476    143288.62   -48951.835    3779.0832   -52730.918   0.26336629 
   80000    276.94486   -1262.1901    143308.33   -48923.592    3803.1708   -52726.762   0.25390306 
   80200    276.05828   -890.90097    142554.25   -48901.818    3790.9958   -52692.814   0.29382984 
   80400    275.36066   -727.68354    142260.19   -48877.609    3781.4155   -52659.024   0.31481722 
   80600    273.24934   -1021.6161    142878.77   -48890.014    3752.4217   -52642.436   0.27753794 
   80800    279.54682   -1273.4715    143389.44   -48826.652    3838.9024   -52665.555   0.24040289 
   81000    278.64016   -1104.5606    142984.53   -48882.014    3826.4516   -52708.465   0.29022863 
   81200    278.46425   -766.27754    142340.66   -48871.255    3824.0359   -52695.291   0.30824768 
   81400    280.85235   -847.16071     142454.7   -48849.188    3856.8307   -52706.019   0.28130545 
   81600    274.48677   -1149.5467    143100.36   -48859.289    3769.4148   -52628.704   0.29528431 
   81800    277.35544   -1234.7099    143266.61   -48859.551    3808.8091    -52668.36   0.24758351 
   82000    281.76174   -966.19376    142760.65   -48835.146     3869.319   -52704.465   0.28003069 
   82200    279.04011   -773.69545    142437.51   -48881.345    3831.9439   -52713.289   0.31929614 
   82400    277.67861   -960.95953       142734    -48879.45     3813.247   -52692.697   0.26862956 
   82600    275.33003   -1163.5002    143098.54   -48915.302    3780.9949   -52696.297   0.26082526 
   82800    278.90676   -1075.1978    142988.87   -48953.713    3830.1127   -52783.826   0.27328101 
   83000    275.44512   -884.83061    142602.21   -48944.588    3782.5754   -52727.164   0.28249774 
   83200    274.44904   -870.63606    142550.94   -48964.897    3768.8967   -52733.794   0.28392699 
   83400    273.46414   -1066.3213    142882.48   -48979.126    3755.3714   -52734.498   0.28502947 
   83600    274.62662   -1135.6529    143026.92   -48991.523    3771.3353   -52762.858   0.25857932 
   83800    276.96972   -981.06814    142781.28   -48947.331    3803.5122   -52750.843    0.2620633 
   84000    275.46073   -890.98754    142553.59   -48980.236    3782.7898   -52763.026   0.32088074 
   84200    271.66368   -989.56143    142708.95   -48966.853    3730.6464   -52697.499    0.2747821 
   84400    280.67007   -1086.1391     142978.7   -48966.333    3854.3275   -52820.661   0.25619947 
   84600    276.50209   -1079.4308    142923.16   -48963.784    3797.0904   -52760.874   0.29564136 
   84800    283.64956   -884.81409    142624.59   -48978.263    3895.2436   -52873.507   0.25774448 
   85000    276.56973   -900.74224    142584.64   -48944.398    3798.0193   -52742.417   0.29454409 
   85200    272.38533    -1011.168     142896.8   -48910.564    3740.5566    -52651.12   0.29030592 
   85400    275.30539   -1164.8444    143093.23   -48894.438    3780.6566   -52675.095   0.25637136 
   85600    275.81265   -1062.6839    142877.16   -48895.303    3787.6226   -52682.926   0.27016997 
   85800    279.49834   -837.85699    142549.47   -48913.326    3838.2366   -52751.563   0.29524906 
   86000    275.04069   -891.50195     142648.2   -48868.965    3777.0215   -52645.986   0.28483162 
   86200    276.64944    -1123.033    143076.36   -48874.088    3799.1138   -52673.202   0.25372472 
   86400    276.48758   -1158.0812    143158.08   -48865.795    3796.8911   -52662.686   0.28258754 
   86600    278.45831   -943.23952    142769.06   -48870.772    3823.9544   -52694.726   0.26722474 
   86800    281.02234     -793.028     142540.6   -48903.866    3859.1651   -52763.031   0.27045732 
   87000    276.12872   -995.87788    142842.58   -48921.251    3791.9631   -52713.214   0.30501045 
   87200    278.22095   -1176.8314     143177.5   -48888.351    3820.6947   -52709.046   0.24044275 
   87400    279.89188        -1102    143019.09   -48854.724    3843.6409   -52698.365   0.26149462 
   87600    279.69188   -858.29014    142578.06   -48923.825    3840.8945   -52764.719    0.2987942 
   87800    278.53024   -876.05659    142513.59   -48932.739    3824.9421   -52757.681   0.27755701 
   88000     273.3504   -1079.0077    142938.57   -48880.593    3753.8095   -52634.403   0.27914425 
   88200    272.83811   -1197.3072    143230.17   -48886.058    3746.7745   -52632.832   0.26564833 
   88400    276.52659   -1077.0989    142927.42   -48877.581    3797.4269   -52675.008   0.27008178 
   88600    271.35234   -833.67618    142469.76   -48897.507    3726.3709   -52623.877   0.28813216 
   88800    279.85821   -865.40783    142565.02   -48887.381    3843.1785   -52730.559   0.29391859 
   89000    281.05502   -1164.9964    143093.77   -48900.097    3859.6139   -52759.711   0.26314152 
   89200    275.02167   -1228.7089    143208.29     -48871.3    3776.7604    -52648.06   0.24911711 
   89400    281.03484   -908.10695    142703.87   -48853.174    3859.3367   -52712.511   0.29863489 
   89600    278.39994   -769.05209    142383.83    -48878.58    3823.1528   -52701.733   0.28649421 
   89800    276.36932   -971.63566    142790.98   -48907.561     3795.267   -52702.828    0.2711584 
   90000    277.37371   -1234.6652    143281.34   -48915.154      3809.06   -52724.214   0.26970771 
   90200     277.8683   -1132.1054    143014.71   -48961.866    3815.8519   -52777.718   0.25172741 
   90400    276.51856   -719.78967     142305.8   -48990.433    3797.3165    -52787.75   0.30036183 
   90600    275.10906   -760.94784     142289.6   -48985.112    3777.9604   -52763.072   0.31081715 
   90800    277.69127   -1154.9643    143109.07   -48996.752    3813.4209   -52810.172   0.25587917 
   91000    272.11261   -1401.4578    143492.49    -48988.44    3736.8114   -52725.252   0.24678365 
   91200    272.33286   -999.42194    142737.55   -49013.291    3739.8361   -52753.127   0.28205579 
   91400    273.45375   -583.87002    142005.43   -49013.217    3755.2287   -52768.446   0.30709126 
   91600    271.06438    -828.6032    142508.43   -49014.743    3722.4165   -52737.159    0.2771999 
   91800    271.90834   -1356.5547    143514.92   -48976.179    3734.0062   -52710.185    0.2550411 
   92000    272.30148   -1300.6446     143403.9   -48990.304    3739.4051   -52729.709   0.23737001 
   92200    274.76362    -823.3444     142393.4   -49027.754    3773.2166   -52800.971   0.28916319 
   92400    275.99972   -644.96198     142072.5   -49012.913    3790.1916   -52803.104   0.32105898 
   92600    276.15354   -989.66468    142811.37   -49057.584    3792.3039   -52849.888   0.24883844 
   92800    275.11381   -1292.7189    143370.44   -49019.508    3778.0257   -52797.534   0.25438957 
   93000    272.84995   -1095.7963    143024.15   -48955.919     3746.937   -52702.856   0.26860313 
   93200     275.1127   -819.57527    142510.13    -48963.12    3778.0105   -52741.131   0.27386604 
   93400    277.09232   -886.18377    142621.11   -48965.873    3805.1958   -52771.069   0.28241155 
   93600    275.76763   -1085.3214    143032.35   -48944.574    3787.0044   -52731.578   0.26936128 
   93800    275.25799   -1097.0616    143117.06    -48933.35    3780.0056   -52713.355    0.2490843 
   94000    274.80932    -950.8204    142807.36    -48938.55    3773.8443   -52712.394   0.26680726 
   94200     277.8283   -888.61376    142564.94   -49020.607    3815.3027    -52835.91   0.29688381 
   94400     274.4407    -917.0203    142675.96   -49005.624    3768.7821   -52774.406   0.27197444 
   94600    272.30048   -1069.2144    142945.03   -48998.015    3739.3913   -52737.407   0.26701695 
   94800    273.47095   -1087.3685    142951.92   -49046.589    3755.4649   -52802.054   0.28347581 
   95000    270.65207    -984.1909    142709.83   -49056.553    3716.7544   -52773.307   0.25490382 
   95200    270.39948    -916.3659    142588.07   -49063.631    3713.2858   -52776.917   0.28620178 
   95400    272.51385   -991.23012    142742.06   -49072.845    3742.3215   -52815.167   0.28820249 
   95600    273.21102   -1035.8222    142913.89   -49034.671    3751.8955   -52786.566   0.25489334 
   95800    270.66742   -1025.5786    142884.21   -49000.207    3716.9652   -52717.172   0.27467743 
   96000    274.62131   -940.98258    142735.89   -48994.716    3771.2624   -52765.978   0.28894626 
   96200     275.3603   -930.52871    142701.45   -49035.958    3781.4106   -52817.368   0.28165805 
   96400    274.04747   -1032.0646    142808.77   -49028.505    3763.3821   -52791.887   0.27062758 
   96600    269.33522   -1050.6832     142902.1   -49037.389    3698.6706    -52736.06   0.28084775 
   96800    277.34278   -986.11881    142800.05   -49088.464    3808.6351   -52897.099   0.26009406 
   97000    271.09845    -955.8076    142635.44   -49076.599    3722.8843   -52799.483   0.27254665 
   97200    270.09435   -959.10112     142666.9   -49063.532    3709.0955   -52772.628   0.29770757 
   97400    276.05461   -1062.6345    142843.17   -49018.184    3790.9453   -52809.129   0.26592702 
   97600    272.82726   -1106.4027    142908.46   -48990.078    3746.6254   -52736.703    0.2714647 
   97800    269.99847   -1004.7134    142789.27   -48986.969    3707.7788   -52694.748   0.28657121 
   98000    273.59657   -911.61841    142659.71    -48961.25      3757.19    -52718.44    0.2649434 
   98200    273.62987   -967.67248    142730.61   -48970.301    3757.6473   -52727.948   0.27889467 
   98400    274.89318   -1021.3623    142912.77   -48900.918    3774.9958   -52675.914   0.28313207 
   98600    276.48895   -1077.6354    142959.67   -48944.481      3796.91   -52741.391   0.26023629 
   98800    276.99807    -935.7958    142753.25   -48911.711    3803.9015   -52715.613   0.28410048 
   99000    277.58373   -904.33867    142635.02   -48915.967    3811.9441   -52727.911   0.29105662 
   99200    274.69176   -1000.2715    142779.14   -48974.865    3772.2299   -52747.095   0.27842094 
   99400    271.34993   -1092.9764    142926.43   -49059.689    3726.3379   -52786.027   0.26269175 
   99600    266.17059   -1031.0103    142764.21   -49083.994    3655.2121   -52739.206   0.28551964 
   99800    269.36301    -847.2046    142514.49   -49061.261    3699.0523   -52760.314   0.27952197 
  100000    270.91553    -908.1206     142622.7   -49060.193    3720.3724   -52780.566    0.2818145 
  100200    275.94493   -1109.6409    142951.18   -49015.958    3789.4392   -52805.397   0.28996806 
  100400    273.39502   -1108.4357    143000.68   -49011.759    3754.4222   -52766.181   0.25128578 
  100600    277.15857   -938.02158    142664.68   -48968.819    3806.1055   -52774.924   0.27674424 
  100800    269.18059   -835.23367    142461.39   -49000.595    3696.5472   -52697.142   0.30408562 
  101000    275.20916   -1012.2063    142765.82   -48980.626    3779.3351   -52759.961   0.26914293 
  101200    271.46047   -1179.9951    143108.04    -48954.08    3727.8558   -52681.936    0.2790304 
  101400    272.77226    -1039.742    142927.44    -48961.87    3745.8701    -52707.74   0.27694947 
  101600    279.29087   -868.38279    142506.92   -48984.545    3835.3875   -52819.933   0.27933294 
  101800    276.81605   -849.86888    142503.96   -48953.083    3801.4018   -52754.485   0.28709218 
  102000    274.97617   -1080.6574    142944.45   -48948.306    3776.1356   -52724.441   0.28602795 
  102200    275.58073   -1170.1552    143156.18   -48935.979    3784.4377   -52720.417   0.26147184 
  102400    273.58755   -1022.4481    142779.68   -48886.281    3757.0662   -52643.347   0.28415267 
  102600    280.00414   -782.55132    142389.22    -48902.84    3845.1827   -52748.022   0.30899413 
  102800    276.24794   -911.41459    142606.35   -48911.437    3793.6002   -52705.037   0.27762377 
  103000    275.99947   -1211.5069    143091.98    -48897.21    3790.1881   -52687.398   0.26670097 
  103200    281.18419   -1132.2372    143057.72   -48877.191    3861.3878   -52738.579   0.27347149 
  103400     273.2194   -902.48424    142554.54   -48911.082    3752.0105   -52663.092   0.27924111 
  103600      273.176   -803.58931    142390.05   -48917.976    3751.4145   -52669.391   0.30740429 
  103800    274.48803   -1038.5504    142850.23   -48916.117     3769.432    -52685.55   0.27775597 
  104000    271.83395   -1219.1006    143199.08   -48917.254    3732.9848   -52650.238    0.2597036 
  104200    275.17577   -1041.0604    142890.99   -48935.385    3778.8766   -52714.262   0.27927495 
  104400    276.82631   -809.55613     142430.9   -48959.542    3801.5427   -52761.085   0.29184314 
  104600    276.24964   -864.77269    142534.38   -48954.292    3793.6236   -52747.916   0.28941424 
  104800    272.89135   -1102.1597    143036.06   -48937.955    3747.5056    -52685.46   0.26635484 
  105000    276.76763   -1175.4352    143178.12   -48962.476     3800.737   -52763.213   0.26659897 
  105200    275.46324   -969.96853    142702.26   -48970.628    3782.8242   -52753.452   0.27438935 
  105400    276.53109   -790.98238    142352.29   -48967.821    3797.4885   -52765.309    0.2918864 
  105600    275.30608   -927.85106    142689.82   -48962.265     3780.666   -52742.931   0.30114407 
  105800    274.80061   -1203.6782    143180.91    -48969.83    3773.7246   -52743.555   0.25088216 
  106000      278.784   -1090.9369    143035.67   -48954.101    3828.4268   -52782.527   0.26371207 
  106200    280.83655   -868.53435    142517.51   -48940.393    3856.6137   -52797.007   0.29613575 
  106400    274.76484    -804.3352    142454.38   -48953.233    3773.2334   -52726.466   0.27493194 
  106600    276.49284   -1073.7423    142922.82   -48947.559    3796.9634   -52744.523    0.2756656 
  106800    272.25295   -1242.6637     143172.9   -48936.179    3738.7387   -52674.918   0.27286776 
  107000    279.60332   -1021.8104    142853.77   -48901.544    3839.6783   -52741.222   0.27122503 
  107200    278.47061   -899.76814    142524.62    -48895.77    3824.1233   -52719.893   0.29022078 
  107400    276.65468   -863.73377    142661.06   -48900.182    3799.1858   -52699.367   0.28857525 
  107600    280.07818   -1116.0497    143026.53   -48873.825    3846.1994   -52720.024   0.26041185 
  107800     277.6591   -1122.8323    143033.35   -48893.354    3812.9791   -52706.333   0.26558831 
  108000    279.65052    -903.3595    142625.49   -48876.594    3840.3265   -52716.921   0.29727544 
  108200    277.06567   -806.99703    142447.54   -48911.382    3804.8298   -52716.211   0.27862155 
  108400    278.71499   -1023.9049    142780.21   -48903.338    3827.4793   -52730.817     0.282838 
  108600    277.38372   -1202.8489    143097.25   -48870.964    3809.1975   -52680.161   0.28679236 
  108800    276.28874   -1076.6694    142942.67   -48893.531    3794.1605   -52687.692   0.26409203 
  109000    277.62091   -862.23062    142542.25   -48936.182    3812.4547   -52748.637   0.28760145 
  109200    273.68496   -859.12692    142502.66   -48938.215    3758.4039   -52696.619     0.302633 
  109400    276.28873   -1034.6743    142886.83   -48918.678    3794.1603   -52712.839   0.26022484 
  109600    279.80754   -1185.2242    143128.17   -48877.419    3842.4827   -52719.902   0.27054652 
  109800    276.72387    -1034.679    142855.22   -48930.376     3800.136   -52730.512   0.27818163 
  110000    277.20447   -815.00503    142485.54   -48878.268    3806.7358   -52685.004   0.29134539 
  110200    276.00429   -909.39411    142628.95   -48864.598    3790.2543   -52654.852    0.2898799 
  110400    275.85241   -1141.5303    143080.36    -48906.29    3788.1685   -52694.459   0.27711477 
  110600    278.19755   -1160.7056    143065.67   -48974.416    3820.3734   -52794.789   0.25476407 
  110800    274.38575   -877.03133    142555.16   -48978.007    3768.0275   -52746.035   0.27980652 
  111000    270.22538   -813.47232    142328.54   -48982.916    3710.8948   -52693.811   0.31578297 
  111200    276.90954    -957.9497    142726.92   -48967.831    3802.6858   -52770.517   0.26904492 
  111400    276.17772   -1227.6361    143173.33   -49011.241    3792.6359   -52803.877   0.26898028 
  111600    271.46282   -1135.7003    142947.67   -49064.295    3727.8881   -52792.183   0.27050079 
  111800    270.27994   -791.74761    142340.71   -49102.796    3711.6441    -52814.44   0.27907287 
  112000    276.56066   -751.61336     142298.3   -49097.439    3797.8947   -52895.334   0.29347628 
  112200    268.99069   -1080.8373    142942.41   -49050.057    3693.9393   -52743.997    0.2741802 
  112400    273.54508   -1283.2936    143298.82   -49012.135     3756.483   -52768.618   0.25807388 
  112600    273.62217    -1017.217    142790.83   -48996.162    3757.5416   -52753.704   0.27738084 
  112800    275.01383   -687.15569    142219.47   -49019.952    3776.6527   -52796.604   0.30077531 
  113000    274.52846   -895.97374    142497.31   -48997.329    3769.9873   -52767.317   0.28164384 
  113200    272.54702   -1203.9681    143181.65   -49019.466    3742.7771   -52762.243   0.25233563 
  113400    269.68865   -1212.8458    143172.36   -48999.076    3703.5242     -52702.6   0.27353118 
  113600    272.45622   -861.79422     142466.7   -49014.464    3741.5301   -52755.994   0.28465294 
  113800    276.88469    -726.8103    142201.27   -49002.734    3802.3444   -52805.079   0.30281149 
  114000    274.24369   -1004.4334    142780.54   -48981.619    3766.0767   -52747.696   0.27615554 
  114200    274.96134   -1301.5617    143302.93   -48984.563    3775.9318   -52760.494   0.24546607 
  114400    279.61413   -1092.7412    143002.35   -48934.193    3839.8268    -52774.02   0.26550905 
  114600    270.74778   -807.05245    142443.01   -48915.566    3718.0687   -52633.635   0.29705941 
  114800    276.92235   -799.73642    142519.32   -48903.282    3802.8616   -52706.143   0.28105203 
  115000    276.74169   -1127.9125    143063.42   -48923.182    3800.3808   -52723.563   0.26776915 
  115200    276.37919   -1159.4872    143180.04   -48933.651    3795.4026   -52729.054   0.26028385 
  115400    272.85158    -979.3943     142716.5   -48951.228    3746.9595   -52698.187   0.27551311 
  115600    276.42016   -798.21693       142415   -48940.715    3795.9653   -52736.681   0.28820915 
  115800    281.97206   -936.84918    142716.22   -48953.122    3872.2072   -52825.329   0.27468754 
  116000    274.73232   -1147.1919    143100.24   -48932.012    3772.7868   -52704.799   0.25592976 
  116200    274.09212   -1125.4343    143022.28   -48949.945    3763.9952   -52713.941   0.27374218 
  116400    273.04126   -925.22922    142664.86   -48994.901    3749.5641   -52744.465   0.28183237 
  116600    279.59456   -882.59853    142586.38   -49008.538     3839.558   -52848.096   0.26210604 
  116800    278.02326   -986.99777    142846.49   -48963.285      3817.98   -52781.265   0.27692321 
  117000    277.18579   -1119.6204    143012.11   -48967.422    3806.4794   -52773.901   0.26529232 
  117200    274.33096   -993.16208     142846.2   -48960.321    3767.2752   -52727.596   0.26342149 
  117400    272.46487   -890.95648    142656.88   -48986.983    3741.6488   -52728.632   0.28068454 
  117600    275.73521   -958.05438    142708.11   -48967.467     3786.559   -52754.026   0.28073135 
  117800    277.91916   -1059.8292    142881.28   -48927.068    3816.5504   -52743.618   0.27390435 
  118000    274.07345   -1065.1364    142919.14   -48917.658    3763.7389   -52681.397   0.28185367 
  118200    281.07721   -995.49565     142781.8   -48952.296    3859.9186   -52812.214   0.28032393 
  118400    278.17309   -930.74409    142666.24   -49001.901    3820.0375   -52821.939   0.26793393 
  118600    274.22308   -1020.1688     142723.9   -49026.421    3765.7936   -52792.214   0.26897073 
  118800    268.00443   -1063.8256    142803.86   -49071.253    3680.3955   -52751.648   0.28410569 
  119000    270.07955   -1034.2249    142739.75   -49071.233    3708.8923   -52780.126   0.27225078 
  119200    274.54064   -977.11205    142640.38   -49074.147    3770.1546   -52844.301   0.28673728 
  119400    273.24929   -951.96701    142640.09   -49098.238     3752.421   -52850.659   0.27725521 
  119600      272.969   -975.00069    142719.57   -49040.394    3748.5719   -52788.966   0.26614953 
  119800    272.43559   -1013.9268    142777.36   -49036.691    3741.2468   -52777.938   0.28570355 
  120000    271.76937   -986.24126    142774.01   -49053.731    3732.0979   -52785.829   0.26904832 
  120200    269.55588   -994.80956    142730.34   -49029.727    3701.7009   -52731.428   0.27628568 
  120400    271.56347   -988.80635    142753.39   -49073.495    3729.2703   -52802.765   0.27500041 
  120600    272.04791   -1026.2273    142792.66   -49066.515    3735.9229   -52802.438   0.27422336 
  120800    271.16048   -990.56143    142802.76   -49058.556    3723.7362   -52782.292   0.26969235 
  121000    268.94915   -1023.9969    142777.34   -49044.495     3693.369   -52737.864    0.2698975 
  121200    273.95799   -992.90828    142768.18   -49044.085    3762.1533   -52806.239   0.27286864 
  121400    272.39456   -1018.6066    142754.03   -49042.492    3740.6834   -52783.176   0.27355605 
  121600    275.47415   -978.19643    142742.15   -49033.819     3782.974   -52816.793    0.2803884 
  121800    270.20365   -1028.1785    142790.12   -49031.176    3710.5965   -52741.773   0.28044222 
  122000    270.66533   -994.74167    142783.86   -49010.209    3716.9365   -52727.146   0.26511338 
  122200    278.12973   -956.61294    142735.33   -48980.871    3819.4421   -52800.313   0.28539903 
  122400    271.96315   -982.98569     142749.2   -48937.052    3734.7589   -52671.811   0.27342496 
  122600    279.49504   -1008.7647    142846.61   -48861.536    3838.1913   -52699.727   0.27537072 
  122800    274.90793   -1066.3493    142917.04   -48860.207    3775.1984   -52635.406   0.28755238 
  123000     276.7164   -1015.1705    142829.08   -48906.467    3800.0334   -52706.501   0.27486596 
  123200     278.2775   -915.96247    142693.94   -48930.256    3821.4713   -52751.728   0.27731799 
  123400    276.00637   -944.50037     142685.6   -49009.042    3790.2829   -52799.325   0.27411713 
  123600    272.97421   -1011.3108    142832.02    -48957.41    3748.6434   -52706.053   0.27234197 
  123800    272.85015   -1040.4193    142935.58   -48977.596    3746.9397   -52724.535   0.26691644 
  124000    274.44379   -1005.1171    142817.27   -48963.307    3768.8246   -52732.132    0.2749122 
  124200    277.51536   -958.22989    142661.19   -48950.842    3811.0051   -52761.847   0.28254481 
  124400    276.97957   -977.94181    142727.82   -48963.698    3803.6475   -52767.346   0.27578008 
  124600    278.09095   -1103.7904    142920.25   -48977.578    3818.9096   -52796.487   0.28237504 
  124800    273.60439   -1073.1187    142891.47   -48981.589    3757.2974   -52738.886   0.27424662 
  125000    276.43189   -922.64299    142667.14   -48993.112    3796.1264   -52789.238    0.2684424 
  125200    277.80833   -911.34849    142605.03   -48986.428    3815.0284   -52801.456   0.28909659 
  125400    274.59449   -989.18688    142812.77   -49047.608     3770.894   -52818.502   0.26759959 
  125600    270.31554   -1106.3387    142954.41   -49039.062     3712.133   -52751.195   0.27297904 
  125800    272.64965   -1030.7987    142801.19   -49032.966    3744.1863   -52777.152    0.2815434 
  126000    273.94977   -882.76601    142593.92   -49005.187    3762.0404   -52767.228   0.26914915 
  126200    274.45985   -912.58861    142665.17   -48986.228    3769.0451   -52755.274    0.2746071 
  126400    275.36921   -1092.5158    142923.64   -49009.487    3781.5329    -52791.02   0.27305968 
  126600    269.91838   -1098.2418    142918.41   -49032.581     3706.679    -52739.26   0.27725597 
  126800    273.84301    -939.2038    142621.28   -49009.838    3760.5743   -52770.413   0.28659189 
  127000    278.74703   -881.69128    142495.36   -49028.859    3827.9192   -52856.779   0.28430807 
  127200    271.96956   -1030.5375    142767.19   -49057.077    3734.8469   -52791.924   0.27211557 
  127400    270.80533   -1118.0005    143006.56     -49051.2     3718.859   -52770.059   0.25942855 
  127600    267.24899   -1070.0512    142800.74   -49047.924    3670.0213   -52717.946   0.28825194 
  127800    277.64307   -826.58335    142431.61   -49043.779     3812.759   -52856.538   0.28088668 
  128000    270.14998   -917.95119    142536.41   -49040.131    3709.8594   -52749.991   0.29010177 
  128200    271.37628   -1146.4145    143015.73   -49000.079    3726.6996   -52726.779   0.27240578 
  128400    271.28918   -1156.7047    143136.75   -49022.595    3725.5036   -52748.099   0.24793701 
  128600    268.82026   -941.02723    142646.67   -49060.152     3691.599   -52751.751   0.28606748 
  128800    271.91716   -768.58423     142296.2   -49100.543    3734.1273   -52834.671   0.28827617 
  129000    272.35382   -972.11586    142689.96   -49128.826    3740.1238    -52868.95   0.27159339 
  129200    270.99173   -1235.0763    143259.15   -49078.923    3721.4189   -52800.342   0.25159913 
  129400    273.79951   -1157.2079    143099.98   -49081.516    3759.9769   -52841.492   0.25743408 
  129600    275.57827    -812.4283    142411.49   -49091.944     3784.404   -52876.348   0.28374503 
  129800    263.71055   -763.96438    142301.15   -49106.029    3621.4293   -52727.459   0.28883836 
  130000    267.25749   -1118.7132     142968.9   -49106.821     3670.138   -52776.959   0.26425149 
  130200    269.64779    -1298.646    143333.81   -49117.184    3702.9631   -52820.147   0.24522651 
  130400    272.38616   -1000.5184    142820.15   -49110.408    3740.5679   -52850.976   0.26643469 
  130600     275.5867   -726.64683     142234.5   -49078.113    3784.5197   -52862.632   0.30511842 
  130800    270.26983   -853.80274    142482.28   -49095.477    3711.5053   -52806.982   0.28063674 
  131000    267.73482   -1183.6105    143140.81   -49102.887     3676.693   -52779.581   0.26356109 
  131200    272.57115   -1181.6452    143161.92   -49076.568    3743.1083   -52819.677   0.25832952 
  131400    270.28828   -853.78322    142530.17   -49086.128    3711.7587   -52797.887   0.27859806 
  131600    273.83696   -757.11117    142232.82   -49084.532    3760.4912   -52845.023   0.29539802 
  131800    274.28308   -997.32062    142653.59    -49053.29    3766.6176   -52819.907   0.27967396 
  132000    274.55607   -1174.6795    143118.76   -48992.222    3770.3664   -52762.589    0.2651506 
  132200    276.51371   -1108.7621     142957.6   -49000.385    3797.2499   -52797.635   0.26913903 
  132400    272.10323   -851.80479    142492.86   -49009.516    3736.6827   -52746.199   0.28070191 
  132600    274.87827   -870.05652    142476.23    -48988.29    3774.7911   -52763.082    0.2843702 
  132800    278.97874   -1051.7165    142896.08   -48953.972    3831.1013   -52785.073   0.26765299 
  133000    277.11569   -1149.5741    143113.64   -48944.281    3805.5167   -52749.798   0.26582873 
  133200    273.15555   -1003.0282    142861.73   -48898.029    3751.1337   -52649.163   0.27986621 
  133400    274.68789   -889.37026     142575.9   -48889.518    3772.1767   -52661.694   0.28392682 
  133600    277.97524   -915.54495    142686.06   -48900.005    3817.3205   -52717.326    0.2763803 
  133800    276.12257   -1068.1967    142980.03   -48914.619    3791.8785   -52706.497    0.2666773 
  134000    279.43164   -1094.1082    142998.48   -48866.532    3837.3207   -52703.853   0.27258034 
  134200    273.90852   -1014.4892    142728.47   -48882.295    3761.4739   -52643.768   0.29097242 
  134400    280.45727   -902.56027    142600.87   -48883.137    3851.4053   -52734.542   0.28175996 
  134600    278.83681   -992.01146    142783.68    -48896.31    3829.1521   -52725.462   0.27990583 
  134800    276.40014   -1104.2887    142960.68   -48932.397    3795.6903   -52728.087   0.26490871 
  135000    268.98345   -1042.7107     142855.3   -48986.446      3693.84   -52680.286   0.27873924 
  135200    276.26114   -925.84797    142658.34   -48999.428    3793.7814   -52793.209   0.27596792 
  135400    272.30643   -941.29491    142689.68   -49018.789    3739.4731   -52758.262    0.2680821 
  135600    274.97467   -1015.8927    142873.65    -48983.26    3776.1149   -52759.375   0.28068601 
  135800    273.52089   -1072.5237    142931.31   -49050.301    3756.1508   -52806.452   0.26495951 
  136000    270.21155   -985.04766    142739.98   -49082.991     3710.705   -52793.696   0.28150791 
  136200    268.91124    -898.0694    142564.23   -49096.323    3692.8483   -52789.171    0.2817911 
  136400    270.57464   -961.35823    142683.03   -49051.694    3715.6911   -52767.386   0.27755236 
  136600    275.29883   -1062.7081    142917.44   -48994.102    3780.5665   -52774.669    0.2662028 
  136800    270.54719   -1079.5002    142927.83   -49002.802    3715.3141   -52718.116   0.26675973 
  137000    275.27149   -978.12487    142726.71   -49010.651     3780.191   -52790.842   0.29482299 
  137200    274.80718   -935.17368    142633.34   -49042.863    3773.8149   -52816.678   0.27330525 
  137400     277.9319   -987.00613    142759.44   -49001.548    3816.7253   -52818.273   0.26799135 
  137600    273.85738   -1064.6479    142886.05   -48991.177    3760.7716   -52751.949   0.27949015 
  137800    273.23211   -1031.1394    142852.62   -48967.038    3752.1851   -52719.223    0.2650003 
  138000    280.04386   -1001.3654    142741.93   -48966.775     3845.728   -52812.503   0.28441943 
  138200    276.19275   -955.72724    142695.87    -49014.04    3792.8424   -52806.883     0.271777 
  138400    275.96647    -994.7835    142753.58   -48999.685    3789.7349    -52789.42   0.27708335 
  138600    278.39913   -1032.3854    142839.85   -49011.797    3823.1417   -52834.939   0.27474343 
  138800    274.04197   -1041.4213    142864.51    -48963.75    3763.3065   -52727.056   0.27487627 
  139000    272.49052   -1010.3715    142840.17   -48953.236    3742.0011   -52695.237   0.27756652 
  139200    274.39856   -1014.7955    142843.27   -48954.245    3768.2034   -52722.448   0.26583397 
  139400    274.00655   -1039.8055    142845.39    -48980.23    3762.8201    -52743.05   0.28824175 
  139600    280.79241   -1004.4823    142828.46   -48963.819    3856.0076   -52819.826   0.27960901 
  139800    277.91085     -970.114    142786.93   -48926.705    3816.4363   -52743.141   0.28449275 
  140000     283.9206   -956.12058    142790.31   -48895.232    3898.9657   -52794.198   0.28770458 
  140200    274.33553   -1002.3968    142890.36   -48932.922    3767.3379    -52700.26   0.25907808 
  140400    277.93306   -1073.7417    142942.07   -48956.437    3816.7414   -52773.179   0.28286723 
  140600    274.44889   -996.85958    142798.27   -48958.101    3768.8947   -52726.996   0.28834349 
  140800    271.33034   -919.99637    142661.89   -48953.421    3726.0688   -52679.489   0.28179109 
  141000    270.90945   -983.70479    142810.25   -48987.642    3720.2889   -52707.931   0.28572951 
  141200     276.9663   -1104.2081    143044.46   -48938.816    3803.4652   -52742.282   0.26365394 
  141400     272.0538   -1086.9663    143012.45   -48942.574    3736.0038   -52678.577   0.27253081 
  141600     276.3837   -914.03002    142699.56   -48932.341    3795.4646   -52727.805   0.27379573 
  141800    274.56514   -887.61002    142575.99    -48984.94     3770.491   -52755.431   0.29459164 
  142000    275.13023   -1023.3649    142839.24   -48996.305    3778.2511   -52774.556   0.27477956 
  142200    275.59531   -1161.3758    143093.96   -48989.218     3784.638   -52773.856   0.25484611 
  142400    274.12724   -1067.9728    142880.42   -48994.506    3764.4775   -52758.983    0.2986542 
  142600    273.64902   -878.43048    142509.12   -48991.734    3757.9104   -52749.644   0.28405544 
  142800    277.19813   -900.15231    142579.67   -48995.496    3806.6488   -52802.145    0.2833567 
  143000    270.52634   -1114.4495    142971.18   -49046.835    3715.0278   -52761.863   0.27186846 
  143200    270.75956   -1155.2546    143059.05   -49014.863    3718.2306   -52733.094   0.25435015 
  143400    276.18647   -950.45799    142715.69    -48987.18     3792.756   -52779.936   0.29240446 
  143600    275.99283    -867.2241    142485.17   -48980.335    3790.0968   -52770.431   0.29778118 
  143800    271.64006   -958.14885    142729.33   -48988.764    3730.3221   -52719.086   0.28335928 
  144000    277.20028    -1123.838    143075.91   -48971.386    3806.6783   -52778.064   0.25739185 
  144200    275.96303    -1095.255    142998.59   -48946.399    3789.6876   -52736.087   0.27024411 
  144400    274.53412   -911.98887    142611.85   -48954.632     3770.065   -52724.697   0.30076269 
  144600    273.65954   -825.33009    142526.95   -48930.742    3758.0548   -52688.797   0.27860163 
  144800     275.7572   -1002.5183    142928.38   -48897.243    3786.8611   -52684.104   0.28781249 
  145000    273.93139   -1207.5104    143196.89    -48934.43     3761.788   -52696.218   0.25952363 
  145200    275.11755   -1037.1157    142872.77   -48967.439    3778.0771   -52745.516   0.26737897 
  145400    272.99246   -827.13643    142437.46   -48979.742     3748.894   -52728.636   0.31079633 
  145600    274.53727   -911.72184     142623.1   -48995.564    3770.1083   -52765.673   0.27027552 
  145800    275.98319    -1189.978    143170.42   -49002.258    3789.9645   -52792.223   0.26471666 
  146000    273.62905   -1184.3033    143199.11   -48989.072    3757.6361   -52746.709   0.27163071 
  146200    279.49561   -910.64312    142644.16   -49027.469    3838.1992   -52865.668   0.28113934 
  146400    273.44306    -751.1196    142326.89   -48988.131     3755.082   -52743.213   0.30256314 
  146600    273.49539   -985.99465    142794.34   -48948.338    3755.8006   -52704.138   0.26967117 
  146800    277.48655   -1245.5861       143374   -48897.118    3810.6095   -52707.727   0.25185525 
  147000    277.39986   -1179.6161    143189.06   -48913.109    3809.4191   -52722.528   0.25595835 
  147200    278.79982   -810.41085    142515.23   -48892.277    3828.6441   -52720.921   0.29968528 
  147400    275.44548   -768.36678    142382.86   -48956.875    3782.5804   -52739.456    0.3037074 
  147600    275.94142   -1082.2208    142962.96   -48961.517    3789.3909   -52750.908   0.25114568 
  147800    274.71505   -1271.1257    143325.94   -48993.831    3772.5497   -52766.381   0.26219061 
  148000    277.77681    -1009.561    142868.14   -48967.337    3814.5956   -52781.933   0.26714126 
  148200    273.33474   -763.46237    142354.89   -49014.335    3753.5944   -52767.929   0.29266334 
  148400    273.76925   -915.25266    142608.22   -49060.554    3759.5613   -52820.115   0.29958302 
  148600    269.64246   -1204.6652    143176.61   -49022.281    3702.8898   -52725.171   0.25316884 
  148800    271.26249   -1181.5612    143127.49   -49024.756    3725.1371   -52749.893   0.26400222 
  149000    271.22228   -895.35239    142543.88   -49039.119    3724.5849   -52763.704   0.28793975 
  149200    271.75484    -758.9472    142331.68   -49048.357    3731.8983   -52780.255   0.30045413 
  149400    269.56351   -1030.1089    142786.48   -49063.755    3701.8057   -52765.561   0.27223374 
  149600    271.75537   -1216.8732    143161.59   -49056.631    3731.9056   -52788.536   0.25178897 
  149800    276.50932   -1029.8919    142899.69   -49047.291    3797.1897   -52844.481   0.27073533 
  150000    272.66541   -837.99551    142502.74   -49014.541    3744.4027   -52758.943   0.28420153 
  150200    277.35024   -877.59676    142631.37   -48962.981    3808.7376   -52771.718   0.29145474 
  150400    276.46424   -1115.2554    143071.66   -48928.431    3796.5706   -52725.002   0.25989212 
  150600    276.50342    -1126.746    143119.99   -48975.215    3797.1087   -52772.324   0.24379721 
  150800    274.72414   -951.31013    142718.81   -48944.929    3772.6745   -52717.604   0.30018655 
  151000    274.04804   -825.46044    142509.58    -48984.57    3763.3899    -52747.96   0.27785663 
  151200    276.57078   -981.58756    142781.74   -48969.684    3798.0337   -52767.718   0.28267324 
  151400    275.90593   -1120.5953    143076.41   -48881.079    3788.9036   -52669.982   0.27277172 
  151600    275.91098   -1097.5546    142970.21   -48869.143    3788.9729   -52658.115   0.26799483 
  151800    281.03899   -917.76664    142663.19   -48884.633    3859.3938   -52744.026   0.29392259 
  152000    279.43715   -921.16522    142645.37   -48886.881    3837.3963   -52724.277   0.28505535 
  152200    278.67747   -1016.9857    142889.09   -48902.201     3826.964   -52729.165   0.26811019 
  152400     272.1566   -1119.6708    143023.13    -48945.16    3737.4156   -52682.576   0.26020013 
  152600    279.46177   -1036.4133    142831.47   -48918.879    3837.7345   -52756.614   0.27990809 
  152800    281.49873   -914.76886    142645.62   -48857.978    3865.7072   -52723.686   0.29161156 
  153000    278.41477   -953.20744    142751.99   -48921.356    3823.3564   -52744.712   0.26233298 
  153200    278.73844   -1072.9877    142931.97   -48862.578    3827.8013    -52690.38   0.28283175 
  153400    280.66734   -1060.7625    142930.43   -48913.084    3854.2901   -52767.374   0.25762009 
  153600     275.0355   -981.39971     142730.1   -48940.748    3776.9503   -52717.699   0.27278582 
  153800    270.82754   -982.77666    142659.29   -48969.419    3719.1641   -52688.583   0.30367574 
  154000    274.39693    -1034.467    142800.68    -48981.72    3768.1811   -52749.902   0.25861367 
  154200    274.54727   -1079.6086    142898.36   -48928.195    3770.2456   -52698.441   0.27461747 
  154400     274.3766   -984.33095    142859.71   -48922.192    3767.9019   -52690.094   0.26678745 
  154600    274.66976   -1042.9363    142817.21   -48943.856    3771.9277   -52715.784   0.27187227 
  154800    274.49533   -984.76512    142799.09   -48959.483    3769.5323   -52729.015   0.28198012 
  155000    276.10048   -997.73387    142804.59   -48947.895    3791.5752    -52739.47   0.26791005 
[...]
  163200    276.84758   -1157.8266    143043.24   -49012.996    3801.8349    -52814.83   0.27901727 
  163400    276.11062   -1196.9764    143119.76   -49043.331    3791.7144   -52835.046   0.25516564 
  163600    274.09286   -885.91201    142563.94   -49002.644    3764.0054    -52766.65   0.28528565 
  163800    271.94436   -727.77342     142212.1   -49064.658    3734.5009   -52799.159   0.29422386 
  164000    274.50822   -977.62167    142700.02   -49075.003    3769.7093   -52844.713   0.28713756 
  164200    274.45054   -1314.4639    143347.79    -49060.68    3768.9172   -52829.597    0.2411556 
  164400    276.00571   -1135.1609    143059.25   -49009.817    3790.2738   -52800.091   0.26339661 
  164600    272.86542   -722.72153    142240.62   -49001.238    3747.1495   -52748.387   0.30377645 
  164800    274.41893   -666.04052    142202.59   -49039.091    3768.4832   -52807.574   0.27995615 
  165000    271.53851   -1147.6672    143063.64   -49004.771    3728.9276   -52733.699   0.27935948 
  165200    275.63324   -1314.6263     143484.3   -48992.375    3785.1588   -52777.534   0.24025037 
  165400    273.24423   -1039.8074    142821.25   -49030.854    3752.3515   -52783.206    0.2626027 
  165600    281.03747   -631.44311    142135.65    -48982.31    3859.3729   -52841.683     0.309738 
  165800    273.69663   -855.73196    142538.23   -49003.286    3758.5641    -52761.85   0.27689043 
  166000    277.13119   -1298.1735    143340.33   -48952.049    3805.7295   -52757.779    0.2565845 
  166200    271.07305   -1235.0884    143283.21   -48979.451    3722.5356   -52701.986   0.25485026 
  166400    275.06252   -826.80049    142521.24   -48987.308    3777.3214    -52764.63   0.28410565 
  166600    277.36303   -707.52895     142286.1   -48987.934    3808.9133   -52796.847   0.29466243 
  166800    267.29178   -1067.3135     142858.1   -49037.447     3670.609   -52708.056    0.2776061 
  167000    273.74641   -1246.7949    143256.24   -49031.708    3759.2477   -52790.956   0.26997843 
  167200      276.759   -1022.3633    142921.88    -48987.65    3800.6184   -52788.269   0.25315503 
  167400    269.73526   -816.68212    142439.07   -49037.272    3704.1642   -52741.436   0.29911452 
  167600    272.29813   -860.44932    142496.33   -49020.533    3739.3592   -52759.892   0.28958141 
  167800    272.97335    -1116.402    142948.79    -49079.43    3748.6317   -52828.062   0.25930855 
  168000    270.67351   -1194.5838    143075.33   -49065.517    3717.0489   -52782.566    0.2788021 
  168200    272.37444   -964.41478    142678.11   -49068.689     3740.407   -52809.096   0.27480011 
  168400    270.59329   -826.41117    142398.82   -49031.636    3715.9473   -52747.583   0.29180466 
  168600    270.22743   -1020.6354    142663.91   -49039.061    3710.9231   -52749.984   0.27927812 
  168800    270.86916   -1121.2654    143024.78   -49070.672    3719.7357   -52790.407   0.26425655 
  169000    272.93353   -1074.7309    142933.13   -49057.845    3748.0848    -52805.93   0.26668757 
  169200    272.80965   -873.51596    142577.53   -49033.607    3746.3836   -52779.991   0.27194092 
  169400    273.25599   -874.23342    142528.12   -49059.798     3752.513   -52812.311   0.29892528 
  169600    271.77599   -1095.9539    142831.71   -49065.253    3732.1887   -52797.442   0.26695103 
  169800    269.52297   -1171.6573    142985.96   -49066.897    3701.2489   -52768.146   0.26468534 
  170000    268.08912   -996.47468    142724.19   -49107.031    3681.5585   -52788.589   0.29293765 
  170200    270.25704   -892.48932    142428.29   -49120.459    3711.3296   -52831.789   0.27825507 
  170400    271.77756   -901.94184    142545.03    -49090.58    3732.2103    -52822.79   0.29268856 
  170600    271.23131   -1099.6709    142953.32   -49067.656    3724.7089   -52792.365   0.26162507 
  170800    267.56698   -1187.1558    143047.55   -49087.891    3674.3881   -52762.279   0.26942961 
  171000    268.13386   -973.02724     142687.4   -49092.734    3682.1729   -52774.907   0.28032033 
  171200    274.17233   -794.52131    142448.95   -49122.535    3765.0968   -52887.631   0.27381705 
  171400    272.29248   -993.56112    142709.28   -49115.684    3739.2815   -52854.966   0.29717867 
  171600      269.929   -1156.9733    143028.96   -49076.641    3706.8248   -52783.466   0.25354554 
  171800    274.81157   -1083.9748    142902.18   -49057.313    3773.8751   -52831.188   0.27050084 
  172000    270.92167   -911.79323    142502.85   -49067.972    3720.4568   -52788.429   0.29389355 
  172200    273.18222   -822.15271    142408.95   -49075.242    3751.4999   -52826.742   0.27684977 
  172400    272.62823   -1047.4536    142789.33   -49039.985    3743.8922   -52783.878   0.29135685 
  172600    273.75533   -1139.9919    143096.48   -49019.665    3759.3702   -52779.035   0.25620209 
  172800     272.0979   -1085.2279    142904.73   -49030.339    3736.6094   -52766.949   0.27867168 
  173000    269.17836   -865.59733    142520.12    -49053.53    3696.5166   -52750.046   0.28309583 
  173200    272.07483   -908.29126    142549.02    -49090.19    3736.2926   -52826.483   0.27130737 
  173400    271.19735   -1084.8309    142907.79   -49070.566    3724.2425   -52794.809   0.27891769 
  173600    273.59453    -1169.052     143012.8    -49022.37    3757.1621   -52779.532   0.24984482 
  173800    265.95897   -1010.9804    142707.75    -49026.18    3652.3061   -52678.486   0.29486371 
  174000    275.48998   -829.31408    142469.49   -48995.801    3783.1915   -52778.993    0.2834735 
  174200    274.89293   -969.06154     142741.7   -48987.254    3774.9925   -52762.246   0.27223588 
  174400    275.51074   -1188.0249    143171.37   -48964.036    3783.4766   -52747.513   0.26794587 
  174600    274.95563   -1099.6422    143063.74   -48977.204    3775.8534   -52753.057   0.24593969 
  174800    279.48559   -856.90469    142505.27   -48951.287    3838.0616   -52789.349   0.30229322 
  175000     276.7736   -760.11043    142322.92   -48998.728    3800.8189   -52799.547   0.28379868 
  175200    278.09813   -1055.4782    142871.52   -48988.781    3819.0082   -52807.789   0.26276122 
  175400     270.3955   -1316.0924    143344.87   -48988.301     3713.231   -52701.532   0.26340171 
  175600    274.73266   -1053.9642    142893.21   -49005.897    3772.7914   -52778.689   0.25908625 
  175800    276.35048   -673.03511     142135.3   -49001.099    3795.0083   -52796.108   0.31482458 
  176000    275.69266   -781.60268    142316.06   -48988.158    3785.9748   -52774.133   0.28613442 
  176200    278.69552   -1234.9152    143258.38   -48927.117    3827.2118   -52754.329   0.26289615 
  176400    275.87018   -1384.7073    143513.38   -48957.591    3788.4126   -52746.004   0.24626532 
  176600     280.7462   -925.82017    142611.82   -48953.086     3855.373   -52808.459   0.27018887 
  176800    277.14806   -555.45161    141955.61   -48968.171    3805.9612   -52774.132   0.33138027 
  177000    271.79803   -925.64459    142606.79   -48976.443    3732.4914   -52708.934   0.27253498 
  177200    272.77292   -1410.5132    143463.03   -48973.878    3745.8792   -52719.757   0.25815839 
  177400    270.91942   -1264.5786    143144.36   -49061.848    3720.4259   -52782.274   0.26840216 
  177600    276.01475   -707.34204    142216.75   -49041.665    3790.3979   -52832.063   0.28779752 
  177800    276.01236   -684.98009    142123.12   -49023.536    3790.3651   -52813.901   0.31172179 
  178000    271.00445   -1080.0005    142827.57   -48974.043    3721.5935   -52695.636   0.27761637 
  178200    271.38753   -1264.2296    143200.42   -49000.712    3726.8541   -52727.566   0.27360604 
  178400    274.25847   -1050.7206    142808.85   -48983.791    3766.2797   -52750.071   0.27431639 
  178600    273.40135   -829.91034    142424.37   -49003.034    3754.5092   -52757.543     0.287759 
  178800    277.14415   -861.39431    142631.97   -48972.936    3805.9075   -52778.843   0.29346236 
  179000    273.64668   -1139.3241     143078.1   -48942.413    3757.8782   -52700.291    0.2587062 
  179200    272.02538   -1163.6657    143102.41   -48964.072    3735.6135   -52699.685   0.28230726 
  179400    281.09403   -949.53733    142694.51   -48945.548    3860.1496   -52805.698    0.2856202 
  179600    283.22667   -804.05964     142469.9   -48955.425    3889.4362   -52844.862   0.27697506 
  179800     277.7213   -974.48675    142746.81   -48979.401    3813.8332   -52793.234   0.28246028 
  180000      273.572   -1143.6773    143091.13   -48941.911    3756.8526   -52698.764   0.25642044 
  180200    278.13628   -1114.6301     143014.9   -48906.706     3819.532   -52726.238   0.27997462 
  180400    280.27141   -917.86688    142659.54   -48870.846    3848.8529   -52719.699   0.27985795 
  180600    277.30581   -832.30559    142583.73   -48956.491    3808.1275   -52764.618   0.28256833 
  180800    280.83184   -1052.2425     142907.9   -48918.854     3856.549   -52775.403   0.28565666 
  181000    275.51083   -1157.0361    143114.18    -48953.09    3783.4777   -52736.567   0.25153308 
  181200    275.18158   -999.62591    142831.12   -48940.943    3778.9563   -52719.899   0.28144111 
  181400    276.94253   -845.69933    142484.21   -48983.914    3803.1387   -52787.052   0.29264452 
  181600    273.90473   -934.27532    142602.16   -49003.119    3761.4218   -52764.541   0.28999167 
  181800    270.95923   -1117.8817    142968.69   -48970.006    3720.9725   -52690.979   0.27798548 
  182000    276.39144   -1152.1729    143046.58   -48976.517    3795.5708   -52772.088   0.26622223 
  182200    273.11083   -967.06937       142722   -48995.373    3750.5195   -52745.893   0.28767707 
  182400    271.14975   -856.16947    142477.09   -49000.761    3723.5888    -52724.35   0.28583847 
  182600    280.00593   -937.25443    142655.19   -48964.556    3845.2072   -52809.763   0.28876166 
  182800    281.19122   -1067.1699    143001.36   -48925.707    3861.4843   -52787.191   0.26898356 
  183000    275.09083   -1153.9315    143011.62    -48925.74    3777.7102    -52703.45   0.26597152 
  183200      278.993   -943.08933    142668.95   -48913.552     3831.297   -52744.849   0.29413584 
  183400    278.58817   -828.57493    142495.13   -48924.387    3825.7377   -52750.125    0.2826194 
  183600    275.01014   -1005.7794    142806.87    -48947.14     3776.602   -52723.742   0.28399929 
  183800    277.69577   -1145.4656    143099.33   -48973.549    3813.4827   -52787.031   0.26575708 
  184000    275.78461   -1043.1567    142890.91   -48988.846    3787.2375   -52776.083   0.26002644 
  184200    270.78483   -869.71196    142497.53   -49034.647    3718.5776   -52753.225   0.28992836 
  184400    270.54177   -881.36906    142536.71   -49043.819    3715.2398   -52759.059   0.27887689 
  184600    273.20603    -1134.414    142965.36    -49045.59    3751.8269   -52797.417   0.27013016 
  184800    272.41233   -1148.1597    143105.73    -49030.95    3740.9273   -52771.877   0.26046085 
  185000    270.71775   -978.21713    142703.47     -49027.8    3717.6563   -52745.456   0.28356873 
  185200    270.27131   -815.41075     142362.7   -49087.301    3711.5256   -52798.827   0.29654671 
  185400    273.87171   -925.83579    142599.55   -49064.905    3760.9684   -52825.874   0.27064798 
  185600    271.94515   -1220.0279    143093.54   -49060.485    3734.5118   -52794.996   0.27118668 
  185800    272.71056   -1141.8298     143047.8   -49008.107    3745.0229    -52753.13   0.26649269 
  186000    271.92918   -873.11925     142476.8   -49004.243    3734.2925   -52738.535   0.28654886 
  186200    269.75647   -794.49713    142291.59   -48998.185    3704.4556    -52702.64   0.31991234 
  186400    274.77348   -1077.0183    142840.72   -48944.226    3773.3521   -52717.578   0.27436543 
  186600    272.61965   -1308.5032    143315.64   -48967.233    3743.7744   -52711.008   0.25668124 
  186800    273.61079   -1064.3536    142943.34   -48996.908    3757.3854   -52754.293   0.27331865 
  187000    274.59399   -728.99281    142232.47   -48980.237    3770.8872   -52751.124   0.30615199 
  187200    279.36434   -701.40326    142318.54    -48998.84    3836.3965   -52835.237   0.29716542 
  187400    272.37197   -1263.5167    143143.03    -48973.73     3740.373   -52714.103   0.26234401 
  187600    274.27501   -1350.8129    143358.17   -49005.943    3766.5067    -52772.45   0.26330546 
  187800    272.13586   -944.09038    142579.68   -49006.476    3737.1307   -52743.607   0.28065509 
  188000    280.56067   -670.59051    142042.93   -48989.317    3852.8252   -52842.142   0.31236729 
  188200    277.50274   -914.50566    142574.27   -48974.449    3810.8318   -52785.281   0.29994591 
  188400    273.43049   -1289.7094    143310.51   -48948.254    3754.9093   -52703.163   0.25065504 
  188600    275.84847   -1171.0929    143111.99   -48954.845    3788.1144    -52742.96   0.27779093 
  188800    274.90115   -812.86224     142359.5   -48977.958    3775.1053   -52753.063    0.2954914 
  189000    276.34649   -718.65407    142257.94   -48973.086    3794.9536    -52768.04   0.29282654 
  189200    275.42056   -1073.5451    142869.83   -48969.217    3782.2381   -52751.455   0.28220042 
  189400    273.57934   -1241.7387    143193.73   -48926.324    3756.9534   -52683.277   0.26981463 
  189600    276.13745   -1027.0656    142859.39   -48944.529    3792.0829   -52736.611   0.27870048 
  189800    277.17435    -812.9618    142511.77   -48987.432    3806.3222   -52793.754   0.27765299 
  190000    276.87393   -943.76256    142635.03   -49016.806    3802.1967   -52819.002    0.2850457 
  190200    274.90249   -1061.8539    142942.18   -48988.885    3775.1237   -52764.009   0.26895062 
  190400    273.73245   -1099.2592    142978.82   -48986.912     3759.056   -52745.968    0.2642316 
  190600    275.17636   -990.50142    142748.58   -48937.526    3778.8846   -52716.411   0.28915187 
  190800    273.32305   -879.54033    142644.08   -48971.196    3753.4339    -52724.63   0.27445788 
  191000    271.59987   -966.39887     142806.1   -48982.497    3729.7702   -52712.267    0.2751495 
  191200    277.51719   -1083.1286    142971.05   -48975.467    3811.0303   -52786.498   0.26807764 
  191400    270.10312   -1037.3532    142893.09   -48998.961    3709.2159   -52708.177   0.26959076 
  191600    273.29251   -931.80944    142698.58   -48960.629    3753.0145   -52713.644   0.28698878 
  191800    273.40364   -942.35076    142689.01   -48992.872    3754.5406   -52747.412   0.28248783 
  192000    274.55746   -1008.1538    142889.98   -48989.868    3770.3856   -52760.254   0.27144114 
  192200    274.44998   -1089.0503    142972.49   -48959.324    3768.9096   -52728.234   0.26207776 
  192400    273.77563   -1020.5173    142761.15   -48969.106    3759.6489   -52728.755   0.27922271 
  192600    273.54435   -911.51855    142536.15   -49000.618    3756.4729   -52757.091   0.28889529 
  192800    271.33538   -953.46999    142638.89   -48976.711    3726.1381   -52702.849   0.28418907 
  193000    273.11835   -1090.3823    142938.35   -48962.946    3750.6228   -52713.568   0.27974666 
  193200    274.75569   -1070.2515    142977.11    -48918.16    3773.1078   -52691.267   0.25977354 
  193400    279.68913   -946.51554    142725.28   -48924.979    3840.8567   -52765.835     0.267821 
  193600    277.79839   -850.49671    142584.24   -48939.775    3814.8919   -52754.667   0.29339602 
  193800    273.66587   -978.37373    142753.39   -48983.094    3758.1417   -52741.236   0.27253896 
  194000      277.726   -1136.7464    142985.44   -49004.332    3813.8979    -52818.23   0.27481947 
  194200    273.52472   -1032.3321    142865.36   -48991.145    3756.2034   -52747.349   0.26708164 
  194400    273.51048   -888.35086    142563.31    -48977.36    3756.0078   -52733.367   0.28683933 
  194600    274.07057   -922.26039    142548.01   -49002.151    3763.6993    -52765.85   0.28612854 
  194800     279.1875   -1032.3642    142874.62   -48983.965     3833.968   -52817.933    0.2706987 
  195000    272.25305   -1137.8272    143075.74   -48963.353    3738.7401   -52702.093   0.26778356 
  195200    278.37303   -1042.9225    142829.26   -48953.279    3822.7832   -52776.062   0.25713479 
  195400    275.68583   -816.15451    142483.05   -48960.858     3785.881   -52746.739   0.29186419 
  195600    273.82779   -882.77539    142624.07   -48963.473    3760.3653   -52723.838   0.27942714 
  195800    274.11539   -1147.4376     143089.8    -48999.89    3764.3148   -52764.205   0.25805354 
  196000    272.33072   -1170.3314    143128.59   -48969.863    3739.8066    -52709.67   0.27079199 
  196200     275.0806   -918.34164    142624.45   -48966.111    3777.5696   -52743.681   0.27305043 
  196400    274.56202   -781.50052    142396.56   -48969.103    3770.4481   -52739.551   0.28513212 
  196600     276.5935   -1011.1173    142823.57   -49026.535    3798.3457   -52824.881   0.25988662 
  196800    273.96755   -1242.9565     143233.5   -49010.763    3762.2846   -52773.048   0.25938717 
  197000    273.97285   -1068.8283    142960.09   -49024.728    3762.3574   -52787.086   0.26866915 
  197200     269.1713   -754.22767    142359.62   -49085.591    3696.4196   -52782.011   0.27986952 
  197400    274.84998    -763.1372    142350.87   -49047.977    3774.4027   -52822.379   0.29697253 
  197600    278.67308   -1087.4702    143018.82   -48957.107    3826.9036    -52784.01   0.24828864 
  197800    273.46636   -1272.3787    143427.71    -48936.64    3755.4019   -52692.042   0.25196916 
  198000    273.19704   -1054.3284    142916.06   -48972.445    3751.7034   -52724.149   0.27790653 
  198200    274.17921   -660.83483    142225.39   -49006.155    3765.1912   -52771.346    0.2936107 
  198400     278.8145   -787.84791     142476.7   -48934.699    3828.8458   -52763.544   0.29379651 
  198600    276.08182   -1250.3627    143356.54   -48911.636     3791.319   -52702.955   0.24459277 
  198800     271.8316   -1354.2718    143438.69   -48939.508    3732.9524    -52672.46   0.25026028 
  199000    272.96145    -859.3262       142544   -48960.215    3748.4682   -52708.683   0.29239081 
  199200    278.66357   -572.04268    142087.19    -48961.27    3826.7731   -52788.043   0.29216249 
  199400    271.20088   -985.72787    142792.33   -48965.341     3724.291   -52689.632   0.29124196 
  199600    277.42251   -1328.3123    143503.25   -48973.224    3809.7301   -52782.954   0.24190948 
  199800    275.50749    -1144.507    143157.96   -48957.093    3783.4319   -52740.524   0.26516234 
  200000    276.36643   -748.54084    142429.21   -48985.892    3795.2274   -52781.119   0.28225682 
Loop time of 227.877 on 6 procs for 200000 steps with 4608 atoms

Performance: 379.152 ns/day, 0.063 hours/ns, 877.667 timesteps/s
98.9% CPU use with 6 MPI tasks x no OpenMP threads

MPI task timing breakdown:
Section |  min time  |  avg time  |  max time  |%varavg| %total
---------------------------------------------------------------
Pair    | 188.08     | 189.12     | 191.44     |   8.6 | 82.99
Neigh   | 12.821     | 13.145     | 13.638     |   9.5 |  5.77
Comm    | 13.361     | 15.447     | 16.83      |  27.2 |  6.78
Output  | 3.0244     | 3.0255     | 3.0296     |   0.1 |  1.33
Modify  | 5.6891     | 5.783      | 5.8645     |   2.7 |  2.54
Other   |            | 1.359      |            |       |  0.60

Nlocal:        768.000 ave         784 max         756 min
Histogram: 1 1 1 1 0 0 0 0 1 1
Nghost:        1665.00 ave        1695 max        1631 min
Histogram: 1 0 1 0 1 0 0 2 0 1
Neighs:        0.00000 ave           0 max           0 min
Histogram: 6 0 0 0 0 0 0 0 0 0
FullNghs:      24108.7 ave       24742 max       23722 min
Histogram: 3 0 0 1 0 0 0 1 0 1

Total # of neighbors = 144652
Ave neighs/atom = 31.391493
Neighbor list builds = 13302
Dangerous builds = 0
write_data		data.${NAME}
write_data		data.ice_275K_-1000atm_mW
System init for write_data ...
Total wall time: 0:05:39
