
# Define the lattice
#
variable	    lattice_constant equal 6.36339
lattice		    diamond ${lattice_constant}
lattice		    diamond 6.36339
Lattice spacing in x,y,z = 6.3633900 6.3633900 6.3633900

# Define region
# multiples of lattice spacing
#
region 		    simbox block 0 9 0 8 0 8

# Create Atoms
#
create_box          1 simbox
Created orthogonal box = (0.0000000 0.0000000 0.0000000) to (57.270510 50.907120 50.907120)
  3 by 1 by 2 MPI processor grid
create_atoms        1 box
Created 4608 atoms
  create_atoms CPU = 0.000 seconds
mass                1 18.015

# Define potential
#
pair_style          sw
pair_coeff          * * /data/emrosky-sim/Freezing_Simulations/Melting/mW_fancy/mW.sw mW
Reading sw potential file /data/emrosky-sim/Freezing_Simulations/Melting/mW_fancy/mW.sw with DATE: 2019-02-27

# Add velocity/set timestep
#
velocity            all create ${TEMP} 120598 rot yes dist gaussian
velocity            all create 275 120598 rot yes dist gaussian
timestep            5.0

# Define output
#
compute	            1 all msd
thermo              100
thermo_style        custom step temp press vol etotal ke pe c_1[4]

# Neighbor lists
#
neigh_modify        delay 0 every 1 check yes

# Set fixes
#
fix                 1 all momentum 10 linear 1 1 1 rescale
fix                 2 all nve
fix                 3 all temp/csvr ${TEMP} ${TEMP} 500.0 928347
fix                 3 all temp/csvr 275 ${TEMP} 500.0 928347
fix                 3 all temp/csvr 275 275 500.0 928347
fix                 4 all press/berendsen iso ${PRES} ${PRES} 1000.0 modulus 20000
fix                 4 all press/berendsen iso -1000 ${PRES} 1000.0 modulus 20000
fix                 4 all press/berendsen iso -1000 -1000 1000.0 modulus 20000

# Run 0.5 ns equilibration
#
dump		    1 all custom 1000 eq.${NAME}.dump id type x y z vx vy vz
dump		    1 all custom 1000 eq.ice_275K_-1000atm_mW.dump id type x y z vx vy vz
run                 100000
Neighbor list info ...
  update every 1 steps, delay 0 steps, check yes
  max neighbors/atom: 2000, page size: 100000
  master list distance cutoff = 6.3065
  ghost atom cutoff = 6.3065
  binsize = 3.15325, bins = 19 17 17
  1 neighbor lists, perpetual/occasional/extra = 1 0 0
  (1) pair sw, perpetual
      attributes: full, newton on
      pair build: full/bin/atomonly
      stencil: full/bin/3d
      bin: standard
Per MPI rank memory allocation (min/avg/max) = 4.778 | 4.778 | 4.778 Mbytes
Step Temp Press Volume TotEng KinEng PotEng c_1[4] 
       0          275   -4570.5261    148418.52   -52777.059    3776.4628   -56553.522            0 
     100    217.35095   -1511.4557    142561.92   -51571.717    2984.7919   -54556.509   0.21076232 
     200     213.6912   -1003.4235    142081.19   -50684.651    2934.5341   -53619.186   0.27525604 
     300    227.23393    -966.9318    142252.61   -50111.133    3120.5108   -53231.644   0.28962732 
     400    246.42267   -1010.4222    142452.07   -49718.637     3384.022   -53102.659   0.26367944 
     500    262.91065   -1021.9588    142599.23   -49439.741    3610.4447   -53050.185   0.27263322 
     600    264.12036   -959.13443    142717.31     -49176.6    3627.0572   -52803.657   0.29703702 
     700    272.73814   -951.58671     142755.1   -49104.383    3745.4016   -52849.784   0.24958994 
     800    269.57857   -995.28602    142800.11   -49019.519    3702.0125   -52721.531   0.27860938 
     900    271.17788    -1004.647    142865.76   -49008.711    3723.9752   -52732.686    0.2725483 
    1000    278.04891   -994.46837    142819.79    -49050.49    3818.3322   -52868.822   0.26391391 
    1100    278.18107   -984.70822    142862.95   -48990.714    3820.1472   -52810.862   0.25461558 
    1200     282.9757   -980.92268    142846.62   -48989.805    3885.9897   -52875.795   0.26493953 
    1300    278.71558    -1011.952    142872.74    -48901.32    3827.4873   -52728.808   0.28649049 
    1400    272.24328   -980.92295    142876.81   -48996.227    3738.6058   -52734.833   0.25233277 
    1500    272.41378   -1025.7694    142837.44   -49030.309    3740.9472   -52771.256   0.27128146 
    1600    274.67767   -983.42161    142837.95   -48967.891    3772.0363   -52739.928   0.28220316 
    1700    272.95544   -1020.2022    142811.71   -48987.497    3748.3856   -52735.882   0.26548757 
    1800    271.53704   -990.57493    142806.15    -48985.46    3728.9073   -52714.367    0.2609514 
    1900    277.25104   -981.92052    142837.52   -48894.362    3807.3754   -52701.738   0.27741254 
    2000    278.95323   -986.86085    142866.18   -48845.059    3830.7508    -52675.81   0.28587573 
    2100    273.75684   -1016.3014    142841.45   -49009.151     3759.391   -52768.542   0.25269915 
    2200    274.96194   -979.86701    142844.16   -48943.578    3775.9401   -52719.518   0.27421595 
    2300    279.26474   -974.67063    142858.12   -48873.798    3835.0287   -52708.827   0.28577858 
    2400     277.5111   -969.48811    142848.58   -48901.257    3810.9467   -52712.204   0.25861948 
    2500    278.31104   -1023.5014    142856.92   -48944.626    3821.9319   -52766.558    0.2643289 
    2600    275.30012   -996.79326    142850.82   -48979.357    3780.5842   -52759.941   0.28552885 
    2700    283.30536   -976.59667    142858.85   -48957.375     3890.517   -52847.892   0.26222682 
    2800       278.41   -943.57364    142877.48   -48865.529    3823.2909    -52688.82   0.24881889 
    2900     279.5352   -1009.9704     142893.3    -48882.58    3838.7428   -52721.323   0.28728227 
    3000    275.82882   -990.68085    142857.46   -48936.158    3787.8446   -52724.003   0.27596381 
    3100    279.22834   -1014.4826    142875.26   -48914.028    3834.5289   -52748.557   0.24926677 
    3200    278.92281   -1001.9384    142846.72   -49019.814    3830.3331   -52850.148   0.27240956 
    3300    274.44322   -1022.4189    142796.01   -49074.804    3768.8167   -52843.621   0.27587667 
    3400    275.44905   -998.52415    142798.52   -49013.462    3782.6295   -52796.091   0.25753179 
    3500    275.42297   -974.06231    142829.09   -48973.453    3782.2713   -52755.724   0.26883712 
    3600    273.62441    -1000.076    142837.13   -48978.609    3757.5723   -52736.181   0.28676566 
    3700    276.53684   -985.83455    142858.65   -48941.893    3797.5675    -52739.46   0.26571426 
    3800    280.02152   -993.98308    142865.54   -48935.174    3845.4212   -52780.595   0.25806518 
    3900    281.33252    -993.0562    142863.76   -48934.402    3863.4247   -52797.827   0.28633018 
    4000     277.3205   -1010.4171    142854.53   -48982.437    3808.3293   -52790.767   0.27614146 
    4100    272.07762   -1032.1726    142824.61   -49001.188    3736.3309   -52737.518   0.26249241 
    4200    274.56911   -1014.7101    142823.98   -48955.574    3770.5456   -52726.119   0.26924313 
    4300    268.25669   -1047.4849    142805.29   -49085.981    3683.8597   -52769.841   0.28372708 
    4400    274.03983   -991.21126     142794.9    -48974.41    3763.2771   -52737.687   0.27306178 
    4500    275.96299   -963.68888    142793.26   -49030.233    3789.6871    -52819.92   0.25583894 
    4600    273.46714   -987.44427    142756.71   -49058.452    3755.4126   -52813.864   0.28455482 
    4700    273.26354   -996.65512    142780.92   -48966.441    3752.6166   -52719.058   0.27515199 
    4800    282.78857    -981.5972    142814.37   -48872.478      3883.42   -52755.898   0.26024757 
    4900    281.76853    -973.3364    142837.67   -48841.897    3869.4122    -52711.31   0.28025057 
    5000    273.27211   -1016.2437    142819.09   -48963.303    3752.7344   -52716.038   0.28656129 
    5100    277.71493   -999.88455    142845.08   -48894.681    3813.7458   -52708.427   0.25727672 
    5200    274.89452   -1011.4551    142847.66   -48962.895    3775.0143   -52737.909   0.26390497 
    5300    270.00773   -1015.0333    142796.32    -49064.87    3707.9059   -52772.776   0.29578936 
    5400    275.27786   -955.23596    142798.69   -49037.425    3780.2785   -52817.703   0.25009052 
    5500    274.94641   -1011.5477    142810.69   -49004.044    3775.7269   -52779.771    0.2628919 
    5600    273.73957    -1003.229    142776.26   -49037.245    3759.1538   -52796.399   0.28350778 
    5700    276.67994   -1004.0521    142808.52   -49031.759    3799.5327   -52831.292   0.26845853 
    5800    274.98751   -997.66876    142800.26    -48970.64    3776.2912   -52746.931    0.2575712 
    5900    270.20865   -1038.0623    142795.84   -49050.089    3710.6651   -52760.755   0.27491576 
    6000    276.65319   -995.29995    142733.07   -49025.143    3799.1654   -52824.308    0.2832497 
    6100    272.72723   -1036.6169    142715.04   -49101.914    3745.2518   -52847.166   0.26003975 
    6200    268.82342   -996.22223    142737.28   -49081.796    3691.6423   -52773.439   0.27720015 
    6300     275.7671    -944.5558    142767.01   -48963.292    3786.9971   -52750.289   0.28025084 
    6400    275.02012   -988.69704    142785.12   -49010.646    3776.7391   -52787.385   0.26285401 
    6500    273.23116   -1006.0839    142738.14   -49018.695    3752.1721   -52770.867   0.26619734 
    6600    273.86865   -962.11154    142760.42   -49027.511    3760.9265   -52788.438   0.26807336 
    6700    268.79916   -1023.0101    142769.02   -49082.217    3691.3092   -52773.526   0.28517442 
    6800     274.0253   -980.24877    142770.92   -49039.323    3763.0776     -52802.4   0.25585556 
    6900    275.27743   -1019.5243    142784.04   -48967.747    3780.2725   -52748.019   0.27530999 
    7000    276.74375   -999.56637    142780.66   -48963.438     3800.409   -52763.847   0.29144334 
    7100    278.69326   -1000.6293    142780.54   -48974.009    3827.1808    -52801.19    0.2565331 
    7200    276.01418   -998.51021     142780.7   -49080.692    3790.3901   -52871.082   0.26444518 
    7300    269.50884   -983.83587    142748.23   -49129.999     3701.055   -52831.054    0.2770234 
    7400    268.70337   -1005.3739    142748.53   -49024.177    3689.9937   -52714.171   0.28363485 
    7500    275.32708   -966.45945    142786.39   -48958.598    3780.9544   -52739.552   0.25575826 
    7600    271.43006   -1005.2627    142773.98   -48932.672    3727.4382    -52660.11   0.28345217 
    7700    269.88375   -1044.2531    142802.68   -49026.875    3706.2033   -52733.078   0.29077116 
    7800    269.55959   -995.08071     142787.3   -49078.871    3701.7518   -52780.623   0.25507316 
    7900    270.16948   -1002.4095     142778.2    -49024.98    3710.1272   -52735.108   0.28160148 
    8000    276.32769    -994.2258    142812.64   -48931.035    3794.6954   -52725.731   0.27883527 
    8100    275.59249   -993.73925    142801.14    -48897.43    3784.5992   -52682.029   0.26862017 
    8200    274.43146   -1017.3524    142798.84   -48917.719    3768.6552   -52686.374   0.27297942 
    8300    279.16273   -982.89748    142834.14   -48874.798    3833.6278   -52708.426   0.28334655 
    8400    277.86256   -986.14282    142822.79   -48852.037    3815.7732    -52667.81   0.28586832 
    8500     279.5901    -1011.248    142818.23   -48938.579    3839.4967   -52778.076   0.26389026 
    8600    277.97355   -987.94475     142822.2   -48957.828    3817.2974   -52775.125   0.27911114 
    8700    277.25117   -960.99505    142809.15   -48923.133    3807.3771    -52730.51   0.27492826 
    8800    279.27619   -975.44356    142795.03   -48963.589     3835.186   -52798.775   0.26495844 
    8900    273.91844   -1009.5071    142762.21   -49024.928    3761.6101   -52786.538   0.27703526 
    9000    277.96828   -1022.0012    142795.71   -48957.745     3817.225    -52774.97   0.28075222 
    9100    274.19763   -1012.7673    142819.61   -49011.166    3765.4442    -52776.61   0.27799426 
    9200    279.64465   -996.09779    142820.52   -48905.362    3840.2458   -52745.608   0.26312059 
    9300    275.22555   -992.06008    142776.65    -49049.69    3779.5602    -52829.25   0.28026199 
    9400    278.12647   -976.16345    142764.73   -49010.999    3819.3973   -52830.396   0.27654366 
    9500    270.74303    -1056.467    142768.42   -49055.662    3718.0036   -52773.665   0.27081047 
    9600    271.34306   -996.33275    142767.68   -49049.159    3726.2436   -52775.402   0.27592773 
    9700     274.0106    -1015.276    142812.42   -48932.403    3762.8757   -52695.279   0.27963403 
    9800    272.80922   -1016.9707    142821.86   -48882.965    3746.3777   -52629.342   0.27675907 
    9900    277.55393   -986.48816    142807.48   -48914.435    3811.5348    -52725.97   0.26460881 
   10000    277.54603   -998.77769    142811.27   -48969.965    3811.4263   -52781.392    0.2853405 
   10100    276.63866   -972.04608    142812.53   -48917.955    3798.9658   -52716.921   0.27241043 
   10200    275.25417   -990.07219    142863.98   -48887.967    3779.9532    -52667.92    0.2663192 
   10300    276.38572   -1004.0325       142857   -48887.431    3795.4923   -52682.924   0.28877079 
   10400    274.73212   -1007.7892    142863.54   -48890.125    3772.7841   -52662.909    0.2848699 
   10500    275.70734   -972.76593    142874.17   -48936.685    3786.1764   -52722.862   0.26335389 
   10600    277.61912   -972.90697       142833    -48959.02      3812.43    -52771.45   0.27591019 
   10700    275.61485   -995.02497    142832.31   -48979.509    3784.9063   -52764.415   0.28349331 
   10800     267.3181   -1002.5641    142773.17   -49104.129    3670.9704     -52775.1   0.26567234 
   10900    266.93051   -1020.9337    142771.36   -49103.661    3665.6478   -52769.309   0.26880854 
   11000     272.7507   -1009.3565    142737.41   -49113.989    3745.5741   -52859.563   0.28098802 
   11100    273.54514    -985.1115    142799.97    -49024.09    3756.4838   -52780.574   0.25856226 
   11200    271.74123   -1013.4576    142761.87   -49124.175    3731.7114   -52855.886   0.26701928 
   11300    272.25195   -1000.6341    142750.59   -49046.149    3738.7249   -52784.874   0.27798551 
   11400    274.06607   -1000.7405    142761.74    -49024.17    3763.6375   -52787.808    0.2691595 
   11500    274.21349   -1016.1244    142760.32   -48920.346    3765.6619   -52686.008   0.28060373 
   11600     276.1231   -1002.6088     142815.6   -48927.635    3791.8858   -52719.521   0.27083454 
   11700    280.45634   -1021.0644    142837.84   -48798.414    3851.3925   -52649.807   0.28641627 
   11800    280.40246   -988.50838    142859.68   -48870.906    3850.6525   -52721.558    0.2770215 
   11900    279.27248   -1009.4181    142849.02   -48915.367     3835.135   -52750.502   0.26550343 
   12000    281.04594   -1007.6547    142865.33   -48878.993    3859.4892   -52738.482   0.26813105 
   12100    277.02393    -1039.054    142818.27   -48935.246    3804.2566   -52739.503   0.28411604 
   12200    273.12704   -1008.0475     142789.6   -48929.377    3750.7422   -52680.119   0.27257458 
   12300    275.41393   -948.54618    142773.75   -48989.723    3782.1471    -52771.87   0.26607165 
   12400    275.00305    -993.6478    142755.78   -48984.789    3776.5046   -52761.293   0.29052863 
   12500    279.64374   -1024.1615    142763.43   -48916.743    3840.2333   -52756.976   0.27121506 
   12600    279.16985   -1009.9522    142790.88   -48879.592    3833.7257   -52713.317   0.26962835 
   12700    275.51075   -1004.3627    142764.35   -48948.744    3783.4767    -52732.22     0.293383 
   12800    277.82413    -1009.481    142766.18   -48928.749    3815.2455   -52743.995   0.27410741 
   12900    274.17658   -990.76627    142763.85     -48987.4    3765.1551   -52752.555   0.26335189 
   13000    272.97959   -984.96107    142766.43   -48963.133    3748.7174   -52711.851   0.28112424 
   13100    276.06706   -1016.8238    142757.16   -49036.528    3791.1162   -52827.644   0.28133881 
   13200    269.44975   -1039.1685    142712.95   -49059.706    3700.2435    -52759.95   0.26753714 
   13300    266.94731   -1033.9076    142730.57   -49146.793    3665.8785   -52812.672   0.27965969 
   13400    270.06517   -990.49694     142709.2   -49133.106    3708.6947     -52841.8   0.28514476 
   13500    277.26976   -990.00209    142722.62   -49048.442    3807.6324   -52856.074   0.25962443 
   13600    275.27829   -982.85988    142727.14   -48996.044    3780.2845   -52776.329   0.28268909 
   13700     270.5447   -1011.8259    142749.13   -49027.001      3715.28   -52742.281   0.27805976 
   13800    273.15757     -986.529    142778.59   -48976.802    3751.1614   -52727.963   0.27606329 
   13900    274.92347    -984.2477    142773.21   -48967.676    3775.4118   -52743.088   0.26828168 
   14000    279.60381   -971.58557    142860.23   -48857.271    3839.6851   -52696.957    0.2779027 
   14100    274.13241    -1022.971    142855.17   -48941.418    3764.5485   -52705.966   0.27479339 
   14200    276.13109    -1014.624    142867.44   -48953.163    3791.9956   -52745.158   0.26682972 
   14300    276.66418   -1021.9053    142833.69   -48983.831    3799.3163   -52783.147   0.27562795 
   14400    270.95287   -1020.0161    142816.42   -49034.343    3720.8851   -52755.228    0.2701414 
   14500    274.08662   -1030.1136    142797.93   -49059.681    3763.9197     -52823.6   0.27714013 
   14600    274.79169   -1009.3066    142781.27   -49006.837    3773.6022   -52780.439   0.26702944 
   14700    280.15062    -1002.431    142818.43   -48968.522    3847.1941   -52815.717   0.27079282 
   14800    279.20083   -992.18556    142823.82   -48944.273    3834.1511   -52778.424    0.2793981 
   14900     277.1527   -990.18528     142852.8   -48959.453    3806.0249   -52765.478   0.26049242 
   15000    277.00465   -1015.7065    142817.43   -49022.028    3803.9918    -52826.02   0.26791407 
   15100    272.42864   -1009.3368    142791.22   -49035.704    3741.1513   -52776.855   0.28227908 
   15200    281.42496   -994.79941    142813.41   -48970.833    3864.6942   -52835.527   0.26369173 
   15300    278.61573   -995.89818    142813.35   -49050.142    3826.1161   -52876.258   0.25955328 
   15400    269.70298   -1007.2406    142774.15   -49043.067     3703.721   -52746.788   0.28252132 
   15500    273.42566   -1000.2691    142823.34   -48983.717     3754.843    -52738.56   0.27215591 
   15600    277.19645   -1012.8243    142863.41   -48866.358    3806.6257   -52672.984   0.26007857 
   15700    279.32454   -1026.5983     142862.2   -48881.176    3835.8499   -52717.026   0.28220469 
   15800     277.3526   -1021.1983    142850.58   -48879.638    3808.7701   -52688.408   0.28438437 
   15900    278.84163   -1008.4215    142845.58   -48901.187    3829.2184   -52730.405   0.25933744 
   16000    274.11275   -1012.1539    142830.05   -48944.641    3764.2785   -52708.919   0.28722594 
   16100    276.67952   -983.20294    142812.93   -48975.021     3799.527   -52774.548   0.27611923 
   16200    275.36056   -999.57292    142779.21   -48984.073    3781.4142   -52765.487   0.26835579 
   16300    274.44442   -1000.8906     142781.5   -49003.531    3768.8333   -52772.364   0.27132609 
   16400    269.15522   -991.49923    142802.81   -49010.569    3696.1987   -52706.768   0.28043863 
   16500    277.33552   -1007.3267    142829.68    -48931.92    3808.5356   -52740.456   0.27294465 
   16600    278.86253   -977.57723    142862.04   -48863.149    3829.5053   -52692.654   0.26996769 
   16700    272.11004   -1008.6604    142834.59   -48901.434    3736.7761    -52638.21   0.28103357 
   16800    273.46038   -1004.3344    142802.41   -48951.051    3755.3197   -52706.371   0.27748582 
   16900    278.11297   -1001.8017    142794.71   -48975.721     3819.212   -52794.933   0.28034132 
   17000    274.79663   -989.54998    142783.01   -49023.895      3773.67   -52797.565   0.26865459 
   17100    275.01186   -1055.4409    142802.04   -48975.381    3776.6256   -52752.006   0.28365761 
   17200    275.99198    -1013.454    142758.78   -49029.373    3790.0852   -52819.458   0.28195711 
   17300    269.75442   -999.58836    142732.55    -49115.93    3704.4274   -52820.357   0.25727126 
   17400     271.5725   -1001.2968     142711.9   -49114.442    3729.3943   -52843.836   0.28336287 
   17500    274.52514   -1028.3878     142740.9   -49015.824    3769.9418   -52785.766   0.28312188 
   17600    275.42368   -992.41536     142764.6   -49026.676     3782.281   -52808.957   0.26412445 
   17700    273.60531   -998.26731    142723.98   -49079.629    3757.3101   -52836.939   0.27778291 
   17800    271.60397   -1002.0941    142743.15   -49036.291    3729.8265   -52766.118   0.29470528 
   17900    277.18606   -943.87524     142785.3   -48979.731    3806.4831   -52786.214   0.26897645 
   18000    276.87113   -990.24377    142798.46   -48896.807    3802.1582   -52698.965   0.27037142 
   18100    276.50881   -1043.2492    142814.95   -48903.777    3797.1826   -52700.959   0.30080925 
   18200    270.10993   -1021.3507     142787.4   -48948.713    3709.3094   -52658.022   0.26930562 
   18300    274.11893   -1014.5713    142782.22   -48948.778    3764.3634   -52713.141   0.27499166 
   18400    274.69406   -995.72753    142765.92   -49046.612    3772.2615   -52818.873   0.29077024 
   18500     275.2487   -973.71608    142771.62   -48985.665     3779.878   -52765.543    0.2729475 
   18600    278.80196   -983.38785    142773.77   -48941.155    3828.6735   -52769.829   0.27425231 
   18700    278.27081   -1030.9291    142773.99   -48959.054    3821.3795   -52780.433   0.28547458 
   18800    274.54497   -1012.4568    142777.63   -48976.133    3770.2141   -52746.347    0.2861732 
   18900    273.29317   -975.96504    142781.59   -48933.524    3753.0235   -52686.548    0.2742892 
   19000     275.0949   -992.42288    142772.92   -48957.482     3777.766   -52735.248    0.2806296 
   19100    279.29841   -969.83952    142793.22   -48875.655    3835.4911   -52711.146   0.27937982 
   19200     277.6441   -991.64273    142824.58    -48910.24    3812.7731   -52723.013   0.28229969 
   19300    275.24544   -986.31254    142864.74   -48803.812    3779.8333   -52583.645   0.27707721 
   19400    273.49936   -1027.3693    142863.57   -48870.574    3755.8551   -52626.429   0.27427485 
   19500    277.16951   -984.46095    142851.71   -48862.969    3806.2558   -52669.225    0.2884202 
   19600    277.65931   -973.40563    142864.55   -48855.837    3812.9821   -52668.819   0.27051696 
   19700     281.2178   -993.96261    142876.04   -48910.289    3861.8493   -52772.138   0.26191616 
   19800    281.20082   -1020.7621    142845.26    -48862.09    3861.6161   -52723.706   0.28975807 
   19900    276.46583   -992.41954    142855.66   -48935.925    3796.5924   -52732.517   0.27586127 
   20000    276.63503   -984.69837    142827.62   -48960.272     3798.916   -52759.188   0.26189749 
   20100    277.10554   -1008.7627    142811.16   -49008.351    3805.3773   -52813.728   0.28112351 
   20200     275.0586   -1020.3206    142793.29   -48986.008    3777.2675   -52763.276   0.28692164 
   20300    273.01828   -974.84787    142798.66   -48949.539    3749.2487   -52698.788   0.26008516 
   20400    270.80155   -1004.0729     142801.5   -49005.988    3718.8072   -52724.795   0.27846594 
   20500     267.9837   -1032.6951    142799.02   -49047.655    3680.1108   -52727.766   0.29381816 
   20600    271.50705   -1037.3192    142774.84   -49070.431    3728.4955   -52798.926   0.26217714 
   20700    275.35345   -975.86928    142791.99   -49012.577    3781.3165   -52793.893   0.27157808 
   20800    279.35764   -985.37516    142840.01   -48883.947    3836.3044   -52720.252   0.28199784 
   20900    274.91655   -1010.3697    142822.26   -48984.365    3775.3168   -52759.682   0.27010787 
   21000    274.60165   -979.70219     142802.7   -48993.651    3770.9924   -52764.644   0.26625382 
   21100    278.46086   -985.29188    142850.31   -48877.408    3823.9894   -52701.397    0.2792154 
   21200    278.88346   -979.66292    142845.61   -48895.686    3829.7928   -52725.478   0.27374076 
   21300    272.67175    -987.3857    142873.45   -48888.525    3744.4898   -52633.015   0.25851371 
   21400     275.0154   -1017.2623    142845.72   -48929.599    3776.6742   -52706.273    0.2831458 
   21500    281.47687   -977.34849    142850.16   -48842.192     3865.407   -52707.599   0.27406842 
   21600    281.10161   -1014.4282    142859.11   -48844.028    3860.2537   -52704.281     0.274135 
   21700    277.23438    -1000.502    142829.27   -48967.067    3807.1466   -52774.213   0.27073208 
   21800     275.2425   -1007.3515    142810.47    -49002.02    3779.7929   -52781.813    0.2735264 
   21900    274.88657   -1012.5397    142789.92   -48973.075    3774.9051    -52747.98   0.27946621 
   22000    272.80602   -995.70246    142773.08    -49002.79    3746.3338   -52749.123   0.26389878 
   22100     269.1105    -997.7697    142769.95   -49049.221    3695.5847   -52744.806   0.28544849 
   22200    273.45835   -1009.1158    142746.41   -49129.527     3755.292   -52884.819   0.27566288 
   22300    274.46929   -1001.3826    142759.11   -49024.393    3769.1748   -52793.568   0.26709865 
   22400    277.07208   -984.25987    142797.42   -48971.167    3804.9178   -52776.084   0.26990345 
   22500    274.80662   -991.42406    142810.64   -48926.439    3773.8071   -52700.246   0.28071059 
   22600    271.73142   -994.71128    142785.54    -48957.09    3731.5767   -52688.667   0.28424853 
   22700    280.11804   -962.67061    142787.47    -49015.09    3846.7468   -52861.837   0.25024902 
   22800    277.61961   -1016.3967    142808.14   -48943.408    3812.4368   -52755.845   0.28987996 
   22900    274.82209   -1012.0942    142815.54   -48982.302    3774.0196   -52756.321   0.27584648 
   23000    275.04234   -969.21175    142817.19   -49053.714    3777.0442   -52830.759   0.25347833 
   23100    271.97682   -1010.6534    142831.31    -49000.48    3734.9467   -52735.427   0.28376198 
   23200    278.27723   -977.68175    142844.17   -48947.829    3821.4677   -52769.297   0.27814564 
   23300    279.39719    -1004.749    142858.05   -48939.751    3836.8475   -52776.598     0.260942 
   23400    278.79593   -1025.3889    142852.69   -48989.547    3828.5908   -52818.138   0.26223436 
   23500     280.2064   -1003.4512    142869.95   -48883.918    3847.9601   -52731.878     0.290871 
   23600    279.42487   -986.16737    142881.91   -48903.767    3837.2277   -52740.995   0.25560173 
   23700    275.86801   -996.17738    142859.53   -48890.275    3788.3829   -52678.658   0.26464904 
   23800    278.05535   -995.79503    142843.56   -48897.228    3818.4206   -52715.648   0.29012251 
   23900    275.62352   -1056.6121    142820.47   -48980.218    3785.0253   -52765.243   0.26723306 
   24000    272.68357   -1013.8952    142819.05   -48925.533    3744.6521   -52670.186   0.27046273 
   24100    278.55473   -1008.7967    142825.74   -48860.453    3825.2784   -52685.732   0.27828797 
   24200    272.93945    -1014.922    142841.64   -48980.019    3748.1661   -52728.185    0.2792981 
   24300    272.73259   -1019.5366    142792.04   -49013.638    3745.3254   -52758.963   0.26803678 
   24400    273.33777   -1023.9863    142799.82   -49050.507    3753.6361   -52804.143     0.264969 
   24500    272.17236   -974.24622    142781.58   -48995.898     3737.632    -52733.53   0.28868787 
   24600    273.44707   -1020.2697    142779.05   -49045.071     3755.137   -52800.208   0.27001279 
   24700     274.4763    -1000.077    142791.48   -49048.727     3769.271   -52817.998   0.26733426 
   24800    272.26938   -954.97629    142820.12   -48989.886    3738.9643   -52728.851   0.27666817 
   24900    275.08288   -1015.2578     142819.1    -49054.56    3777.6009   -52832.161   0.27279391 
   25000    271.79611   -979.07903    142793.88   -49033.637     3732.465   -52766.102    0.2646578 
   25100    269.89737   -1030.7878    142797.84   -49086.898    3706.3904   -52793.288   0.26346321 
   25200    265.70001   -1017.1752    142727.75   -49216.315    3648.7498   -52865.065   0.28602086 
   25300    274.67579    -986.0853    142752.97   -49058.689    3772.0106   -52830.699   0.26235435 
   25400    273.21286   -1017.8675    142793.36   -49105.563    3751.9206   -52857.483   0.26187437 
   25500    275.02539   -974.27836    142799.81   -48987.384    3776.8114   -52764.195   0.27961501 
   25600    273.83751   -975.18146    142833.84   -48912.332    3760.4987    -52672.83   0.27115328 
   25700    275.94627   -1022.7606    142807.43    -48996.93    3789.4575   -52786.387   0.25860246 
   25800    279.71664   -988.58787    142839.02   -48868.051    3841.2345   -52709.285   0.27379985 
   25900    277.51547   -1028.1156    142860.97   -48885.345    3811.0068   -52696.352   0.29071362 
   26000    274.16974   -1032.6001    142840.54   -48934.826    3765.0612   -52699.887   0.25775818 
   26100    274.69129   -1007.3306     142849.3   -48913.199    3772.2234   -52685.422   0.26897734 
   26200    271.90271     -1010.56     142830.6   -49010.123    3733.9289   -52744.052   0.29309762 
   26300    273.46142   -1003.5699     142791.4    -48974.38    3755.3341   -52729.714   0.26875534 
   26400    271.15624   -1028.6107    142784.66   -49030.718     3723.678   -52754.396   0.26691619 
   26500    276.83735   -1006.2116    142798.78   -48947.626    3801.6944   -52749.321   0.28699963 
   26600    279.15621   -973.11083    142839.86   -48900.972    3833.5383   -52734.511    0.2791298 
   26700    277.16014   -973.99361    142871.54   -48901.778     3806.127   -52707.905   0.25152496 
   26800    274.60608    -1019.742    142853.81   -48950.046    3771.0532   -52721.099   0.28673489 
   26900    272.05092   -999.18761    142826.88    -48887.44    3735.9643   -52623.404   0.28485746 
   27000    278.38061   -990.28379    142844.84   -48919.867    3822.8873   -52742.754   0.25777438 
   27100     278.6895   -1016.8057     142875.7   -48865.316    3827.1292   -52692.445   0.28098608 
   27200    275.47675   -999.09693    142863.07   -48927.896    3783.0098   -52710.906   0.27173838 
   27300    284.73994    -981.3932    142858.84   -48766.995    3910.2174   -52677.213     0.279916 
   27400    275.53167   -1006.4132    142850.33   -48883.625    3783.7639   -52667.389   0.26934362 
   27500    271.78631   -1032.0681    142834.11   -48993.579    3732.3304    -52725.91   0.28025078 
   27600    273.64291   -991.11179    142796.77   -49041.087    3757.8265   -52798.914   0.27201324 
   27700    279.09712   -954.33525    142819.52   -48946.837    3832.7268   -52779.564   0.26196623 
   27800    279.53334    -990.1911    142862.68   -48927.327    3838.7173   -52766.045   0.27147955 
   27900    273.47419   -1025.3191    142833.29    -48984.23    3755.5095    -52739.74    0.2714689 
   28000    274.96181   -1017.9623    142779.71   -49057.937    3775.9383   -52833.876   0.27607907 
   28100    273.49747   -1001.5868    142767.59   -49025.458    3755.8292   -52781.287   0.25902838 
   28200    275.30269   -1010.8487    142792.06   -49000.332    3780.6195   -52780.952   0.28020146 
   28300    274.68384   -1010.4679    142798.51   -49015.155     3772.121   -52787.276   0.27883573 
   28400    271.58487   -990.44105    142832.48   -48950.942    3729.5642   -52680.506   0.25489174 
   28500    272.97615   -1008.8605    142819.88   -48983.855    3748.6701   -52732.525   0.27783929 
   28600    270.70499   -988.75048    142784.55    -48986.57    3717.4811   -52704.052   0.27991087 
   28700    273.44299   -998.09985    142797.46   -48986.272    3755.0811   -52741.353   0.26784278 
   28800    277.82701   -990.12748    142798.64   -49030.624    3815.2849   -52845.909   0.25959014 
   28900    276.89234   -975.52477    142787.17   -49001.638    3802.4496   -52804.088   0.28604876 
   29000    276.08627   -945.98065    142813.05   -48945.654    3791.3801   -52737.035   0.26513425 
   29100    275.75727   -985.82544    142804.25   -48942.296    3786.8621   -52729.158   0.25653552 
   29200    273.23579   -1050.7593    142845.68   -48874.492    3752.2356   -52626.727   0.29830279 
   29300    276.79217   -1016.0391    142850.84   -48880.244    3801.0739   -52681.317   0.26884961 
   29400    280.77601   -1010.8195    142836.63   -48895.104    3855.7823   -52750.886   0.26425086 
   29500    276.07398   -1016.5266    142846.57   -48940.367    3791.2112   -52731.578   0.27813698 
   29600    280.35197   -1019.6565    142828.72   -48917.296    3849.9592   -52767.255   0.28426959 
   29700    275.04612   -1017.9774    142799.93   -48980.108    3777.0961   -52757.204   0.26229708 
   29800    272.53642   -1009.4503    142775.88   -49073.095    3742.6314   -52815.726   0.26446489 
   29900    268.75699   -1010.0216     142759.1   -49050.873      3690.73   -52741.603    0.2904205 
   30000    276.53564   -998.45977    142769.78   -49019.031    3797.5511   -52816.582   0.26483396 
   30100    275.84297    -991.5937    142788.62   -48990.656     3788.039   -52778.695   0.27036824 
   30200    273.13063   -1018.3407     142784.2    -48996.44    3750.7915   -52747.232   0.27786337 
   30300    281.81883   -990.98029    142812.38   -48992.789     3870.103   -52862.892   0.26683729 
   30400    277.55196   -999.77393    142796.51   -49021.929    3811.5078   -52833.437   0.27158812 
   30500    272.35034   -971.59473    142761.72   -49119.292    3740.0761   -52859.368   0.26343945 
   30600    272.49971   -957.91152    142773.27    -48999.53    3742.1273   -52741.658    0.2841243 
   30700    270.36754   -1004.8462    142789.17   -49026.224    3712.8471   -52739.071   0.27286248 
   30800    279.46932    -979.9111    142814.84   -48966.317    3837.8382   -52804.155   0.26336688 
   30900    280.37412   -1012.1954    142832.68   -48941.794    3850.2634   -52792.058   0.28019941 
   31000     274.3798     -974.718    142798.12   -48973.612    3767.9459   -52741.557   0.26731606 
   31100    270.34397   -979.80311    142787.84   -48976.088    3712.5234   -52688.612   0.27298047 
   31200    279.71692   -1005.6656    142817.31   -48924.631    3841.2383    -52765.87   0.27295221 
   31300      280.441   -955.12001    142855.51   -48861.555    3851.1818   -52712.737   0.28360526 
   31400    271.59053    -1015.676    142854.74   -48975.835    3729.6419   -52705.477   0.26630779 
   31500    275.27636   -996.68113    142843.02    -48929.73    3780.2579   -52709.988   0.27045743 
   31600    276.65651   -986.84338    142829.09   -48951.718     3799.211   -52750.929   0.28674454 
   31700    276.97891   -1002.0636    142868.01   -48929.187    3803.6384   -52732.825   0.25374754 
   31800    278.98062   -1014.8495    142868.38   -48993.733     3831.127    -52824.86   0.26383336 
   31900    276.17436   -988.92975    142831.97   -48986.103    3792.5898   -52778.692   0.27122656 
   32000    275.53819   -959.64271    142806.92   -48936.437    3783.8535   -52720.291   0.27244621 
   32100    273.46098   -991.65164    142789.86   -48967.218    3755.3281   -52722.546    0.2693752 
   32200    276.60554   -965.06973    142774.19    -49089.03     3798.511   -52887.541   0.27189263 
   32300    273.27043   -982.55986    142744.42    -49027.17    3752.7113   -52779.881   0.28408574 
   32400    267.65597   -1021.9796    142756.55   -49118.015    3675.6102   -52793.625   0.26101905 
   32500    274.29659   -1010.3059     142811.2   -48989.198    3766.8032   -52756.001   0.27777714 
   32600    278.16842    -1014.148    142843.02   -48947.543    3819.9734   -52767.516   0.27791159 
   32700    268.94541   -1043.3743    142828.31   -49033.137    3693.3175   -52726.455   0.25920144 
   32800    277.24176   -1020.2712     142851.8     -48902.8    3807.2479   -52710.047   0.27462727 
   32900    274.69047   -985.08482    142846.82   -48976.473    3772.2121   -52748.686    0.2708311 
   33000     273.0583   -1031.0027    142855.93   -48962.062    3749.7983    -52711.86   0.27619207 
   33100     276.5589   -1022.3095    142854.76   -48994.525    3797.8705   -52792.395   0.25715756 
   33200    275.56666   -1032.9042    142831.56   -48972.235    3784.2444   -52756.479   0.27673132 
   33300    276.95982   -980.66735    142825.02   -48970.256    3803.3762   -52773.632   0.27247173 
   33400    273.44679   -957.56517    142819.32   -48992.323    3755.1332   -52747.456   0.26454717 
   33500     272.5578   -988.36106    142800.57   -49014.164    3742.9251   -52757.089   0.27195841 
   33600    275.90293   -1005.4941    142792.92   -49021.728    3788.8624    -52810.59   0.26804967 
   33700    275.01457   -1033.2272    142823.54    -48927.16    3776.6628   -52703.823   0.28235769 
   33800    279.13416   -1018.0899    142853.18   -48827.634    3833.2354   -52660.869   0.26563817 
   33900    274.53307   -1013.2139    142873.02   -48853.512    3770.0506   -52623.562   0.27694712 
   34000    276.25812   -1005.4916    142838.28   -48988.883    3793.7401   -52782.623   0.27295457 
   34100    271.53286   -1020.8465    142814.52   -49007.368    3728.8499   -52736.218   0.26866877 
   34200    274.50304   -1052.0307    142784.59   -49009.536    3769.6383   -52779.175   0.26953472 
   34300    274.10314   -1011.7773    142767.46   -49037.403    3764.1466    -52801.55   0.27913607 
   34400    272.51723   -1004.0444    142745.74   -48965.348    3742.3679   -52707.715   0.27978474 
   34500    278.60158   -966.24562    142792.48    -48893.32    3825.9218   -52719.242   0.26703089 
   34600    278.59753   -1039.7454     142847.1   -48895.069    3825.8662   -52720.935   0.29013128 
   34700    274.84209    -1000.906     142793.8   -48999.625    3774.2943   -52773.919   0.27466846 
   34800    273.36368   -1004.0502    142765.89   -48993.098    3753.9918    -52747.09    0.2631464 
   34900    276.07151   -947.45816    142765.33    -48975.31    3791.1774   -52766.488   0.28682198 
   35000    279.26449   -983.37645    142781.88    -48948.92    3835.0253   -52783.945   0.27959669 
   35100    273.28496   -986.62606    142759.96   -48955.012    3752.9108   -52707.923   0.27088592 
   35200    277.96443   -999.96614    142806.94   -48897.796    3817.1721   -52714.968   0.27488711 
   35300    276.14157   -1021.3659    142808.77   -48986.225    3792.1395   -52778.365   0.28934995 
   35400    270.72834   -1036.1341    142752.94    -48985.85    3717.8017   -52703.651   0.27758075 
   35500    272.81064   -996.70151    142745.47   -48969.928    3746.3972   -52716.325   0.27932579 
   35600    273.00459    -1033.316    142772.57   -48944.558    3749.0606   -52693.619   0.29279851 
   35700    274.99755   -992.93028    142793.49   -48958.641    3776.4291    -52735.07   0.26684592 
   35800      278.459   -986.21672    142850.62   -48804.829    3823.9638   -52628.793    0.2796294 
   35900    273.38561   -990.26578    142838.78   -48912.747     3754.293    -52667.04   0.27302567 
   36000    275.60809   -1029.5762    142799.66    -48972.07    3784.8134   -52756.884   0.28001922 
   36100    277.48932   -1025.9085    142784.71   -49012.752    3810.6476     -52823.4   0.27558398 
   36200    271.19617     -1047.89     142799.8   -49045.823    3724.2263   -52770.049   0.27150051 
   36300    274.23597   -966.73787    142754.26   -48981.939    3765.9707    -52747.91   0.28716023 
   36400     272.0938   -996.51011    142756.45   -49028.781    3736.5531   -52765.335   0.27520375 
   36500    268.61022   -985.03382    142748.21   -49003.197    3688.7146   -52691.912   0.27829379 
   36600    272.98519   -1000.4036    142770.32   -49000.863    3748.7942   -52749.657   0.27172817 
   36700    272.53321   -1014.9531    142755.72   -49041.374    3742.5874   -52783.961   0.28568723 
   36800    269.75606    -1041.033    142695.21   -49108.135    3704.4499   -52812.585   0.26687027 
   36900    276.13478   -994.54288    142679.35   -49029.264    3792.0462    -52821.31   0.26800727 
   37000    272.36952   -1020.3912    142693.87   -49016.617    3740.3394   -52756.956   0.30300406 
   37100    272.59439   -966.11807    142698.62   -49058.983    3743.4276    -52802.41   0.27262953 
   37200    269.51161   -1020.5137    142703.55   -49069.917    3701.0929   -52771.009   0.27543182 
   37300    274.15347    -964.4111    142704.49    -49056.67    3764.8377   -52821.508   0.28352539 
   37400    266.76578   -1008.7581     142735.2   -49075.441    3663.3856   -52738.827   0.27620698 
   37500    274.75559   -989.73554    142729.84   -49043.012    3773.1064   -52816.118   0.26629634 
   37600     269.5448   -1007.8322    142725.63   -49093.172    3701.5488   -52794.721   0.27918384 
   37700      271.296   -984.75203    142690.92   -49168.367    3725.5973   -52893.964   0.28410021 
   37800    269.89122   -1000.4724    142644.99   -49183.014     3706.306    -52889.32   0.26661852 
   37900    272.83381   -982.72449    142688.41   -49095.725    3746.7154    -52842.44   0.28046008 
   38000    272.60898   -988.44646    142748.17   -49036.734    3743.6279   -52780.362   0.28882486 
   38100     280.4531    -982.5775    142750.32   -48975.001     3851.348   -52826.349   0.26961326 
   38200    271.69852   -1037.7595    142787.19   -48943.141    3731.1249   -52674.266   0.27504472 
   38300    273.06378   -1024.0245    142779.92   -48994.985    3749.8734   -52744.858   0.28188157 
   38400    279.95285   -1010.4207     142795.5   -48929.999    3844.4782   -52774.477   0.28525637 
   38500    272.69152   -967.78599    142765.66   -48981.766    3744.7614   -52726.527   0.27437797 
   38600    276.53442   -993.60706    142758.14   -48947.729    3797.5343   -52745.264   0.28052893 
   38700    273.49291   -1020.3105    142783.21   -48906.359    3755.7665   -52662.125   0.29625755 
   38800    275.86186   -1021.5647    142776.71   -48948.832    3788.2984    -52737.13   0.26841955 
   38900    280.23833     -1003.77    142812.17   -48887.918    3848.3986   -52736.316   0.27545688 
   39000    278.69002   -987.92094     142803.2   -48939.135    3827.1364   -52766.272    0.2824072 
   39100     271.9916   -989.29507    142763.84   -48960.726    3735.1496   -52695.876   0.27710476 
   39200    267.61714   -1029.8961    142778.63   -49089.486    3675.0769   -52764.562    0.2712869 
   39300    272.74916   -999.08337    142766.28    -49105.43     3745.553   -52850.983   0.27522634 
   39400    274.68935   -995.82733    142816.58   -48983.221    3772.1968   -52755.418   0.28379563 
   39500    276.80097   -986.91488    142846.16   -48971.693    3801.1948   -52772.888   0.25718274 
   39600    272.38638   -1023.9068    142813.47   -48970.427    3740.5711   -52710.998   0.27774412 
   39700    278.54219   -972.88602    142811.82   -48951.695    3825.1063   -52776.802   0.27915442 
   39800    277.78853   -983.53185    142791.65   -48972.433    3814.7565    -52787.19   0.26256705 
   39900    274.08959   -995.60123     142811.6   -48933.916    3763.9605   -52697.876   0.27489631 
   40000    275.19211   -1001.9113     142803.3    -49009.23     3779.101   -52788.331   0.28004513 
   40100     272.4988   -1029.9672    142799.02   -49020.723    3742.1147   -52762.838   0.28140043 
   40200     273.9055    -1009.971    142802.75   -48993.113    3761.4324   -52754.545   0.26785322 
   40300     273.1658   -992.95192    142792.36   -49001.618    3751.2745   -52752.893   0.28410331 
   40400    272.11663   -1016.2071    142758.81   -49080.401    3736.8666   -52817.267   0.27995709 
   40500    276.29819   -963.50277    142781.54   -48953.939    3794.2903    -52748.23    0.2646083 
   40600    273.76269   -1001.1779    142781.32    -49018.92    3759.4713   -52778.392   0.27415367 
   40700    280.70578   -1009.7193    142787.88   -49025.418    3854.8179   -52880.236   0.27931359 
   40800    272.82741   -1010.2451    142782.83   -48997.529    3746.6275   -52744.156   0.28079796 
   40900    275.59108    -980.2332    142798.54   -48986.416    3784.5798   -52770.995    0.2676585 
   41000    275.49758   -994.95853    142784.32   -49047.105    3783.2959   -52830.401   0.28618972 
   41100     276.0027   -983.46167    142743.19   -49020.228    3790.2324    -52810.46    0.2781545 
   41200    279.10625   -1000.7873    142792.32   -48910.482    3832.8523   -52743.335   0.26597988 
   41300    276.68501     -991.601    142783.11   -48990.225    3799.6024   -52789.827   0.27980518 
   41400    279.82223   -1000.5651    142782.97   -48939.454    3842.6845   -52782.139   0.27775465 
   41500    272.94036   -1017.9467    142760.21   -48946.292    3748.1785   -52694.471   0.27970314 
   41600    269.79274   -1000.3665    142766.18   -48948.231    3704.9536   -52653.185   0.27020281 
   41700    267.64783   -1026.9504    142754.46   -49062.175    3675.4984   -52737.674   0.28968154 
   41800    274.65294   -997.37279    142774.69   -48978.507    3771.6967   -52750.204   0.28479154 
   41900    272.37489   -996.51244    142754.79   -49056.401    3740.4132   -52796.814   0.26611268 
   42000    273.05157   -973.74571    142764.32   -49030.788    3749.7057   -52780.493   0.28455389 
   42100    269.65115   -1005.7668    142736.02   -49099.749    3703.0092   -52802.758   0.27859823 
   42200    272.97343   -961.08639    142783.46   -49061.327    3748.6327   -52809.959   0.26449709 
   42300    274.24161   -994.04256    142802.33   -49026.841    3766.0481   -52792.889   0.26736422 
   42400    269.82386   -1024.7219    142807.97   -49049.619    3705.3809   -52754.999    0.2838128 
   42500    271.71989   -980.09506    142815.11   -49017.346    3731.4183   -52748.765   0.26324541 
   42600    272.25798   -999.03836    142817.38   -49057.109    3738.8077   -52795.916   0.26452315 
   42700    268.66759    -1033.026    142766.17   -49114.154    3689.5024   -52803.656   0.28533496 
   42800     273.0029   -996.81575    142785.93   -49033.667    3749.0374   -52782.705   0.26393305 
   42900    277.06782   -990.01306    142798.38   -49049.771    3804.8593   -52854.631   0.26226161 
   43000    270.53448   -1043.8395    142775.05   -49072.594    3715.1397   -52787.734   0.27711408 
   43100    276.05567   -1008.5082    142790.84   -48997.334    3790.9599   -52788.294    0.2759323 
   43200    276.14929    -1005.301     142786.5   -49007.416    3792.2454   -52799.662   0.26837277 
   43300    276.26054   -1013.0833    142754.41   -48996.455    3793.7732   -52790.228   0.27466999 
   43400    271.79975   -964.26952    142761.61   -48929.498     3732.515   -52662.014   0.29174346 
   43500    272.28588   -1038.3232    142783.65   -48983.498    3739.1908   -52722.689   0.26792706 
   43600    269.95196   -1047.2583    142785.98   -49027.832    3707.1401   -52734.972   0.27775061 
   43700    272.54174    -974.9856    142751.74   -49064.238    3742.7045   -52806.942   0.27689187 
   43800    272.03935   -1015.4638    142760.78   -49104.339    3735.8054   -52840.144   0.26900048 
   43900    269.14821   -1009.9359    142778.89   -49024.565    3696.1026   -52720.668   0.27144008 
   44000     271.3897   -961.36829    142776.62   -49108.047     3726.884   -52834.931      0.26431 
   44100      273.605   -1015.4644    142757.02   -49064.857    3757.3058   -52822.163   0.28264795 
   44200    275.41516   -993.79553    142779.44   -49025.122     3782.164   -52807.286   0.26306788 
   44300    270.70662   -991.79095    142779.61   -49029.141    3717.5035   -52746.644   0.27046269 
   44400     273.5152    -972.5652    142773.89   -49038.137    3756.0726    -52794.21   0.27994881 
   44500    271.60081     -1022.69    142801.63   -49044.787     3729.783    -52774.57   0.26565603 
   44600    271.81731   -1018.5002    142802.77   -49053.849    3732.7562   -52786.606   0.26898503 
   44700    274.18828   -994.52254    142777.72    -49038.36    3765.3157   -52803.676   0.27135534 
   44800    275.71276    -990.4878    142762.11   -48996.381    3786.2508   -52782.632    0.2762535 
   44900    277.87078   -1010.3663    142781.55    -48983.31     3815.886   -52799.196   0.26380342 
   45000    275.67565   -1008.9748    142775.14   -49021.714    3785.7412   -52807.455   0.27107026 
   45100    274.59961    -979.5684     142791.4   -48909.718    3770.9644   -52680.682   0.28755718 
   45200    279.00685   -970.34116    142805.91    -48949.81    3831.4872   -52781.297   0.27069931 
   45300    281.12243   -1010.9263    142814.27    -48976.24    3860.5396    -52836.78   0.27070497 
   45400    279.52532   -998.08002    142782.37   -49035.299    3838.6072   -52873.907   0.26839861 
   45500    276.45808   -1005.9783    142788.73   -48977.702    3796.4859   -52774.188   0.27823127 
   45600    275.23431   -1007.6723    142818.43   -48971.555    3779.6805   -52751.235   0.27029478 
   45700    282.21709   -996.23715    142799.62   -48929.223    3875.5722   -52804.795   0.27491285 
   45800    274.43911   -1043.5151    142765.95   -48994.872    3768.7602   -52763.632   0.28860254 
   45900    279.65349   -967.87444    142813.64   -48867.853    3840.3673    -52708.22   0.26847974 
   46000    277.05082   -994.62162    142816.74   -48920.976    3804.6258   -52725.602   0.26953691 
   46100    280.18053   -992.46608    142841.63   -48836.114    3847.6049   -52683.719   0.27381486 
   46200    278.85801   -1034.4607    142830.47   -48883.699    3829.4433   -52713.142   0.27406438 
   46300    276.15405   -991.87648    142839.51   -48877.203    3792.3109   -52669.514   0.26938117 
   46400    275.72209   -986.18153    142829.96   -48923.214     3786.379   -52709.593   0.27676029 
   46500    275.04288   -984.79599    142840.86   -48891.215    3777.0517   -52668.267   0.27498875 
   46600    278.76322   -993.84192    142825.06   -48948.254    3828.1416   -52776.395   0.26333792 
   46700    276.45266   -1011.9904    142843.81   -48884.632    3796.4116   -52681.044   0.27548376 
   46800    280.78613   -1030.3464     142823.1   -48893.836    3855.9213   -52749.757    0.2787517 
   46900    275.39861   -1020.9882    142819.36   -48951.576    3781.9367   -52733.513   0.26618049 
   47000    275.80339   -995.84804    142816.11   -48981.444    3787.4954   -52768.939   0.26800136 
   47100    272.38399   -1014.7385    142775.42   -48992.241    3740.5382   -52732.779   0.27380426 
   47200    274.51539    -1001.541    142774.54   -48960.979    3769.8078   -52730.787   0.27886886 
   47300    270.89498    -1026.939     142725.4   -49070.453    3720.0902   -52790.543   0.27387446 
   47400    276.83506   -962.70058    142776.67   -49013.588    3801.6629   -52815.251   0.26783263 
   47500    274.58257   -1005.4122    142746.55     -49015.4    3770.7304    -52786.13   0.27990337 
   47600    277.16987   -975.00105    142791.07    -49014.74    3806.2607   -52821.001   0.25794357 
   47700    278.17285    -950.2375    142811.56   -48944.458    3820.0343   -52764.493   0.26818582 
   47800    275.24393    -1004.547    142807.83   -48999.733    3779.8126   -52779.546   0.27525412 
   47900    275.70609   -1009.8504    142776.92   -49048.642    3786.1593   -52834.801   0.26820107 
   48000    271.55849   -988.81475    142788.71   -49007.112    3729.2019   -52736.314    0.2706489 
   48100    271.37017   -983.06544    142774.92   -49050.179    3726.6158   -52776.795   0.27917303 
   48200    270.23219   -987.13278    142793.37   -49036.403    3710.9884   -52747.391   0.27505457 
   48300    275.06879   -976.29078    142818.49   -48996.111    3777.4074   -52773.519   0.26185959 
   48400    270.90739   -1017.4411    142795.88   -49030.857    3720.2607   -52751.118   0.27690381 
   48500    271.55021   -972.75576    142777.87   -49115.197    3729.0883   -52844.285   0.27343731 
   48600    271.87675   -976.32827    142774.54   -49108.872    3733.5724   -52842.445   0.26121538 
   48700    273.55802   -1008.3832    142799.12   -48999.916    3756.6606   -52756.577   0.27631204 
   48800    271.94736   -1013.5605    142794.58   -48991.803    3734.5422   -52726.345     0.282986 
   48900     272.5841   -1015.2596    142784.97   -49015.172    3743.2863   -52758.459    0.2704107 
   49000    273.47313   -985.06158    142771.95   -49044.092     3755.495   -52799.587   0.27435373 
   49100    273.82872   -1011.3411     142809.9   -48962.691     3760.378   -52723.069   0.27917152 
   49200    275.82235   -996.11033    142781.42   -48992.305    3787.7557    -52780.06   0.27095581 
   49300    273.90411   -1022.2914    142758.62   -49056.196    3761.4133   -52817.609   0.27525786 
   49400    272.82941   -984.77839    142773.65   -49079.578     3746.655   -52826.233   0.27350843 
   49500    273.40688   -985.00591    142764.77   -49021.466    3754.5851   -52776.051   0.27547332 
   49600    272.52245    -975.7166    142761.37   -49014.899    3742.4396   -52757.338   0.27509625 
   49700    271.83449   -995.03262    142761.12   -49020.344    3732.9921   -52753.336    0.2742894 
   49800    273.08168   -974.65937     142765.3   -49030.362    3750.1192   -52780.482   0.27562504 
   49900    272.41266   -1015.3255    142765.69   -49006.583    3740.9319   -52747.515   0.27463987 
   50000    273.91378   -980.44928    142801.48   -49023.044    3761.5462   -52784.591   0.27197623 
   50100    277.88783    -983.8115    142848.83   -48887.159    3816.1202   -52703.279   0.27269959 
   50200    274.14734    -1011.611    142836.36   -48957.224    3764.7536   -52721.978    0.2763842 
   50300    275.02254   -962.45146    142842.33   -48972.302    3776.7724   -52749.074   0.26420833 
   50400    274.15803   -1005.4312    142825.42   -48989.511    3764.9004   -52754.411   0.27240694 
   50500     277.0684   -1015.0173     142836.9   -48908.722    3804.8673   -52713.589   0.28341997 
   50600    276.78865   -1030.0803    142872.91   -48835.772    3801.0256   -52636.798   0.27096043 
   50700    270.84119   -995.44172    142835.18   -49066.042    3719.3516   -52785.394   0.26536301 
   50800    279.19471   -984.07047    142773.78   -49045.577     3834.067   -52879.645   0.27254857 
   50900      273.583   -999.80785    142761.64    -49067.61    3757.0037   -52824.614   0.26578928 
   51000    272.35747   -982.75602    142759.17   -49028.319     3740.174   -52768.493   0.27021126 
   51100    274.35662   -1011.5648    142759.16   -49037.317    3767.6275   -52804.945   0.27675482 
   51200    272.29502   -995.35325    142740.34   -49091.396    3739.3163   -52830.713    0.2759861 
   51300    272.05194   -977.76798    142710.61   -49095.353    3735.9782   -52831.331   0.26867841 
   51400    273.29007    -960.8972    142723.64   -49037.979     3752.981    -52790.96   0.27255592 
   51500    270.21268   -1020.6658    142717.24   -49091.356    3710.7205   -52802.076   0.27886873 
   51600     273.9493   -986.38378     142752.6    -49015.62    3762.0339   -52777.654   0.27227464 
   51700      281.945   -983.36533     142793.2   -48920.563    3871.8356   -52792.399   0.27139939 
   51800    277.76854   -1000.2661     142807.1   -48961.558     3814.482    -52776.04   0.26574912 
   51900    274.93121    -994.9233    142798.22   -49026.783     3775.518   -52802.301   0.27170551 
   52000    275.46808   -1008.1904    142782.24   -49010.629    3782.8907    -52793.52   0.27019307 
   52100    273.06265   -1031.9716    142762.04   -49087.099    3749.8579   -52836.957   0.26807426 
   52200    270.60338   -1031.8429    142739.78   -49140.354    3716.0857   -52856.439   0.27760012 
   52300    271.15331   -1000.1083    142741.62    -49118.13    3723.6377   -52841.767   0.27071211 
   52400    266.37168   -981.65649    142712.47   -49198.053    3657.9736   -52856.027   0.25823257 
   52500    268.37993   -981.50778    142716.83   -49053.423     3685.552   -52738.975   0.28014325 
   52600    272.89865   -1021.8656    142758.32   -49021.056    3747.6057   -52768.662   0.27754295 
   52700    272.53905   -987.74567    142786.08   -48963.071    3742.6676   -52705.739   0.26182354 
   52800    274.47863   -974.66994    142846.31   -48935.422     3769.303   -52704.725   0.27868066 
   52900    275.07424   -998.60527    142849.37   -48958.491    3777.4822   -52735.973   0.27069977 
   53000    276.43065    -1022.592    142826.33   -48911.497    3796.1092   -52707.607   0.26941784 
   53100    274.17302   -1012.9547    142786.16   -49039.952    3765.1061   -52805.058    0.2682186 
   53200    275.03194    -967.1349    142802.19   -49087.418    3776.9014   -52864.319   0.26870679 
   53300    272.41843   -955.58478    142791.13   -49049.924    3741.0111   -52790.935   0.26515786 
   53400    280.44076   -987.63272    142830.69   -48992.396    3851.1785   -52843.574   0.26604154 
   53500    276.33867   -1011.9738    142818.24   -48981.905    3794.8462   -52776.752   0.27749217 
   53600    275.42007   -1014.2313    142793.41   -49046.419    3782.2315    -52828.65   0.26093096 
   53700    272.43551   -1019.6445    142804.81   -49023.196    3741.2457   -52764.441   0.27559521 
   53800    272.25135   -999.56271    142780.08   -49044.911    3738.7167   -52783.628   0.27124719 
   53900     273.8601   -1010.6949    142792.24   -49054.819     3760.809   -52815.628   0.27039179 
   54000    272.34664   -1043.7923    142787.83   -49067.033    3740.0252   -52807.058   0.27295196 
   54100    273.31484   -1018.3113    142774.77   -49033.386    3753.3212   -52786.708   0.27113233 
   54200    272.17698   -1021.6329    142778.63   -48981.891    3737.6954   -52719.587   0.27870621 
   54300    275.30114   -1021.6264    142807.84   -48916.525    3780.5982   -52697.124   0.27849054 
   54400    277.65045   -1013.6193    142830.66   -48837.019    3812.8603   -52649.879   0.28029594 
   54500    276.53196   -992.91649    142809.81   -48904.203    3797.5005   -52701.703   0.27089857 
   54600    275.22247   -1029.6057    142806.67   -48918.818    3779.5178   -52698.335   0.27584324 
   54700    275.00043   -1003.0632    142835.52    -48983.36    3776.4687   -52759.829   0.27548819 
   54800    277.30563   -981.81285     142824.3   -48913.453     3808.125   -52721.578   0.26801269 
   54900    278.98284   -1015.3721     142835.6   -48921.439    3831.1575   -52752.597   0.27679641 
   55000    278.69213   -1039.7199    142834.04    -48957.95    3827.1653   -52785.115   0.27423992 
   55100     275.8491   -1004.9923     142784.7   -48969.666    3788.1232   -52757.789     0.272539 
   55200     271.0506   -1043.8143    142768.29   -49081.888    3722.2273   -52804.115   0.27831314 
   55300    272.63276   -997.74421    142730.01   -49124.215    3743.9544   -52868.169   0.26555515 
   55400    274.04205   -972.44344    142732.99   -49092.681    3763.3076   -52855.989   0.26950076 
   55500    270.13031   -1018.9043    142737.89   -49052.346    3709.5893   -52761.936   0.27763981 
   55600    275.27959   -987.69662    142790.76   -48953.905    3780.3023   -52734.207   0.27406151 
   55700    280.04671   -976.10275    142818.07   -48912.584    3845.7672   -52758.351   0.26703068 
   55800    275.50262    -957.3429     142874.2   -48904.112     3783.365   -52687.477    0.2672699 
   55900    278.52371    -1009.055    142847.93   -48916.467    3824.8525    -52741.32   0.27355162 
   56000    275.81607   -1006.9213    142870.25   -48925.394    3787.6695   -52713.064   0.26278824 
   56100    274.92837   -1007.5108    142874.08   -48916.301    3775.4791    -52691.78   0.27373995 
   56200    276.20251   -983.52991    142845.02    -48946.94    3792.9763   -52739.916   0.27553399 
   56300    273.22038   -997.27926     142798.6   -49013.464     3752.024   -52765.488   0.26592417 
   56400    273.09422   -995.39407    142779.44   -49060.319    3750.2915   -52810.611   0.27407283 
   56500    271.60488   -985.49414     142750.8   -49110.542     3729.839   -52840.381   0.26555216 
   56600    266.95222   -1008.9874    142727.75   -49162.612    3665.9459   -52828.558   0.27551838 
   56700    267.92877   -1013.7944    142717.76   -49139.821    3679.3565   -52819.177    0.2738256 
   56800    272.52612   -997.46206     142769.6   -49034.468    3742.4899   -52776.958   0.27370425 
   56900     273.1338   -1003.0597    142767.86   -49129.921     3750.835   -52880.756   0.27102362 
   57000    267.68901   -994.71241     142735.5   -49110.917    3676.0639   -52786.981   0.26648871 
   57100    268.48915   -1021.8566    142767.24   -49028.678    3687.0519    -52715.73   0.28461597 
   57200    271.47693   -978.83193     142778.9   -48981.896    3728.0819   -52709.978   0.27071517 
   57300    269.67433   -975.89433    142761.67   -49113.832    3703.3275   -52817.159   0.26892505 
   57400    275.68198   -1001.6703    142786.65   -49000.178    3785.8282   -52786.006   0.27243242 
   57500    273.18268   -1021.5123     142804.1   -48970.071    3751.5063   -52721.577   0.27021526 
   57600    274.72056   -1004.3279    142758.23   -49075.948    3772.6254   -52848.573   0.27293861 
   57700    274.41364    -980.3232    142791.92   -48988.836    3768.4105   -52757.247   0.27329031 
   57800    277.20814   -997.06145     142804.7   -48939.639    3806.7862   -52746.425   0.27618996 
   57900    272.28894   -991.60119    142828.36   -48977.975    3739.2329   -52717.208   0.26850046 
   58000    274.09572    -1023.627    142816.97   -48937.002    3764.0446   -52701.047   0.27587181 
   58100    278.45907   -1006.3409    142818.09   -48985.552    3823.9648   -52809.517   0.26561689 
   58200    277.87206   -964.29735    142827.92     -48888.7    3815.9036   -52704.603   0.27642645 
   58300    280.48735   -1017.7642     142810.8   -48946.638    3851.8183   -52798.456   0.27234215 
   58400    273.86402   -1028.3218    142792.79    -48989.78    3760.8628   -52750.643   0.27428044 
   58500    273.01507    -1009.186    142807.77   -48994.031    3749.2046   -52743.236   0.27379407 
   58600     274.5363   -991.94795    142770.34   -49029.359     3770.095   -52799.454   0.26804297 
   58700    272.18534   -1007.6501    142778.43   -48986.186    3737.8101   -52723.996   0.27033069 
   58800     279.3749   -982.11762     142747.5   -49024.954    3836.5416   -52861.496   0.27211851 
   58900    274.83272   -1007.5262     142784.3    -48947.08    3774.1656   -52721.246   0.27518443 
   59000    275.54603   -1003.8974    142811.69   -48908.841    3783.9612   -52692.802   0.26903483 
   59100    279.36917   -983.98981    142822.83   -48877.543    3836.4629   -52714.006   0.27433385 
   59200    270.07471   -1063.2021    142784.46    -48990.38    3708.8257   -52699.205   0.28172738 
   59300    274.57374   -976.22206    142759.51   -48972.065    3770.6091   -52742.674    0.2662062 
   59400    273.47073     -1032.73    142792.15   -48959.157     3755.462   -52714.619   0.27693719 
   59500    279.24812   -1017.7916    142753.37   -49061.931    3834.8005   -52896.731   0.27506511 
   59600    271.66861   -1030.2682    142733.63   -49035.233    3730.7142   -52765.947   0.26990332 
   59700    274.48199   -1009.2469    142737.67   -48966.989    3769.3492   -52736.338   0.28399398 
   59800    268.16987    -1012.505    142709.21   -49075.028    3682.6673   -52757.695   0.27673307 
   59900    267.97731   -990.96299    142701.07   -49070.315     3680.023   -52750.338   0.27947571 
   60000    276.98266   -974.87566    142715.34   -49035.565    3803.6899   -52839.255    0.2755083 
   60100    273.29408   -991.40724    142723.73   -49004.854    3753.0361    -52757.89   0.27951068 
   60200    276.68861   -974.00216    142717.68   -48967.947    3799.6518   -52767.599   0.28418823 
   60300    276.60206   -987.54744    142747.08   -48934.364    3798.4632   -52732.827   0.28145233 
   60400    278.92882   -1029.0093    142769.24    -48885.15    3830.4156   -52715.566   0.28088906 
   60500    271.82912   -1017.1622    142782.33   -48910.721    3732.9183    -52643.64   0.27922182 
   60600    271.18816   -1009.6004    142743.87   -48964.962    3724.1163   -52689.078   0.28552824 
   60700    282.41386   -971.86262    142788.93   -48798.806    3878.2742    -52677.08   0.27786309 
   60800    281.80748   -1007.9108    142813.52   -48824.718    3869.9471   -52694.665   0.27498744 
   60900    276.55445    -1011.523       142795   -48914.547    3797.8094   -52712.357   0.29103457 
   61000    277.78372   -1019.1729    142772.43   -48952.564    3814.6904   -52767.254   0.27215378 
   61100    274.93986   -993.08344    142783.64   -48939.942    3775.6368   -52715.579   0.27255663 
   61200    276.62879   -997.01308    142781.64   -48884.086    3798.8303   -52682.916   0.29427104 
   61300    275.06042    -972.0897    142795.54   -48976.467    3777.2925   -52753.759   0.26982928 
   61400    273.17548   -993.22792    142784.38   -49024.544    3751.4073   -52775.951   0.26755142 
   61500    280.06138   -955.13486     142796.9   -48968.013    3845.9686   -52813.981   0.28247758 
   61600    276.46373   -1010.3722    142767.59   -49006.486    3796.5636   -52803.049   0.27438644 
   61700      275.544   -1023.3261    142761.13   -49074.749    3783.9333   -52858.682   0.26628055 
   61800    272.78608   -1008.4318    142745.96    -49060.26    3746.0599    -52806.32   0.28435545 
   61900    273.81628   -978.09343    142798.65   -48959.777    3760.2073   -52719.985   0.27343249 
   62000    272.78655   -990.29185    142800.82   -48974.623    3746.0664   -52720.689   0.27227319 
   62100     270.6222   -986.76324    142783.46    -49030.57    3716.3442   -52746.914   0.27724603 
   62200    275.26435   -1000.7371    142794.86   -48930.285     3780.093   -52710.378   0.27761311 
   62300    281.38906   -958.68101    142764.79   -48967.956    3864.2011   -52832.157   0.27269379 
   62400    274.78443   -995.72846    142765.39   -49013.007    3773.5024    -52786.51   0.27624545 
   62500    273.50892   -1005.4643    142796.06   -49004.627    3755.9863   -52760.614   0.27743471 
   62600    272.62554   -1049.2492    142798.23   -49035.315    3743.8553    -52779.17    0.2770591 
   62700    274.36502   -991.77773    142784.64   -49068.874    3767.7429   -52836.617   0.27352361 
   62800    274.55962   -972.16126    142760.63   -49047.828    3770.4152   -52818.243   0.28175435 
   62900    275.44895   -1003.1948    142801.91   -48958.581     3782.628   -52741.209   0.27828072 
   63000    273.94607   -1015.7222    142790.61   -48990.788    3761.9895   -52752.778   0.27969325 
   63100    270.48571   -999.25003    142771.45   -49060.285    3714.4698   -52774.755   0.26819766 
   63200    273.12385   -943.75588    142781.48   -48946.701    3750.6983   -52697.399   0.27513304 
   63300    270.11146   -995.18669    142743.02   -49029.305    3709.3305   -52738.636   0.28456254 
   63400    271.67224   -1005.0874    142729.94     -49123.3    3730.7641   -52854.065   0.26738651 
   63500    268.69066   -998.16194    142703.71   -49097.251    3689.8192   -52787.071   0.28234224 
   63600    270.93769   -977.41667    142702.07   -49145.909    3720.6768   -52866.586   0.27505828 
   63700    269.45913   -1043.6112    142716.07   -49111.694    3700.3723   -52812.067   0.27191701 
   63800    268.72557    -986.5927    142712.68   -49183.594    3690.2985   -52873.893   0.26826635 
   63900    277.59781   -971.75942    142729.56   -49079.844    3812.1374   -52891.981   0.27149761 
   64000    276.38432   -1003.0997    142762.46   -48996.345    3795.4731   -52791.818   0.27874524 
   64100    277.70284   -998.10214    142781.73   -48948.632    3813.5798   -52762.212   0.26813873 
   64200     280.2181   -1007.5168    142797.44   -48943.674    3848.1209   -52791.794   0.28149952 
   64300    274.56025   -1046.3695    142800.33   -48973.424    3770.4238   -52743.847   0.27257364 
   64400    272.66294   -1026.2812       142768   -49029.472    3744.3688   -52773.841   0.27128976 
   64500    270.88698   -1015.2839     142747.3   -49020.388    3719.9803   -52740.368   0.28701831 
   64600    270.68656   -998.61474    142750.65   -49053.426     3717.228   -52770.654   0.26870162 
   64700    272.91929   -993.51997    142770.61   -49060.125    3747.8893   -52808.014   0.27371317 
   64800     275.7595   -988.59729    142776.54     -49010.7    3786.8927   -52797.593   0.27106108 
   64900    276.77047   -955.31305    142779.63   -48925.733     3800.776   -52726.509   0.27459592 
   65000    279.80903   -999.66446    142800.06   -48917.678    3842.5032   -52760.181   0.27607177 
   65100     275.2214   -978.08745    142799.27   -48981.651    3779.5032   -52761.154   0.27161283 
   65200    276.68697   -1013.3133    142776.61   -49000.742    3799.6292   -52800.371   0.27453368 
   65300    272.79674   -966.44213    142807.48   -48935.334    3746.2063    -52681.54   0.27439482 
   65400     273.8849   -989.97369    142817.73   -48980.479    3761.1496   -52741.629   0.27337397 
   65500    276.41871   -1002.0482    142812.97   -48912.436    3795.9454   -52708.381   0.26916296 
   65600     275.5967   -1029.1019    142840.62    -48929.53    3784.6571   -52714.187   0.27779503 
   65700     277.0208   -985.66812    142842.34   -48889.107    3804.2136   -52693.321   0.27919819 
   65800    279.19631   -1008.8369    142815.89   -48951.206     3834.089   -52785.295   0.27180288 
   65900    273.62876    -1034.646    142787.82   -48964.867    3757.6322   -52722.499   0.27874574 
   66000    274.75886   -1015.0582     142799.6   -48975.503    3773.1513   -52748.655   0.28378155 
   66100    275.84003   -1042.2694     142787.5   -48945.461    3787.9985    -52733.46   0.27417003 
   66200    271.62751   -997.08204    142760.67   -49075.101    3730.1498   -52805.251   0.27094049 
   66300    272.85392   -1000.4991    142745.19   -49006.633    3746.9915   -52753.625   0.28366998 
   66400    272.56265   -967.59701    142750.46   -49006.908    3742.9917   -52749.899    0.2650449 
   66500    273.70273   -1005.6078    142753.13   -49038.267    3758.6479   -52796.915   0.27044734 
   66600     271.9863   -990.06436    142758.95   -49044.297    3735.0769   -52779.373   0.28138022 
   66700    275.58948   -999.93103    142780.61   -49036.322    3784.5578    -52820.88    0.2672269 
   66800    271.59662   -996.53035    142747.82   -49055.722    3729.7255   -52785.448   0.27115497 
   66900    271.11845   -1009.0887     142753.8   -49068.204     3723.159   -52791.363   0.28206035 
   67000    272.59954   -1011.8118    142698.58   -49165.343    3743.4982   -52908.842   0.27059526 
   67100    270.19943   -1023.0568    142726.52    -49009.59    3710.5385   -52720.129   0.27878312 
   67200    272.48036   -1019.8353    142723.19   -49109.306    3741.8616   -52851.168   0.27591772 
   67300    271.91016   -999.86944    142744.38    -49033.74    3734.0313   -52767.771   0.27386851 
   67400    275.37316   -1030.5543    142739.99   -49006.285    3781.5872   -52787.872   0.27417763 
   67500    274.50949   -987.06379    142776.24   -48997.549    3769.7268   -52767.276   0.27498541 
   67600    278.86292   -1014.9262    142813.92   -48863.036    3829.5107   -52692.547   0.27628895 
   67700     271.9811    -1020.795    142802.86   -48934.269    3735.0054   -52669.274   0.27619731 
   67800    273.99176   -1034.4081    142800.75   -48974.626    3762.6171   -52737.243   0.27929471 
   67900     270.7651   -984.99059     142770.3   -48998.275    3718.3067   -52716.582   0.27203171 
   68000    271.57782   -1019.8994    142760.63   -49038.057    3729.4673   -52767.525   0.27757692 
   68100    271.58645   -1027.2489    142739.23   -49047.079    3729.5859   -52776.665   0.28865277 
   68200    274.34608   -982.97236    142738.47   -49010.646    3767.4828   -52778.129   0.27108487 
   68300    278.21116   -977.34089    142740.86   -48957.523    3820.5604   -52778.083   0.28122721 
   68400     277.0424    -966.7062    142763.73   -48916.279    3804.5103   -52720.789   0.28161231 
   68500    274.01615    -1005.969    142781.53   -48917.178     3762.952    -52680.13   0.27450221 
   68600    271.34081   -1024.6864    142769.73   -49000.369    3726.2125   -52726.581   0.28483608 
   68700    269.05058   -1026.2518     142774.2   -48983.753    3694.7618   -52678.515   0.28785718 
   68800    273.40797   -1013.2541    142789.64   -48983.995    3754.6001   -52738.595   0.27376001 
   68900    274.52797     -976.219    142785.38   -48980.201    3769.9806   -52750.182   0.27388716 
   69000    272.18802   -1023.8139    142801.12   -48979.935     3737.847   -52717.782   0.28806262 
   69100    279.26193   -999.70617    142773.53   -49043.735    3834.9902   -52878.725   0.26926177 
   69200    269.67201   -1036.6619     142766.4   -49059.242    3703.2956   -52762.537   0.27056507 
   69300    271.44375   -1030.7739    142730.05   -49087.444    3727.6263   -52815.071   0.29146873 
   69400     270.1791   -984.04592    142729.99   -49132.258    3710.2594   -52842.518   0.26654723 
   69500    274.83085   -993.60223    142745.73   -49002.732    3774.1399   -52776.872   0.27271974 
   69600    278.11224   -1009.4004    142835.71   -48904.204    3819.2019   -52723.406   0.28990164 
   69700    277.05853   -1033.7212    142820.03   -48993.728    3804.7317    -52798.46   0.26965679 
   69800    274.27541   -1008.3478    142812.98   -48996.208    3766.5122    -52762.72   0.27118193 
   69900    271.98694   -999.45359    142794.45   -49080.631    3735.0856   -52815.717   0.27618977 
   70000    266.74899    -1022.182    142799.59   -49016.754     3663.155   -52679.909   0.27306639 
   70100    269.38896   -1033.0314    142769.02   -49132.119    3699.4086   -52831.527    0.2758348 
   70200    274.28537   -999.55188    142786.03   -48978.967    3766.6491   -52745.616   0.28560971 
   70300    276.24071   -979.07298    142774.97   -48981.229    3793.5009   -52774.729   0.27849132 
   70400    281.31494   -983.24195    142788.23   -48877.152    3863.1833   -52740.335    0.2760743 
   70500    276.97359   -967.12102    142785.43   -48949.232    3803.5652   -52752.797   0.27873303 
   70600    274.19144   -1023.0723    142784.76     -49000.7    3765.3591   -52766.059   0.28151797 
   70700    270.89251   -985.58706    142794.48   -48976.958    3720.0562   -52697.014   0.27217504 
   70800    271.38339   -978.02548    142808.05   -49013.259    3726.7974   -52740.057   0.27919506 
   70900    273.35027   -999.74101    142813.42   -49005.568    3753.8077   -52759.376   0.27156064 
   71000      274.163   -1015.7836     142779.6   -49020.064    3764.9685   -52785.033   0.27173877 
   71100    272.77284   -1019.0409    142746.21   -49014.655    3745.8781   -52760.533   0.29288838 
   71200    271.36841   -1014.1961    142715.13   -49048.721    3726.5916   -52775.312    0.2812701 
   71300    268.27152   -1028.3248    142718.12    -49102.23    3684.0632   -52786.293    0.2778026 
   71400    276.46425   -978.03146    142727.26   -49037.684    3796.5707   -52834.254   0.28981411 
   71500     275.1613   -952.78876    142752.41   -48987.759    3778.6778   -52766.437   0.27031631 
   71600    275.90361   -1018.7889    142758.87   -49008.995    3788.8716   -52797.866   0.27420101 
   71700    276.05285   -985.70719    142746.56   -48996.454    3790.9211   -52787.375   0.28662104 
   71800    268.52765    -995.5031    142720.18   -49164.373    3687.5806   -52851.954   0.27614184 
   71900    273.58445   -965.65467    142702.35   -49110.461    3757.0236   -52867.484   0.27459839 
   72000    275.01104   -1011.4165    142724.45   -49077.823    3776.6144   -52854.437   0.28594825 
   72100    277.89007    -993.0633    142777.86   -48947.886     3816.151   -52764.037   0.28199845 
   72200    278.04134   -990.06088    142837.16   -48845.216    3818.2282   -52663.445   0.26717619 
   72300    283.87881   -1027.2319    142852.41   -48818.047    3898.3919   -52716.439   0.28718278 
   72400    276.41018    -992.9581    142809.32   -48929.398    3795.8282   -52725.226    0.2726613 
   72500    276.17072   -977.53324    142783.53   -48927.681    3792.5398   -52720.221   0.26661934 
   72600    278.76504   -964.07239    142785.76   -48871.054    3828.1665   -52699.221   0.28046382 
   72700    274.28887   -1032.4873    142779.89    -49026.83    3766.6971   -52793.528   0.27969287 
   72800    272.80338   -987.18226    142759.78   -48959.432    3746.2975    -52705.73   0.27167421 
   72900     276.9959    -1013.202    142770.31   -48966.331    3803.8717   -52770.203   0.28035594 
   73000    275.96623   -1006.2746     142783.2   -48979.468    3789.7316   -52769.199   0.27467394 
   73100    279.00904   -973.81431     142785.4   -48938.067    3831.5172   -52769.584   0.26629335 
   73200    278.77096   -1010.4145    142820.55   -48926.268    3828.2478   -52754.516   0.27665116 
   73300    277.41271   -1018.0128    142832.71   -48904.433    3809.5955   -52714.029   0.26748206 
   73400    274.05431   -996.62391     142819.3   -48879.285     3763.476   -52642.761   0.28005626 
   73500     276.2921   -1019.0712    142840.81   -48892.591    3794.2066   -52686.797   0.28193781 
   73600    276.88526    -1055.977    142819.34   -48935.045    3802.3523   -52737.397   0.27146988 
   73700    277.00645   -1019.7607    142778.74   -48987.875    3804.0165   -52791.892   0.27621551 
   73800    270.43081   -1007.7333    142775.34   -49075.821    3713.7159   -52789.537   0.28453568 
   73900    273.73227   -1006.6377    142766.55   -49054.646    3759.0536     -52813.7   0.26746341 
   74000    280.01811   -964.80416    142795.46   -48984.255    3845.3745    -52829.63   0.26214111 
   74100    280.92899   -970.68674    142867.71    -48826.74    3857.8831   -52684.623    0.2824218 
   74200    277.28044   -979.67991    142859.35   -48984.275    3807.7791   -52792.054   0.26466435 
   74300      268.947   -998.80245    142806.05   -48985.551    3693.3394    -52678.89   0.26977088 
   74400    274.21318   -1028.7648    142790.76   -49019.265    3765.6577   -52784.923   0.29587142 
   74500    268.96324   -999.24442    142790.46   -49031.608    3693.5625   -52725.171   0.26675296 
   74600    270.41548   -1022.0425    142816.67   -49032.877    3713.5055   -52746.383   0.26441965 
   74700    276.55011   -953.36808    142834.46   -48945.427    3797.7498   -52743.177   0.28800948 
   74800    273.36476   -982.31695    142814.86   -48998.624    3754.0067   -52752.631   0.26504614 
   74900    276.13429   -1006.3838     142832.6   -49007.055    3792.0395   -52799.094   0.25885325 
   75000    280.81107   -924.64681    142827.15   -48988.236    3856.2639     -52844.5   0.27423475 
   75100    281.01769   -962.71347    142833.19   -48929.946    3859.1012   -52789.047   0.26895712 
   75200    274.89124    -991.9802    142836.56   -48972.603    3774.9693   -52747.573   0.26625869 
   75300    272.51503   -995.67949    142817.63   -49020.777    3742.3377   -52763.115   0.28041904 
   75400    274.58739   -1007.0883    142785.02   -49030.127    3770.7966   -52800.923    0.2750909 
   75500    275.12555   -1012.6675    142777.13   -49027.275    3778.1869   -52805.462   0.26167048 
   75600    276.89704    -995.6771    142809.35   -48958.439    3802.5141   -52760.953   0.27735326 
   75700    275.83292   -1032.2241    142809.37   -48913.227    3787.9009   -52701.128   0.27622484 
   75800    277.69403   -980.85924    142819.48   -48936.287    3813.4588   -52749.745   0.26571672 
   75900    271.65395   -998.17618    142825.79    -48955.04    3730.5129   -52685.553   0.28880303 
   76000    277.19628   -1004.1471    142835.52   -48964.617    3806.6234    -52771.24   0.26581914 
   76100    274.35971   -1014.0613    142787.22   -49049.743      3767.67   -52817.413   0.27697834 
   76200    272.59474   -994.52485    142783.35   -49095.645    3743.4323   -52839.078   0.27386812 
   76300    271.82237   -1003.0183    142766.11   -49034.026    3732.8256   -52766.852   0.27026902 
   76400    273.71954   -981.39121     142777.9   -49032.375    3758.8787   -52791.254   0.27706691 
   76500    275.82549   -977.80465    142788.03   -49020.929    3787.7989   -52808.728   0.27756969 
   76600    268.94395   -1013.0677    142772.61   -49057.413    3693.2975   -52750.711   0.26881779 
[...]
   81900    273.59572   -1000.4105    142787.17   -49056.051    3757.1783    -52813.23   0.27422157 
   82000    278.22199   -961.74121    142803.03   -48970.672     3820.709   -52791.381   0.25897895 
   82100    280.34234   -996.68365    142864.35   -48922.142    3849.8269   -52771.969   0.27876723 
   82200    271.27916   -992.55194    142873.27   -48935.555     3725.366   -52660.921   0.27863564 
   82300    274.77299   -1018.0807    142845.97   -49008.815    3773.3454    -52782.16   0.26774985 
   82400    277.59316   -1016.1023    142858.77   -48892.632    3812.0736   -52704.705   0.27383812 
   82500    278.64697   -995.61629    142911.83   -48799.452    3826.5451   -52625.997   0.28629995 
   82600     274.3916   -1014.4011    142915.24   -48892.375    3768.1078   -52660.482   0.26326658 
   82700    273.01389   -994.70115    142867.25   -48972.273    3749.1883   -52721.461   0.25891737 
   82800    272.59089   -1034.1541    142853.53     -48983.9    3743.3794   -52727.279   0.28740705 
   82900    276.66794   -990.62004    142875.48   -48942.924    3799.3679   -52742.292   0.26756411 
   83000    277.25691   -966.19559    142874.95   -48877.815     3807.456   -52685.271   0.26648835 
   83100    273.83037   -1001.7045    142889.61   -48918.482    3760.4007   -52678.883   0.28074051 
   83200    282.45915   -972.36779     142867.8   -48948.521    3878.8963   -52827.417   0.27244481 
   83300    278.06858   -977.75543    142827.33   -48932.614    3818.6023   -52751.217   0.26669581 
   83400    277.09894   -1058.1762    142843.59   -49007.884    3805.2867    -52813.17   0.27525714 
   83500    269.56602    -1004.913    142797.18   -49111.935    3701.8401   -52813.775    0.2844192 
   83600    269.13401   -1037.6159    142784.08   -49053.983    3695.9076   -52749.891   0.27355417 
   83700     271.7865   -1039.9339    142813.81   -49090.877    3732.3332    -52823.21   0.26654492 
   83800    275.28443   -964.38087    142809.83    -49049.53    3780.3687   -52829.899   0.27651725 
   83900    277.13766   -1009.4943    142814.12   -49054.619    3805.8184   -52860.438   0.26929342 
   84000    273.12833   -1005.5203    142796.91   -49069.627    3750.7599   -52820.387   0.27250672 
   84100    272.78336   -995.66044    142817.77   -49000.733    3746.0226   -52746.755    0.2761932 
   84200    275.04496    -953.7742    142814.04   -48948.815    3777.0802   -52725.896   0.27869383 
   84300    273.91851    -1001.598       142820   -49010.821    3761.6112   -52772.432   0.27183813 
   84400    275.97563   -996.07526    142821.47   -49005.779    3789.8607   -52795.639   0.26307816 
   84500    274.36979   -987.56577     142804.9   -49058.518    3767.8084   -52826.326   0.28051803 
   84600    276.95412   -1001.5192    142832.77   -48974.877     3803.298   -52778.175   0.27260671 
   84700    277.39623   -968.93696    142814.13    -48984.01    3809.3692   -52793.379   0.26439799 
   84800    272.70829   -1000.6607    142806.72   -48980.976    3744.9917   -52725.967   0.27753529 
   84900    274.22186   -1020.4145    142797.55    -48895.65    3765.7769   -52661.427   0.29576141 
   85000    274.35772   -996.15636     142812.4   -48974.141    3767.6426   -52741.783   0.26989879 
   85100    271.55382   -1017.1653    142794.23   -48986.768    3729.1377   -52715.906   0.27514077 
   85200    270.59806   -990.36543    142796.46    -49020.51    3716.0127   -52736.523    0.2856761 
   85300    274.48117   -996.67913    142813.15   -49038.683    3769.3379   -52808.021   0.26953345 
   85400    268.73796   -1006.7169    142765.98   -49062.187    3690.4687   -52752.656    0.2739642 
   85500    273.59642   -981.98468    142793.11   -49014.637    3757.1879   -52771.825   0.28336302 
   85600    274.31101   -1014.4723    142763.49   -49041.911    3767.0011   -52808.912    0.2850715 
   85700    271.27602   -982.05411    142804.64   -48988.652    3725.3229   -52713.975   0.26580252 
   85800    273.13378    -1035.697    142783.05   -48977.314    3750.8348   -52728.149   0.28880065 
   85900    272.05118   -1009.2144    142812.11   -48948.617    3735.9679   -52684.585   0.28586615 
   86000    275.07735    -971.0547    142790.41   -48995.612     3777.525   -52773.137   0.26718785 
   86100    274.29085   -1006.7876    142776.12   -48969.607    3766.7244   -52736.332   0.28645287 
   86200    273.72992   -982.85463    142804.34   -48938.824    3759.0213   -52697.845   0.28956005 
   86300    273.70732   -1001.5825    142754.08   -48979.752     3758.711   -52738.463   0.27852976 
   86400    273.16802      -1001.4    142747.28   -49036.488    3751.3049   -52787.793   0.27633009 
   86500    275.00202   -960.06769    142731.82   -49065.508    3776.4906   -52841.998   0.28806632 
   86600    276.20689   -958.36826    142768.54   -48912.388    3793.0365   -52705.424   0.28453949 
   86700    276.59745   -971.17571    142808.23   -48918.387    3798.3999   -52716.787   0.27155431 
   86800    273.73502   -971.81736    142781.35   -49033.308    3759.0914   -52792.399   0.28588971 
   86900    275.99326   -998.93468    142795.47   -49023.683    3790.1028   -52813.786   0.27293159 
   87000    277.87733   -1012.1399    142759.99   -48991.677    3815.9759   -52807.652   0.28022074 
   87100    276.12237   -986.05976    142780.02   -48966.118    3791.8759   -52757.994   0.27771483 
   87200    274.48107   -1005.9288    142769.78   -48902.823    3769.3365    -52672.16   0.29063711 
   87300    278.26467   -1020.4952    142795.71   -48916.626    3821.2951   -52737.921   0.28776973 
   87400    277.72236   -1019.2209    142812.29   -48961.971    3813.8478   -52775.818   0.26943943 
   87500    278.34214     -972.701    142819.36   -48941.154    3822.3591   -52763.513   0.28341014 
   87600     275.9375   -1010.3049    142814.72   -48964.673    3789.3371    -52754.01   0.28280718 
   87700    276.39316   -996.34823    142818.87   -48938.781    3795.5945   -52734.376     0.278231 
   87800    274.50439   -1024.8402    142796.97    -49018.87    3769.6567   -52788.527   0.26718625 
   87900    272.81592   -1036.8582    142816.51   -49041.462    3746.4697   -52787.931    0.2866909 
   88000    273.15322   -1027.5249     142802.9   -49008.561    3751.1017   -52759.663   0.27056631 
   88100    271.88909   -1005.2362    142820.92   -48985.165     3733.742   -52718.907   0.26087402 
   88200    271.46848   -997.82905    142791.94   -49083.047    3727.9659   -52811.012   0.29544695 
   88300     275.4016   -1020.4378    142767.36   -49028.865    3781.9778   -52810.843   0.27168805 
   88400    274.98871   -988.31378     142785.4   -48954.913    3776.3078   -52731.221   0.27371485 
   88500    277.00056   -1018.4223    142771.29   -49022.209    3803.9357   -52826.145   0.28315896 
   88600    270.28579   -1017.5996    142751.13   -49009.373    3711.7244   -52721.097   0.28675933 
   88700    275.35174    -994.3334    142751.31    -48982.99    3781.2931   -52764.283   0.27416017 
   88800     275.3574   -1017.0106     142754.1   -49042.804    3781.3708   -52824.175   0.27761009 
   88900    274.58603   -965.09435    142742.28   -48985.736    3770.7779   -52756.514   0.28862457 
   89000    276.71458   -990.96923    142767.79   -48950.192    3800.0084   -52750.201   0.26728376 
   89100    268.54834   -1016.1831    142786.15   -49003.365    3687.8648    -52691.23   0.27898201 
   89200    272.73299   -1005.1996    142791.84   -48956.629    3745.3308    -52701.96   0.28203596 
   89300    270.33885   -993.69665    142775.67   -49075.661    3712.4531   -52788.114   0.27005964 
   89400    277.55096   -981.88298    142793.36   -48978.648    3811.4941   -52790.142   0.27702705 
   89500    272.96054   -1008.2865    142787.11   -49073.785    3748.4557   -52822.241   0.26784969 
   89600    270.04079   -1012.9124    142765.57   -49098.531      3708.36   -52806.891   0.27561172 
   89700    273.60495   -991.43669    142774.47   -49017.502    3757.3051   -52774.807   0.27485003 
   89800    275.80311   -998.81718    142792.61   -48958.308    3787.4916     -52745.8   0.26714334 
   89900    278.80382   -992.69866    142801.12   -48943.058    3828.6991   -52771.757   0.28605895 
   90000    275.22753   -981.60995    142827.04   -48967.296    3779.5873   -52746.883   0.27160937 
   90100    276.26917   -996.33006    142834.29   -48949.399    3793.8918    -52743.29   0.26767607 
   90200     275.5944   -990.97529    142812.39   -49021.769    3784.6254   -52806.394   0.26942851 
   90300    274.33314   -962.87885    142811.77   -48996.054     3767.305   -52763.359   0.28044381 
   90400     273.4951   -1018.6976    142834.78   -48984.213    3755.7966    -52740.01   0.26708321 
   90500      276.915   -1024.4807    142816.41   -48992.169    3802.7606    -52794.93   0.26613808 
   90600    272.04064    -1011.309     142820.1    -49016.99     3735.823   -52752.813   0.28534998 
   90700    269.92352   -1046.8425    142794.98   -49040.813    3706.7495   -52747.563   0.27377564 
   90800    268.68713   -1016.8633    142785.67   -49059.923    3689.7707   -52749.693   0.26475203 
   90900    275.70522   -1026.4576    142807.41   -49041.191    3786.1472   -52827.338   0.28339347 
   91000    272.98992   -975.75341    142782.23   -49052.337    3748.8592   -52801.196   0.26993277 
   91100    269.75892   -1014.3978    142761.62   -49158.716    3704.4891   -52863.205   0.25661531 
   91200    274.78361   -974.38108    142774.81    -49103.23    3773.4911   -52876.721    0.2698736 
   91300    272.86869   -1003.6295    142793.95   -49036.575    3747.1943    -52783.77   0.27558416 
   91400    272.33145   -1008.0784    142810.36   -49012.527    3739.8167   -52752.344   0.26466927 
   91500    278.54534   -1002.1154    142838.63   -48859.462    3825.1494   -52684.611   0.27583278 
   91600    273.96082   -1033.8997    142853.35   -48924.307    3762.1921   -52686.499   0.28516811 
   91700    269.54461   -1016.7869    142812.76   -48989.082    3701.5461   -52690.628   0.26908922 
   91800    277.02627   -1015.8095    142820.56   -48964.772    3804.2888   -52769.061   0.26689966 
   91900    273.42081   -1020.4793    142837.16   -48952.168    3754.7764   -52706.944   0.27731913 
   92000    275.05657   -1028.6201    142831.73   -48996.651    3777.2397   -52773.891   0.27040053 
   92100    275.89981   -985.42358    142827.85   -48978.487    3788.8194   -52767.307   0.26689227 
   92200    272.30341   -1005.9875    142809.38   -49010.062    3739.4316   -52749.494   0.27289027 
   92300    276.65691   -999.57621    142860.63   -48891.747    3799.2164   -52690.963    0.2728302 
   92400    280.91192   -985.62364    142864.43   -48935.773    3857.6488   -52793.422   0.26983799 
   92500    282.69617   -1004.2034    142859.45   -48929.107    3882.1511   -52811.258   0.26168111 
   92600    274.86897    -963.0431    142888.32   -48845.812    3774.6634   -52620.476    0.2693171 
   92700    269.04875   -1028.3729    142841.44    -48962.38    3694.7366   -52657.117    0.2770744 
   92800    270.41906   -1002.8482     142831.9   -48971.765    3713.5546   -52685.319   0.26403491 
   92900    273.01875    -1024.763    142823.65   -49013.088     3749.255   -52762.343   0.27295579 
   93000    271.63447   -1038.4647    142813.18   -49022.827    3730.2454   -52753.072    0.2752892 
   93100     275.6515   -972.06224    142838.23   -48946.801    3785.4095    -52732.21   0.26906339 
   93200    273.77478   -984.65577    142831.94   -49000.974    3759.6373   -52760.611    0.2643092 
   93300     273.1021   -1009.1607    142801.12   -49048.113    3750.3997   -52798.513   0.27424595 
   93400    268.05588   -1019.4844    142775.14    -49101.45     3681.102   -52782.552   0.26825725 
   93500     266.3317   -1007.2958     142772.4   -49101.713    3657.4245   -52759.137   0.25851318 
   93600    272.46323   -1037.8827    142791.23   -49055.086    3741.6263   -52796.712   0.28503874 
   93700    277.52537    -980.1449    142812.89   -49032.479    3811.1426   -52843.621   0.26195398 
   93800    271.58212   -1036.5366    142823.21   -49033.048    3729.5264   -52762.574    0.2610699 
   93900    270.53196   -1038.8205    142790.17   -49107.798     3715.105   -52822.903   0.28323588 
   94000     267.7162   -1024.1234    142761.51   -49076.846    3676.4373   -52753.283   0.27371076 
   94100    276.09647    -955.5347    142809.97   -48964.009    3791.5202   -52755.529    0.2661382 
   94200    278.95816    -972.8209    142832.66   -48946.704    3830.8186   -52777.523    0.2682147 
   94300    273.87437   -992.83908    142806.69   -48956.771     3761.005   -52717.776   0.27911973 
   94400    272.96919   -1002.8572    142801.21   -48954.853    3748.5745   -52703.427   0.26450263 
   94500    277.43344   -1008.9938    142837.04   -48962.767    3809.8802   -52772.647   0.26925252 
   94600    276.27281   -992.20195    142792.96   -48965.285    3793.9417   -52759.226   0.28246809 
   94700     273.8972   -958.11434    142818.71    -49004.27    3761.3184   -52765.588   0.25794718 
   94800    267.52151   -1013.6438    142808.65   -49045.187    3673.7637   -52718.951   0.28031726 
   94900    269.25175    -1025.248    142802.77   -49071.144    3697.5244   -52768.668     0.267695 
   95000    278.35139   -988.95764    142801.78   -49035.013    3822.4861   -52857.499   0.26612018 
   95100    279.79137   -1014.8667    142798.83   -48995.646    3842.2607   -52837.907   0.27529113 
   95200    275.70519   -998.49818    142814.51   -49025.056    3786.1469   -52811.203   0.26511927 
   95300    274.07949   -960.72294    142809.61   -48977.851    3763.8217   -52741.672   0.27790875 
   95400    278.17463   -996.85525    142845.82   -48953.135    3820.0587   -52773.194   0.26851668 
   95500     273.4042   -1001.5175     142855.1   -48969.257    3754.5484   -52723.805   0.26871056 
   95600    278.64256   -983.55617     142860.7   -48955.649    3826.4846   -52782.134    0.2653352 
   95700    277.60986   -1015.9437    142860.78   -48990.803    3812.3029   -52803.106   0.27677984 
   95800    278.86446   -993.17199    142834.67   -48936.903    3829.5319   -52766.435   0.27244594 
   95900    272.40058   -1018.0191    142822.42   -48953.817     3740.766   -52694.582   0.26501227 
   96000    275.02878   -1011.7203    142848.26   -48925.038    3776.8579   -52701.896   0.28802456 
   96100    275.49359    -1011.192    142858.44   -48876.178    3783.2411   -52659.419   0.26771574 
   96200    275.90254   -994.60083    142840.64   -48895.552     3788.857   -52684.409   0.26044754 
   96300    276.84086   -1031.3271    142827.15   -48907.218    3801.7426    -52708.96   0.28517046 
   96400    273.56691   -1021.4758     142827.4   -48963.562    3756.7827   -52720.344   0.27009357 
   96500    270.95784   -989.52728    142806.54   -48952.652    3720.9534   -52673.606   0.26882996 
   96600    274.24955   -1026.8746     142804.7   -49006.726    3766.1571   -52772.883   0.26887509 
   96700    277.73349   -975.28225    142803.46   -48981.459    3814.0007    -52795.46    0.2788095 
   96800      275.504   -1010.9235     142822.1    -49000.25     3783.384   -52783.635   0.25564221 
   96900    277.88349    -995.3508    142814.76   -49010.548    3816.0605   -52826.608    0.2643811 
   97000    270.67674   -1013.9626    142773.64   -49072.038    3717.0932   -52789.132    0.2883095 
   97100    271.02947   -1008.4359    142779.29   -49047.943    3721.9371    -52769.88   0.25929661 
   97200    273.99838   -1016.1398    142787.49   -48993.053     3762.708   -52755.761   0.28165394 
   97300    278.19908   -974.87464    142812.53   -48882.405    3820.3945     -52702.8    0.2762503 
   97400    272.41561   -988.55367    142816.67   -48973.789    3740.9724   -52714.762   0.26393818 
   97500    275.17822   -1014.3055    142791.52   -48945.773    3778.9101   -52724.683   0.27802563 
   97600    278.83044   -995.81532    142797.93   -48885.544    3829.0647   -52714.609   0.27622786 
   97700    274.80708   -984.76781    142845.49   -48847.828    3773.8135   -52621.642   0.27707907 
   97800    276.33538   -1010.1846    142828.56   -48953.176     3794.801   -52747.977   0.26464148 
   97900    273.58699   -1003.9859    142826.25    -48917.78    3757.0585   -52674.838   0.27302508 
   98000    273.69785   -974.18964    142784.11   -48997.605    3758.5808   -52756.186   0.27242411 
   98100    278.04367   -982.33609    142801.42   -48981.955    3818.2603   -52800.216     0.273821 
   98200     276.1597   -990.65341     142786.1   -48975.972    3792.3884   -52768.361   0.27644898 
   98300    273.92546   -1020.3046    142833.13   -48920.601    3761.7065   -52682.307   0.26795917 
   98400    277.56772    -1012.636    142844.54   -48964.745    3811.7242   -52776.469   0.27521423 
   98500    270.96497   -1020.0612    142812.28   -48936.406    3721.0513   -52657.457   0.26926874 
   98600    277.32225   -993.00466    142796.63   -48946.299    3808.3532   -52754.652   0.25880051 
   98700    276.32073   -987.95594    142813.51   -48911.617    3794.5998   -52706.216   0.28534946 
   98800    275.35912   -1004.8336    142839.03   -48924.736    3781.3944   -52706.131   0.26743251 
   98900     273.7457   -1005.7402    142831.21   -48987.721     3759.238   -52746.959   0.25804457 
   99000    279.08903   -990.58542     142805.9   -48985.358    3832.6158   -52817.974   0.28091459 
   99100    276.16265   -1017.0179    142765.37   -49038.421     3792.429    -52830.85   0.26264308 
   99200    270.13093   -999.19136     142788.6   -49041.263    3709.5978    -52750.86   0.26185778 
   99300    274.96348   -967.07394    142818.09   -48967.341    3775.9612   -52743.302   0.27883167 
   99400    274.13845   -1043.4166    142808.84   -49010.311    3764.6315   -52774.943   0.26397512 
   99500    277.05217    -997.5442    142819.07   -48963.691    3804.6444   -52768.335   0.26125674 
   99600    274.84117   -1024.1968     142837.8   -48961.687    3774.2816   -52735.969   0.27439987 
   99700    273.54468   -993.19114    142831.12   -49000.194    3756.4775   -52756.672   0.27277639 
   99800     270.9458   -1025.1782     142841.9   -49017.414    3720.7881   -52738.202   0.26374337 
   99900    275.87277   -1010.9681    142850.67   -49078.701    3788.4482   -52867.149   0.27029868 
  100000     277.8335   -961.60401    142840.16   -48992.645    3815.3741   -52808.019   0.26539838 
Loop time of 111.489 on 6 procs for 100000 steps with 4608 atoms

Performance: 387.481 ns/day, 0.062 hours/ns, 896.946 timesteps/s
98.9% CPU use with 6 MPI tasks x no OpenMP threads

MPI task timing breakdown:
Section |  min time  |  avg time  |  max time  |%varavg| %total
---------------------------------------------------------------
Pair    | 94.1       | 94.518     | 95.252     |   4.2 | 84.78
Neigh   | 6.3803     | 6.5461     | 6.8039     |   6.7 |  5.87
Comm    | 7.0889     | 7.7128     | 8.1778     |  12.4 |  6.92
Output  | 0.16833    | 0.16917    | 0.17244    |   0.4 |  0.15
Modify  | 1.862      | 1.904      | 1.9359     |   2.3 |  1.71
Other   |            | 0.6393     |            |       |  0.57

Nlocal:        768.000 ave         783 max         760 min
Histogram: 2 0 1 1 1 0 0 0 0 1
Nghost:        1661.00 ave        1683 max        1648 min
Histogram: 1 1 1 0 1 1 0 0 0 1
Neighs:        0.00000 ave           0 max           0 min
Histogram: 6 0 0 0 0 0 0 0 0 0
FullNghs:      24085.3 ave       24541 max       23793 min
Histogram: 1 2 0 0 0 2 0 0 0 1

Total # of neighbors = 144512
Ave neighs/atom = 31.361111
Neighbor list builds = 6626
Dangerous builds = 0

undump              1
unfix               2
unfix               3
unfix               4




################################################
#######         Run Simulation         #########
################################################

reset_timestep      0
log                 log.run_${NAME}
log                 log.run_ice_275K_-1000atm_mW
