

read_data data.ice_${TEMP}K_${PRES}atm_mW group ice
read_data data.ice_275K_${PRES}atm_mW group ice
read_data data.ice_275K_-1000atm_mW group ice
Reading data file ...
  orthogonal box = (0.39048519 0.34709795 0.34709795) to (56.880025 50.560022 50.560022)
  3 by 1 by 2 MPI processor grid
  reading atoms ...
  4608 atoms
  reading velocities ...
  4608 velocities
  read_data CPU = 0.010 seconds
read_data data.liq_${TEMP}K_${PRES}atm_mW add append shift ${X_HI} ${YZ_LO} ${YZ_LO} group water
read_data data.liq_275K_${PRES}atm_mW add append shift ${X_HI} ${YZ_LO} ${YZ_LO} group water
read_data data.liq_275K_-1000atm_mW add append shift ${X_HI} ${YZ_LO} ${YZ_LO} group water
read_data data.liq_275K_-1000atm_mW add append shift 50.5600220525666 ${YZ_LO} ${YZ_LO} group water
read_data data.liq_275K_-1000atm_mW add append shift 50.5600220525666 -0.347097947430196 ${YZ_LO} group water
read_data data.liq_275K_-1000atm_mW add append shift 50.5600220525666 -0.347097947430196 -0.347097947430196 group water
Reading data file ...
  orthogonal box = (0.39048519 -0.38888298 -0.38888298) to (104.38991 50.601807 50.601807)
  3 by 1 by 2 MPI processor grid
  reading atoms ...
  4608 atoms
  reading velocities ...
  4608 velocities
  read_data CPU = 0.028 seconds

write_data data.icewater_test
System init for write_data ...
WARNING: Communication cutoff is 0.0. No ghost atoms will be generated. Atoms may get lost. (../comm_brick.cpp:167)

# Define potential
#
pair_style sw
pair_coeff * * /data/emrosky-sim/Freezing_Simulations/Melting/mW_fancy/mW.sw mW
Reading sw potential file /data/emrosky-sim/Freezing_Simulations/Melting/mW_fancy/mW.sw with DATE: 2019-02-27

# Delete water and ice atoms that are overlapping
#
delete_atoms overlap 2.5 water ice
System init for delete_atoms ...
Neighbor list info ...
  update every 1 steps, delay 10 steps, check yes
  max neighbors/atom: 2000, page size: 100000
  master list distance cutoff = 6.3065
  ghost atom cutoff = 6.3065
  binsize = 3.15325, bins = 33 17 17
  2 neighbor lists, perpetual/occasional/extra = 1 1 0
  (1) command delete_atoms, occasional, copy from (2)
      attributes: full, newton on
      pair build: copy
      stencil: none
      bin: none
  (2) pair sw, perpetual
      attributes: full, newton on
      pair build: full/bin/atomonly
      stencil: full/bin/3d
      bin: standard
Deleted 711 atoms, new total = 8505

# set timestep
#
timestep 10.0

# Define output
#
compute 1 all msd
thermo 50
thermo_style custom step temp press vol etotal ke pe c_1[4]

# Neighbor lists
#
neigh_modify delay 0 every 1 check yes

# Set fixes
#
fix 1 all momentum 10 linear 1 1 1 rescale
fix 2 all nph iso ${PRES} ${PRES} ${PCOUPL}
fix 2 all nph iso -1000 ${PRES} ${PCOUPL}
fix 2 all nph iso -1000 -1000 ${PCOUPL}
fix 2 all nph iso -1000 -1000 10000.0
fix 3 all temp/csvr ${TEMP} ${TEMP} ${TCOUPL} 837492
fix 3 all temp/csvr 275 ${TEMP} ${TCOUPL} 837492
fix 3 all temp/csvr 275 275 ${TCOUPL} 837492
fix 3 all temp/csvr 275 275 5000.0 837492


# Fix ice atoms in place
#
velocity ice set 0.0 0.0 0.0
fix 4 ice setforce 0.0 0.0 0.0

# Run 1.0 ns equilibration of water
#
dump 1 all atom 1000 eq.all.${NAME}.dump
dump 1 all atom 1000 eq.all.coexist_275K_-1000atm_mW.dump
run 100000
Neighbor list info ...
  update every 1 steps, delay 0 steps, check yes
  max neighbors/atom: 2000, page size: 100000
  master list distance cutoff = 6.3065
  ghost atom cutoff = 6.3065
  binsize = 3.15325, bins = 33 17 17
  1 neighbor lists, perpetual/occasional/extra = 1 0 0
  (1) pair sw, perpetual
      attributes: full, newton on
      pair build: full/bin/atomonly
      stencil: full/bin/3d
      bin: standard
Per MPI rank memory allocation (min/avg/max) = 4.598 | 4.605 | 4.612 Mbytes
Step Temp Press Volume TotEng KinEng PotEng c_1[4] 
       0    124.35001   -2275.8632    270403.77   -85927.055    3152.1247    -89079.18            0 
      50    151.90962   -1709.5759    268114.75   -85678.871    3850.7278   -89529.598   0.93582827 
     100    160.54804   -921.78154    264408.13   -85411.747    4069.7015   -89481.449    2.0832986 
     150    167.39744   -637.53241    262730.39   -85114.658    4243.3256   -89357.984    3.3205148 
     200    174.29271    -693.3496    262856.17   -84908.257    4418.1125   -89326.369    4.4810437 
     250    174.08532   -777.73319    263894.76   -84627.428    4412.8554   -89040.283    5.6860806 
     300     177.2273   -1297.4764    265162.71   -84305.662    4492.5008   -88798.163    6.9729185 
     350     182.4606   -1265.6956    265713.54   -84103.756    4625.1589   -88728.915    8.5400153 
     400    186.96967   -1040.4606    265529.74   -83898.804    4739.4583   -88638.262    10.065919 
     450    194.56435   -1050.1339    265436.73   -83664.904    4931.9746   -88596.879    11.863316 
     500    196.69666   -1164.3397    265336.61    -83488.78    4986.0261   -88474.807    13.581249 
     550    197.34231   -807.26715    265374.37   -83307.344    5002.3924   -88309.736    15.344497 
     600    202.24181    -928.3952    265959.82   -83129.603    5126.5888   -88256.192    17.188951 
     650    205.02108   -1252.1129    266687.91   -82937.819    5197.0402    -88134.86    18.976779 
     700    209.73515   -1058.2234    266769.25   -82761.515    5316.5362   -88078.051    21.050898 
     750    210.30436   -943.49822    266626.43   -82616.546     5330.965   -87947.511    23.200266 
     800    210.05734   -815.30963     266504.8   -82444.968    5324.7034   -87769.671    25.484575 
     850    218.08853   -1057.1217    266978.64   -82270.238    5528.2845   -87798.523    27.915137 
     900    218.97984   -1084.5806    267631.46   -82108.622    5550.8781     -87659.5    30.204818 
     950    219.85142   -1141.3912    268129.32   -81952.005    5572.9717   -87524.977    32.624855 
    1000    226.30891   -1006.4598    268129.14   -81831.731    5736.6613   -87568.392    35.297748 
    1050    229.06785   -920.53754    268045.26   -81723.258    5806.5972   -87529.856    37.928721 
    1100    226.28121   -806.64428    268140.42   -81624.785    5735.9592   -87360.744    40.629641 
    1150     226.6056   -1081.0986    268398.74   -81506.399    5744.1821   -87250.581     43.31144 
    1200    233.29851   -1193.6822    268270.59    -81426.54    5913.8392   -87340.379    45.908629 
    1250    233.39879   -831.08542    268135.85   -81340.857    5916.3812   -87257.238    48.992759 
    1300    237.49014   -1027.7892    268499.04   -81262.553    6020.0921   -87282.645    52.093203 
    1350    237.68297   -1150.1898    269022.03   -81171.462    6024.9802   -87196.442    55.051806 
    1400    239.74463   -1089.5562    269225.37   -81057.344    6077.2407   -87134.584    58.170786 
    1450    242.71187   -1124.0456    269194.74   -80957.931    6152.4569   -87110.388    61.097612 
    1500    240.91221    -749.5197     269092.5   -80889.499    6106.8376   -86996.337    63.976231 
    1550    241.38114   -953.82477    269171.13   -80818.166    6118.7244   -86936.891    67.356781 
    1600    243.95162   -651.84067    269237.75   -80742.353    6183.8828   -86926.236    70.351557 
    1650    245.22246   -1090.3271    269812.42   -80673.187    6216.0971   -86889.284     73.28156 
    1700    246.97252   -1199.8305    270144.35    -80576.19    6260.4592   -86836.649    75.995493 
    1750    251.53909   -982.80931    270171.84   -80526.295    6376.2162   -86902.512    79.256487 
    1800     251.6685   -940.25439     270146.5   -80437.761    6379.4966   -86817.257    81.985225 
    1850    248.29339   -651.78964    270146.26   -80357.947    6293.9417   -86651.889    85.116896 
    1900    252.35348   -1088.2588    270361.38   -80275.309      6396.86   -86672.169    87.450188 
    1950    255.64943   -1159.4538    270441.74   -80202.568    6480.4086   -86682.977     90.31732 
    2000    259.03687   -843.98481    270244.39   -80127.354     6566.276    -86693.63    93.530523 
    2050    258.40353   -1005.9554    270291.75    -80111.53    6550.2217   -86661.752    96.447524 
    2100    255.82777   -950.95929     270555.7   -80079.152    6484.9291   -86564.081    99.431261 
    2150    259.43905   -1103.5266       270768    -80022.25    6576.4709    -86598.72    102.05388 
    2200    255.47733    -1048.303    270741.64   -79957.062    6476.0459   -86433.108    104.83488 
    2250    261.42519   -1093.7039    270680.68   -79931.458     6626.817   -86558.275    108.03932 
    2300    265.44941   -862.82392    270435.76   -79848.164    6728.8264    -86576.99    111.23628 
    2350    264.83606   -968.28948    270417.76   -79770.285    6713.2785   -86483.564    114.20703 
    2400    265.69626   -1182.6309    270607.55   -79745.663    6735.0835   -86480.746    117.56342 
    2450    265.17443   -973.78605    270901.94   -79700.596     6721.856   -86422.451    120.92651 
    2500    262.83248   -910.76056     271234.1   -79629.017    6662.4903   -86291.507    124.19496 
    2550    261.83054   -919.76627    271691.59   -79593.562    6637.0922   -86230.654    127.32295 
    2600     262.0148   -1235.9971    272075.33    -79564.71    6641.7631   -86206.474    130.94949 
    2650    265.64148   -1172.2078    271882.63     -79494.4    6733.6949   -86228.095    134.29136 
    2700    269.93816   -1011.3608    271189.14   -79481.161    6842.6108   -86323.771    137.27436 
    2750    266.43523   -618.99774    270844.73   -79507.844    6753.8158    -86261.66    140.59592 
    2800    269.05252    -878.7289    270953.63    -79481.41    6820.1609   -86301.571    144.14973 
    2850    269.57195   -1129.9666    271216.29    -79486.72    6833.3278   -86320.048    147.43226 
    2900    268.20257   -1079.6026    271495.84   -79497.982    6798.6156   -86296.598    151.35603 
    2950    267.17433   -1180.3962    271725.98   -79491.008    6772.5509   -86263.559    154.53485 
    3000    267.18366   -640.31319    271671.57   -79449.742    6772.7874    -86222.53    157.61494 
    3050    265.82269   -880.39292    271675.86   -79461.616    6738.2885   -86199.904    160.64027 
    3100    269.46305   -1229.3352    271768.62   -79447.162    6830.5673   -86277.729    163.70416 
    3150    270.52393   -1066.1526    271519.86   -79458.042    6857.4594   -86315.501    166.77202 
    3200    276.59904    -1031.328    271232.05   -79430.806    7011.4562   -86442.263    169.77176 
    3250     271.3891   -972.17042    271232.16   -79401.726    6879.3904   -86281.117     172.7603 
    3300    270.49371   -746.18309    271459.11     -79357.9    6856.6933   -86214.593    176.76306 
    3350    277.66529   -1238.3752    272126.16   -79254.352    7038.4844   -86292.836    181.01966 
    3400    271.36874    -1320.869    272381.71   -79298.548    6878.8742   -86177.423    184.99517 
    3450    269.83269   -1054.9324    272093.66   -79319.452    6839.9373    -86159.39    187.83009 
    3500    271.03094   -1197.5795    271552.35   -79316.375    6870.3114   -86186.686    190.63957 
    3550    272.29292   -948.61584    271073.66   -79283.846     6902.301   -86186.147    193.89008 
    3600    278.66452   -939.02428    271130.66   -79299.884    7063.8136   -86363.697    197.47078 
    3650    269.19668   -852.33657    271655.27   -79298.209    6823.8152   -86122.024    201.22504 
    3700    271.91056   -896.68389    272354.98   -79283.071    6892.6087    -86175.68    205.01303 
    3750    269.00184   -1465.7353    272678.44   -79297.695    6818.8762   -86116.571    208.39235 
    3800    269.67082   -1104.2143     272002.1    -79303.79     6835.834   -86139.624    211.47761 
    3850    275.99738   -645.01181    271164.51   -79307.841    6996.2047   -86304.046    214.56398 
    3900    272.85092   -850.50788    271043.51   -79324.138    6916.4458   -86240.584    217.52534 
    3950    275.27631   -926.99009    271300.09   -79279.032    6977.9265   -86256.959     220.6996 
    4000    275.12837   -1118.8757    271683.74   -79279.623    6974.1765     -86253.8    224.11067 
    4050    274.19192   -905.47717    272010.29   -79263.058    6950.4386   -86213.497    227.13639 
    4100    273.45805   -1038.2209    272195.65   -79254.209    6931.8359   -86186.045     229.8961 
    4150     273.8553    -921.3407    272086.39   -79214.727    6941.9055   -86156.633    232.98026 
    4200    270.70471   -863.26661    272020.02   -79211.949    6862.0418    -86073.99    236.21223 
    4250     272.2254   -1151.1788    272092.46   -79185.502    6900.5897   -86086.092    239.47812 
    4300    271.53381   -906.37497    271869.28   -79202.765    6883.0585   -86085.823    241.47274 
    4350    275.78423   -1019.1127    271838.12   -79219.995    6990.8016   -86210.797    243.74687 
    4400    273.58263   -1058.0337    271864.98   -79210.521    6934.9937   -86145.515    247.05109 
    4450    272.61713   -929.98634    271875.66   -79148.941    6910.5196   -86059.461    250.80198 
    4500    275.12206   -886.04795    272039.77   -79099.542    6974.0164   -86073.558     254.0004 
    4550    276.13111   -1158.4453    272169.41    -79053.78    6999.5947   -86053.375    257.44818 
    4600    277.96163   -1067.5702    272034.25    -79055.27    7045.9963   -86101.266    260.74173 
    4650    277.56476   -871.67477    271778.88   -79003.365     7035.936   -86039.301    263.78754 
    4700     282.1162   -939.66062    271741.38   -78991.549    7151.3095   -86142.859    267.71271 
    4750    274.49949   -811.77746    271868.11   -79007.237     6958.235   -85965.472    271.03471 
    4800    276.54804   -995.12928    272170.82   -79006.935    7010.1633   -86017.098    274.32024 
    4850    277.94445   -1194.9682    272280.39   -79011.515    7045.5607   -86057.075    277.75935 
    4900    281.11178   -1133.7392    272107.14   -79010.343    7125.8488   -86136.192    280.62171 
    4950     283.8258   -963.74396    272039.92   -79023.567    7194.6459   -86218.213    284.06081 
    5000    277.50425    -958.5727    272250.03    -79031.69    7034.4022   -86066.093    287.07115 
    5050    275.98415   -953.44794     272520.4   -79045.212    6995.8695   -86041.081    290.63315 
    5100    275.08086   -1148.0532    272496.55   -79055.818     6972.972    -86028.79     294.0058 
    5150    280.49222   -1199.9847    272166.18   -79079.635    7110.1437   -86189.779    295.91896 
    5200    277.48634   -833.22088    271741.18   -79084.798    7033.9481   -86118.746     298.5521 
    5250    281.15724   -1013.3203    271727.08   -79072.132    7127.0011   -86199.134    301.26582 
    5300    273.34183   -863.01991    272060.54   -79056.167    6928.8897   -85985.056     305.0552 
    5350       275.52   -867.25849    272455.31    -79022.68    6984.1038   -86006.784    308.47731 
    5400     274.5303   -1147.5404    272579.88   -79074.809    6959.0162   -86033.825    311.89273 
    5450    277.99427   -881.99256    272140.94   -79065.907    7046.8235   -86112.731    313.85702 
    5500    279.05576   -693.02975    271651.85   -79074.836     7073.731   -86148.567    315.42893 
    5550    275.60568   -878.08284    271703.77   -79123.768    6986.2756   -86110.043    318.61997 
    5600    276.52321    -1193.427     272141.5   -79173.324    7009.5339   -86182.857    322.28531 
    5650    271.50683   -1227.9205    272246.42   -79251.027    6882.3746   -86133.401    325.38345 
    5700    275.22308   -1186.8812    271956.47   -79232.234    6976.5772   -86208.811    328.00901 
    5750    271.12141   -956.24446    271559.34   -79211.091    6872.6048   -86083.696    330.55199 
    5800    275.27311   -870.77744    271312.35     -79219.5    6977.8453   -86197.346    334.84561 
    5850    271.15893   -858.06637    271356.53   -79157.347    6873.5558   -86030.903    338.12193 
    5900     273.6819   -845.74057    271744.59   -79184.816    6937.5102   -86122.326    341.06484 
    5950     271.3467   -933.00689    272204.27   -79181.882    6878.3156   -86060.198    345.38485 
    6000    273.71836   -1238.1805    272344.54   -79179.825    6938.4344   -86118.259    349.64883 
    6050    271.19318   -1005.5883     272048.7   -79131.144     6874.424   -86005.568    353.08611 
    6100    277.44807   -1078.0441    271811.92   -79142.609     7032.978   -86175.587    355.79847 
    6150    274.13565   -1067.5616     271759.3   -79132.207    6949.0121   -86081.219    360.00115 
    6200    272.93023   -990.20853    271866.93   -79154.618    6918.4561   -86073.074    363.52536 
    6250    274.21651   -869.90229    271885.19   -79130.982    6951.0617   -86082.043    367.52314 
    6300    275.73679   -1140.0091    271918.51   -79101.419     6989.599   -86091.018    370.75658 
    6350    277.66198   -880.51908    271935.63   -79071.782    7038.4005   -86110.182    373.96056 
    6400     277.4997   -1026.0922    272132.04   -79131.701    7034.2867   -86165.987    377.44134 
    6450     278.3915    -1148.733    272207.87   -79139.541    7056.8929   -86196.434    381.10867 
    6500    275.79548   -955.03804    272179.78   -79084.328    6991.0868   -86075.415    383.93959 
    6550    273.69527   -1033.1686    272101.02   -79068.118    6937.8491   -86005.967     386.8747 
    6600    276.96999   -860.35879    271834.79   -79091.149    7020.8592   -86112.009    390.44028 
    6650    277.96151   -919.99379    271762.99   -79132.851     7045.993   -86178.844    393.47757 
    6700    274.62932   -901.93426    271856.69   -79148.998     6961.526   -86110.524    396.23388 
    6750    271.63064   -1070.6043    271944.81    -79167.23    6885.5132   -86052.744     399.3456 
    6800    274.33885   -1069.2221    271932.84   -79139.429     6954.163   -86093.592    403.04375 
    6850     278.3785   -1256.2944    272158.93   -79138.241    7056.5634   -86194.804    406.42089 
    6900    273.24966   -979.33153    272128.14   -79108.079    6926.5534   -86034.632    409.41029 
    6950    277.92443   -865.81347    271914.74   -79106.618    7045.0531   -86151.671    413.03483 
    7000    274.35778   -1014.7172    271884.91   -79088.195    6954.6428   -86042.838    416.45423 
    7050    278.68307   -919.57143     271888.4   -79072.945    7064.2838   -86137.229    420.32966 
    7100    277.00004   -1123.1863    272103.49   -79075.061     7021.621   -86096.682    423.64267 
    7150    276.31367   -1068.4621    272330.35   -79125.086    7004.2223   -86129.308    426.56976 
    7200     274.7074   -1210.8611    272267.05    -79160.29    6963.5053   -86123.796    428.16245 
    7250    279.56283   -1004.9333    271739.31   -79125.701    7086.5848   -86212.286    429.36211 
    7300    275.37321   -872.62928     271325.7   -79109.857    6980.3828   -86090.239    431.99286 
    7350    279.59206   -986.63975    271552.96   -79097.961    7087.3257   -86185.287    433.98571 
    7400    277.15942   -1081.0638    271854.72   -79050.889    7025.6612   -86076.551    436.29454 
    7450    278.81298   -1031.1841    272104.19   -79026.115    7067.5769   -86093.692    438.79877 
    7500    276.46061   -948.85657    272308.37     -79081.1    7007.9471   -86089.047    441.34123 
    7550    275.80526   -1164.6837    272300.99   -79114.102    6991.3347   -86105.436    443.71123 
    7600    271.32651   -1005.7011    271936.47   -79065.198    6877.8039   -85943.001    445.61186 
    7650    273.80765    -740.9943    271673.92    -79080.45    6940.6978   -86021.148    448.91163 
    7700    278.79243   -906.90156    271902.94   -79072.435     7067.056   -86139.491    451.97778 
    7750    274.72138   -1033.7158    272140.93   -79039.506    6963.8596   -86003.365    454.01566 
    7800    275.85556   -938.91944    272134.88    -79071.45    6992.6097    -86064.06    456.48551 
    7850    275.47648   -1050.6526    272135.45   -79045.698    6983.0006   -86028.698     459.9269 
    7900    278.02746   -1074.6812    272180.93   -79083.379    7047.6649   -86131.044    462.70632 
    7950    272.31048   -1032.9537    272353.19   -79121.329    6902.7464   -86024.075    465.97156 
    8000    275.79775   -971.83007    272324.01   -79110.439    6991.1445   -86101.583     467.9609 
    8050    278.57334    -1143.244    272163.81   -79099.847    7061.5024   -86161.349    470.85128 
    8100     278.5114   -1049.3121    271743.21   -79145.569    7059.9321   -86205.502    472.36604 
    8150    276.39907   -753.70624    271426.52   -79102.896     7006.387   -86109.283     474.2704 
    8200    275.72721   -884.46476     271480.1   -79129.126    6989.3563   -86118.482     477.6164 
    8250    274.91332   -918.50211    271744.06   -79128.073    6968.7251   -86096.798    481.25155 
    8300    271.66895   -941.39349    272107.87   -79102.997    6886.4841   -85989.481    484.53934 
    8350    272.24201   -1092.6617    272417.94   -79148.627    6901.0106   -86049.637    487.49081 
    8400    272.61008   -883.18923    272227.69   -79159.253    6910.3408   -86069.594    489.72045 
    8450    275.76036   -1087.8276       271979    -79158.64    6990.1967   -86148.837    492.49568 
    8500    274.62759   -923.40544    271919.22   -79144.981    6961.4821   -86106.463    495.13608 
    8550    274.04039   -1077.2498     271983.3   -79166.571    6946.5973   -86113.169    497.80594 
    8600    275.81858   -1111.8171    271770.51   -79167.108    6991.6724    -86158.78    500.87061 
    8650     274.8684     -1000.44    271676.88   -79161.866    6967.5864   -86129.452    503.56242 
    8700    273.62174   -955.35741     271902.3   -79159.278    6935.9851   -86095.264    507.81431 
    8750    274.56972   -1239.1364    272209.78   -79123.171    6960.0153   -86083.187    512.00308 
    8800    277.84647   -1010.6802    272028.27   -79142.229     7043.077   -86185.306    514.37016 
    8850    276.38179   -1055.9187    271742.26   -79183.702    7005.9491   -86189.651    516.59536 
    8900    276.16958   -1015.8244    271589.55   -79209.875    7000.5697   -86210.445    520.11643 
    8950    276.02186   -954.84868    271801.46   -79189.287    6996.8254   -86186.112    523.55859 
    9000    273.64527     -896.312    272092.25   -79169.613    6936.5815   -86106.195    526.72429 
    9050    276.58999   -1225.9859    272488.72   -79161.604    7011.2267   -86172.831    530.23725 
    9100    273.63174   -1162.1155    272365.57   -79219.995    6936.2386   -86156.234    533.76575 
    9150    277.80585    -837.2901    271623.82   -79194.564    7042.0473   -86236.612    537.65297 
    9200    274.69652   -1000.6859    271252.87   -79205.776    6963.2294   -86169.006    540.04812 
    9250    274.50226    -808.3773    271375.25   -79240.182    6958.3053   -86198.487    541.99686 
    9300    274.35168   -1009.8156    271828.13   -79279.573    6954.4883   -86234.061    544.54097 
    9350    272.77814   -1180.8817    272287.84   -79246.367     6914.601   -86160.968    547.80294 
    9400    268.61311   -995.41381     272155.3   -79240.202    6809.0222   -86049.224    551.24674 
    9450    276.04999   -1064.9609    271874.49   -79203.963    6997.5385   -86201.502    553.51226 
    9500    272.10163   -984.05397    271697.76   -79225.152    6897.4521   -86122.604    555.99683 
    9550    273.59703   -960.25122    271699.13   -79209.289    6935.3587   -86144.647    557.74763 
    9600    275.40089   -1035.4057    271685.98   -79191.605    6981.0844   -86172.689    559.06193 
    9650    274.48345   -1067.8588    271847.36   -79221.644    6957.8285   -86179.473    562.09276 
    9700    272.88357   -1028.2604    271953.65   -79219.904    6917.2734   -86137.178    565.66687 
    9750    274.41486    -1217.435    271946.29   -79220.867    6956.0897   -86176.957    568.01197 
    9800    274.56765   -1022.3711    271853.83   -79221.332    6959.9629   -86181.294     570.0166 
    9850    270.78807    -909.6812    271769.71   -79218.163     6864.155   -86082.318    572.99118 
    9900    272.52772   -952.25236    271687.05   -79215.499     6908.253   -86123.752    575.36713 
    9950    278.21854   -1046.0539    271931.17   -79191.756    7052.5086   -86244.265    578.22578 
   10000    267.94195   -1024.2901    272233.87   -79185.387    6792.0091   -85977.396    580.49174 
   10050    270.33982   -868.08289    272071.05   -79184.528    6852.7925   -86037.321    582.82116 
   10100    274.51268   -884.22027     271896.3   -79161.296    6958.5694   -86119.865     585.6453 
   10150    274.51976   -987.98732     271915.1   -79140.718    6958.7488   -86099.466    588.82086 
   10200    274.37122   -1110.0447    271918.22   -79126.297    6954.9836   -86081.281    592.24504 
   10250    273.47007   -763.40335    271858.17   -79134.211    6932.1404   -86066.351    595.71889 
   10300    274.30933   -1113.6341    272002.68   -79113.014    6953.4147   -86066.429    598.20412 
   10350    275.71137   -904.98882    272090.36   -79113.866    6988.9548   -86102.821    601.00095 
   10400    277.96333   -1129.3178     272251.1    -79176.93    7046.0391   -86222.969    604.13418 
   10450    275.86595   -1160.9515     272245.7   -79150.531    6992.8733   -86143.404    606.87551 
   10500    275.50921   -1095.4404    271942.21   -79154.465    6983.8301   -86138.295    609.65715 
   10550    273.13511   -844.63775    271511.88   -79141.923    6923.6496   -86065.573    612.18121 
   10600     276.2367   -768.94818    271431.14   -79143.513    7002.2712   -86145.784    614.44181 
   10650     276.7695   -1027.4021     272091.1   -79115.371     7015.777   -86131.148    619.13142 
   10700    272.26766   -1072.9586    272735.89   -79123.248    6901.6607   -86024.909    623.40838 
   10750    275.29973    -1105.857    272696.68    -79096.48    6978.5202       -86075     627.1281 
   10800    275.93421    -1197.502    272125.01    -79123.35    6994.6034   -86117.953    628.99565 
   10850    276.69619   -748.16813    271207.52   -79084.373    7013.9187   -86098.292    629.58262 
   10900    276.96441   -724.24083    270766.44   -79104.742    7020.7177    -86125.46    632.83107 
   10950    275.10136   -838.82612    271204.03   -79107.239    6973.4917    -86080.73    637.80784 
   11000    271.61851   -985.45812    272305.64   -79126.564    6885.2056   -86011.769    643.21716 
   11050     270.6632   -1233.8299    273149.77   -79134.356    6860.9896   -85995.345    647.94812 
   11100    274.64778   -1406.0919    273024.41   -79113.113    6961.9941   -86075.107    650.65727 
   11150    276.77338   -1198.7035    272251.63    -79126.71    7015.8755   -86142.586     652.9718 
   11200    275.72031   -821.62783    271307.17   -79129.034    6989.1813   -86118.215     653.9129 
   11250    275.54118   -759.97698    271001.14   -79167.302    6984.6407   -86151.942    657.46844 
   11300    271.65079   -862.00317     271474.2   -79148.257    6886.0239    -86034.28    661.71024 
   11350    277.21075   -1098.5019    272228.67   -79175.395    7026.9623   -86202.357    666.23204 
   11400    273.39566   -1148.7935    272855.99   -79165.032    6930.2543   -86095.286     668.9454 
   11450    273.83776   -1209.1117     272765.5   -79211.314     6941.461   -86152.775    671.79869 
   11500    277.76005   -1093.2985    272093.62   -79213.402    7040.8863   -86254.288    674.02952 
   11550    272.60374   -904.54554    271447.27   -79245.093    6910.1801   -86155.274      676.471 
   11600    278.11267   -870.81707    271261.61   -79237.569    7049.8249   -86287.394    679.15718 
   11650    276.22451   -651.42652    271618.86   -79226.627    7001.9623    -86228.59     681.5094 
   11700    273.34919   -1138.4804    272119.13   -79182.254    6929.0764    -86111.33    685.37682 
   11750    274.12912   -1111.0572    272481.38   -79196.944    6948.8466   -86145.791     689.2206 
   11800    273.98839   -958.21589    272404.89   -79214.413    6945.2792   -86159.692    692.66062 
   11850    277.54396   -1005.7818    272013.58   -79154.149    7035.4087   -86189.558     696.7853 
   11900     274.1456   -1027.9856     271638.9   -79237.741    6949.2643   -86187.006    698.02279 
   11950    273.00963   -778.76574    271268.21   -79241.632    6920.4688   -86162.101    699.71144 
   12000    273.20211   -936.54079    271222.68   -79243.658     6925.348   -86169.006    703.80262 
   12050    275.65646   -1096.2859    271631.79   -79224.645     6987.563   -86212.208    706.81291 
   12100    271.76027    -1267.859    272120.55   -79184.466    6888.7991   -86073.265    709.80369 
   12150    275.21476   -944.97825    272151.38    -79168.81    6976.3663   -86145.176    712.38427 
   12200     274.2911   -1197.3766     272082.1   -79153.647    6952.9527     -86106.6    715.27194 
   12250    271.37095   -936.88296    271997.35   -79124.373    6878.9303   -86003.303    718.73166 
   12300    274.10345    -915.8863    271937.51   -79134.382     6948.196   -86082.578    721.43637 
   12350    275.97523   -1286.9017    272082.21   -79160.641    6995.6434   -86156.284    724.62035 
   12400    272.56893   -1012.9658    271856.71   -79196.721    6909.2977   -86106.019    727.08824 
   12450    271.76731   -824.99602    271493.57   -79173.149    6888.9776   -86062.126    729.19218 
   12500    274.23272   -901.91708     271593.6   -79140.652    6951.4728   -86092.125    731.27668 
   12550    273.28834   -834.06172    271975.59   -79186.955    6927.5337   -86114.489    736.04299 
   12600     273.7112   -968.63327    272395.98    -79130.78    6938.2528   -86069.033    739.85661 
   12650    276.91027   -1228.0993    272575.12   -79142.904    7019.3453   -86162.249    742.83492 
   12700    274.81325   -1014.0166    272099.72   -79128.271    6966.1886   -86094.459    745.02216 
   12750    278.44741   -951.61201    271449.59   -79190.636    7058.3102   -86248.946    747.42481 
   12800    275.88955   -803.34007    271197.76   -79211.566    6993.4713   -86205.038    751.04199 
   12850    276.28152   -795.65423    271591.32   -79201.546    7003.4074   -86204.953    755.39645 
   12900    273.19962    -1180.886    272414.58   -79167.417    6925.2848   -86092.702    759.05854 
   12950    269.97553   -1209.8198    272861.08   -79162.785     6843.558   -86006.343    762.34305 
   13000    275.67764   -1007.6302     272504.5    -79144.76    6988.0997    -86132.86    763.44197 
   13050    274.44199    -1073.616    271900.12   -79139.901    6956.7775   -86096.679     764.9061 
   13100    275.14495   -899.81191     271414.4   -79121.811    6974.5968   -86096.407    766.20211 
   13150    274.49282   -782.48451    271375.96   -79147.244     6958.066    -86105.31    768.27731 
   13200    273.57275   -978.41251    271806.22   -79160.433    6934.7433   -86095.177    772.72595 
   13250    273.93628   -1144.7783    272332.47   -79201.208    6943.9584   -86145.167    777.20792 
   13300    268.58895   -827.35395    272548.11    -79194.61    6808.4098    -86003.02     780.3237 
   13350      273.027   -1117.8241    272607.93   -79168.381    6920.9092    -86089.29    785.28594 
   13400    274.01318   -1067.4812    272327.87   -79203.335    6945.9077   -86149.243    789.15838 
   13450    270.64752   -1061.6552    271794.79    -79231.96    6860.5923   -86092.553    790.60478 
   13500    279.33696   -963.06342    271136.25   -79208.679    7080.8591   -86289.538      792.017 
   13550    274.41286   -952.11544    271085.19   -79295.971     6956.039    -86252.01    795.81246 
   13600    269.50329   -1030.8074    271647.72   -79292.064    6831.5874   -86123.651    798.61136 
   13650    269.81095   -1166.2908     272242.9   -79292.469    6839.3862   -86131.855    801.59708 
   13700    271.54141    -1023.831    272455.83   -79280.546    6883.2513   -86163.797    804.99733 
   13750    271.07184   -984.59472    272001.14   -79263.019    6871.3482   -86134.368    806.70625 
   13800    272.49181   -861.33328    271297.22   -79322.025    6907.3428   -86229.368     807.0016 
   13850    273.86049   -852.88795    270910.97   -79317.774    6942.0371   -86259.811      809.102 
   13900    272.22047    -801.5838    271137.52   -79292.978    6900.4646   -86193.442    813.13938 
   13950    270.91756   -1089.6196    271550.08   -79304.717    6867.4375   -86172.154    816.93979 
   14000    277.06528   -975.16892    271499.85   -79258.836    7023.2747   -86282.111      819.073 
   14050    272.83846   -669.60114    271529.84    -79247.89      6916.13    -86164.02    821.31434 
   14100    272.89848   -936.52764    272027.83   -79233.519    6917.6514    -86151.17    824.57069 
   14150    274.06505   -1202.2419    272523.61   -79225.874    6947.2224   -86173.097    829.10626 
   14200    273.56006   -981.82265    272465.48    -79219.08    6934.4215   -86153.502    832.82241 
   14250    277.81731   -1072.1906    272122.03   -79154.064    7042.3379   -86196.402    834.60873 
   14300    275.32937   -936.19627     271716.9   -79188.746    6979.2716   -86168.017    835.45693 
   14350    277.02927   -1124.8302    271641.78   -79190.852    7022.3618   -86213.214    836.37783 
   14400    277.54868   -908.16803    271711.62   -79165.549    7035.5283   -86201.078    838.62582 
   14450    273.09529   -1006.4259    272237.55   -79203.884    6922.6401   -86126.525    842.55611 
   14500    273.71355   -1161.8762    272684.11   -79204.131    6938.3125   -86142.444    846.85102 
   14550    277.13009   -1298.4652    272482.54   -79249.484    7024.9177   -86274.402    848.64437 
   14600    272.95704    -1090.634    271744.27   -79248.939    6919.1357   -86168.075    849.51877 
   14650    273.19383   -810.14488    271441.59   -79263.261    6925.1382   -86188.399    851.54973 
   14700    276.49243   -884.64741    271628.51   -79231.736    7008.7537   -86240.489    855.69322 
   14750    273.79439   -939.22627    271981.03   -79236.285    6940.3616   -86176.647    860.87656 
   14800    273.01615   -1132.3554    272403.84   -79270.119    6920.6341   -86190.753    864.56083 
   14850    267.14555   -990.10756    272315.84   -79277.918    6771.8214   -86049.739    867.09826 
   14900     274.4717   -1212.4341    272033.91   -79282.889    6957.5306    -86240.42     868.1708 
   14950    270.60194   -749.95233     271460.8   -79364.489    6859.4368   -86223.926    870.68322 
   15000    271.10921   -874.31461    271174.31   -79360.261    6872.2956   -86232.556    872.65797 
   15050    273.40258   -1053.1903    271286.21   -79360.002    6930.4298   -86290.432    876.25858 
   15100    270.29142   -754.97531    271446.93   -79335.112    6851.5656   -86186.677    881.23319 
   15150    270.69247   -1090.9676    271982.56   -79333.189    6861.7317   -86194.921    885.22634 
   15200    272.82445   -1064.5257    272285.27   -79318.542    6915.7748   -86234.317    889.80068 
   15250    268.95766   -1130.5874    272174.96   -79324.782    6817.7563   -86142.539     891.7849 
   15300    272.14051   -975.60848     271681.1   -79294.077    6898.4378   -86192.515    893.45641 
   15350     274.3759   -1186.3649    271536.31   -79293.298    6955.1023   -86248.401    896.01378 
   15400    271.61485   -801.45227     271541.8   -79259.355    6885.1128   -86144.468    898.62227 
   15450    276.27051   -1183.2501    271854.71   -79267.146    7003.1283   -86270.275    901.12185 
   15500    273.20173   -1134.1682    272149.35   -79245.307    6925.3383   -86170.646    904.02648 
   15550    271.73227   -1215.3067       272300   -79245.675    6888.0894   -86133.764    907.55448 
   15600    276.22903   -1047.6822    272030.43    -79251.02    7002.0768   -86253.096    910.04053 
   15650    274.14069    -1061.451    271686.23   -79263.857      6949.14   -86212.997    911.71185 
   15700     278.2203   -1091.3359       271495   -79242.996    7052.5533   -86295.549    914.20448 
   15750    269.97929   -938.54934    271420.39   -79242.342    6843.6534   -86085.995    914.75829 
   15800    266.64358   -862.76321    271433.41   -79239.039     6759.097   -85998.136    917.47676 
   15850    268.63081   -736.47683    271663.83   -79214.947    6809.4709   -86024.418    920.46953 
   15900    273.55559   -963.30074    272076.63   -79215.259    6934.3083   -86149.567    923.89798 
   15950    274.87362   -1091.9781    272442.03   -79179.338    6967.7189   -86147.057    925.77401 
   16000    273.90883    -1254.594    272504.51   -79147.141    6943.2624   -86090.404    926.91636 
   16050    275.94201   -799.50298    272084.98   -79114.316    6994.8011   -86109.117     930.1444 
   16100    274.60359   -921.46338    271622.29   -79118.237    6960.8739   -86079.111    933.70832 
   16150    274.88323   -970.84396    271413.46   -79116.114    6967.9624   -86084.077    935.19817 
   16200    275.04163   -922.29861    271340.23   -79071.628    6971.9778   -86043.606    938.23673 
   16250    272.69092    -730.7418    271641.41   -79050.502    6912.3899   -85962.892    941.38371 
   16300    274.88967   -1090.3496    272275.06    -79058.81    6968.1257   -86026.936    945.73613 
   16350    273.26655   -1142.4265    272833.28   -79066.541    6926.9815   -85993.523    949.59571 
   16400    277.76213   -1162.9078    272957.67   -79046.576    7040.9392   -86087.515    952.85089 
   16450    278.03728   -1060.0625    272558.57   -79089.884    7047.9137   -86137.798    954.27932 
   16500    277.76805   -871.45356    271885.37   -79073.956    7041.0892   -86115.045    955.22606 
   16550    275.75866   -729.95758     271627.4   -79045.053    6990.1536   -86035.207    956.84627 
   16600    276.92069   -889.37129    271943.27   -79023.034    7019.6097   -86042.643    962.14838 
   16650    279.37564   -934.62121    272309.94   -78969.564    7081.8396   -86051.404     965.0614 
   16700    278.18421   -1282.8746    272268.79    -79049.14    7051.6384   -86100.779    967.61758 
   16750    278.02349    -854.4876    271732.34   -79076.283    7047.5643   -86123.848    970.10001 
   16800    276.18599    -811.1702    271408.88   -79094.824    7000.9859    -86095.81    972.16224 
   16850    278.52497   -1250.7821    271568.79    -79127.47    7060.2761   -86187.746     972.6664 
   16900    280.67998   -1216.1461    271705.62   -79121.221    7114.9032   -86236.124    975.93513 
   16950     276.1873   -1037.1186    271862.28   -79079.192    7001.0191   -86080.211    977.20073 
   17000    276.37508   -1073.1414    272087.28   -79109.209    7005.7791   -86114.988    979.43353 
   17050    274.56623   -1122.1216    272092.62   -79080.972    6959.9268   -86040.898    981.96321 
   17100    278.76114   -901.03861    271730.51    -79087.03    7066.2629   -86153.293    984.02518 
   17150    280.48371   -833.26139    271484.59   -79039.742    7109.9279    -86149.67    985.64463 
   17200    277.16984   -949.67588    271648.48   -78998.364    7025.9252   -86024.289    989.64889 
   17250    275.03916    -1044.334    272265.89   -78995.714    6971.9151   -85967.629    993.51622 
   17300    275.73726     -1371.93    272712.91   -78937.728     6989.611   -85927.339    997.39819 
   17350    278.08826   -1366.2948    272599.87   -78980.832     7049.206   -86030.038    996.76022 
   17400    279.36755   -950.00852    272032.75   -79016.225    7081.6347   -86097.859     999.7327 
   17450    279.11114   -729.07799    271561.33   -78991.024    7075.1348   -86066.158    1000.9826 
   17500    278.10899   -1040.4368    271711.56   -79043.861    7049.7317   -86093.593    1003.9252 
   17550    276.16797   -1045.9173    272017.16    -79084.37     7000.529   -86084.899    1008.4829 
   17600    276.05263   -1015.2751    272209.36   -79055.318    6997.6052   -86052.924    1012.1435 
   17650    277.97535   -904.12822    272490.14   -79003.808     7046.344   -86050.152    1013.4368 
   17700    281.06868    -1244.884    272578.64   -78979.003    7124.7561   -86103.759    1016.8665 
   17750    278.20636    -1015.581    272174.33   -78976.748    7052.1999   -86028.948    1020.4985 
   17800    276.66386   -897.88347    271942.61   -78982.265    7013.0992   -85995.364    1023.9046 
   17850    278.45439   -1009.6568    272159.69   -79002.919    7058.4871   -86061.406    1026.4758 
   17900     284.2996    -1137.557     272425.6   -79031.244    7206.6563     -86237.9    1030.3721 
   17950    278.83133   -1098.1541    272204.36   -79046.962    7068.0419   -86115.003    1031.8438 
   18000    274.06885   -876.04405    271751.59   -79112.459    6947.3188   -86059.778    1033.8072 
   18050    275.09265   -848.34231    271681.17   -79151.184     6973.271   -86124.455    1037.0577 
   18100    277.63998   -1173.3596    271726.79   -79187.785    7037.8427   -86225.628    1039.9776 
   18150     273.0138   -986.40997    271948.21   -79213.625    6920.5747   -86134.199     1042.517 
   18200    273.32684   -1118.5613    272085.83   -79154.571    6928.5097    -86083.08    1045.8742 
   18250    278.61983   -1203.9988    272120.99   -79102.523    7062.6807   -86165.204    1049.7527 
   18300    279.80673    -937.4831     271925.8   -79086.773    7092.7672    -86179.54    1052.5101 
   18350    282.74756   -1058.9941    271968.06   -79083.475    7167.3138   -86250.789    1054.6009 
   18400    277.07995   -1229.8442    272102.62   -79089.717    7023.6466   -86113.364    1059.0697 
   18450    276.75882   -1146.6644    272064.41   -79116.085    7015.5063   -86131.591    1062.8216 
   18500    275.75355   -1219.3726    271917.97   -79089.952    6990.0239   -86079.976    1064.8114 
   18550    279.94622   -963.42271    271411.85   -79067.616    7096.3032   -86163.919    1065.2015 
   18600     280.2968   -907.04236    271105.02   -79048.433    7105.1899   -86153.623    1065.2914 
   18650    277.71779   -1002.0518    271387.53   -79074.531    7039.8151   -86114.346     1067.909 
   18700    273.59927   -1005.9877    272060.47    -79081.01    6935.4156   -86016.426    1070.8301 
   18750    275.18281   -1137.3547    272544.15   -78997.554    6975.5563    -85973.11    1075.2894 
   18800    275.84261    -1171.034    272606.28   -79006.182    6992.2814   -85998.463    1077.6837 
   18850     282.0449   -1097.5386    272330.96   -79041.169    7149.5023   -86190.671    1078.8733 
   18900    277.44479   -927.35656    271894.69   -79064.124    7032.8949   -86097.018    1081.3052 
   18950    275.71994   -893.49364    271693.42   -79102.959     6989.172   -86092.132    1085.4821 
   19000     276.4855   -1104.2812    271840.12   -79073.187     7008.578   -86081.765    1089.4544 
   19050    276.59919   -910.65425    272016.49   -79045.143      7011.46   -86056.603    1093.6577 
   19100    274.42124    -819.5223    272160.14   -79079.238    6956.2514   -86035.489    1096.1009 
   19150    272.85285   -1156.2713    272247.74    -79047.41    6916.4947   -85963.904    1099.1605 
   19200    275.08497   -989.39775    272072.85   -79064.978    6973.0762   -86038.054    1101.8815 
   19250    275.47867   -824.59364    271897.08   -79059.164    6983.0561    -86042.22    1104.4566 
   19300    276.22831   -904.26225     271942.1   -79079.118    7002.0586   -86081.176    1108.1299 
   19350    274.44885   -834.28482    272013.02   -79106.008    6956.9515   -86062.959    1109.0695 
   19400    276.19957   -1030.8856    272258.97   -79107.968    7001.3301   -86109.298    1112.2623 
   19450     277.5757   -1049.7292    272413.06   -79125.779    7036.2133   -86161.993    1116.3871 
   19500    271.51342   -1192.0497    272409.93    -79183.12    6882.5416   -86065.661    1117.6397 
   19550    272.73089   -1143.8851    272215.59   -79118.063    6913.4033   -86031.466    1120.2503 
   19600    278.11568   -1059.4269    271979.92   -79111.151    7049.9011   -86161.052    1121.8121 
   19650    273.79266   -1020.3384    271903.06   -79069.301    6940.3177   -86009.618    1123.9583 
   19700    278.30103   -935.16594     271891.3   -79024.022    7054.5995   -86078.621    1127.8201 
   19750    277.99156   -911.99204     272014.6   -79046.297    7046.7549   -86093.052    1131.9432 
   19800    277.36842   -1241.0009    272226.33   -79065.009    7030.9591   -86095.968    1135.8761 
   19850    277.31181    -1181.927    272365.86   -79044.352     7029.524   -86073.876    1140.1798 
   19900    273.00215   -1016.7585     272373.6    -78983.05    6920.2792   -85903.329    1142.6513 
   19950    280.47716    -726.6605    272206.05   -78993.779    7109.7619   -86103.541    1144.0617 
   20000     282.4013   -1144.9451    272340.98   -78970.985    7158.5365   -86129.522    1147.8032 
   20050    275.76836   -992.76785    272421.23   -79002.553    6990.3994   -85992.952    1150.8571 
   20100     276.9459   -1048.0039     272240.4    -79029.52    7020.2487   -86049.768    1152.4187 
   20150    273.67905   -970.45923     272151.5   -79057.062    6937.4379     -85994.5    1155.5597 
   20200    277.57606   -956.96464    272069.29   -79052.898    7036.2224    -86089.12    1159.6145 
   20250    274.13851   -767.59569    271991.37   -79075.136    6949.0845   -86024.221    1161.9653 
   20300    278.66767   -1024.9808    272170.63   -79053.884    7063.8933   -86117.778     1165.031 
   20350    276.26279   -946.20554    272333.95   -79047.021    7002.9326   -86049.953    1166.8215 
   20400    278.41802   -1120.5061    272532.07   -79016.674    7057.5651   -86074.239    1170.2878 
   20450    275.27753   -1169.8172    272699.13   -78972.418    6977.9575   -85950.375    1174.1139 
   20500    277.23883   -948.49407    272403.57   -78974.548    7027.6742   -86002.222    1176.7648 
   20550    280.59637   -894.25337    271727.93   -78979.069    7112.7837   -86091.853    1177.3545 
   20600    278.71588   -668.83159    271115.11   -78980.732    7065.1155   -86045.848     1178.026 
   20650    281.55537   -1004.3479    271127.29   -78940.245    7137.0933   -86077.338    1180.5222 
   20700    275.79844   -893.48992    271714.91    -79013.01    6991.1619   -86004.171    1185.9837 
   20750    277.89854   -1091.5137    272432.95    -78997.86    7044.3968   -86042.257     1193.299 
   20800    277.47655   -1191.4789       272820   -78979.502    7033.6999   -86013.202     1197.919 
   20850    276.38313   -1131.3586    272692.09    -78984.65     7005.983   -85990.633    1201.2168 
   20900    280.00846   -962.40993    272169.87   -78920.453     7097.881   -86018.334    1201.3314 
   20950    277.79798   -801.93792    271907.23   -78984.753    7041.8478   -86026.601    1201.8344 
   21000    276.75743   -1118.2008    272351.02   -79008.038     7015.471   -86023.509    1204.3621 
   21050    281.23245   -890.31257    272788.25    -78959.89    7128.9077   -86088.798    1208.0069 
   21100    279.38569   -1249.3279    273112.79   -78936.384    7082.0943   -86018.478    1212.2912 
   21150    275.77853   -1340.5655    272671.25   -78973.176    6990.6573   -85963.833    1212.8617 
   21200    276.90495   -1081.5962    271952.28   -79003.339    7019.2106    -86022.55    1213.0021 
   21250    278.70922   -833.34094    271583.13   -79052.862    7064.9466   -86117.808    1215.0773 
   21300    279.54335   -825.26862    271646.13   -79050.152    7086.0909   -86136.242    1217.8042 
   21350    276.40798   -915.96292    271906.37   -79108.164    7006.6129   -86114.777    1220.0712 
   21400    274.90568   -774.18299    272214.94    -79097.29    6968.5316   -86065.822    1223.5246 
   21450    275.38257   -1191.5269    272704.81   -79071.586    6980.6201   -86052.206    1228.4729 
   21500    279.88847    -1149.297     272611.3    -79043.81    7094.8392   -86138.649    1231.8426 
   21550    279.33815   -841.14457    271983.54   -79059.015    7080.8894   -86139.904    1233.1116 
   21600    275.81127   -996.16132    271821.46   -79103.107    6991.4871   -86094.594    1236.4956 
   21650    271.26744   -842.93472    271962.99   -79107.124    6876.3064    -85983.43     1241.511 
   21700    279.62014   -1025.2828    272148.54   -79080.309    7088.0374   -86168.347    1244.2684 
   21750     274.3948   -1148.1069    272289.78   -79078.834    6955.5814   -86034.416    1247.3736 
   21800    273.49149    -986.9869    272145.29   -79091.293    6932.6834   -86023.976    1248.2948 
   21850    275.60424    -1064.855    272012.09   -79100.249    6986.2391   -86086.488     1250.599 
   21900    276.90577    -842.3176    272073.31   -79088.806    7019.2314   -86108.037    1254.1544 
   21950    279.07215   -1067.3825    272216.33    -79097.08    7074.1466   -86171.227    1256.7543 
   22000    275.85822   -1013.0714    272419.09   -79044.266    6992.6772   -86036.943    1259.1041 
   22050    277.21124   -1198.2737    272601.08   -79033.905    7026.9748   -86060.879    1263.3938 
   22100    275.15509   -1012.8826    272499.17   -79018.946    6974.8537     -85993.8    1266.2088 
   22150     281.4761   -1202.8233    272272.24   -79013.684    7135.0837   -86148.768    1268.0147 
   22200     280.8677   -808.27993    271755.22   -79010.839    7119.6615     -86130.5    1268.9996 
   22250    276.99804   -837.85201    271474.79   -79032.687    7021.5703   -86054.258    1271.3845 
   22300    276.69574   -914.25112    271827.02   -79054.994    7013.9073   -86068.902    1275.7737 
   22350    275.09941   -1099.0834    272631.22   -79058.431    6973.4424   -86031.873    1282.6408 
   22400    276.47002   -1308.0996    272984.45   -79063.684    7008.1856    -86071.87    1288.3279 
   22450    277.27449   -1101.3103    272702.54   -79042.905    7028.5781   -86071.483    1291.1523 
   22500    276.29553   -1046.4891    272264.84   -78974.829    7003.7625   -85978.592    1293.3676 
   22550    279.16947   -844.74766    271770.26   -79009.486    7076.6135     -86086.1    1292.4768 
   22600    278.79939   -942.71865    271810.77   -79046.497    7067.2323   -86113.729    1295.2921 
   22650    274.00075   -818.27988    272204.94   -79021.203    6945.5925   -85966.795    1299.4511 
   22700    278.11657   -1252.6934    272673.87   -79031.172    7049.9236   -86081.096     1304.281 
   22750    274.05299   -1102.0466    272654.82   -79005.465    6946.9168   -85952.382    1306.7395 
   22800    276.09872   -933.56637    272143.93   -79034.333    6998.7736   -86033.107     1309.866 
   22850    278.07032   -809.15631    271441.31   -79030.523    7048.7513   -86079.274    1312.8102 
   22900    278.29558   -643.92483    271283.14   -78984.616    7054.4614   -86039.078    1314.0059 
   22950    280.02251   -903.76932    271805.52   -78994.898    7098.2371   -86093.136    1318.4975 
   23000    275.72477   -1271.5484    272607.25   -79035.328    6989.2944   -86024.622    1323.6042 
   23050    272.32806    -1299.592    272821.28   -79020.043    6903.1918   -85923.235    1327.2336 
   23100    276.33635   -1139.1608    272485.65   -79065.529    7004.7972   -86070.326     1328.228 
   23150    280.29443    -831.1562    271983.29   -79074.798    7105.1299   -86179.928    1330.8724 
   23200     278.7896   -972.16551    271713.91   -79038.871    7066.9842   -86105.856    1333.7437 
   23250    276.40671   -805.63554    271723.58   -79026.008    7006.5809   -86032.589    1337.6258 
   23300    276.28074   -1083.5443    272306.44   -79036.832    7003.3877   -86040.219    1342.9391 
   23350    273.71091   -1114.3745    272787.39   -79045.486    6938.2454   -85983.731    1346.6552 
   23400    280.20517   -1096.6845    272680.53   -79031.619    7102.8672   -86134.486    1348.0928 
   23450    274.35244    -1211.014    272512.01    -79052.35    6954.5075   -86006.857    1349.4828 
   23500    276.63879   -1052.1281    272093.76   -79076.757    7012.4637    -86089.22     1350.242 
   23550    277.52078   -793.89159    271608.01   -79087.787    7034.8212   -86122.608    1351.6653 
   23600    277.74702   -971.14973    271689.51   -79102.089     7040.556   -86142.645    1352.8862 
   23650    277.42337   -976.53118    272164.16   -79128.903    7032.3519   -86161.255    1355.1364 
   23700    274.95561   -1101.7785    272528.09   -79139.929    6969.7971   -86109.726    1357.3783 
   23750    275.12653   -1065.0546     272432.9   -79135.879    6974.1297   -86110.008    1359.3704 
   23800    272.66466   -1004.8269    272061.92   -79118.956    6911.7242    -86030.68     1361.204 
   23850    277.79406   -876.59374    271663.35   -79091.519    7041.7484   -86133.268    1361.2153 
   23900    275.55591   -902.36712     271905.9   -79104.783     6985.014   -86089.797    1364.4415 
   23950    276.60676   -1138.6397    272486.92   -79136.212    7011.6519   -86147.864    1368.5759 
   24000    276.96173   -1346.1943    272394.92    -79114.77    7020.6498    -86135.42    1369.9684 
   24050    274.67292    -907.1557    271503.02   -79115.787    6962.6312   -86078.418    1367.5874 
   24100    275.12163   -596.59816    271027.58   -79128.864    6974.0056   -86102.869    1367.2327 
   24150    276.64341   -819.51329    271450.64   -79099.571    7012.5809   -86112.152    1370.1829 
   24200    274.50873   -1046.2036    272264.24   -79100.948    6958.4692   -86059.417    1375.9985 
   24250     274.6901    -1136.885    272950.05    -79023.87    6963.0669   -85986.937    1379.6583 
   24300    276.58964   -1277.3589    272914.87   -79050.848     7011.218   -86062.066    1380.7404 
   24350    276.68317   -1100.0559    272468.62   -79081.357    7013.5887   -86094.946    1382.2272 
   24400    278.01479   -1087.5979    272078.89   -79105.729    7047.3437   -86153.072     1383.809 
   24450    275.27151   -762.64833    271799.93   -79113.008    6977.8048   -86090.812    1385.6281 
   24500    277.61111    -923.3792    271852.74   -79118.307    7037.1109   -86155.418    1388.0558 
   24550    274.77482   -845.56524     272280.5   -79143.418    6965.2144   -86108.633    1393.2359 
   24600    272.86049   -1140.5026    272558.15   -79158.426    6916.6883   -86075.114     1397.937 
   24650    271.25726    -876.8674    272199.91   -79153.123    6876.0483   -86029.171    1401.0435 
   24700    271.15649   -850.88093     271711.6    -79158.04     6873.494   -86031.534    1401.5881 
   24750    276.79205   -1079.2721    271486.05    -79148.96    7016.3488   -86165.308    1403.7634 
   24800    277.32901   -583.54553    271419.12   -79181.719    7029.9601   -86211.679    1405.2961 
   24850    272.66216   -885.91013    272019.95   -79169.277    6911.6609   -86080.938    1409.6181 
   24900     275.6726   -992.41244    272691.28   -79199.213     6987.972   -86187.185     1415.209 
   24950    276.83736   -1326.4951    273021.46   -79197.748    7017.4974   -86215.246    1418.2629 
   25000     274.3589   -1115.5117    272611.09   -79165.665    6954.6712   -86120.336    1416.7413 
   25050    275.31193   -875.58788    271841.99   -79162.635    6978.8296   -86141.465     1414.753 
   25100    276.70107   -864.19069    271394.15   -79190.807    7014.0425    -86204.85    1416.1809 
   25150    277.64663   -719.60974    271400.82   -79175.007    7038.0113   -86213.019    1418.5186 
   25200    278.02437     -1045.82    271804.75   -79136.475    7047.5866   -86184.062    1422.2905 
   25250    272.16915    -961.3865    272060.85    -79115.91    6899.1636   -86015.074    1427.6511 
   25300     275.2094    -1018.291    271999.71   -79085.692    6976.2305   -86061.922    1429.8147 
   25350    277.53845    -729.5667     272016.9   -79092.038     7035.269   -86127.307     1434.386 
   25400    275.17414   -995.91024    272325.64   -79112.969    6975.3367   -86088.306    1440.3406 
   25450    277.91327   -1004.9137    272443.97   -79132.422    7044.7703   -86177.192    1445.4292 
   25500    272.42649   -1125.5725    272404.47   -79147.067     6905.687   -86052.754    1447.4249 
   25550     278.6052   -1082.4594    271744.68   -79161.248    7062.3098   -86223.557    1447.0408 
   25600    273.89179   -863.15628    271182.09   -79182.273    6942.8305   -86125.104    1447.2041 
   25650    272.99139   -956.01313    271144.84    -79164.81    6920.0066   -86084.817    1449.2124 
   25700    276.46247   -987.55016    271535.98   -79132.085    7007.9942   -86140.079    1453.4885 
   25750    275.77807   -1246.5421    271976.66   -79143.779    6990.6457   -86134.425    1458.7648 
   25800    276.81736   -1216.4482    271993.13   -79126.165    7016.9903   -86143.155    1463.4884 
   25850     278.9409   -1138.2699     271659.5   -79136.949    7070.8195   -86207.768     1465.123 
   25900    271.81113   -822.32143    271509.26   -79166.408    6890.0882   -86056.496    1467.4669 
   25950    269.39849   -1069.7886    271959.63   -79176.126    6828.9307   -86005.057     1471.292 
   26000    270.44275   -1171.2919    272188.97   -79197.887    6855.4016   -86053.289    1474.4343 
   26050    268.88995   -847.30976    271955.31   -79197.504    6816.0398   -86013.544    1475.2357 
   26100    277.10951    -1055.209    271691.93   -79221.673     7024.396   -86246.069    1477.3845 
   26150    275.23237   -880.03251    271570.46    -79163.88    6976.8128   -86140.693    1479.6386 
   26200    275.07273   -1143.2559    271821.69   -79155.345    6972.7661   -86128.112    1481.5573 
   26250    275.96202   -1026.3427    272097.42   -79121.027    6995.3083   -86116.335    1485.3688 
   26300    277.45636   -910.72731    272275.79   -79120.706    7033.1881   -86153.894    1490.1965 
   26350    274.80174   -991.85903    272466.79   -79068.293    6965.8967    -86034.19    1493.6149 
   26400     277.3853   -955.97422    272538.44   -79064.733     7031.387    -86096.12    1494.0704 
   26450    278.02416    -1112.774    272348.95   -79109.467    7047.5812   -86157.048    1495.2416 
   26500    278.20821   -897.54067    271753.62   -79092.437    7052.2466   -86144.683    1495.7808 
   26550    276.20189   -850.54155    271558.26   -79139.223    7001.3888   -86140.612     1497.503 
   26600    275.35022   -925.33039    271973.77   -79121.905       6979.8   -86101.705    1501.9887 
   26650     269.9553   -1073.2807    272340.93    -79139.07    6843.0452   -85982.115    1505.4565 
   26700    274.74565   -1218.3019    272314.55   -79184.296     6964.475   -86148.771    1508.0305 
   26750    274.49046   -876.04605    271875.79   -79220.569    6958.0061   -86178.575     1508.695 
   26800    274.42837   -885.05374    271661.77   -79228.709    6956.4323   -86185.142    1509.9517 
   26850    274.09815    -1027.501    271722.02   -79270.562    6948.0615   -86218.623    1511.4792 
   26900    275.15415   -999.89673    271919.18   -79293.935    6974.8298   -86268.765    1514.9167 
   26950    270.98466    -1005.754    272243.38   -79273.294    6869.1382   -86142.432    1519.8955 
   27000    275.87892   -1045.6991    272281.38   -79290.606     6993.202   -86283.808    1522.5165 
   27050    271.69907   -1127.3232    272255.75   -79285.928    6887.2478   -86173.176     1523.174 
   27100    270.66803   -945.94321    271979.68   -79317.262    6861.1121   -86178.375     1525.389 
   27150    272.62442   -681.32849     271647.2   -79234.565    6910.7043   -86145.269    1527.2076 
   27200    277.74546   -1198.7826     271871.1   -79231.149    7040.5166   -86271.665    1531.3266 
   27250    273.39521   -987.31867    272060.92   -79227.164    6930.2429   -86157.407    1533.9162 
   27300    275.94704     -1363.86    272034.75   -79213.764    6994.9288   -86208.693    1535.3254 
   27350    275.96701   -1059.1609    271644.53   -79228.377    6995.4349   -86223.812    1537.8394 
   27400    278.09176   -996.14828    271413.15   -79197.734    7049.2947   -86247.029     1538.573 
   27450    274.22144   -829.51523    271626.84   -79157.177    6951.1867   -86108.363    1541.9209 
   27500    272.45668   -1059.9037    272201.11   -79110.893    6906.4522   -86017.345    1546.5582 
   27550    270.79023   -1109.1703    272486.64   -79087.981    6864.2097    -85952.19    1550.2302 
   27600    275.19482   -1197.2509    272458.15   -79069.782    6975.8609   -86045.643    1553.0311 
   27650    273.61742    -859.7325    272205.26   -79103.934    6935.8756   -86039.809    1552.2248 
   27700    279.63342   -1049.4602    272050.94   -79113.678     7088.374   -86202.052    1554.0304 
   27750    277.03325   -1014.4659    272023.76   -79077.122     7022.463   -86099.585     1555.624 
   27800    273.11721   -937.18634    272231.47   -79123.986    6923.1959   -86047.182    1557.9434 
   27850    276.50647   -996.65008     272249.9   -79093.207    7009.1097   -86102.316    1559.7729 
   27900    278.38289   -976.03603    271840.84     -79030.2    7056.6746   -86086.875    1560.5792 
   27950    273.99414    -926.4349    271612.56   -79037.549    6945.4249   -85982.974    1560.5544 
   28000    278.35634   -755.84888    271936.21   -79042.883    7056.0015   -86098.885    1565.4058 
   28050    276.19087   -1032.5397    272447.21   -79008.185    7001.1094   -86009.295    1571.5424 
   28100    274.83528   -779.73283    272530.99   -79011.499     6966.747   -85978.246    1574.0183 
   28150    280.51251   -1297.1496    272642.82   -79044.329     7110.658   -86154.987    1575.7868 
   28200    273.93481   -1228.1403    272334.48   -79072.746    6943.9212   -86016.667    1575.9314 
   28250     276.4808   -995.39472    271913.46   -79027.629    7008.4588   -86036.088    1579.2402 
   28300    278.78139   -1100.9636    271912.88   -79035.725    7066.7762   -86102.501    1583.1213 
   28350    278.96729   -1058.5853    272215.02   -79067.087    7071.4884   -86138.576    1588.4265 
   28400    274.62249   -1186.9763    272434.47    -79051.24     6961.353   -86012.593    1592.0052 
   28450    278.95952   -1062.1267    272119.59   -79049.566    7071.2914   -86120.857    1594.0109 
   28500       276.49   -984.70575    271813.57   -79007.724    7008.6922   -86016.416    1595.4864 
   28550    276.57279   -1020.9584    271858.29   -78969.334    7010.7908   -85980.125     1598.322 
   28600     279.6132   -765.29761    272456.52   -78930.566    7087.8615   -86018.428    1603.4544 
   28650    273.41284   -1382.2612    273251.16   -78923.744    6930.6898   -85854.433     1611.153 
   28700    278.96684   -1088.1783    273125.75   -78879.928     7071.477   -85951.405    1615.4049 
   28750    274.18882   -1073.4388    272319.75   -78922.139      6950.36   -85872.499    1613.2773 
   28800    276.75649   -621.76257    271303.76   -79008.477    7015.4474   -86023.925    1610.0256 
   28850    278.44852   -945.43244    271296.69   -79028.669    7058.3383   -86087.007    1612.6999 
   28900    279.23284   -1100.4402    271880.72   -79025.045    7078.2198   -86103.265    1619.1745 
   28950    279.46403   -1060.4183    272468.42   -79027.373    7084.0801   -86111.453    1623.8901 
   29000    278.16758   -1035.1366    272869.95   -79056.985    7051.2166   -86108.201    1629.6657 
   29050    274.58114   -1206.6163    272888.07   -79052.533    6960.3047   -86012.838      1634.65 
   29100     277.3817   -1079.4866    272241.45   -79047.304    7031.2957     -86078.6    1634.4661 
   29150    275.87432   -914.89417    271665.85    -79066.98    6993.0855   -86060.066    1633.9003 
   29200    278.87507   -674.39093    271326.09   -79066.082    7069.1509   -86135.232    1632.4941 
   29250    275.45797   -875.72273     271697.7   -79019.454    6982.5313   -86001.985    1636.4691 
   29300    276.91846   -1007.7248    272180.07   -79056.898    7019.5532   -86076.451     1642.133 
   29350    273.89689   -1307.5441    272556.57   -79076.388      6942.96   -86019.348    1646.3669 
   29400    274.68086    -923.2937    272170.06   -79094.863    6962.8324   -86057.695    1645.7606 
   29450    274.33415   -879.99836     271723.3   -79105.908    6954.0438   -86059.952    1645.6866 
   29500    270.65468   -641.16533    271740.15   -79110.513    6860.7736   -85971.287    1649.1073 
   29550    274.61692   -1063.1838    272178.57   -79071.205    6961.2117   -86032.417    1652.3338 
   29600    273.96887   -1013.5516    272415.32    -79039.54    6944.7844   -85984.324    1656.6739 
   29650    278.28402   -904.09009    272191.66   -79023.351    7054.1684   -86077.519    1656.3577 
   29700    275.95631   -983.96623    272060.87   -79058.959    6995.1638   -86054.123    1657.9871 
   29750    274.25642      -796.89    272273.83   -79045.489    6952.0735   -85997.562     1660.772 
   29800    276.08555   -1128.1866    272710.81   -79010.437    6998.4398   -86008.877     1666.617 
   29850    275.26156   -1053.3715     272706.4   -79004.536    6977.5526   -85982.088    1669.7375 
   29900    280.37641   -892.99366    272353.44   -78978.234    7107.2079   -86085.442    1672.2339 
   29950    278.22466   -1001.6768    271967.62   -78975.446    7052.6638    -86028.11    1673.5755 
   30000    278.09924   -996.39708    271870.83   -79013.262    7049.4844   -86062.746    1677.5734 
   30050    278.07999   -1007.7072    271926.87   -79038.375    7048.9964   -86087.371    1679.0232 
   30100    281.82933   -968.16747    272032.79   -79003.424    7144.0377   -86147.461    1680.5966 
   30150    278.05005   -1113.1135    272343.25   -78999.126    7048.2376   -86047.364    1683.7508 
   30200    273.98307   -1068.3271    272487.27   -79001.235    6945.1445   -85946.379    1687.8833 
   30250    276.98009   -1272.6852     272159.6   -79007.524    7021.1152    -86028.64    1688.7853 
   30300    280.06746   -792.44686    271586.27   -79000.465    7099.3765   -86099.842    1689.4577 
   30350    272.85446   -696.76357    271751.27   -79013.507    6916.5355   -85930.043    1694.6306 
   30400     278.1479   -1270.2496    272497.47   -79081.452    7050.7178    -86132.17    1702.5527 
   30450    277.28802   -1209.3124    272765.89   -79097.432     7028.921   -86126.353    1707.8423 
   30500    273.39638   -1117.7394    272545.96   -79052.182    6930.2726   -85982.455    1707.9671 
   30550    278.47115   -1150.5084    271886.02   -79058.283     7058.912   -86117.195    1706.0794 
   30600    279.85208   -833.76122    271397.62   -79092.721    7093.9169   -86186.638    1707.5884 
   30650    276.41097   -804.15255    271366.04   -79120.739    7006.6888   -86127.428    1709.4615 
   30700    275.54415   -1173.3734    271720.25   -79118.797    6984.7159   -86103.513    1712.1231 
   30750     275.9181   -1028.7962    271891.64    -79148.59    6994.1952   -86142.785    1717.0052 
   30800    270.67903   -772.88002    272027.68   -79183.006    6861.3909   -86044.397    1720.5778 
   30850    273.68965   -1103.6427    272293.43   -79196.628    6937.7066   -86134.334    1722.8821 
   30900    273.15717   -1152.2836    272141.35    -79177.88    6924.2088   -86102.089     1725.924 
   30950    272.66514   -969.21017    271936.74    -79185.65    6911.7363   -86097.387    1727.4261 
   31000    276.96675   -1105.9272    271915.17   -79191.295    7020.7771   -86212.072     1730.062 
   31050    273.74017   -846.71309    271711.57   -79182.485    6938.9873   -86121.473    1731.1084 
   31100    274.16381   -929.24387    271711.23   -79154.544    6949.7259   -86104.269    1733.3911 
   31150    277.12813   -916.40002    271852.82   -79124.258    7024.8679   -86149.126    1735.8775 
   31200    272.94186   -1103.1465    271940.52   -79108.102    6918.7509   -86026.853    1736.3089 
   31250    278.49273   -924.22976    271768.01   -79111.547     7059.459   -86171.006    1741.9436 
   31300    277.91094   -925.15272    271758.37     -79107.3    7044.7114   -86152.012    1744.2046 
   31350    277.33676   -935.18599    272277.32   -79124.909    7030.1565   -86155.066    1746.1242 
   31400    273.35295   -1250.8308    272971.26    -79139.21    6929.1716   -86068.381     1750.884 
   31450    272.41889   -1215.1496    273000.13   -79124.772    6905.4943   -86030.266    1753.8664 
   31500     277.1932   -987.35311    272029.51   -79138.631    7026.5173   -86165.148    1750.1018 
   31550     275.5125   -806.84531    271027.76    -79164.83    6983.9136   -86148.744    1746.9809 
   31600    276.60641   -636.58134    270801.39   -79192.418    7011.6429    -86204.06    1749.3218 
   31650    274.81027   -838.98765    271556.04   -79126.919    6966.1129   -86093.032    1755.1947 
   31700    275.07653   -1221.1483    272720.54    -79122.69    6972.8624   -86095.552    1760.6973 
   31750    269.96268   -1182.5546    273202.25   -79105.926    6843.2323   -85949.158    1765.9698 
   31800    275.44613   -1153.1534    272747.76   -79109.305    6982.2314   -86091.536     1766.437 
   31850    275.79966   -1060.7135    271987.27   -79160.315    6991.1927   -86151.508    1765.8818 
   31900     278.2551   -896.84972    271476.54   -79189.626    7053.4353   -86243.061    1765.2904 
   31950     272.3549   -758.88372    271555.28   -79158.344    6903.8723   -86062.217    1768.1405 
   32000    274.08589   -957.14611    272080.07   -79177.408    6947.7508   -86125.159    1771.9563 
   32050    277.37858   -1375.7032    272444.79   -79185.789    7031.2166   -86217.006    1777.7518 
   32100      274.252   -1020.4366    272146.09    -79172.84    6951.9616   -86124.801    1780.1117 
   32150     269.2734    -666.4109    271588.94   -79220.496    6825.7599   -86046.256    1779.9212 
   32200    276.96171   -941.13036    271470.41   -79188.336    7020.6494   -86208.986    1782.3694 
   32250    272.07883   -1207.2687    271791.51   -79165.526    6896.8741     -86062.4    1784.8839 
   32300    271.98028   -1080.9421    272065.49   -79181.947     6894.376   -86076.323    1789.4547 
   32350    272.48834   -1191.3677    272065.19   -79176.722    6907.2549   -86083.977    1792.6025 
   32400     275.2788   -1145.3827    271730.12   -79183.075    6977.9896   -86161.065    1792.6228 
   32450    274.56512   -869.38292    271424.21   -79224.314    6959.8987   -86184.212     1793.853 
   32500    272.54835   -888.46757    271491.77   -79196.182     6908.776   -86104.958    1795.7945 
   32550    277.88484   -1238.0817    271695.04     -79211.7    7044.0496    -86255.75    1797.9641 
   32600    276.02884   -1130.8627    271936.83   -79154.394    6997.0022   -86151.396     1802.355 
   32650    272.02717   -876.55263    272217.36    -79145.76    6895.5648   -86041.325     1806.418 
   32700    277.79192   -1188.8913    272504.36   -79151.341    7041.6941   -86193.035    1809.1833 
   32750    281.45202   -1235.8794    272622.48    -79131.35    7134.4734   -86265.823    1812.3576 
   32800    274.75278   -1095.0047     272229.3   -79155.532    6964.6556   -86120.188    1814.0985 
   32850    276.12758   -876.22883    271652.31   -79157.874    6999.5052    -86157.38    1813.8744 
   32900    275.27799   -920.81977     271325.6   -79180.338     6977.969   -86158.307    1814.4311 
   32950    276.95232   -811.77388    271379.64    -79221.28    7020.4113   -86241.692     1817.506 
   33000     274.3067   -992.76163    271839.02   -79163.931     6953.348   -86117.279    1821.3573 
   33050    273.59675   -1015.3731    272146.62   -79152.544    6935.3517   -86087.896    1823.0931 
   33100    275.61924   -1149.0832    272117.98   -79170.867    6986.6195   -86157.487    1828.4325 
   33150     276.7881   -1039.2272    271765.99   -79186.591    7016.2485    -86202.84     1829.958 
   33200    277.34156   -1096.2071    271546.28   -79212.328    7030.2781   -86242.606     1831.604 
   33250    279.14347   -815.22899    271646.92    -79222.94    7075.9544   -86298.894    1832.2392 
   33300    276.11429   -1017.2456    272195.39   -79202.024    6999.1683   -86201.193    1837.2978 
   33350    269.55716   -1039.8447    272682.43   -79225.278    6832.9528   -86058.231    1842.3243 
   33400    274.51542   -1170.6578    272616.17    -79193.48    6958.6389   -86152.119    1844.0395 
   33450    278.33777   -968.41196    272001.38   -79183.939    7055.5308    -86239.47    1844.9059 
   33500    274.78771   -784.03653    271537.91   -79219.696     6965.541   -86185.237    1846.0883 
   33550    276.31992   -1014.2198    271526.25   -79195.767    7004.3807   -86200.147    1849.2049 
   33600    274.77871   -936.01037    271676.94   -79207.999     6965.313   -86173.312    1855.6871 
   33650    275.18056   -1215.2791    272145.36   -79204.513    6975.4993   -86180.012    1863.5013 
   33700    275.95602   -1250.8222    272139.78   -79178.373    6995.1563   -86173.529    1866.4113 
   33750     276.7291   -875.84247     271767.8   -79155.853    7014.7529   -86170.606    1869.1892 
   33800     274.1737    -891.4794    271697.48   -79170.148    6949.9767   -86120.124     1870.733 
   33850    277.33111   -914.42407    271744.75   -79184.838    7030.0132   -86214.851    1872.7461 
   33900    269.58081   -858.37456    271902.82   -79192.082    6833.5522   -86025.634     1876.489 
   33950    275.85241   -991.86568    272066.92   -79198.426    6992.5301   -86190.956    1880.0577 
   34000    275.85111   -905.97846    272166.75   -79160.308    6992.4971   -86152.805    1882.9314 
   34050    271.58674   -949.44054    272207.76   -79175.081    6884.4002   -86059.481    1886.8631 
   34100    274.97954   -1053.1751    272251.75   -79195.256    6970.4038    -86165.66    1891.2819 
   34150    269.36975   -891.87937    272143.15   -79196.581    6828.2023   -86024.783    1894.8705 
   34200    275.84757   -1242.8373    272076.43   -79209.855    6992.4073   -86202.262     1898.538 
   34250    273.50349   -944.00022    271455.04   -79209.899    6932.9877   -86142.887    1900.0373 
   34300    272.78328   -705.70118    271163.27   -79169.085    6914.7311   -86083.816    1898.1287 
   34350    270.19731   -701.25871    271592.69   -79178.279    6849.1799   -86027.459    1904.0011 
   34400    275.80382   -1150.1343    272591.21   -79206.681    6991.2982   -86197.979    1909.3559 
   34450    273.91453    -1418.124    273077.79   -79155.004    6943.4069    -86098.41     1912.927 
   34500    273.24746   -1241.5095    272660.63   -79195.471    6926.4976   -86121.969    1912.4056 
   34550    275.89841   -1058.5636    271532.42    -79261.28    6993.6959   -86254.976    1909.0472 
   34600    276.14632   -620.47677    270770.72   -79300.119    6999.9803     -86300.1    1906.8652 
   34650     275.5722   -932.95759    271196.84   -79278.995    6985.4271   -86264.422    1911.9957 
   34700     275.8762   -1236.6086    271933.58   -79244.664    6993.1329   -86237.797    1915.6453 
   34750    272.73231   -1149.6874    272441.62   -79258.271    6913.4392    -86171.71    1922.3295 
   34800    274.74096   -952.27254     272546.3   -79226.769     6964.356   -86191.125     1926.535 
   34850    273.45311   -1097.8394    272242.87   -79260.065    6931.7105   -86191.775    1927.6557 
   34900    267.44308   -950.69594    271812.25   -79261.757    6779.3634    -86041.12    1930.3984 
   34950    273.70485   -1133.0399    271538.18   -79222.112    6938.0919   -86160.204    1930.5946 
   35000    271.94439   -1083.9119    271485.69   -79220.847    6893.4664   -86114.313    1933.8763 
   35050    274.66181   -1142.3901    271674.41   -79205.038    6962.3498   -86167.388    1936.4851 
   35100    271.77592   -863.48525    271885.35   -79232.477    6889.1959   -86121.673    1939.2391 
   35150    271.91687   -1291.4342     272067.3   -79242.108    6892.7687   -86134.877     1944.221 
   35200    271.08071   -908.02966    271927.97   -79239.081     6871.573   -86110.654    1945.0469 
   35250    273.27352   -1034.6968    271889.26   -79202.839    6927.1582   -86129.997    1946.6099 
   35300    275.19529   -877.43156     271759.8    -79177.77    6975.8729   -86153.643    1948.1038 
   35350     277.2261   -941.08192    271861.37   -79160.067    7027.3515   -86187.418     1951.379 
   35400    274.66572   -1220.3335    272197.95   -79190.572    6962.4487   -86153.021    1955.4285 
   35450    272.03161   -1114.6868    272256.17   -79167.021    6895.6772   -86062.698    1954.2871 
   35500    275.22517   -957.80125    271933.52   -79148.623    6976.6301   -86125.253    1953.8694 
   35550    278.45956   -1000.8531    271525.21   -79195.534     7058.618   -86254.152    1956.0871 
   35600    273.41413    -781.2302    271418.36   -79116.989    6930.7225   -86047.712    1959.0389 
   35650    273.94808   -991.48453    272021.92   -79102.993    6944.2574   -86047.251    1964.0442 
   35700    277.95194   -1182.9962    272729.54    -79139.42    7045.7505    -86185.17    1971.6742 
   35750    277.51453   -1137.9844    272666.51   -79138.855    7034.6628   -86173.518    1973.4375 
   35800    272.05355   -841.21715    271986.38   -79161.129    6896.2334   -86057.363    1971.3177 
   35850    278.70063   -837.78154    271528.78   -79145.494     7064.729   -86210.223    1972.9948 
   35900    275.06855   -903.13185    271475.96    -79143.04      6972.66     -86115.7    1977.0868 
   35950    277.56127   -1121.1213    271754.89   -79150.859    7035.8476   -86186.706    1983.6447 
   36000     273.9431   -1226.2131    272031.13   -79173.704    6944.1313   -86117.836    1988.1654 
   36050    276.02356   -1034.7998    271870.74   -79208.959    6996.8684   -86205.827    1988.9495 
   36100    278.85523   -1124.2214    271619.89   -79178.275    7068.6478   -86246.923    1989.8223 
   36150    277.79431   -947.17962     271428.5   -79182.013    7041.7549   -86223.768    1991.6248 
   36200    273.24483     -791.735    271679.84   -79173.067     6926.431   -86099.498    1995.2766 
   36250    272.76587   -1312.3699    272344.09   -79147.823    6914.2898   -86062.113    1998.4929 
   36300    273.52983   -1217.0993    272486.61    -79191.09    6933.6552   -86124.745    2002.9177 
   36350    276.29599   -912.63049    272319.35   -79122.106    7003.7742    -86125.88    2003.8847 
   36400    274.28814   -951.06577    271989.76     -79176.4    6952.8777   -86129.278     2005.939 
   36450     277.1478   -734.35053    271711.47   -79153.614    7025.3667    -86178.98    2006.8791 
   36500     274.4471   -1124.4734    271824.19   -79153.562    6956.9071   -86110.469    2008.9756 
   36550     276.4838   -953.69615    271673.84   -79127.149    7008.5351   -86135.684    2009.9159 
   36600    276.07856   -937.39284     271623.2    -79107.47    6998.2626   -86105.733    2013.7179 
   36650    275.11878   -720.89435     271732.1    -79128.49    6973.9334   -86102.423    2015.7493 
   36700    269.45301   -1022.5363    272217.04   -79109.091    6830.3128   -85939.403    2022.8456 
   36750     271.6912   -1098.8732    272393.58   -79131.617    6887.0484   -86018.665    2029.4041 
   36800    278.35177   -1202.0955    272261.64   -79091.826    7055.8857   -86147.712     2029.591 
   36850    276.67666   -1070.8107    271868.11   -79105.197    7013.4238   -86118.621     2030.089 
   36900    277.14034   -917.60494    271333.71   -79127.752    7025.1774   -86152.929    2029.8299 
   36950    276.38421   -837.95979    271339.05   -79164.274    7006.0104   -86170.284    2031.9602 
   37000    274.39367   -1004.7568    271805.15   -79179.653    6955.5527   -86135.206    2037.9242 
   37050    273.65872   -1238.6669    272127.87   -79183.463    6936.9225   -86120.386    2042.0441 
   37100    276.03716   -1175.5505    272128.53   -79139.142    6997.2131   -86136.355    2046.3381 
   37150    277.30772   -1100.1401    271811.79   -79153.663    7029.4204   -86183.084    2046.3746 
   37200    273.33908   -705.42707    271509.39   -79167.503      6928.82   -86096.323    2048.2443 
   37250    269.31498   -870.68718       271702   -79157.317    6826.8139   -85984.131    2053.1263 
   37300    274.34382   -856.69746     271865.3   -79170.623     6954.289   -86124.912    2056.4017 
   37350      273.679    -978.4856    272291.65   -79159.602    6937.4365   -86097.039    2062.6104 
   37400    275.58806   -1013.8047    272412.27   -79147.326    6985.8291   -86133.155    2066.8532 
   37450    273.61144   -1180.3037    272253.65   -79143.707    6935.7241   -86079.431    2073.0599 
   37500    275.29983   -963.72047    271970.99   -79152.236    6978.5226   -86130.759    2075.4961 
   37550     276.9729   -995.33196    271824.98   -79145.631    7020.9331   -86166.564    2077.7216 
   37600     274.9706   -1019.2816    271877.37   -79157.675    6970.1771   -86127.852    2085.0368 
   37650    275.91146   -919.41562    272004.93   -79153.105    6994.0267   -86147.132    2088.0688 
[...]
   90850    279.49182   -948.58693    272375.64   -78983.794    7084.7847   -86068.579    4955.2285 
   90900    279.66762   -1086.5472    272379.02   -78983.805    7089.2411   -86073.046    4951.9463 
   90950     276.2047   -786.14414    272241.83   -79020.611    7001.4601   -86022.071    4948.0266 
   91000    278.91569   -1088.6708    272255.19   -78997.032    7070.1804   -86067.213    4953.5239 
   91050    276.63628   -869.47089    272431.85   -79028.862    7012.4002   -86041.262    4955.8898 
   91100    277.99109   -1020.7232    272496.29   -78981.704    7046.7429   -86028.447    4959.5868 
   91150    278.33333   -1186.8382    272501.91   -78995.257    7055.4184   -86050.675    4961.9039 
   91200    282.29097   -1054.0289    272231.33   -79027.737    7155.7399   -86183.477    4962.0651 
   91250     277.2513   -845.76569    271809.61   -79050.322    7027.9902   -86078.313    4960.5059 
   91300    278.32957   -1033.3541       271565   -79053.966     7055.323   -86109.289    4962.1423 
   91350    280.42853   -926.45812    271426.28   -79067.579    7108.5292   -86176.108    4960.7324 
   91400    279.86942   -836.25778    271737.24   -79102.646    7094.3563   -86197.003    4967.4202 
   91450    272.10562   -1040.6224    272308.36   -79111.825    6897.5533   -86009.378    4977.0603 
   91500    275.01454   -1099.1386    272649.47   -79111.263    6971.2911   -86082.554    4983.2411 
   91550    274.67058   -1063.5494    272478.67   -79099.864    6962.5721   -86062.436    4983.8168 
   91600    274.51718   -1176.7558    272015.38   -79128.552    6958.6834   -86087.235    4982.3534 
   91650    274.92424   -842.55025    271384.48   -79185.938     6969.002    -86154.94    4976.3168 
   91700    277.12672    -894.7782    271325.08   -79204.557    7024.8322    -86229.39    4977.5553 
   91750    275.07625   -958.37915    271636.21   -79150.994    6972.8553    -86123.85    4981.5261 
   91800    272.37065   -1114.3569    272282.81   -79143.729    6904.2714       -86048    4992.5768 
   91850    274.68556   -1249.7938    272947.59   -79161.251    6962.9517   -86124.202    5003.7315 
   91900    276.46816   -1325.8831    273134.76   -79138.967    7008.1385   -86147.105    5010.2866 
   91950    272.15384   -1100.2302    272318.89   -79195.203    6898.7756   -86093.979    5000.8722 
   92000    275.27726   -950.19821     271415.2   -79177.898    6977.9507   -86155.848    4991.5975 
   92050    277.96154   -820.77742    270754.55   -79235.195    7045.9938   -86281.189    4989.0091 
   92100    276.93448   -545.40733    270713.58   -79179.543    7019.9592   -86199.502    4990.1376 
   92150    274.84992   -958.32593    271411.43   -79176.583     6967.118   -86143.701    5001.5712 
   92200    273.53418   -1077.1332    272349.88   -79151.101    6933.7657   -86084.866    5013.4072 
   92250    275.35407    -1305.951    272755.93   -79119.197    6979.8977   -86099.095    5020.5985 
   92300    274.87411   -1019.1062    272386.22   -79130.969    6967.7311   -86098.701    5020.0123 
   92350    278.26663   -945.69381    271880.17   -79150.111    7053.7275   -86203.839    5015.3506 
   92400    274.38963   -820.31405    271664.74   -79152.546    6955.4501   -86107.997    5014.7383 
   92450    276.62956   -928.67247    271699.33   -79142.302    7012.2297   -86154.532    5020.1948 
   92500    274.15012   -968.18567    271841.81   -79163.574    6949.3789   -86112.953    5027.1182 
   92550    277.67594   -963.63025    271928.61   -79171.863    7038.7542   -86210.617    5035.0533 
   92600    271.76762   -1030.6799    271999.79   -79204.397    6888.9855   -86093.382    5037.5003 
   92650    273.74993    -1335.309     271895.3   -79192.213    6939.2346   -86131.448    5038.9234 
   92700    271.90481   -914.32104    271542.22    -79188.75    6892.4631   -86081.213     5038.024 
   92750    273.38721   -907.10216    271534.28   -79246.603    6930.0401   -86176.643     5043.741 
   92800     273.7642   -1025.2425    271629.69   -79238.933    6939.5964   -86178.529    5050.7114 
   92850    274.94581   -1023.4497     271629.8   -79218.543    6969.5486   -86188.091    5052.3129 
   92900    275.77434   -926.05715    271681.88   -79228.208    6990.5511   -86218.759    5056.2223 
   92950     277.6038   -972.89257     271821.1   -79215.869    7036.9255   -86252.794    5061.8123 
   93000    273.81782   -807.95885    271811.31   -79181.335    6940.9556   -86122.291    5062.0825 
   93050    271.57151   -1132.8869    271947.76   -79152.883    6884.0141   -86036.897    5064.7491 
   93100    276.96929   -948.47951    271801.79   -79114.537    7020.8415   -86135.379    5067.5205 
   93150    275.05997   -966.87357    271707.32   -79128.174    6972.4426   -86100.616    5066.0469 
   93200    274.43869   -960.75608    271769.57   -79099.403    6956.6938   -86056.097    5067.2739 
   93250     275.7295   -1069.0976    271812.18   -79073.359    6989.4143   -86062.774    5071.3692 
   93300    273.49182   -920.31321    271811.53   -79097.092    6932.6918   -86029.784    5074.5243 
   93350    277.84479   -1006.5537    271785.44   -79147.544    7043.0345   -86190.579    5077.8276 
   93400    274.60537   -652.05442     271601.9   -79155.979    6960.9191   -86116.898    5078.9744 
   93450     274.4104   -1120.3994    271793.61   -79147.173    6955.9766   -86103.149    5086.6877 
   93500    278.95758   -1021.6394    272027.09   -79135.464    7071.2422   -86206.706    5091.0571 
   93550    272.98412   -994.41324    272224.12   -79123.151    6919.8221   -86042.973    5099.1107 
   93600    276.06695   -1310.7963    272335.25   -79086.204    6997.9682   -86084.172    5101.7251 
   93650    278.86731   -1100.4003    272148.92   -79103.376     7068.954    -86172.33    5100.3563 
   93700    272.00027    -984.9659    271812.45   -79095.184    6894.8829   -85990.067    5099.9539 
   93750    280.62343   -1039.9401    271666.31   -79090.612    7113.4696   -86204.081    5100.5052 
   93800    280.38715   -1116.6942    271735.19   -79091.917    7107.4802   -86199.397    5102.0495 
   93850    279.19673   -1045.8208    271909.31   -79096.356    7077.3045   -86173.661    5106.1881 
   93900    275.32281   -1131.4824    272090.79    -79084.36    6979.1052   -86063.465    5112.3129 
   93950    276.71163   -1036.6962    272051.31   -79081.167    7014.3102   -86095.477    5114.4821 
   94000    271.28864   -928.74512    271946.68   -79064.463    6876.8438   -85941.307    5113.8924 
   94050    278.96901   -837.02236    271750.92   -79036.801     7071.532   -86108.333    5114.5567 
   94100     278.9154   -1005.6731    271879.85   -79052.859     7070.173   -86123.032    5118.4983 
   94150    280.29748   -994.61642    272180.88   -79042.788    7105.2072   -86147.995    5122.1105 
   94200    281.09225   -1058.7301    272506.73   -79038.653    7125.3536   -86164.006     5124.301 
   94250    275.49758   -1120.5615    272641.34   -79014.146    6983.5355   -85997.681    5128.3423 
   94300    278.63287   -1177.3391    272259.65   -78999.613    7063.0113   -86062.624    5126.6251 
   94350    275.91052   -951.67294    271592.72   -79022.363    6994.0029   -86016.366    5123.1951 
   94400    282.02484   -1007.8457    271465.88    -79045.65    7148.9937   -86194.643    5122.5289 
   94450    275.48693   -970.35102    271801.07   -79037.836    6983.2654   -86021.101    5131.3503 
   94500    280.97822   -1015.6724    272230.43   -79018.177     7122.463    -86140.64    5138.1707 
   94550    274.01853   -1097.5731    272329.54   -79048.268    6946.0434   -85994.311    5140.2443 
   94600    277.35072   -874.99082    272181.15    -79034.46    7030.5103    -86064.97    5141.4906 
   94650    278.26067   -1131.8386    272099.72   -79006.262    7053.5766   -86059.838    5142.8904 
   94700    277.04702   -975.03774    271947.62   -78962.047    7022.8119   -85984.859    5145.0324 
   94750    277.40186   -1007.4354    271944.38   -79013.794    7031.8066   -86045.601    5146.1639 
   94800    277.61384   -929.97603    272120.78    -79016.75      7037.18    -86053.93    5149.9247 
   94850    277.55714   -1104.0472     272387.2   -79020.152    7035.7429   -86055.895    5155.8565 
   94900    278.33259   -1306.1661    272559.24   -79017.469    7055.3997   -86072.869    5159.5669 
   94950    279.60534    -1033.546    272291.23   -79062.211    7087.6622   -86149.874    5160.2782 
   95000    277.72168   -972.17168    272263.48   -79069.134    7039.9138   -86109.048    5162.6377 
   95050    275.91938    -895.2196    272253.92   -79032.542    6994.2277    -86026.77    5162.7699 
   95100    277.43603    -1100.816     272006.2   -79054.647    7032.6729    -86087.32    5159.9115 
   95150    273.83049   -654.16513    271625.98   -79073.491    6941.2768   -86014.768    5159.9732 
   95200    279.87563   -849.54541     271704.1   -79081.025    7094.5138   -86175.538    5163.2291 
   95250     280.6657   -1073.2138    272377.68   -79062.588     7114.541   -86177.129    5172.6876 
   95300    279.18255   -1424.9838    272943.54   -79096.997    7076.9451   -86173.942    5181.8092 
   95350    274.46351   -1146.2255    272641.65    -79112.46     6957.323   -86069.783    5177.5222 
   95400     278.7127   -990.18433    271939.67   -79078.649    7065.0349   -86143.684    5170.2168 
   95450    276.76676   -786.05579    271620.99   -79098.982    7015.7076    -86114.69    5167.2236 
   95500     277.4738   -975.49619    271715.57   -79092.045    7033.6303   -86125.675    5171.5685 
   95550    276.42727   -969.07408    271965.44   -79097.808    7007.1019    -86104.91    5177.8362 
   95600    272.94747   -1030.9733    272167.62   -79097.442    6918.8931   -86016.335    5182.2996 
   95650    275.13001    -1083.072    272036.22   -79132.015    6974.2179   -86106.233    5181.3078 
   95700    276.68231   -964.44997    271692.61   -79119.563    7013.5669    -86133.13    5176.7482 
   95750    273.31382   -660.87937    271365.98   -79118.592    6928.1798   -86046.772    5175.9275 
   95800    277.46923   -1159.2488    271593.45   -79143.259    7033.5145   -86176.774    5181.7683 
   95850    273.69506   -1085.9835    271918.82   -79127.742    6937.8437   -86065.586    5187.4995 
   95900    276.10926   -940.67827    272323.41   -79126.587    6999.0409   -86125.628    5195.3943 
   95950     278.3906   -991.66273    272589.92   -79116.621    7056.8701   -86173.491    5200.9109 
   96000    277.74354   -1079.1733    272472.83    -79120.83     7040.468   -86161.298    5204.8852 
   96050    276.77534   -987.87136     272238.4   -79106.567    7015.9252   -86122.492    5203.1245 
   96100    277.41561   -891.40071    272006.85   -79044.025    7032.1551    -86076.18    5203.6422 
   96150    275.24836   -1118.6744    272065.53   -79065.663    6977.2181   -86042.881    5209.7955 
   96200    284.33784    -1065.646    272138.03   -79029.198    7207.6254   -86236.824     5213.283 
   96250     282.2735   -963.42297    272157.26   -79027.691    7155.2969   -86182.987    5221.1497 
   96300     278.1989     -946.499    272141.52   -79026.654    7052.0107   -86078.664    5225.6419 
   96350    275.21406   -815.54662    272126.67    -79027.96    6976.3486   -86004.309    5226.7287 
   96400    277.88658   -1146.3245    272260.38   -79061.335    7044.0938   -86105.429     5231.407 
   96450    281.31586   -974.18494    272432.46   -79028.319    7131.0219   -86159.341     5233.508 
   96500    276.57561   -1070.2934    272624.63   -79022.336    7010.8622   -86033.198    5236.2385 
   96550    277.78652   -957.23597    272623.19   -79009.585    7041.5574   -86051.143    5240.9121 
   96600    274.47172   -862.60552    272425.33   -79010.144    6957.5312   -85967.675    5243.9699 
   96650    278.01041   -939.44039    272153.77   -79058.584    7047.2327   -86105.817    5243.8795 
   96700    278.29034   -1022.8593    271918.62   -79063.861    7054.3285    -86118.19    5243.8334 
   96750     276.2009   -822.28398    271736.62   -79054.344    7001.3638   -86055.707     5247.097 
   96800    278.69931   -1090.5616    271980.42   -79050.477    7064.6955   -86115.173    5252.8204 
   96850    276.76264   -935.03142    272390.17    -79083.89    7015.6032   -86099.494    5260.3291 
   96900    274.77237   -1032.6107    272768.76   -79029.665    6965.1523   -85994.817    5268.4669 
   96950    269.72775   -808.84754    272633.92   -79041.349    6837.2771   -85878.626    5273.0696 
   97000    276.56662   -1160.6774    272283.78   -79063.213    7010.6344   -86073.847    5272.7493 
   97050    275.96352   -729.77195    271558.38   -79059.808    6995.3464   -86055.154    5268.4393 
   97100    278.15046   -942.36073    271444.84   -79103.926    7050.7827   -86154.708    5275.4281 
   97150    277.88839   -1170.3843    271891.37   -79099.184    7044.1395   -86143.324    5285.4005 
   97200     275.7211   -884.75983     272186.4   -79085.678    6989.2014    -86074.88    5293.7311 
   97250    274.12863   -1278.3298    272597.28   -79085.853    6948.8342   -86034.687    5302.1094 
   97300    274.57332   -1186.3493    272719.68   -79110.632    6960.1066   -86070.739    5306.7319 
   97350    274.14879   -1068.7385    272237.16   -79136.076    6949.3451   -86085.421    5300.9747 
   97400    272.52799   -985.81872     271554.7   -79161.781      6908.26   -86070.041    5294.6548 
   97450    278.61268    -1105.336    271334.76   -79182.203    7062.4994   -86244.702    5292.5143 
   97500    272.46125   -724.93211    271216.73    -79191.21    6906.5682   -86097.778    5293.4366 
   97550    274.36294   -923.00048    271540.47   -79156.005    6954.7736   -86110.779    5298.5605 
   97600    275.57414   -1080.1594    272090.81   -79123.172     6985.476   -86108.648    5307.0712 
   97650    276.01384   -1079.8945    272247.78    -79106.52    6996.6219   -86103.142    5313.6994 
   97700     274.3933   -1037.1964    272157.19   -79107.476    6955.5432   -86063.019    5317.7089 
   97750    274.17104   -866.76135    272056.66   -79110.007    6949.9092   -86059.916    5316.9239 
   97800    271.93128   -1142.7754    272152.85   -79138.014    6893.1339   -86031.148    5318.6394 
   97850    274.61786   -1008.0343     271988.1   -79167.314    6961.2357   -86128.549     5317.825 
   97900    278.77889   -1207.2851    271712.98   -79217.082    7066.7126   -86283.795     5316.699 
   97950    275.72359   -917.54348    271389.91    -79183.01    6989.2645   -86172.275    5316.9685 
   98000    274.89142   -824.00885     271365.2   -79205.569    6968.1701   -86173.739    5318.6738 
   98050    271.36927   -964.64863    271755.85    -79195.43    6878.8876   -86074.317    5325.5579 
   98100    269.63716   -1138.6564    272136.58   -79202.015    6834.9809   -86036.996    5332.9307 
   98150    271.02092   -1231.1625     272415.9   -79202.063    6870.0574   -86072.121    5338.8518 
   98200    269.55755   -1143.0803    272345.62   -79220.588    6832.9627    -86053.55    5338.8461 
   98250    277.33947    -963.5997    271784.36   -79224.245    7030.2251    -86254.47    5333.4339 
   98300    274.79768   -897.66634     271319.1   -79265.836    6965.7938    -86231.63    5332.0544 
   98350    276.31771   -860.81394     271359.6   -79276.638    7004.3248   -86280.963    5337.7869 
   98400    275.36588   -825.40705    271902.61   -79236.133     6980.197    -86216.33    5344.3626 
   98450    270.90926   -1235.2911    272531.15   -79191.652    6867.2269   -86058.879    5351.8129 
   98500     267.2713   -1232.1142    272657.57   -79198.801     6775.009    -85973.81    5356.7264 
   98550     273.0715   -1175.9992     272093.4   -79233.328    6922.0371   -86155.365    5356.6705 
   98600    275.30533   -961.93921    271241.31   -79253.768    6978.6621    -86232.43    5350.4189 
   98650    274.05556   -916.05688    270834.04   -79255.399    6946.9818   -86202.381    5349.3454 
   98700    275.11885   -895.82338    270993.23   -79246.745    6973.9351    -86220.68    5352.0777 
   98750    273.60707   -736.23878    271616.48   -79229.135    6935.6133   -86164.749    5362.0498 
   98800    277.12153   -1153.0547    272727.91   -79213.359    7024.7007   -86238.059    5378.2399 
   98850     270.1863   -1199.8239     273189.7   -79185.834    6848.9008   -86034.735    5386.7148 
   98900    269.26852   -1076.7832    272826.28   -79192.484    6825.6362    -86018.12    5382.1313 
   98950    274.71306   -1136.9795    272035.02   -79186.001    6963.6488    -86149.65    5375.9788 
   99000    276.08227   -759.76834    271390.22   -79172.645    6998.3566   -86171.002     5367.835 
   99050    283.50791    -1044.452    271472.44    -79185.06    7186.5878   -86371.648    5368.6095 
   99100    274.42652   -1064.4244    271883.28    -79185.86    6956.3853   -86142.246    5378.1444 
   99150    275.71651   -943.60635    272168.89   -79187.431    6989.0849   -86176.516    5382.5889 
   99200     274.9946   -1150.9052    272079.17   -79200.001    6970.7855   -86170.787    5380.2563 
   99250    276.35576   -1075.1544     271795.6   -79232.423    7005.2893   -86237.712    5378.1131 
   99300    274.79032   -1075.9876    271754.93   -79267.626    6965.6073   -86233.233    5377.1159 
   99350    272.01182   -1023.8752     271605.3   -79285.321    6895.1757   -86180.497    5375.5182 
   99400    270.64212   -736.98666    271581.69   -79263.044    6860.4552   -86123.499    5375.2627 
   99450     270.5659   -1150.2046    271666.89   -79259.455    6858.5233   -86117.979    5376.7073 
   99500    270.70341   -870.17248    271450.71   -79287.416    6862.0091   -86149.425    5377.8267 
   99550     274.5449   -891.72813    271635.66   -79240.613     6959.386   -86199.999    5380.3054 
   99600    271.85726   -1168.1326    272075.85   -79237.692    6891.2578   -86128.949    5391.4625 
   99650    276.68013   -895.47358    272076.65   -79237.267    7013.5116   -86250.779     5395.376 
   99700    272.96493   -828.29331    272016.11   -79231.953    6919.3358   -86151.289    5398.4572 
   99750     269.3808   -1027.0138     272184.2   -79230.648    6828.4823    -86059.13    5402.1513 
   99800    271.51902   -852.77618    271887.58   -79229.795    6882.6837   -86112.479    5401.8613 
   99850    275.51618   -586.71931    271590.66   -79222.019    6984.0068   -86206.026    5399.3665 
   99900     272.1689    -861.0021    271766.99   -79233.525    6899.1573   -86132.683    5404.9022 
   99950    276.92473   -829.31146    271873.01   -79218.571    7019.7119   -86238.283    5409.8405 
  100000    277.07421   -1203.8402    272020.83   -79182.126     7023.501   -86205.627    5413.0047 
Loop time of 342.856 on 6 procs for 100000 steps with 8505 atoms

Performance: 252.001 ns/day, 0.095 hours/ns, 291.668 timesteps/s
99.6% CPU use with 6 MPI tasks x no OpenMP threads

MPI task timing breakdown:
Section |  min time  |  avg time  |  max time  |%varavg| %total
---------------------------------------------------------------
Pair    | 162.96     | 223.94     | 287.88     | 320.4 | 65.32
Neigh   | 36.204     | 38.388     | 40.989     |  30.5 | 11.20
Comm    | 7.7772     | 74.349     | 137.55     | 578.0 | 21.69
Output  | 0.13362    | 0.13608    | 0.14431    |   1.0 |  0.04
Modify  | 4.9431     | 4.9877     | 5.0242     |   1.2 |  1.45
Other   |            | 1.053      |            |       |  0.31

Nlocal:        1417.50 ave        1510 max        1368 min
Histogram: 1 2 1 0 1 0 0 0 0 1
Nghost:        2149.83 ave        2217 max        2091 min
Histogram: 1 0 1 1 1 0 0 1 0 1
Neighs:        0.00000 ave           0 max           0 min
Histogram: 6 0 0 0 0 0 0 0 0 0
FullNghs:      44433.3 ave       47085 max       42503 min
Histogram: 2 0 0 1 0 2 0 0 0 1

Total # of neighbors = 266600
Ave neighs/atom = 31.346267
Neighbor list builds = 20548
Dangerous builds = 0

# Create data file for import to other simulations
#
write_data data.${NAME}
write_data data.coexist_275K_-1000atm_mW
System init for write_data ...

Total wall time: 0:05:42
