LAMMPS data file via write_data, version 29 Oct 2020, timestep = 200000

4608 atoms
1 atom types

-0.31493243336487353 53.714932433361874 xlo xhi
0.19045103834555022 50.71666896165591 ylo yhi
0.19045103834555022 50.71666896165591 zlo zhi

Masses

1 18.015

Atoms # atomic

3032 1 2.8322107076977847 3.9527473910978945 5.8568647256861635 1 -1 0
2646 1 -0.10468336582167467 28.884284813937093 16.05131308886714 0 0 1
2513 1 7.973050396287132 5.083140150967668 2.824864618751915 1 1 0
2694 1 9.67001091875966 2.3503367287915014 3.1551631222788568 0 1 1
818 1 0.05283407591113837 4.11169956221074 5.894264595229272 -1 0 0
978 1 17.030753169623917 45.44760082343663 3.4564022723023715 -1 0 1
3155 1 1.8493218079914988 11.58960151177044 20.5449764127247 1 0 0
1158 1 7.95547344583191 0.745966847094279 1.3328576093431543 0 0 0
172 1 1.772810031371236 4.421231660718056 1.3346088207792621 1 0 0
2422 1 2.7047134465369935 6.400043276696986 4.007002253372573 1 0 2
406 1 12.194305934547057 2.408385211669596 1.9988100325833715 0 1 0
913 1 15.399921125316444 5.350842340520922 2.4964697950542134 0 0 1
608 1 4.465716301165692 4.976465391964761 1.2492151779423653 0 0 1
4548 1 2.4561295955104994 7.938110665042304 6.310049224642421 2 1 1
710 1 3.9750883258222567 10.883673263076563 5.785665011399644 1 2 0
3216 1 5.752388850840524 9.03056893124715 2.2067595800797495 1 0 0
3235 1 10.42912061545609 6.335351793592417 1.5338059517519294 0 0 0
2054 1 12.427443918476236 4.7980273402821645 3.3204409664263093 1 -1 0
270 1 17.684979408738897 17.794440538088313 7.297825980504244 -1 1 1
3552 1 1.607770435258394 35.889410330435865 6.990946759665963 0 0 0
714 1 3.9419514229303143 13.623355737293707 6.075363607459585 0 -1 0
192 1 3.9637108410097186 13.535028283663571 1.5272420159806928 1 1 0
4002 1 14.313936205330286 47.73154830182921 1.0585857337301423 0 0 1
2631 1 0.33422015727897536 36.13940568156857 9.915658038934055 0 0 0
3770 1 1.7109033542367045 16.604019044696702 16.720647072103848 0 0 -1
3541 1 3.9922754026519893 11.172384443727685 2.8908535987177904 0 1 0
2 1 1.220069568729379 17.416852839146916 24.339471952475773 0 1 1
2112 1 5.759776860988828 16.55930879958509 5.0619376133296505 0 0 0
2240 1 6.6875874311883035 13.729786196988838 0.47006810322530607 0 0 1
1878 1 15.132995061643927 11.197138653149544 1.5398873371078086 0 0 0
1227 1 10.118813464247465 35.73835118418866 0.3069052722796465 0 0 -1
151 1 6.057197707110373 16.956583567316518 0.3219637025550359 0 -1 -1
2587 1 0.6227832914737644 38.85709968599646 23.418990203810843 0 -1 0
3695 1 5.027224530328817 17.836506412727193 7.430386790701213 1 -1 0
1322 1 8.455465477898745 17.91584675020995 4.029192828317716 -1 0 0
1567 1 12.171822090449911 14.253684908041391 3.3126305471974837 0 0 0
3696 1 13.374915500808367 18.60998418501529 1.8897758863140965 2 0 0
1281 1 2.304631261003472 48.78188268622926 24.28497279873153 0 -1 0
1832 1 5.514806712676905 22.25096355405592 1.9942710424997254 1 1 -1
2962 1 4.043606848991527 28.742814471256473 18.120020601685507 0 0 0
1052 1 8.412914099913005 21.287786591577163 3.5219564698532877 -1 0 1
497 1 16.93991442036107 35.16401572413041 18.17658997107105 0 0 -1
3761 1 -0.20179885425724986 44.882115401037126 12.33550022072789 0 -1 0
705 1 1.57605814987483 18.715014628021517 13.731443839161416 1 -1 -1
2847 1 0.6255407562476498 31.246881313899713 14.680888573830366 0 -1 0
901 1 13.50603909137329 29.228860627802543 1.5696684987498444 -1 0 0
2169 1 4.131244067154188 24.99310518885159 2.631876090204261 1 -1 0
4568 1 7.943723192986591 19.437332246126342 1.2289277069305273 1 -1 1
4113 1 10.991122852174609 25.104835883138644 2.8203773908664815 1 0 1
2520 1 15.929046713103613 23.921767628077845 6.778999804458294 1 0 1
641 1 -0.1149738420797009 6.173011116296694 7.99968913437362 1 0 0
859 1 2.57581152038745 24.839432314627114 0.48102302608852227 0 0 1
4181 1 13.756705670642617 29.254636377893974 5.817923041574345 0 0 1
3525 1 0.5870381879735843 50.246030170064294 10.660391906648645 1 -1 0
1327 1 2.954808805996477 39.14665677422853 2.7729360364560796 -1 -1 1
1796 1 4.2919247896464565 27.789932046153606 1.7457819289642773 1 -1 0
3046 1 0.615905661251832 30.54410668826869 8.124828964348094 1 -1 0
1349 1 10.370993370949309 28.76122026179753 2.328284620541793 0 -1 2
4219 1 11.882975942673955 31.560040257806996 2.4828385069012833 0 1 1
8 1 15.276246569975896 21.06602802194112 5.718491531653963 0 -1 0
4292 1 2.6596160078053876 16.028427019317643 12.283108614044691 1 -1 0
2118 1 2.0444253108967545 24.052200008114355 6.553459648015565 0 0 0
2853 1 3.9475356829655635 32.36436620893664 3.774718751214441 0 0 1
3319 1 2.2204125384689366 21.77026995147943 0.6694082566159466 1 -1 0
2522 1 1.068431124389429 35.19130856594379 0.8885282267366347 1 1 2
1204 1 13.064822010683635 34.13000742179897 5.336373634398519 -1 -2 0
4600 1 16.51227405028932 35.01450133908609 3.262747547276423 0 -1 1
1959 1 4.616298631916771 42.48695638579226 1.1032071661006082 1 0 0
4364 1 3.350781592786374 35.18464268006579 4.829545156109871 2 1 1
4442 1 0.6769235998534908 28.017098800582115 11.945066908553867 1 0 1
202 1 4.376721929018434 38.60335604870003 4.951363511782033 0 -1 0
2304 1 7.0140430314396385 36.536231475384646 6.763529574199953 0 0 0
1512 1 6.83991210615443 36.04795744385165 2.785778509546219 0 0 2
1452 1 9.46753823634188 35.120524652551595 2.7161144602264238 -1 0 2
2918 1 9.802560679236608 42.355671230298846 3.5767541077790175 0 -1 1
320 1 0.16997596868536713 28.38262385522289 20.117201552007064 -1 0 0
2444 1 11.009579580570042 38.98096417163202 3.0227580640656115 0 2 1
2499 1 1.1125517757753185 44.56537490942114 3.2437069556638254 2 0 0
2545 1 1.9342844041438556 36.716610531881074 3.1081166474547626 0 -1 1
1606 1 7.749407725415514 41.04764544984263 2.464465577869754 0 1 0
4340 1 9.16767528235768 45.36172979852866 2.1537194917170357 0 -1 1
1899 1 12.268365684973817 41.23684571330735 2.072941356835732 0 -1 0
4101 1 5.784159478424052 34.806345805178815 0.9154813278325691 1 -1 0
3752 1 12.92305402938642 14.470744240770149 23.30037999674533 1 1 0
3286 1 1.8203101603697789 16.29085477396266 0.7662249215476064 1 1 1
1683 1 6.738831210277417 47.904462954158625 4.686103124228244 0 1 0
180 1 9.584828561547795 48.023751328917676 3.228455355456411 0 -1 -1
1381 1 17.231741341246178 16.992185862773052 10.723546072318118 0 -1 1
4491 1 1.0589662165503813 16.188258224442134 20.14713782407032 1 0 0
2214 1 -0.09609303967662239 40.03078976289725 15.916574602479368 0 -1 1
1774 1 4.151844552054073 39.51686425695874 0.7141634874575139 0 -2 0
2022 1 1.5547848484998628 49.03640141361147 5.078007319910557 1 0 0
3490 1 2.4607406478854696 1.0024544040151846 4.482155760702689 0 1 -2
780 1 0.9408753465592918 41.0136622168567 3.2093858964896547 0 0 0
3015 1 10.926693854198376 2.665508969106479 6.3036806651446335 0 -1 0
4448 1 14.498869413376152 48.32722866357269 3.4366061583619425 1 -1 1
3188 1 1.0497426519228592 10.498496318310231 6.878315080284924 2 0 0
3734 1 16.722733735169182 23.99247782528277 20.205778629136436 0 0 0
4464 1 0.4975391799107086 0.9093208395313357 23.355600341138537 1 0 0
4602 1 5.187416434309855 1.5323473267042234 4.906078596088392 1 0 0
2830 1 11.271844302286622 48.960500076707945 6.035402909574 0 0 0
1484 1 15.711303618395775 0.872293043735942 7.409482382456106 1 1 0
316 1 11.3137135655361 23.174447213712348 24.869998664501864 0 0 0
847 1 4.499060351371861 4.405907565662815 8.233268851156483 1 1 1
3908 1 5.362379963172199 6.659904703892886 3.7600695527458594 0 0 0
3256 1 6.322102833679846 4.3013566747330625 5.526726824608262 1 1 0
2478 1 9.149755875279707 4.546847618601323 6.119334777375359 0 1 1
2860 1 14.424176054007438 1.320092830892716 4.8496006802688445 0 -1 0
2477 1 0.13276905704469527 30.811315064735545 18.59985513391565 2 0 0
3686 1 17.527628607952106 40.6350636586794 23.908453178974227 -1 2 0
4580 1 2.578507178296359 7.047143942701779 8.859008545610923 0 0 1
998 1 6.187524012992946 8.904609291216843 5.863012865730203 1 0 1
2129 1 8.482849570731322 9.106134216036832 4.891357023918165 0 0 0
1492 1 10.156387955460293 6.804850626377553 4.851733979657728 -1 0 -1
3509 1 12.64445622795139 11.287161127097205 2.2582203654468267 0 0 0
3554 1 9.243030678178252 1.5571326429017913 23.805373923266743 0 -1 0
4283 1 -0.2874838806182578 42.787929375968204 7.230582516586091 1 0 1
2912 1 0.3176777516684134 9.718195350558508 9.416520855077383 0 1 1
2481 1 8.401454717674646 9.427074134333274 2.0617081668643915 0 1 0
2058 1 9.591730179571698 11.352376839694458 6.478338531108845 2 0 0
1147 1 12.090381755613283 10.184885883134553 4.969874322265218 0 0 1
3119 1 16.384345405128485 12.111707470739141 4.077050469273448 0 1 0
3324 1 0.12130859286080348 46.14090803001686 23.393009199178085 1 -1 1
2741 1 3.9140194517242097 15.414373449531457 3.777170191841739 1 0 0
146 1 1.3338839249882042 10.61492895725571 2.025632924412135 1 1 0
2051 1 15.672762164551235 18.183484774884697 22.86501575633779 0 2 0
3301 1 13.693898325497308 11.393079209704029 7.070812752091923 1 0 1
2155 1 8.70449141871016 12.146755823155893 1.739178591649576 1 -1 0
1309 1 9.777123530710496 12.970729089171147 3.833904532337955 -2 0 2
2649 1 16.44157426059332 9.661881173300946 8.355246946517441 0 1 1
296 1 0.10424708562124979 15.413799649290958 2.536917345735139 -1 1 0
241 1 15.803018239006295 31.0876664234775 0.7230328445824766 0 0 0
1621 1 2.257200353171789 16.741910386246886 7.587329480146029 1 -1 0
1371 1 6.943761285055091 16.461748072644372 9.076307279436195 0 1 0
2263 1 11.248858452460091 17.09004535503316 3.1037502899502365 0 0 -1
3334 1 16.478134089430295 16.83703419772462 4.277273416683359 1 0 0
1721 1 12.721842237333515 14.328736076243489 0.5400159560530065 0 -1 1
1377 1 1.3137750861617232 18.709668318059975 5.096383825267541 -1 0 1
797 1 3.098227003399633 20.294670616884595 3.0266648298859287 0 0 1
3985 1 10.919068592876066 21.966291574885894 6.270885744754375 1 0 1
3446 1 7.0585806181094375 48.190075325151206 24.646331665894 1 -2 -1
2925 1 8.675373406638943 4.458304840286106 24.48622726781355 0 0 -1
2344 1 0.281202327655822 12.667315254263396 9.916195778386587 0 0 0
774 1 4.932582986719234 24.529876827800912 5.399604260838714 0 0 -1
1295 1 5.946526560539412 22.330115584550178 5.145078930530218 0 0 0
3723 1 11.000083635910467 19.90597404106823 4.288378836113035 1 0 0
124 1 0.34743212599134743 6.870002176795837 0.20670637715287749 0 0 0
1780 1 1.1179717266892875 7.724129231631574 24.44897497203056 0 0 0
2066 1 7.041894396191961 29.595288097111432 1.4443748375124683 0 -1 1
2371 1 8.234484059541618 25.599897420237028 2.8300965317290347 1 0 2
212 1 11.794688565250652 24.60554082790349 5.604433111124909 0 1 1
1924 1 7.622478758563452 26.719239256431937 5.230363739569868 1 -1 1
2928 1 14.646980494851299 22.661820998192358 3.7238956753825554 0 0 1
707 1 16.706403076526517 46.46896024213869 23.397512083233245 1 0 -2
4305 1 12.036427286460457 26.425305368213966 0.47591217770647376 0 0 1
2969 1 5.858034938293527 32.101925585611895 6.569812821591987 -1 1 1
3241 1 5.756548080406705 36.76332186194115 4.846837825366006 -1 0 0
4476 1 7.277580144405308 29.271062362175257 4.387982712415256 0 1 1
4161 1 10.61501167877056 28.800723526041732 5.049934372531987 1 -1 0
2246 1 15.445570222623745 9.59892395736163 23.14328602754492 0 1 0
1491 1 1.839672251767936 2.0467667261953584 8.573944897218242 1 1 0
1188 1 4.442881366094571 29.610117516215674 4.0868493000693515 0 1 0
2418 1 1.8020437449577922 31.181950264395386 5.9614767211768696 0 0 0
829 1 12.542445836819592 32.86330653826253 7.554298101639139 -1 1 1
2403 1 10.197997087429364 30.623918125661795 7.765744467999019 0 -1 0
2581 1 8.976682954458402 32.64292834817728 3.135110266082317 -1 -1 0
4078 1 14.008758985643194 31.892045565161414 4.320404635772846 1 0 1
758 1 2.447516613640569 38.61818163060676 6.91958690486919 1 0 -1
3942 1 3.455364412459241 41.93625480707102 7.444218253518976 1 0 1
1558 1 10.593508373963468 35.171499596282054 9.125060503459963 0 0 0
3639 1 14.646378742095287 36.60627388186095 7.127380393866561 0 0 0
4362 1 13.885035494398142 35.30948371365144 2.0829994479976026 0 0 2
4309 1 16.5503678699563 34.78474635798356 6.140107545088409 1 0 1
2295 1 4.12209408220417 44.12295487492945 5.881465625683882 0 -1 2
1611 1 3.390169966879356 42.85143867449557 3.7834453762805054 1 0 0
4365 1 5.751961776918352 41.127690257708245 4.3006917773233955 1 0 1
2069 1 7.3261331907926435 41.27385630331303 6.7606486467762315 0 1 1
1415 1 6.931658918856065 38.9345849262418 8.561855517740412 1 -1 1
2257 1 6.54501124440799 32.12816664855638 1.9312943512589869 0 0 1
3203 1 15.635523721976861 38.19487902050814 1.689997089871851 0 -2 -1
4257 1 2.856047520862854 47.09611114158308 3.0600193559189224 0 0 1
4070 1 6.65386690659496 44.96476522026754 6.4536137548990755 1 0 1
3952 1 8.636155425367551 44.324635416118355 4.660482965405754 1 0 1
834 1 12.092961808797051 45.0394164752729 1.7773532484670238 0 -1 1
1740 1 12.243977935946331 45.37192839373184 4.440003851391422 0 1 0
1814 1 8.700295512155327 15.733600938149651 1.6763695151800035 1 2 0
1790 1 6.640903672672744 3.6376024451856432 0.7214065794384299 0 0 0
2123 1 0.7888333927610394 46.02912275132613 8.53118449978489 1 -2 1
756 1 6.1040019386268325 48.576995247961136 7.052852622553898 0 -1 2
798 1 10.261870882916343 46.64975866807004 5.559566449569029 0 -2 0
3543 1 14.727018851342924 46.402136693416935 5.087385345996692 1 -1 0
1013 1 15.576217404577326 45.027149814575914 7.306666892693698 -1 0 -1
1174 1 2.1257767946647546 48.56669945693205 8.873250544665453 0 -2 1
473 1 1.130413384925375 48.7905569844632 1.4554954622973137 1 0 0
1321 1 0.6761085537132631 3.3741014763602077 15.02553558504345 0 0 1
4477 1 9.627191830271387 0.3989164294192541 5.726241137362954 1 0 2
2070 1 7.7964286527728515 0.34250748666818254 7.656954687255025 1 -1 0
3935 1 12.282932269359014 48.33558312469739 8.663218894841926 0 1 0
3638 1 16.33333828216652 3.1123321397513637 3.364324968177366 0 0 0
2892 1 5.042513891358628 1.5802452562419176 8.498616879850154 1 2 0
2981 1 11.386828705348744 2.6022617680900386 9.272053428177815 1 0 0
2679 1 14.74360817720396 3.3755511649604357 11.144676702807716 1 1 0
139 1 2.2023736250770756 4.667981045904292 10.578482423393611 0 0 0
3212 1 8.548080591762572 5.441375115422451 8.382133061192375 1 0 1
3148 1 13.456878456656723 3.5239202625972337 5.854359020808019 0 1 0
2743 1 15.464002233956897 4.874094975877679 7.277524789044362 1 0 2
4165 1 17.35281178049906 2.7024902354651013 7.0514776078725925 2 0 1
2671 1 17.02268256557182 6.395658758350502 5.670885130037581 0 1 0
2875 1 6.886020481873732 26.46392229329122 0.4439805870530042 1 -1 1
987 1 6.059240914415403 6.734214253986319 7.86283570391615 0 1 1
2476 1 11.37203647852733 7.839205149858082 6.905630946978606 0 0 1
1651 1 13.240934272887749 7.887158371282236 3.629180761147641 0 0 0
1937 1 13.487824253941971 7.12645655762389 9.452524571018667 1 0 0
957 1 0.5022928912565172 18.828522096534318 8.773620491652634 0 1 1
3045 1 16.864285493882235 34.30750597342415 24.290658689814027 0 0 0
1912 1 6.4294357019949695 13.636997095350525 6.719536670764322 1 1 1
1331 1 6.489254325983462 11.078059331907083 7.891589039593719 0 -1 -1
1082 1 16.059842493265954 7.8356723473292735 12.910027739028912 0 0 1
113 1 14.375256619782594 8.063403582709764 7.13118635693461 0 -1 -1
1398 1 2.442356190992753 14.292752533071058 8.688532160343094 0 0 0
256 1 5.354317334310413 13.39648364635063 9.787163907695325 0 1 -1
592 1 8.318739530797222 14.99279126629261 5.14402368944515 0 0 1
2907 1 11.457502904884842 12.154236219134653 8.46618510356146 0 0 -1
1214 1 8.578835868183731 14.031870168362026 10.56483893185869 1 1 2
3099 1 11.501720913647803 14.724774929869517 8.470581980802445 2 1 1
1285 1 14.14419789160019 13.546636772860579 5.232095366704545 0 -1 0
2911 1 -0.28058822938141503 31.654233262239003 3.6666884329598792 1 1 0
2864 1 0.5163808108229018 3.566919999798738 24.629733175741436 0 1 1
1549 1 3.7727621657034307 17.793411723173204 10.265509024097376 1 0 0
2397 1 -0.029590401852208348 44.91230469119515 18.919537173445654 0 0 0
1921 1 3.935730397719257 20.351178058394115 5.891167851894311 0 1 0
1871 1 9.174448731353486 15.935408286463414 7.456295649831427 0 1 0
2015 1 13.815718820360656 15.622195397920736 7.641970117397736 1 1 -1
4107 1 14.770742699249915 18.226872721106968 9.075626800814716 0 1 0
1880 1 -0.11170748985094076 21.031374888851033 7.191552190002915 1 0 0
1457 1 8.806865004452153 18.813241127876644 7.011548080553257 1 0 0
402 1 11.814714162450931 24.41524484715955 8.786316155757937 0 0 0
4320 1 0.41630903649327355 9.02531748973996 20.28237683859106 1 -1 -1
2598 1 7.567032458023171 23.688204613496158 9.166434025946167 0 0 1
3231 1 2.428336647796221 21.57652862975178 7.575939403438319 1 -1 0
3436 1 7.775257914129167 21.88195901911099 6.964458758334961 0 0 0
1050 1 12.072334898015384 21.19334753850669 8.704590671136536 0 1 1
3821 1 14.009441707131325 17.07165963122728 5.040861737378693 1 0 -1
2052 1 17.192896045449096 4.291364206579457 23.16001719001408 -1 1 -1
4100 1 1.656667917081156 26.19423838225616 7.808225398211357 0 0 1
3299 1 3.508593790864716 28.250054374161273 8.633642449993948 1 -1 0
4582 1 6.100872160368258 25.576075190198868 7.586034386920705 1 0 1
4099 1 10.213294467568918 26.59251028904639 6.993448147032608 0 1 0
3379 1 14.545585472660337 26.997968110234645 8.010414206297352 0 0 1
1735 1 14.234536218839555 24.98527906822727 4.921420709991201 0 0 0
447 1 4.988213062971572 1.3823559625663469 0.6787681249327883 0 0 0
2531 1 10.294961830558753 31.58805659745609 10.355699622505675 -1 -1 1
2434 1 8.436306679752457 31.50148726861125 5.539175601407805 -1 1 1
3894 1 17.232318637299684 28.300504259252172 8.006406929097569 0 1 0
4387 1 15.490680309576403 24.177575341187108 24.79580910196329 0 0 2
1975 1 9.58354617246376 34.00120390201263 6.708327281562496 0 1 0
2834 1 14.616987729640403 30.73168954432953 7.9452374041876945 1 0 0
1034 1 14.47562258096181 32.45782173436605 24.411239462736038 0 1 0
3805 1 2.4418081020796536 28.138730563376562 5.434321994229872 1 0 1
4094 1 10.7493900184567 35.967499825980326 5.035826604611365 1 0 0
2455 1 3.8906869003094213 38.715889289927546 9.356005463768907 0 1 1
4329 1 5.754535203383785 36.427480477529215 12.127490857483753 0 1 1
4066 1 9.783732457182392 40.68309132235147 6.2247218724182884 1 0 -1
884 1 13.070096276483483 35.1422256593989 9.165624581728238 0 0 0
2436 1 2.06101457357253 19.53205338452426 10.847554315380144 1 0 1
1857 1 13.647160919492265 37.90337810421617 4.294392738944023 0 0 0
3428 1 2.992101226045629 35.766884420030095 23.964500145429728 0 -1 1
3375 1 0.7881176102584369 41.053810961483705 11.539226507735547 0 -1 2
4027 1 1.6867747255326542 42.75508455751854 9.556493041374384 1 0 0
1563 1 10.17225685831951 44.104213574870535 9.365747833624283 0 -1 1
745 1 14.20347458071106 42.30008629126458 3.6882402046330376 -1 -2 0
3417 1 2.588267999044708 44.82810916551244 11.004684565030976 1 0 1
1228 1 7.334788120994647 43.56067344200953 8.947889408277467 0 0 -1
4369 1 10.997963378194669 43.3934113348026 6.940478236368053 1 -2 0
1199 1 13.830855083622902 42.951459289204415 6.474737383470537 -1 -2 1
1786 1 17.081843772375493 48.91763058196646 7.651634397740213 0 -2 0
2400 1 14.999242977794559 40.00549058561101 5.012171867404204 1 0 1
4538 1 0.5590012112380089 33.6631382012767 12.498834167062123 1 -1 1
3169 1 8.450446093885093 48.071941397753186 10.825090306561806 1 0 1
3347 1 6.337649052119541 46.50321491678141 9.318655615227131 0 -2 1
1481 1 10.808744651302527 46.62351255828644 9.981091648200978 0 0 0
4443 1 14.968346021398137 46.089771765729104 10.794807955404684 2 -1 1
1545 1 4.683241748487076 46.462585751610035 22.47813033722123 -1 0 0
3117 1 17.041479374167206 20.557560081145724 25.28060989225685 0 -1 1
2174 1 11.609713996495403 50.495316709179626 10.230136787717425 0 -2 -1
3491 1 15.489591222336133 50.393928723090895 12.06571294236417 0 0 0
2352 1 0.3508539889661406 28.487557079370628 3.663420326429429 0 1 0
810 1 1.9124988864680157 40.62590485746842 18.53186221170439 1 -1 -1
601 1 4.035723978517991 3.734758147031276 12.621863478819812 0 1 0
1575 1 5.718003337222833 2.3798516092961224 11.063824179000994 1 0 -2
3977 1 8.97205450214503 3.16733380909039 11.048979945825321 1 1 -1
3953 1 7.039853772338017 4.880872931458513 11.626019321347451 0 0 0
338 1 11.589889604781035 4.878747099362742 10.659268394328898 0 1 1
1176 1 11.677899785472984 0.6004627227670964 12.74636245823379 0 1 1
261 1 14.346932234094893 0.7676192017988465 9.74271098895056 0 2 -1
4316 1 10.561990954523532 22.60550382588775 1.9709329583381963 2 0 3
1288 1 4.120544266073717 6.630454031646579 12.000128463540843 0 0 0
4036 1 13.242125331936313 2.746111763992562 12.992288001675316 1 1 0
2544 1 11.897777792939152 8.81962103579619 1.5010408305450749 0 0 0
3758 1 2.4662925583002013 8.807426141960295 11.184077865891172 0 1 1
4262 1 1.8485345770570638 2.094249862023 13.142080395440628 0 0 1
689 1 6.170916432064927 7.362911190357464 10.33697612991267 0 2 1
1925 1 10.185709797362751 6.942460359092697 9.58842172617375 0 0 0
2319 1 13.554814749085127 9.101054469499047 11.548422207010642 1 0 1
3180 1 14.097242985010633 6.616407667888651 15.005966619862711 0 1 0
3703 1 3.88935074024137 17.80939364276656 1.969159324636449 0 0 0
3271 1 2.2223286466133687 9.929085841408368 13.727346236135945 1 0 1
1590 1 4.900801821924433 10.141004494431947 10.383600958167188 1 -2 0
4208 1 8.802544662185687 8.767085459207587 11.37174660091137 1 1 0
210 1 8.654012840636987 11.125595813199626 9.725636896272675 0 0 0
3482 1 11.19995875319999 8.412607606873348 12.954527662840123 1 0 0
1459 1 13.249384701357306 12.034451687481347 10.870832502769508 0 -1 0
1825 1 15.828523042692314 5.540221975631622 9.99529207662645 0 1 -1
1254 1 -0.26778843864969 14.819597853990732 15.091209435753257 0 0 1
2305 1 5.449402714324217 16.72711728224794 13.627991178522885 1 0 1
2946 1 7.718353989588557 14.620512033618805 12.930260040630104 0 0 0
3316 1 12.325951080364813 13.127979172507919 13.26222351399268 0 1 -1
3636 1 11.268819589880312 14.904933422692123 11.180407812881093 0 0 0
2873 1 16.36813261568565 14.976119560448623 13.34171268413097 0 0 0
718 1 3.1193655600353045 33.49829113186637 10.468415943633696 -1 0 0
1794 1 8.976246769954228 18.851957448647696 10.452240784299129 0 -1 1
1255 1 8.50395032208767 17.537971835098677 13.971363267401241 1 1 -1
804 1 13.719758493286013 18.822011983242188 11.533041743692396 1 0 0
2475 1 11.289160223264934 20.569666291732798 11.279517724774173 1 0 1
1616 1 15.211241974414934 20.977117166586126 11.373537160375768 1 0 1
2494 1 7.088165139546965 27.706461124989325 23.957552751668825 1 0 1
2586 1 3.0808234637191783 45.08413587658574 20.14846662542985 0 -1 2
1210 1 5.712301377154755 20.93237888687139 13.089701977161884 0 0 0
4000 1 3.0167424940380663 21.861626373975326 10.277806161485062 1 1 -1
673 1 5.278788271487533 22.96234780002356 10.945851858671688 1 0 -1
1536 1 11.681881416464982 27.117192937313263 11.520517209317411 0 0 1
27 1 8.78690280877372 20.831729590966827 13.048217905245851 -1 0 -1
3604 1 15.500327507553806 21.074959814732654 15.904218098496841 0 0 1
1727 1 1.2942571091210753 23.602629510085915 11.573078655606464 0 0 0
2585 1 10.313920698477135 30.786321038562885 13.865990647992124 0 0 0
2596 1 10.692350174140257 23.399347887268906 12.001385458149466 0 0 1
61 1 13.502497242124656 23.77636332440775 11.136857322648924 1 1 2
2438 1 2.355090363977062 39.1325487035413 11.552098213066898 1 0 1
3880 1 4.529598043689638 25.53917598994386 9.70296335374878 0 -1 0
753 1 2.121996845087503 24.292907227244495 14.350753856748703 0 0 -1
2149 1 9.726796747736325 24.955919683600445 10.108991866367287 0 -1 0
455 1 11.852381377613579 28.21874677001326 8.518249108558736 0 -1 0
3083 1 0.4305338905105165 41.544878765631935 24.93809833729402 1 0 0
1664 1 15.414946275183185 43.960677565201294 2.053556236485046 0 0 0
1242 1 1.6530979675852187 27.59602557838557 14.33738425095476 0 0 1
2757 1 2.1008852564433624 29.85379622627326 10.598772104085068 0 -1 1
1159 1 3.090664527221194 33.21193130218263 7.605522200443626 -1 1 0
3090 1 6.56948957848208 31.074214785414824 10.592023433437253 0 0 0
618 1 3.220780771612654 31.50454039590497 14.923144381696156 0 -1 -1
258 1 7.986184787610071 27.853362596244406 8.6563122253475 -1 -1 0
287 1 11.994160812693597 29.939453823530375 11.583021774495403 0 1 -1
243 1 6.073854269610258 29.477408092792313 8.177554478730492 0 -1 0
2468 1 3.880281547142494 31.524379560953026 12.045348318459133 0 0 2
1024 1 5.065584687668891 36.35544415761773 9.347007418714776 -1 0 0
651 1 7.069995813881498 34.09466846925828 11.516178158144813 0 0 1
2763 1 9.842122882802427 33.83550761590183 11.636341850883074 1 -1 1
479 1 12.35556254276562 33.4636755738698 14.561809945409856 -1 -1 1
418 1 16.889286812062902 31.88163502315203 6.633592832774169 0 -1 0
4244 1 16.530047907872852 32.159244259688805 3.1640639118507585 1 1 0
43 1 12.150912717521333 42.27273559554684 23.826086505023593 -1 0 -1
4533 1 6.854344405420132 34.13192404207299 8.269999373039314 1 -1 1
821 1 6.235297194974759 39.80986493100775 11.711340407423432 0 -1 0
4423 1 9.902872122684398 38.209398402857786 9.043703669441996 1 0 1
2376 1 8.31885319405586 37.414729699566 11.504773642564816 1 0 1
3473 1 14.1607204712146 38.840843976954645 8.225134534331705 2 0 0
1036 1 15.943045272894771 7.852567243128261 3.3412721628702267 0 0 1
755 1 9.260567283021812 37.74721697582237 6.369035613589606 1 0 0
3125 1 8.510886508968582 41.58665031116545 11.620512775645048 1 1 0
3861 1 11.707507324903332 40.16559812965197 8.54393512860591 1 0 1
775 1 14.830941149316562 38.22744375916517 11.337101213401565 1 0 0
3795 1 17.39881574314968 32.535727751408736 9.3053402085998 0 -1 0
3412 1 0.16869161447427666 45.28306071338674 0.4323280326056699 1 -1 0
1627 1 0.3480945486425071 42.71538182335035 20.93260492241901 1 0 0
4173 1 4.008401180216414 47.16978373433004 10.40193240295602 2 -1 1
266 1 5.092614473417514 41.659485936421994 9.47801395728709 1 0 -1
2175 1 17.31239119038435 42.694767453455434 11.65946387061889 1 1 0
1086 1 14.333161285944394 41.95227187946492 13.877049405824481 0 -1 1
4344 1 14.700483054021683 12.218680271424981 24.351920164762426 1 -2 0
1433 1 0.5579268924984557 6.618433929947376 12.436696203299144 1 0 0
4307 1 15.302011764161518 1.7483994470410738 23.25357841672769 1 0 1
1149 1 14.858408184915223 47.524104517090905 8.38039457580171 0 -1 1
1352 1 13.288347670636009 43.67056132737583 9.764248938790194 0 0 1
3594 1 6.308950657148239 45.05783910613718 1.1741549227832087 1 -1 1
3047 1 16.538094470633755 44.56277084200563 13.29153283474637 2 -1 1
2458 1 10.916682065489118 38.06718541264653 0.46429651933726546 1 0 1
31 1 3.6857548142635226 50.105955529199804 7.323794132079692 0 0 0
161 1 8.690730745915449 24.763002995327263 24.866561471234185 1 -1 -1
2207 1 6.193843740090235 50.65365852894343 12.608805033178978 1 0 -1
4361 1 8.698118045503385 50.68977105046115 10.45093276317927 0 0 0
2894 1 8.989835600879822 0.7268784054002724 13.273973046469889 0 1 0
2408 1 17.183815537586977 49.354553089529006 10.46310339304605 0 -1 1
3585 1 12.711473737851408 50.14782593328262 3.8518931108026915 0 1 0
1759 1 0.5160206607550719 40.274512413367844 6.118708818110492 0 -1 0
4551 1 16.410416818971616 1.4510163401674083 14.661258860693374 1 1 1
552 1 1.0669880355373764 13.50711032601912 19.095447904799034 0 1 0
4394 1 4.746133136918192 4.493285178613388 15.67303399028273 1 1 0
24 1 4.823832855704047 0.8954774054054789 14.751314947867897 0 1 0
3077 1 13.068356577520536 49.7121576661014 15.079255490892272 1 -1 -1
1709 1 7.872870482400398 4.536485933425517 17.18472073348298 1 1 0
2717 1 11.146770484955615 48.13992734461465 16.245228629930594 0 0 0
4311 1 0.5187232021297371 13.585312950488401 6.558342313439367 1 0 1
4513 1 14.8869003359138 3.4450974112361417 15.042531704517193 0 0 0
2447 1 9.375159465505885 3.8829646336961448 14.62504797433415 0 0 -1
1730 1 15.256450271203118 6.0011275353913165 17.54517554783325 -1 1 0
4337 1 14.413613488871816 4.250963570588758 21.05387625338916 1 0 0
3469 1 15.21284693814543 31.446439479945013 12.143386425171261 0 0 1
445 1 7.962141236666941 8.261032879678092 16.08434955784508 1 0 1
2687 1 11.630053729997613 5.090642649742616 13.495238770403894 1 0 1
1301 1 17.366997467707655 29.090266437157553 15.271044032041763 1 -1 0
1935 1 16.50696366776577 12.14521426152672 12.84185013332627 0 -1 0
4314 1 3.2925973945610107 8.135386934950471 15.68333473592688 1 0 0
3891 1 6.176111972251026 10.498808068388923 12.985402846042241 0 -1 0
3158 1 8.465540795365758 10.18373498022226 14.147492388813763 1 0 -1
3892 1 11.190418429564094 10.918405861969276 14.520501571057057 1 -1 1
425 1 -0.22839553204784802 10.350377513605522 24.466629826404123 -1 0 -1
246 1 17.11682923818694 4.954283012548159 13.264070338309264 0 1 -1
4076 1 4.289279117498588 11.84607815133312 14.197242451383444 0 0 -1
2356 1 10.428949843178032 12.344697821065306 17.000350831392527 0 0 1
2331 1 8.087543948467458 13.355626048738944 15.180424215682065 0 0 0
927 1 15.511869990216988 17.675457614770973 12.849425862115334 0 0 0
1891 1 11.058789822352736 16.694139121142936 17.23502296313338 1 0 0
216 1 16.724426697068647 20.028916149975085 13.873997344088123 0 1 0
1958 1 5.1779945647392145 14.200089367905301 12.28473309358237 1 0 0
1729 1 10.45080555591917 19.89776533509008 15.354445679590361 0 0 0
2479 1 11.052540720244421 17.357078063917765 12.74722600418563 0 0 1
1717 1 12.58606500235978 17.7816460432893 15.332951824279352 0 0 0
2399 1 14.802830073171979 18.636145195735065 16.67738011016504 1 1 0
650 1 13.25405525561904 19.280728548491375 6.2833843486720005 -1 1 0
2216 1 17.690619900735356 46.86256054592103 11.66626935099082 0 0 0
3261 1 4.276621000499042 20.699772726425806 15.316240172745982 0 0 1
2107 1 6.092854670337401 21.843205188058185 17.0169706023605 0 0 0
532 1 6.137626266622014 35.63311770767642 23.219230205938967 -1 1 0
3243 1 16.176971207351848 18.089474417962407 2.0309643096990797 1 1 1