LAMMPS data file via write_data, version 29 Oct 2020, timestep = 100000

8509 atoms
1 atom types

0.4865476402209552 104.18959176971688 xlo xhi
-0.24235977598026892 50.474539189084055 ylo yhi
-0.24235977598026892 50.474539189084055 zlo zhi

Masses

1 18.015

Atoms # atomic

2041 1 3.672604975160707 0.8401546558222381 2.468785026296104 0 0 1
1950 1 2.256976848799722 2.203814556574785 0.8794603475214486 0 0 1
1943 1 5.4128581521520065 50.3437985172365 0.9651246668046085 0 -1 1
2042 1 10.021743708121178 0.9190244701730821 2.206406562242032 0 0 1
1946 1 11.548974326144426 49.890263264517955 0.7195095489596975 0 -1 1
1949 1 16.344459156101465 0.8455097543436385 1.9073830629820958 0 0 1
1948 1 17.998661860829472 49.95010889867223 0.3712692365100514 0 -1 1
2753 1 22.814980184300502 0.9196462346248473 2.6596264937259804 0 0 1
2757 1 28.547701097966165 0.704226405796992 2.6268826624392045 0 0 1
2759 1 34.872630568728006 0.43109250081722184 2.2794222090832568 0 0 1
2047 1 0.5415346495602668 3.6303289011115587 2.464235747749531 0 0 1
2049 1 6.4167292304092705 3.986161110387086 2.2689004367921983 0 0 1
1952 1 8.30102767407384 2.642837890164592 1.088460919238749 0 0 1
2053 1 13.174753369291015 4.002931413519112 2.3867547496430186 0 0 1
1954 1 14.663380886730717 2.493949594590761 0.9152236273953642 0 0 1
2676 1 21.066988944642446 2.356680817007239 0.9002427715828791 0 0 1
2055 1 19.180574903831396 4.045605648209673 2.385872251533284 0 0 1
2678 1 27.254788515103787 2.553490221979524 0.8490723152146593 0 0 1
2762 1 25.567358439660428 4.484082431296317 1.9774064652886567 0 0 1
2680 1 33.46704471945842 2.4088941010698015 0.6131011938541429 0 0 1
2765 1 31.83518412284126 4.0481209782949525 2.045100486300498 0 0 1
2057 1 3.836756983142826 7.252391937976917 2.1635524234438748 0 0 1
1956 1 5.4979881709998875 6.031572263006848 0.714550806985377 0 0 1
2060 1 9.566741465972344 7.050844554531304 2.670817666710317 0 0 1
1958 1 11.483777754456048 5.489818247990923 0.7707897419382814 0 0 1
1960 1 17.577566867343723 5.667758809973661 0.7524765431322008 0 0 1
2063 1 16.20156364786481 7.6947581762995245 2.0848493503174503 0 0 1
2683 1 23.849011711910098 5.860587892286022 0.8442830090410138 0 0 1
2767 1 22.21892854356678 7.66114317403105 2.5935084657386436 0 0 1
2684 1 30.3485310228137 5.800573442316976 0.6178257846849375 0 0 1
2770 1 28.51602317326546 7.367533354577636 2.2597747882607346 0 0 1
2772 1 34.75477364231848 7.216872846144041 2.355794343043125 0 0 1
1962 1 1.9551645015346315 8.665395389476004 1.1061276054825107 0 0 1
2065 1 6.567362380468892 9.879771862832245 2.272283025881832 0 0 1
1968 1 5.189467802501665 11.703194091244608 0.9475792668117888 0 0 1
1964 1 8.219326391018898 8.798103222517545 0.846059398777312 0 0 1
1966 1 14.23260811845634 8.924447201778285 0.7377055035571972 0 0 1
2068 1 12.847721395975409 10.30656222940631 2.684800639332045 0 0 1
2687 1 20.666842516075413 8.952525267441983 0.648134860518928 0 0 1
2069 1 19.01021157852362 10.548670099021042 2.2780953767405943 0 0 1
2693 1 23.773976984410478 11.690908572431265 0.8088239922735891 0 0 1
2688 1 26.86079386393727 9.088161953869138 0.7188986672070581 0 0 1
2774 1 25.54748724822019 10.47740962400072 2.5406744940437953 0 0 1
2690 1 33.07068662830237 8.757462030667698 0.6958494122437084 0 0 1
2778 1 31.75099271396541 10.256116198588874 2.0300019820916346 0 0 1
1973 1 1.738882402676496 14.671168004008676 0.9607297414857123 0 0 1
2072 1 3.914953926182262 13.577033602462269 2.461827884217975 0 0 1
2074 1 9.648619435297574 13.456965357755386 2.340070953862712 0 0 1
1970 1 11.639699272865704 11.947236817921063 0.6455607412226873 0 0 1
1972 1 17.60617169158288 11.964735590055813 0.27923868527996143 0 0 1
2077 1 16.031705620450666 13.39799911688359 1.995953138252892 0 0 1
2697 1 20.81981841381393 14.842287935715525 0.8259891868286247 0 0 1
2781 1 22.438505005136538 13.265364266917883 2.411302794225518 0 0 1
2700 1 27.098440064333523 14.857618050254679 0.5577353251470298 0 0 1
2695 1 29.847139601607687 11.895238138516365 1.0211608284998157 0 0 1
2783 1 28.655568691924763 13.301729850875073 2.5260930240317117 0 0 1
2785 1 34.826732153469635 13.272189151720221 2.547630594976241 0 0 1
2703 1 33.28497126655243 14.941427099193843 0.6698748189925207 0 0 1
2079 1 6.265320946325775 16.6187418992842 2.4750331132881467 0 0 1
1975 1 8.053354912256061 15.008588582680984 0.687471712869839 0 0 1
2083 1 12.877091431345047 16.505252449966207 2.168661558213784 0 0 1
1981 1 11.4057433842296 18.14097542004194 0.7843032945084905 0 0 1
1977 1 14.53427049815208 15.190766836709853 0.9021184005072151 0 0 1
2786 1 19.364470790753078 16.72826185308408 2.2015627209676 0 0 1
2699 1 23.86710364839535 17.883572852472312 1.063824355850551 0 0 1
2787 1 25.515612651558108 16.418067650225098 2.3612415760925516 0 0 1
2702 1 30.318207642487998 17.663997681610425 0.7204605138321577 0 0 1
2790 1 31.9353813165299 16.515722337345828 2.3969074823613163 0 0 1
2087 1 3.8441015722502097 20.00038703417508 2.3607177006993343 0 0 1
1979 1 4.957128158701948 18.30714621296468 0.6066593622943174 0 0 1
2090 1 10.108501630906773 19.523879719876067 2.136299347139917 0 0 1
1982 1 8.476974704494232 20.972322754278444 0.4901188624052182 0 0 1
2094 1 15.983207057878774 19.8981597587198 2.286854308266352 0 0 1
1984 1 14.564268749458753 21.27280570097726 0.6612295093334939 0 0 1
1985 1 17.849872018407023 18.491741527788175 0.5003769151343359 0 0 1
2792 1 22.608208641680573 19.536264887435927 2.711088098758765 0 0 1
2705 1 21.36618425513949 21.281857532414243 0.8889683842153242 0 0 1
2708 1 27.24183846505151 21.104670951041182 1.0110527953009671 0 0 1
2795 1 28.52980452737553 19.317963132629785 2.2733801836299783 0 0 1
2710 1 33.86268097489747 20.774250870120163 0.568704289903184 0 0 1
1986 1 2.041143459771038 21.360494625339285 0.9870306987136737 0 0 1
2096 1 7.113968466680808 22.715195103723847 2.2662193139504883 0 0 1
1988 1 5.253548595445429 24.382300177991006 0.7513765877390223 0 0 1
2102 1 12.766743914342262 22.67711934166798 2.1732331332581087 0 0 1
2799 1 19.45175085471449 22.861314127990315 2.306573093214637 0 0 1
1992 1 17.91982719904469 24.25886694165348 0.5766658033059997 0 0 1
2801 1 25.252114201431638 22.403838302308376 2.298177426408874 0 0 1
2713 1 30.51436697807108 24.290771925264394 1.0183639381737726 0 0 1
2803 1 31.944644377663167 22.496223164686533 2.657930190992453 0 0 1
2105 1 3.644735330208147 25.88664459963544 2.3703803086401374 0 0 1
2109 1 9.746458790588537 26.260621549959758 2.2888633918624954 0 0 1
1996 1 8.042915921498981 27.35917755808542 0.7775172115134952 0 0 1
1990 1 11.296252574353565 24.622298112448185 0.5171199318589265 0 0 1
2111 1 15.948545588078112 25.867267986860153 2.0396168115048754 0 0 1
1998 1 14.325279323659114 27.459912776185444 0.6067754061543585 0 0 1
2715 1 20.82531097677213 27.34462490748022 1.2222300514520321 0 0 1
2716 1 24.41024273297931 24.751153669345516 1.3294447341497628 0 0 1
2805 1 22.558666244643803 25.99916666884231 2.855198531261049 0 0 1
2718 1 27.21023971141416 27.641140041342062 1.0767868656125665 0 0 1
2808 1 28.40102748328385 25.575025073686447 2.5145833788107743 0 0 1
2720 1 33.64350337040452 27.267764884035316 0.7948614301647006 0 0 1
7843 1 1.1030245014076447 14.324692877625525 17.40343139753607 0 1 0
1994 1 2.202967867762031 27.952836227772682 1.0243002991649681 0 0 1
2115 1 6.7068394935322955 28.936772357536483 2.520191284729236 0 0 1
2000 1 5.181122996784289 30.51986034707132 0.7183289204855269 0 0 1
2119 1 13.025994753558761 28.552124149436125 2.4988716737077232 0 0 1
2002 1 11.599004527075165 30.536643281019963 0.88445787993533 0 0 1
2004 1 17.39157508280732 30.613396573140804 0.5588285279237681 0 0 1
2810 1 19.22258056839965 28.922068570581022 2.274771199031447 0 0 1
2722 1 23.886327869299443 30.689363114553213 0.9426473829261717 0 0 1
2812 1 25.59572343202302 29.297834138669234 2.4726412233359705 0 0 1
2724 1 30.05808157594597 30.467508056586578 1.2633638981032618 0 0 1
2815 1 32.00320329095632 28.636114601819425 2.3835121889272055 0 0 1
2121 1 3.350502451460783 31.90202905138429 2.1274910537545746 0 0 1
2005 1 1.8061439200600922 33.69431652190829 0.8151985274418125 0 0 1
2125 1 9.987250679947762 32.010971872893805 2.2052751167507694 0 0 1
2007 1 8.417156846123873 33.464084800643626 0.819338954547058 0 0 1
2128 1 16.498936566601106 32.16550461422083 2.5084437844869587 0 0 1
2009 1 14.955738245738605 33.60605417604677 1.0205432289537586 0 0 1
2726 1 20.87835039363766 33.86622417134424 1.0944769967996868 0 0 1
2816 1 22.52332182580871 32.20787505358813 2.4005743333835508 0 0 1
2728 1 27.010409992955537 33.696056179307845 0.8910087175209696 0 0 1
2821 1 28.549910818614407 32.27927007797532 2.543486422034648 0 0 1
2822 1 34.81384937492027 32.100873961345414 2.1085884897578318 0 0 1
2730 1 33.26899267524314 33.88555865185117 0.8376539316075291 0 0 1
2129 1 0.7060000980923179 35.16988983520668 2.5476780590717145 0 0 1
2132 1 6.756588885485987 35.3339472325538 2.3942928989308685 0 0 1
2011 1 5.031377583470643 36.69235670196053 0.7325628102390247 0 0 1
2136 1 13.302718428628307 35.337901376553454 2.6016527078070957 0 0 1
2014 1 11.513153606307739 36.67919477986037 0.9547725545633385 0 0 1
2823 1 19.35071133873452 35.08276422047004 2.6928617893526066 0 0 1
2016 1 17.99630423868245 37.05808183800878 1.1958221764275585 0 0 1
2732 1 23.863828046692884 36.639757503687804 1.2510866514689836 0 0 1
2825 1 25.57851704310584 35.087244283365564 2.667735613051897 0 0 1
2734 1 30.2440912848591 36.89383830040226 1.067586654934726 0 0 1
2829 1 31.772044617075185 35.28987778716992 2.609533749794225 0 0 1
2139 1 3.545793955310058 38.36150467960967 2.537797151961791 0 0 1
2017 1 2.3754610780845997 40.19653630036167 0.9793452927241193 0 0 1
2142 1 9.704581801324576 38.36862088596187 2.6760254122406524 0 0 1
2019 1 8.337747431021656 39.585802864621265 0.7764346385463428 0 0 1
2145 1 16.329311417771564 38.64463033372624 2.3938121281173057 0 0 1
2022 1 14.733695945927598 40.00745869092019 0.920016600086202 0 0 1
2735 1 20.957601626395782 39.88599760858073 0.9977401576870364 0 0 1
2831 1 22.564931553387257 38.452736356185646 2.867767635309226 0 0 1
2737 1 26.819336914601713 39.656392576716335 1.029727671391124 0 0 1
2834 1 28.627716703667062 38.341805544794134 2.4562513490575455 0 0 1
2830 1 34.7707358410772 37.909206348985556 2.3863951948227555 0 0 1
2740 1 33.40569963717122 39.92053868786259 0.7250206991204778 0 0 1
2148 1 0.7349276302295298 41.82775767494754 2.520070591557884 0 0 1
2152 1 7.239001709326895 41.394497707338054 2.7935451622405743 0 0 1
2026 1 5.415794378436011 42.79073101755283 1.279283872729723 0 0 1
2157 1 13.38392143107832 41.68449850363087 2.2403719155386175 0 0 1
2027 1 11.479772328502754 42.44150583897952 0.27741316867772614 0 0 1
2029 1 17.42729641305917 42.98296474704554 0.7492549297044281 0 0 1
2159 1 19.057271150735424 41.646535512456964 2.4409974609776874 0 0 1
2744 1 24.116434775495964 42.65250128550531 0.811170463489814 0 0 1
2833 1 25.466454549147787 41.29437355350631 2.732004492167446 0 0 1
2745 1 29.99671008709083 42.74068623957857 0.8410389070860074 0 0 1
2836 1 31.82671278311075 41.262145237627166 2.231071794078958 0 0 1
2150 1 3.7498168888753 44.62651844144202 2.6237779221490403 0 -1 1
1938 1 10.619444217332251 45.41554073963817 1.774925924950987 0 -1 1
2158 1 16.13226315902459 44.59815161549046 2.442867377020093 0 -1 1
2839 1 22.168761810824797 44.551522232548336 2.2874741920733315 0 -1 1
2841 1 28.249601728042162 44.572207289802456 2.1111720063005905 0 -1 1
2670 1 33.64964814263378 46.41868281762454 1.114641685573233 0 -1 1
1935 1 1.9085555142949422 46.80196991095403 1.108974103213309 0 -1 1
2031 1 6.662118858316537 48.594318066786954 2.4634275738329148 0 -1 1
1937 1 8.245612467132988 46.89187400351319 0.7093362923814841 0 -1 1
2034 1 13.322000159731273 48.627581680466 2.2768940111441833 0 -1 1
1939 1 14.397892685012565 46.85845903338947 0.5748850017193129 0 -1 1
2038 1 19.19557477130258 48.52709349701749 2.059185559493699 0 -1 1
2666 1 20.55102049209181 46.70517410737399 0.5275296419290653 0 -1 1
2672 1 24.266331303992416 49.659176966456755 0.6545010081323942 0 -1 1
2749 1 25.962376172898807 48.31750208497757 2.1079437724520784 0 -1 1
2668 1 27.22329947576359 46.699380909730856 0.48801341952137856 0 -1 1
2674 1 30.026648072374574 49.75215259473 1.1141192158753708 0 -1 1
2751 1 31.75239933070605 48.40824145378545 2.7377220713555634 0 -1 1
2040 1 2.08390258192083 50.413329229808845 3.8556571857695507 0 -1 1
2048 1 6.562298660681093 1.3985038264876142 5.482654486487012 0 0 0
2043 1 8.109508566351941 50.44120768621077 4.127283849441282 0 -1 1
2044 1 12.897472372928425 1.2432225025664858 5.47449791064784 0 0 0
2045 1 14.631026601176709 -0.18606059996518645 3.8430920003813895 0 0 1
2754 1 20.527016728372526 50.2484135483041 3.753032986074807 0 -1 1
2046 1 19.089198109430846 0.8664236010143946 5.410330370097233 0 0 0
2755 1 25.165713968393568 0.9521723266127606 5.428938471193468 0 0 0
2758 1 33.288401500548716 50.19335653557778 4.222495810245304 0 -1 1
2050 1 4.885446803526311 2.671312561798811 3.852547801252747 0 0 1
2051 1 9.639357189053104 3.9977489755281175 5.3433839488062675 0 0 0
2059 1 7.84700122864319 5.484978395913318 4.233870890345479 0 0 1
2052 1 11.581833742688387 2.652863780343648 3.7483631148204535 0 0 1
2056 1 16.427866970577483 4.0483717880105745 5.468218292642152 0 0 0
2054 1 17.7541871598293 2.5062430263901994 3.941766111488052 0 0 1
2761 1 24.119167855846253 2.7603788829722626 3.851955881857956 0 0 1
2760 1 21.977499479496508 4.01566172974483 5.278334885353692 0 0 0
2764 1 30.35543883943854 2.4706895783756 3.919862727933018 0 0 1
2763 1 28.845599124074838 4.042611442636684 5.286834627805129 0 0 0
2766 1 34.450496559997134 3.864779728615636 5.394564491929343 0 0 0
2058 1 1.780477324493524 5.808147986588753 3.9813625458809243 0 0 1
7599 1 1.676758274836781 8.378919319349617 4.45496599026112 1 0 3
2061 1 13.181697592174386 7.220510789233122 5.301278758621804 0 0 0
2062 1 14.999145310142282 5.919519604601818 3.7655916363503374 0 0 1
2768 1 20.608252914236985 5.969161710587538 4.261627502222238 0 0 1
2769 1 27.240719183435907 5.709458961844754 3.77579922843283 0 0 1
2771 1 33.04718217339605 5.665113783229114 4.104975013245295 0 0 1
2064 1 3.6904790323108774 10.40665635104286 5.4651730772932545 0 0 0
3386 1 1.426928194287911 17.678409681930262 8.408277013229325 2 0 0
2066 1 5.180894077856795 8.857009163092929 4.003207726918172 0 0 1
2073 1 8.05661004242301 11.631908493698845 3.771141788802921 0 0 1
2067 1 11.128450795292643 8.719946894746032 4.17806213835399 0 0 1
2070 1 17.577528665409297 8.887990707474389 4.176166131510594 0 0 1
2775 1 24.108842306835747 8.761572789242157 4.107463588971646 0 0 1
2773 1 22.205598076343506 10.350238587343487 5.512179751778393 0 0 0
2777 1 30.537506072772096 9.09008105611509 3.8100013379396884 0 0 1
2776 1 28.626401687601778 10.374619144090063 5.385215630293308 0 0 0
2779 1 34.50928274072024 10.306414186686894 5.510553390565807 0 0 0
2784 1 33.23683614895486 11.789146116229771 3.855454502683597 0 0 1
2071 1 2.1464369572868973 12.241259449352073 4.106595665489628 0 0 1
2075 1 12.743506519784862 13.741903502917902 5.53011397379481 0 0 0
2076 1 14.27196024942162 12.183685966976125 3.5242327132786664 0 0 1
2084 1 17.743521700344353 14.857825153270554 3.468685348877196 0 0 1
2780 1 20.41709912854871 12.26546085374346 3.7301780467500176 0 0 1
2782 1 27.150718484728017 11.903422095313067 4.026639392795276 0 0 1
2789 1 30.407749056273204 14.920060932048893 3.871487476739456 0 0 1
2078 1 3.528477533390443 16.99240612687989 5.418880645743992 0 0 0
2080 1 5.0595902815565115 15.132611234778224 4.337467905038086 0 0 1
2082 1 9.447650222038456 16.53956589842598 5.259243330799644 0 0 0
2081 1 11.250586845807861 15.276277626211066 3.775322461058175 0 0 1
2085 1 16.02025462723547 16.39751110238811 5.097742961029403 0 0 0
2788 1 24.04479855731714 15.10742734384859 4.2258888665728875 0 0 1
2798 1 33.24354576456538 18.115469459593758 3.978452202720314 0 0 1
2086 1 2.0267567625573277 18.266086212994843 3.7567507098637813 0 0 1
2088 1 7.128631893362066 20.05508257869431 5.265840497115428 0 0 0
2089 1 8.240177101400619 18.2254193932986 3.5341626905034573 0 0 1
2091 1 13.046362474085928 19.600883709523085 5.237359839597355 0 0 0
2092 1 14.685229284453392 18.261905618924878 3.534363635659722 0 0 1
2791 1 20.634978008173853 18.23898031107276 4.091598240451818 0 0 1
2093 1 19.020412942731664 19.757953294712316 5.326540145571925 0 0 0
2793 1 24.076233049675118 21.10983208271732 4.358841777969341 0 0 1
2794 1 27.261580673122577 18.195600746066173 4.105846896467106 0 0 1
2796 1 30.066086962708123 20.996622504460014 3.9540086567603048 0 0 1
2797 1 31.61688825635112 19.488173313872768 5.529170538907477 0 0 0
2097 1 5.17929442606348 21.69454846673753 4.128189709558018 0 0 1
2098 1 9.898520964682069 23.13945361827121 5.517431438703573 0 0 0
2100 1 11.140487665864844 21.34193027402363 3.411024728285695 0 0 1
2103 1 17.712881486983374 21.341849168620108 3.561537166319347 0 0 1
2104 1 16.132167053025242 22.810341245707832 5.2972671271007465 0 0 0
2101 1 14.538585276295068 24.069419555977593 3.6663075046534024 0 0 1
2800 1 20.728551027195078 24.402451940552158 3.822310737216461 0 0 1
2802 1 26.77622412062108 23.896679147187587 4.226615773182778 0 0 1
2804 1 33.77025604480983 23.83065395618352 4.038268708517246 0 0 1
2106 1 1.9455006652980142 24.63406323155516 4.198858559253095 0 0 1
2107 1 6.828226299286925 25.977673569625537 5.371409064611767 0 0 0
2108 1 5.210715158450679 27.48216994358356 3.818242275899072 0 0 1
2099 1 8.17869580885641 24.557303423726395 3.8148154558471257 0 0 1
2110 1 11.792461868327795 27.16994155127526 4.150411417072461 0 0 1
2112 1 17.580816379124318 27.14497417818778 3.9472534592351476 0 0 1
2807 1 30.16280887919477 27.022380549900426 4.086019764149426 0 0 1
2809 1 32.20722194806886 25.663411968654867 5.470175267679886 0 0 0
2113 1 3.62647135178736 28.836999131077565 5.5238816036096035 0 0 0
2114 1 1.926786791789171 30.549579847404583 4.064685941973378 0 0 1
2117 1 10.488028330283953 28.771142577103742 5.534847039431213 0 0 0
2116 1 8.757373051644432 30.351348211811953 3.8187221008715033 0 0 1
2120 1 16.114829386077126 28.946641523867566 5.35274577510363 0 0 0
2118 1 14.930812309819633 30.58316223724654 3.6968312718377856 0 0 1
2811 1 20.689227058801833 30.572391167346275 4.0530891181127116 0 0 1
2806 1 23.989585037314047 27.7071752025218 4.203388436510361 0 0 1
2813 1 27.36233688582266 30.62308871775634 4.191550101355665 0 0 1
2814 1 33.45335116029879 30.37466264668061 3.7382605147211896 0 0 1
5036 1 0.755475856363788 31.1783818487659 7.3445872115078785 0 0 -2
2122 1 6.853842829251427 31.869478632172118 5.236118447123347 0 0 0
2123 1 5.302711587430744 33.359391141328324 3.5135221197273894 0 0 1
2126 1 13.303748092610562 32.18332422718096 5.125727739134618 0 0 0
2124 1 11.69847669796368 33.82132921309993 3.9354564171347803 0 0 1
2127 1 17.71501037351495 33.87130230896015 4.114918863844236 0 0 1
2817 1 19.429780315489285 32.27294146380806 5.362596738854123 0 0 0
2818 1 23.875031221000743 33.56136258527683 4.092134485898514 0 0 1
2819 1 25.270308247509796 31.919194828763523 5.507849116847714 0 0 0
2820 1 30.278301020249547 33.386049453791735 4.034078210722532 0 0 1
2131 1 2.2789447674806533 36.83818578723082 3.9677561573521203 0 0 1
2130 1 3.942099057909637 34.96849914230269 5.531299500195897 0 0 0
2133 1 9.900565273609542 35.21003104470109 5.424015837294894 0 0 0
2134 1 8.308570964622263 36.766336377885935 3.8398797291261557 0 0 1
2137 1 16.09889798458019 35.5164301966513 5.091438459519778 0 0 0
2824 1 20.742150088303465 37.01288568875457 4.352643941100506 0 0 1
2826 1 26.816898815872626 36.789754978899495 4.025038897577618 0 0 1
2827 1 28.466901977379912 35.29666607331832 5.2596228886587255 0 0 0
2828 1 33.338411845758955 36.717013287418844 4.192699753430193 0 0 1
2138 1 0.5839150720222585 38.65526061638483 5.315863389619449 0 0 0
2141 1 6.710506936163411 38.10701438323543 5.3160674325932895 0 0 0
2140 1 5.34185160528984 39.86093873231715 4.207646473170897 0 0 1
2144 1 12.906782079688957 38.65488511822882 5.47038115822735 0 0 0
2143 1 11.610773409007352 40.11158253789056 3.9216646429302413 0 0 1
2135 1 14.548683897957021 37.43521030197646 3.92769857050609 0 0 1
2146 1 17.463754060563343 40.07721091586992 4.057023979940786 0 0 1
2832 1 23.922684509371656 39.952386186801014 4.219349063897333 0 0 1
2835 1 30.138342400714325 40.04483389163544 4.004210571664332 0 0 1
2837 1 31.61406069919928 38.36926179039019 5.178791888550606 0 0 0
2151 1 3.667216381649654 41.57091438296724 5.347459715962591 0 0 0
2149 1 2.0219274857915988 43.28255701646728 4.191614785860945 0 0 1
2155 1 9.820466784864491 41.866662191302616 5.494455032158962 0 0 0
2154 1 8.557002047362866 43.490921764402685 3.7532305092516327 0 0 1
2147 1 15.815868229647627 41.03890185851978 5.521549500085215 0 0 0
2156 1 14.632453332554292 43.08216213229529 4.102801521966837 0 0 1
2838 1 20.609654984345156 43.282423344305734 4.010146210402237 0 0 1
2842 1 26.853067495317053 43.26458168558874 4.1582229734671134 0 0 1
2840 1 28.67522836015183 41.98905749352579 5.324015400516058 0 0 0
2844 1 33.0916288814317 43.02406066072867 3.880746336501499 0 0 1
2153 1 6.897016125531665 44.639287839488716 5.390106940489903 0 -1 0
2035 1 13.066698472463692 45.37078788600641 5.195234346098852 0 -1 0
2843 1 31.53941951015391 44.51041263394296 5.497977189402467 0 -1 0
2039 1 3.6726321715474834 48.67202872417164 5.432402772151482 0 -1 0
2030 1 5.401722450541274 47.00051839843088 3.9544580489187355 0 -1 1
2032 1 9.958125095876246 48.42650592669928 5.28152340783632 0 -1 0
2033 1 11.465751291419917 47.14801217962253 3.6355615770295815 0 -1 1
2036 1 16.199091339368433 48.51972053082239 5.063245528052026 0 -1 0
2037 1 17.884026676465897 46.795874468956406 3.52013100747031 0 -1 1
2752 1 21.991679913200585 48.68671160993031 5.163182970867018 0 -1 0
2748 1 23.841882180795764 46.90480364282388 3.9696258305205916 0 -1 1
2756 1 26.953842663551406 49.81769197639798 4.167806440788274 0 -1 1
2750 1 30.11931252624947 46.7219935004969 3.959764173485733 0 -1 1
10 1 3.3405376024612754 1.0512985124422913 9.085677341093707 0 0 0
11 1 5.230577454431667 50.17508842373203 7.674743930267824 0 -1 0
12 1 9.617246551124431 0.6900574516888585 9.280083046548963 0 0 0
19 1 8.40484384138391 2.2843168444815034 7.790749976434778 0 0 0
13 1 11.402033034728891 50.09310729793527 7.737623149133417 0 -1 0
14 1 17.583702626690865 49.90063419318702 7.633361250527953 0 -1 0
15 1 15.710761002176769 1.1176159519623585 9.087660258511727 0 0 0
750 1 23.84212448780498 50.148375724235166 7.396001908626248 0 -1 0
748 1 22.207749555554095 1.0202533464065213 9.055363724263268 0 0 0
752 1 28.632130672587227 1.0320017941347681 8.994982186018701 0 0 0
753 1 31.888341751504637 1.05995410019836 6.513895455643207 0 0 0
754 1 34.940956792983826 0.9458874634956926 9.30695161262581 0 0 0
16 1 3.3109307614771524 4.297884152983756 6.236544913071412 0 0 0
17 1 1.4553263048221128 2.595007716430435 8.366214802824102 0 0 0
18 1 6.921997420471555 4.065490008684683 9.172028891013687 0 0 0
21 1 12.642864579611434 3.888990075309896 9.004018656597543 0 0 0
20 1 14.568634544283604 2.5995953996384213 7.47739701375209 0 0 0
755 1 20.51747705663778 2.727337032882426 7.71290488449043 0 0 0
761 1 24.014724112510393 5.315410277789954 7.725746296129088 0 0 0
757 1 26.97000258857618 2.6419292438796926 7.626040944090721 0 0 0
758 1 33.281467635008276 2.5201751693841032 8.199144615992406 0 0 0
24 1 5.195860730230242 5.821407606188587 7.970418918711623 0 0 0
25 1 6.653955394337277 7.4078174249749384 6.508843949452856 0 0 0
34 1 8.91252082774649 8.588547050219132 8.068658971261216 0 0 0
27 1 11.163919284061285 5.695634578568201 7.48030462019903 0 0 0
29 1 16.07257029508447 6.97684213133874 9.269488115213036 0 0 0
36 1 14.486055150003653 8.591480768354732 7.98301793209046 0 0 0
30 1 19.200314907350872 7.776442450111135 6.263747224479643 0 0 0
28 1 17.968279272993893 5.798747655115536 7.843524334020504 0 0 0
760 1 22.65560108270379 7.162063096140247 9.059727502400225 0 0 0
762 1 25.487659235335855 7.03375216007212 6.428400398326235 0 0 0
765 1 31.25419910632044 7.33025809793123 6.368969232906025 0 0 0
764 1 30.062998106773062 5.594942276604071 7.764151763829771 0 0 0
763 1 28.84415041856066 7.488848923061111 9.181318602756397 0 0 0
770 1 33.091463256723394 8.510169903776827 7.920559949953134 0 0 0
31 1 2.4306824099339464 8.675680095208676 7.796348909713171 0 0 0
32 1 0.6910944329858031 10.511465400443797 9.26793538768188 0 0 0
35 1 9.427692652924717 10.435732517149903 6.275653392033076 0 0 0
37 1 12.892312020588058 10.493862128144938 9.243207433458164 0 0 0
43 1 11.183914406718463 11.793970307361322 7.661937849717194 0 0 0
38 1 16.04344671841142 10.35790157543784 6.544453992865625 0 0 0
767 1 20.940071383931222 8.831328528004173 7.781085459153411 0 0 0
769 1 27.12193154256179 8.893369874537198 7.712072385374929 0 0 0
771 1 31.575866066627363 10.39206413664214 9.311724652805895 0 0 0
4926 1 35.01646457754114 25.69738180906595 2.4069224727829166 0 0 1
42 1 7.0132823678684675 13.375683850571457 6.293934274275863 0 0 0
41 1 5.260129305339596 11.989790796426577 7.565896635138891 0 0 0
49 1 8.267708937791323 14.934254615517288 8.038650252692792 0 0 0
46 1 16.163130054572516 13.234407102357745 9.086314776197659 0 0 0
50 1 14.618709293597655 14.979824113715134 7.476603544479581 0 0 0
45 1 17.79300038641005 11.956295478564288 7.7500053390452575 0 0 0
773 1 19.250605320425507 13.45820651050774 6.392061900122496 0 0 0
775 1 23.763357097699092 11.842033576906905 7.861705992709867 0 0 0
774 1 25.513393022408696 13.407582361703954 6.4426681252675095 0 0 0
776 1 29.65173206686442 11.988102289728205 7.719241883010039 0 0 0
778 1 31.727602556901918 13.386597954636748 6.354087517538601 0 0 0
779 1 34.601465964327055 12.979167140244288 9.19687076984341 0 0 0
47 1 2.293297484128887 15.143739644699906 7.810056733474523 0 0 0
1214 1 28.81059589721473 48.112605227732075 25.063267736017718 0 -1 0
51 1 13.152629603180685 16.440051578070406 9.116048354670724 0 0 0
59 1 17.677844170049813 17.976118304350706 7.217761482320372 0 0 0
780 1 20.663415654196566 15.086201604408252 7.929446371327023 0 0 0
52 1 19.048802404050793 16.70133446805497 9.263536336421147 0 0 0
781 1 22.155545271871848 16.796832985866605 6.38330453945299 0 0 0
783 1 23.76149586347031 17.932209009114597 8.05153143694657 0 0 0
784 1 27.141871059987803 15.306397401496374 7.772129002114944 0 0 0
782 1 25.644243184463956 16.57237275284911 9.243778739587578 0 0 0
786 1 28.772633401308926 16.495403983725858 6.2161088199887935 0 0 0
785 1 30.183846900869533 17.75947789059302 7.760746183973012 0 0 0
787 1 33.384426025866546 15.064618043714397 7.794929464827986 0 0 0
54 1 0.5255542518297066 19.67724413154376 6.311512811416061 0 0 0
55 1 5.491596230925879 18.36155566087708 7.721997155970752 0 0 0
57 1 9.928572726415833 19.704298526615858 8.82189101384254 0 0 0
56 1 11.448862194342023 18.205122702555034 7.564159337246065 0 0 0
58 1 14.674327039869596 20.99291421072764 7.514891661856153 0 0 0
789 1 20.84618847449445 21.05331657772584 7.9620034264289465 0 0 0
790 1 25.521435197490344 19.534800518013906 6.378093238884618 0 0 0
792 1 27.000583541372688 21.149431174766406 8.231185358079763 0 0 0
791 1 28.887770073222942 19.198263580314524 9.14196478363809 0 0 0
793 1 33.34939723449672 20.748563933649887 7.686202407006332 0 0 0
62 1 3.5534389946797362 22.91536315599943 6.214716688046204 0 0 0
61 1 1.8765972898413956 21.477117598838145 7.757649382083253 0 0 0
6809 1 1.5303792143412267 47.31788199337763 3.664420749355659 1 0 1
64 1 5.313912647218926 24.436981945047915 7.787979451157369 0 0 0
63 1 6.847619006947026 22.894287231038234 9.302513505232193 0 0 0
65 1 8.430331886558392 21.563078241444114 7.733653470251321 0 0 0
67 1 13.12133027473993 22.594841733171627 9.16601337071747 0 0 0
66 1 11.621861958374575 24.26791979808753 7.73240332092643 0 0 0
68 1 17.526551362877473 24.354677037782473 7.754167660173069 0 0 0
795 1 22.237933442213187 22.491344677623022 6.308192492475826 0 0 0
796 1 23.681225209026994 24.394437733603127 7.924677373491058 0 0 0
798 1 28.74591724620553 22.615110969663686 6.4605190429248935 0 0 0
799 1 30.57675147934239 24.22332192038655 7.7958479545419745 0 0 0
800 1 31.629395474589504 22.33159008072531 9.238116730392896 0 0 0
72 1 0.5494026028426217 26.21027779149528 6.362672971533041 0 0 0
71 1 3.8036369433608943 26.14428622941627 9.165116031704063 0 0 0
70 1 2.0157126369661444 27.54204008004657 7.619180694952063 0 0 0
74 1 8.248845577633624 27.671581170373447 7.7624814756465685 0 0 0
75 1 13.236284509401928 25.688921739228398 6.248586389855422 0 0 0
76 1 14.848578582854838 27.45022795076353 8.115733977288354 0 0 0
78 1 19.09608688589847 25.8725073258426 6.380846723543553 0 0 0
802 1 20.49664107595424 27.527152116043712 8.120334861528393 0 0 0
801 1 22.025754635464416 25.94191369186574 9.284441704852629 0 0 0
803 1 25.423411914873803 25.804772741045596 6.275208481633497 0 0 0
804 1 26.888585832609202 26.992735380293215 7.816176703708875 0 0 0
806 1 33.57985289592717 27.16317180838308 7.95041982369006 0 0 0
81 1 6.4899201016811086 29.04281129148059 9.224850040183586 0 0 0
80 1 5.116191026156173 30.373838825451852 7.293394559472077 0 0 0
82 1 11.779627711746297 30.472725635254182 7.862358576711715 0 0 0
807 1 22.00237212908324 29.134716630870475 6.361024742436146 0 0 0
808 1 24.021730607829113 30.443396770325233 7.543205674585493 0 0 0
809 1 25.703339596484533 28.87037979885698 9.043028513793415 0 0 0
810 1 28.849613246311087 28.736633021095063 6.228455208698241 0 0 0
811 1 30.535989042202996 30.212494880793273 7.974786412067207 0 0 0
552 1 16.221792480359753 48.3611644759182 24.807053919811867 0 -1 0
87 1 3.805805729103461 31.938097586542014 9.267458635528454 0 0 0
86 1 1.8497546718515478 33.693850604566194 7.572724345249644 0 0 0