LAMMPS data file via write_data, version 29 Oct 2020, timestep = 200000

4608 atoms
1 atom types

0.48678278919810225 56.78372721080218 xlo xhi
0.4326958126211089 50.47442418738036 ylo yhi
0.4326958126211089 50.47442418738036 zlo zhi

Masses

1 18.015

Atoms # atomic

5 1 2.0128342715739453 2.1334337314251766 2.004049846382294 0 0 0
3 1 3.563513776747118 0.6238905738696303 3.748897166562806 0 0 0
10 1 6.6947784425061245 3.5653732409954606 3.464279211096123 0 0 0
13 1 8.270459464829678 2.407418012302384 1.8948583617398234 0 0 0
11 1 10.059027154542505 0.7109899349545306 3.2960810661828432 0 0 0
21 1 14.546245825230839 2.1189819682910804 1.337751619227478 0 0 0
18 1 13.193352933092315 3.737288884498071 3.022498972230939 0 0 0
1537 1 19.099641647533815 0.4615198942438036 0.4816214414369235 0 0 0
1538 1 19.133736145194742 3.337616631592622 3.2370325497529437 0 0 0
27 1 3.379208651009879 6.8779276903681765 3.307625887243923 0 0 0
8 1 5.269239931564873 5.28482586141405 1.8966988750637372 0 0 0
35 1 9.655889134516865 6.516688267858984 3.502030711060539 0 0 0
16 1 11.440667524034636 5.202845107405964 1.9595778087694535 0 0 0
24 1 17.622309081846296 5.010372875531416 1.8553163829962962 0 0 0
43 1 15.749375951208284 6.944244829135337 3.309608795669642 0 0 0
28 1 3.349601944293971 10.124498607497891 0.45850638016469636 0 0 0
29 1 1.4940059028886774 8.421629893565438 2.5881666117685396 0 0 0
34 1 6.9606522269395255 9.892105517117006 3.3939770455556215 0 0 0
37 1 8.443491923076863 8.110940430613635 2.0127043951383286 0 0 0
45 1 14.60725467290903 8.426217555968186 1.6993528535252935 0 0 0
42 1 12.681493441690623 9.7156063841766 3.2259675730731696 0 0 0
1562 1 18.8932883018873 9.9244646471665 3.785695911227558 0 0 0
51 1 4.137870393012257 13.098540035767742 3.9896012116773227 0 0 0
32 1 5.23452336480545 11.648015151455956 2.192372522608576 0 0 0
57 1 6.69261141638735 13.234417775803303 0.7308041816577702 0 0 0
59 1 9.982292443366678 12.653350762406129 3.653058745892793 0 0 0
40 1 11.202554853223862 11.522242694222012 1.7022604467859288 0 0 0
48 1 18.00688398407883 11.625355303147431 2.065478513390221 0 0 0
67 1 16.111183603293703 12.803444436659397 3.491435827772978 0 0 0
1585 1 19.23891403109858 13.603041129207782 0.48570856820934694 0 0 0
53 1 2.4693575847168034 14.502274696223294 2.018303303025074 0 0 0
50 1 0.7297774968781809 16.33805167608906 3.489883107283573 0 0 0
58 1 7.121952899703273 16.39921228101595 3.5705703731609866 0 0 0
61 1 8.95116660710225 14.415142046385453 2.2906121296351625 0 0 0
60 1 9.46633609595255 16.26231913624735 0.4976146817675584 0 0 0
69 1 14.524675653131018 14.418075751216387 2.204971478849912 0 0 0
66 1 12.930939751411575 16.320448483621867 3.4651552652022257 0 0 0
68 1 16.082060158698763 16.184488547502255 0.7664140635773644 0 0 0
1586 1 19.22375026757435 16.143483306428166 3.5442788163448427 0 0 0
75 1 4.044506875247697 19.270622778477463 3.6743844710747413 0 0 0
56 1 5.2987916484538315 17.816370367800953 1.787852073562294 0 0 0
81 1 7.05193676035511 19.20225713685807 0.5158954811056025 0 0 0
64 1 11.222549885201795 17.620550766789638 1.8838928525892464 0 0 0
83 1 10.051775952444824 19.309551057401443 3.6615699190802005 0 0 0
72 1 17.831605892391565 17.782875201840447 1.9719599425277012 0 0 0
91 1 16.201742952089795 19.06098102934053 3.3082633194570197 0 0 0
77 1 2.3319732819584997 20.97030491277484 2.032011064620735 0 0 0
82 1 6.781817456107525 22.58113375552948 3.748728117768785 0 0 0
85 1 8.306357641398005 20.76082083361687 2.2606035471573303 0 0 0
93 1 14.657329195132263 20.806390125153722 1.6985593878509633 0 0 0
90 1 13.19125615345274 22.266610967311884 3.337996763086734 0 0 0
1610 1 19.0874022149136 22.5278926723677 3.4854840759725425 0 0 0
99 1 3.5228076054172313 25.48474195857674 3.6340242337642055 0 0 0
97 1 0.5642380664522961 25.503788839972547 0.5334739385264129 0 0 0
80 1 5.530257524327552 24.188106336012158 1.9439518864714205 0 0 0
88 1 11.487496471274918 24.03167408711989 1.7861147835485103 0 0 0
107 1 9.967213897930229 25.530843112351455 3.0438407562753977 0 0 0
117 1 14.712946689175514 26.81945295253449 1.7368473315895672 0 0 0
96 1 17.71645019827023 23.80267072746142 1.4397184995523074 0 0 0
115 1 16.014411919329028 25.21626810202986 3.5889960652316426 0 0 0
101 1 1.915274977425212 27.30365414476002 1.979603950899244 0 0 0
100 1 3.59210907771088 28.74189317941213 0.43667825413145556 0 0 0
106 1 6.886274150724269 28.720817350032775 3.5244610680204085 0 0 0
104 1 5.352574746423585 30.263505067854034 2.009933882425069 0 0 0
109 1 8.468979852662265 27.389614397529574 1.9556081478898082 0 0 0
112 1 11.660495450746097 30.094443687596677 1.9543580042343367 0 0 0
114 1 13.159956966955416 28.42137321016376 3.387961552539953 0 0 0
120 1 17.56515807721792 30.181200533844386 1.9761222447786981 0 0 0
1634 1 19.048827374561505 28.234587276586677 3.6731541519521724 0 0 0
125 1 2.0543896936554864 33.36854912127244 1.8411358917298526 0 0 0
123 1 3.8423058917332225 31.970801609519413 3.3870642175961914 0 0 0
121 1 0.5880863093136739 32.03679287232349 0.5846338666297584 0 0 0
131 1 9.915483606106399 31.764301076362703 3.6410743765869853 0 0 0
133 1 8.287494366785808 33.498089624124674 1.9844360225489708 0 0 0
137 1 13.274910680295328 31.51543918442894 0.47054780233984916 0 0 0
141 1 14.887197441921996 33.27673740836306 2.3376869221748824 0 0 0
139 1 15.848793503012514 31.332088032561145 3.7340031942615894 0 0 0
1657 1 19.13468648232415 31.699023938473633 0.6028075362215088 0 0 0
122 1 0.5692690444916977 34.80954559717614 3.6069813807482434 0 0 0
128 1 5.154854022036989 36.200335024347794 1.5153512337047124 0 0 0
130 1 6.528576867639083 34.86931352664321 3.446797955179044 0 0 0
136 1 11.818260488643089 36.29922138569056 2.084312670666958 0 0 0
138 1 13.23618387022158 34.918613919419144 3.740224785429558 0 0 0
144 1 17.666127306601982 36.68785107692601 1.9091267504198992 0 0 0
1658 1 19.085951963013095 35.40080479792648 3.791135302245751 0 0 0
149 1 1.888432481167782 39.52033174705795 1.7946797527092166 0 0 0
147 1 3.8444746676403603 37.76458669145275 3.489406357291876 0 0 0
157 1 8.293263605639048 39.35462217188885 1.6024714007959673 0 0 0
155 1 9.988463537328652 37.945613026352504 3.460221541514396 0 0 0
165 1 14.666138661674937 39.86680962016912 1.333832222511496 0 0 0
163 1 15.873898654355207 38.194856016902065 3.199860389428395 0 0 0
146 1 0.5633928691871617 41.08351141198142 3.369318764614594 0 0 0
152 1 5.244054365359855 42.37919649534258 1.8297771313630036 0 0 0
154 1 6.982480049819773 40.745353924870344 3.5166678690562474 0 0 0
160 1 11.827944842873066 42.68629928561501 1.774293748451543 0 0 0
162 1 13.018617507751081 41.1754378783579 3.4319399909704944 0 0 0
168 1 17.88379950233933 42.611904367246794 2.1668186433977503 0 0 0
1682 1 19.033129764223183 41.05794124901426 3.701304793920111 0 0 0
173 1 2.207028592503855 45.930840635872315 1.9956930760143896 0 0 0
171 1 3.6028418039411796 43.96363951231413 3.3204631144144465 0 0 0
178 1 7.05463168683034 46.850120260553666 3.5516862358463563 0 0 0
181 1 8.464813643866751 45.49208391136001 1.6125706035819571 0 0 0
179 1 10.031405875669098 44.23951380630544 3.315845862056615 0 0 0
189 1 14.546307333309015 45.56776090097324 2.4959497645141293 0 0 0
187 1 16.23536030077925 44.1818223783209 3.7281629614008596 0 0 0
1705 1 19.072305165557353 44.163221002416876 0.7395109196961047 0 0 0
170 1 0.7721364060870997 47.32994248082832 3.641220330295292 0 0 0
176 1 5.463668560268214 48.65130952976028 2.1114520846491054 0 0 0
184 1 11.625846330773394 49.36329936658822 1.8021509394568522 0 0 0
186 1 13.203512887884287 47.89763635210251 3.655272986377065 0 0 0
19 1 15.952710950526416 50.29367770929289 3.0230669376960275 0 -1 0
192 1 17.47538360662337 48.56948859645374 1.7973674889637559 0 0 0
7 1 5.261531848603913 2.296486405819272 5.04255900907738 0 0 0
204 1 10.01304763344498 3.2387873967820315 6.885098624123782 0 0 0
15 1 11.724659228423935 2.2839341133437827 5.036431583592236 0 0 0
209 1 13.266237066217764 0.6600166268020097 6.783484295530928 0 0 0
23 1 17.546427446682276 1.8221744188726 4.8393076046257315 0 0 0
212 1 16.06173463560585 3.3835246550679186 6.443498102858276 0 0 0
1729 1 19.08132053710797 0.7654663182908155 6.598315737994867 0 0 0
196 1 3.534109939731832 3.865842966317827 6.646856533664084 0 0 0
6 1 2.2646426436080977 5.4190358595233805 5.1936177236911885 0 0 0
217 1 0.6248872745613249 6.578465038577731 6.664593840459212 0 0 0
225 1 6.863659677905887 6.637328938723598 6.516228174584579 0 0 0
14 1 8.438625559726312 4.8101884539245034 5.194356275279849 0 0 0
22 1 14.54870858869005 5.066788218925381 4.675730296953329 0 0 0
233 1 12.826775779966392 6.592647700431163 6.127603971137216 0 0 0
1753 1 19.11869054812897 6.9021374930311925 6.714216792624962 0 0 0
220 1 3.740963722428866 10.035496459444808 6.087800511061151 0 0 0
31 1 5.364438872584529 8.11425321987608 4.89739439227656 0 0 0
228 1 10.167337615653123 9.713404065051764 6.7032683815665095 0 0 0
39 1 11.162257063093067 8.037885074391056 4.8508506785776255 0 0 0
236 1 15.808151559446538 10.110804971509856 6.595237324353043 0 0 0
47 1 17.157811381385343 8.32984465026529 5.2426924176797245 0 0 0
30 1 2.0904461105325205 11.815860062547017 5.182090426875198 0 0 0
249 1 7.165061419736464 13.073543167925717 6.694921037559138 0 0 0
38 1 8.528749029437204 11.559799682008126 5.24085203127103 0 0 0
46 1 14.195897021698775 11.44376511049448 4.919124126683084 0 0 0
257 1 13.069555927174472 12.881729587451158 6.948900195950505 0 0 0
1777 1 19.16474146572101 12.966733236995081 6.355156588105306 0 0 0
244 1 3.5184321543535497 15.995219782420255 7.100850744450466 0 0 0
55 1 5.704379898688115 14.764165662389807 5.344324589944749 0 0 0
252 1 9.839956534500839 16.1311721406951 6.8693914978092785 0 0 0
63 1 11.523246127940414 14.512926605708932 5.131216226501917 0 0 0
71 1 17.504828244143535 14.43160884936767 4.6879190602784835 0 0 0
260 1 16.03082351716316 15.973573204688087 6.504662632761921 0 0 0
54 1 2.4203095966980843 17.562417116505976 5.26033015257184 0 0 0
265 1 0.7203799788288954 19.12363860886032 6.865484737247758 0 0 0
273 1 6.684502416496335 19.41770055888437 6.711779866784531 0 0 0
62 1 8.362322026522627 18.17187950103123 5.265779600308178 0 0 0
70 1 14.530790241280096 17.770542658991083 5.2075679875410845 0 0 0
281 1 12.955011542712663 19.471139361829728 6.779856109528275 0 0 0
268 1 3.897639899038679 22.684674085894564 6.842323352558559 0 0 0
79 1 5.121138208851452 21.14419816010073 5.159076385989331 0 0 0
87 1 11.40881586122972 21.04495546378299 5.276503804689678 0 0 0
276 1 9.894988374944148 22.623134240813688 6.71391278786515 0 0 0
95 1 17.513123562635084 20.911971348513063 4.8523986252428415 0 0 0
284 1 16.304322895954158 22.48671409153941 7.010520682317923 0 0 0
78 1 2.0472252769323775 23.80994830339142 5.131283634589237 0 0 0
297 1 6.919224559226912 25.570170929597804 6.506170633083552 0 0 0
86 1 8.488688863227273 24.13514396573954 4.926584294722757 0 0 0
111 1 11.380968662922092 26.812067732719573 4.972844141099995 0 0 0
94 1 14.828155951775868 23.965207905360828 5.053721876036848 0 0 0
305 1 13.092030821401945 25.39945333539223 6.5871405191646915 0 0 0
119 1 17.632956514435964 26.799075045487708 5.169771102305864 0 0 0
1825 1 19.078115275755962 25.373535117169816 6.844139082161394 0 0 0
292 1 3.5917781489954117 28.96496297796527 6.4942362322807465 0 0 0
102 1 2.1666636373290418 30.43813105635203 4.652190054202978 0 0 0
103 1 5.280653638802161 27.274441498632278 4.949688044290291 0 0 0
300 1 9.849550118009386 28.4261741267326 6.490640320601997 0 0 0
110 1 8.408356011465273 30.05656793381487 4.9329317122298235 0 0 0
118 1 14.482378006409862 29.805356996083095 5.241026553016542 0 0 0
308 1 16.194974973370243 28.401030271677623 6.674292884194101 0 0 0
313 1 0.5423147950916992 31.650709182568843 6.176561342346148 0 0 0
321 1 6.692938738666913 32.00366937545928 6.74022161830032 0 0 0
127 1 5.219066578848693 33.39754573741709 4.940134813923038 0 0 0
135 1 11.535219336021132 33.36100068023171 5.157521188635015 0 0 0
329 1 12.834149459365625 31.720756568479597 6.69320466405128 0 0 0
143 1 17.523900931426063 33.094126086223426 4.977905500544039 0 0 0
1849 1 19.13058444515326 31.37746676940985 6.563222589069455 0 0 0
126 1 2.0479808230721717 36.444376726780604 4.939955723971095 0 0 0
316 1 3.5816339359745304 34.97499052501091 6.545059795628858 0 0 0
134 1 7.9007802246099645 36.49068210387945 5.052455402469522 0 0 0
324 1 9.803560985692675 35.032208501483225 6.643104269583611 0 0 0
142 1 14.690578555299306 36.55690807082955 5.613680550796823 0 0 0
332 1 16.02673760742001 34.75980494774339 6.831690688380185 0 0 0
151 1 5.1291069560912765 39.45536676114166 5.1746625748802115 0 0 0
345 1 6.6627257321706415 38.19058301825923 6.800414958491493 0 0 0
159 1 11.503796592077206 39.82298676282737 5.111342787861651 0 0 0
353 1 12.922073293391527 38.281446734991334 6.842286508431763 0 0 0
167 1 17.479777166293168 39.60801666018634 5.14541920855442 0 0 0
1873 1 18.94024065823454 37.77840986613272 6.642623096858974 0 0 0
340 1 3.531475611483852 41.11287735979347 6.6527618825270425 0 0 0
150 1 2.18870159350064 42.64045118447956 4.979112366230985 0 0 0
158 1 8.382179947563355 42.64416512584293 4.849445789291621 0 0 0
348 1 10.114551031525583 41.666677794117504 6.411403623882388 0 0 0
166 1 14.634743268065243 42.56090115524158 5.343497939875126 0 0 0
356 1 15.90442385085469 41.19670833789209 6.971164163611438 0 0 0
361 1 0.6732544564172684 44.391399104304284 6.731613298926091 0 0 0
369 1 6.858422438736313 43.94506777963855 6.7815482551305255 0 0 0
175 1 5.1553581182212 45.266195755832015 5.110266193033565 0 0 0
183 1 11.564718886423258 45.8469075237565 4.703169848563015 0 0 0
377 1 13.117708249898753 44.35996338979366 6.435284331541544 0 0 0
191 1 17.77293048240362 45.84947811224994 5.096449056937359 0 0 0
364 1 3.5413244793971783 47.30841625227218 6.27045308166839 0 0 0
174 1 2.207508690248872 49.00627066373791 5.06247017234336 0 0 0
201 1 6.3916673481495545 50.19288655542486 6.506811293890397 0 -1 0
372 1 9.890293884235739 47.60068992058032 6.634594340567559 0 0 0
182 1 8.265265335349184 48.97468167988882 4.732640654462461 0 0 0
190 1 14.844008159162984 49.17540954666637 5.362756762315795 0 0 0
380 1 16.303651984677238 47.39338030289106 6.898962922614884 0 0 0
197 1 1.9879126981751478 1.793662946990045 8.428641584183529 0 0 0
194 1 0.6572467259151367 3.4569733129912836 10.011398792571601 0 0 0
202 1 6.7012133304014245 3.2757091017279056 9.947756556496103 0 0 0
205 1 8.103042986234442 1.7121470114303932 8.204357743579433 0 0 0
213 1 14.597709965879774 2.1874579805797136 8.254150228274145 0 0 0
210 1 13.171436666719513 3.6259304012268005 9.994411053741809 0 0 0
211 1 15.875523102413387 0.633655697384018 9.671107687614418 0 0 0
215 1 17.811094454639953 2.049944787282185 11.135446040918234 0 0 0
219 1 3.681142459054633 6.84947297989757 9.772925273843233 0 0 0
200 1 5.198927661553186 5.024481208626024 8.154209082860927 0 0 0
227 1 9.932030866383968 6.539523988218352 9.442023856436629 0 0 0
208 1 11.593724120306009 5.202033974175373 7.974837092246159 0 0 0
214 1 14.911241517877396 5.16490807439062 11.027283938544794 0 0 0
216 1 17.197328875051774 5.257159037898636 7.812678359829298 0 0 0
1730 1 18.95468902227666 4.003227439666378 9.394443111567243 0 0 0
218 1 0.5408230471547384 9.54270896511538 9.713143693123817 0 0 0
221 1 2.325721437744159 8.398260756298177 7.993848175032004 0 0 0
226 1 6.98970815321911 10.045086019706309 9.58995253149372 0 0 0
229 1 8.341588520362823 7.980106948923339 8.460029280650868 0 0 0
237 1 14.230311180992645 8.15580998441235 8.08806183795495 0 0 0
234 1 12.85155772954817 9.760021495233453 9.992581834993908 0 0 0
235 1 16.100568868881332 7.1626553324704485 9.442478462007347 0 0 0
243 1 3.725524003646339 13.156315744660057 10.130089438690824 0 0 0
222 1 1.8603666694336884 11.2696115465586 10.930667724859447 0 0 0
224 1 5.320675781145908 11.630571583923501 8.283394097967403 0 0 0
251 1 9.964545700067012 12.82072275821934 9.91480161416091 0 0 0
232 1 11.539173439518956 11.327302981337608 8.484319061639587 0 0 0
259 1 16.161027265954694 12.851885648525592 9.937397495305134 0 0 0
240 1 17.73826546987454 11.686637563429423 8.306375228615295 0 0 0
245 1 1.7490551699905286 14.578135602681797 8.473808124486919 0 0 0
250 1 6.911801956272027 16.14267526542139 10.137195281146633 0 0 0
253 1 8.338039489574754 14.48871696249334 8.469980928567919 0 0 0
261 1 14.785810189068254 14.296388474585518 8.247745295266924 0 0 0
258 1 13.064374900676555 16.030788579726792 9.621944043387412 0 0 0
1778 1 18.878972949074264 15.894518676734469 9.766612403304284 0 0 0
267 1 3.7023184397355813 19.223040408712915 10.153372760496593 0 0 0
248 1 5.28875460064109 17.719497564588146 8.316035152562998 0 0 0
275 1 10.015595512787357 19.30988025777763 9.758693577308021 0 0 0
256 1 11.655468279926746 17.635968312676543 8.143787422269792 0 0 0
264 1 17.48705792077066 17.77805885324505 8.392950447684324 0 0 0
283 1 16.188108072586623 19.643671319169147 9.8421206274948 0 0 0
269 1 2.032873960343122 20.800055416289915 8.681897197221314 0 0 0
274 1 6.782518196239843 22.75035616512833 10.078481741427497 0 0 0
277 1 8.06017881264356 21.061376994561055 8.524469618675438 0 0 0
285 1 14.522028511391243 21.098762044981928 8.314520547043752 0 0 0
282 1 13.168962965683113 22.627896297308265 9.858923189139945 0 0 0
1802 1 18.877007965874867 22.080052531687716 9.847532835315821 0 0 0
291 1 3.36055640291645 25.52419650533668 9.423310781270546 0 0 0
272 1 5.518239222259192 24.372499356905315 8.237419521908738 0 0 0
280 1 11.67391868164716 24.292806020906315 8.451341921617624 0 0 0
299 1 10.133294421064807 26.1226988327271 9.528568817760457 0 0 0
309 1 14.673747733974949 26.82347242355395 8.488585771292664 0 0 0
288 1 17.524998051128865 23.878027782867758 8.662090550277647 0 0 0
307 1 16.222979535879844 25.425748887958896 10.112360882983443 0 0 0
293 1 2.128114014157205 27.175086311701648 7.923610735772541 0 0 0
294 1 1.6900528828882408 30.177519644193424 10.810803616239996 0 0 0
298 1 6.827229829521786 28.475561451963507 9.734241157623519 0 0 0
296 1 5.450147474583405 30.429257158136014 8.222521203149938 0 0 0
301 1 8.247573771281036 27.14578318244829 8.126874831547727 0 0 0
304 1 11.373990374842732 30.065522561057506 8.106896670997793 0 0 0
306 1 12.784847033613268 28.679937482898172 9.38487063009141 0 0 0
312 1 17.252581461981823 29.975903364363486 8.119085803402225 0 0 0
1826 1 18.995559741586753 28.75596827747928 9.764489721845191 0 0 0
315 1 3.3823996741349798 31.794972532044127 9.430345444089077 0 0 0
317 1 2.3274687989886758 33.30119801476272 7.789766202664905 0 0 0
319 1 5.245930867613025 32.71194165252051 11.019650609186055 0 0 0
325 1 8.637572854998234 33.46716739902479 8.219704172825846 0 0 0
323 1 10.233504211853763 31.86994281942779 9.6392314601432 0 0 0
327 1 11.646444195182063 33.67286648801118 11.113032846398985 0 0 0
333 1 14.550505028696895 33.02153157663628 8.1018756837995 0 0 0
331 1 15.984881774480222 31.700501408236782 9.89402188873204 0 0 0
314 1 1.031757897860968 34.821952293192666 9.525960220242366 0 0 0
318 1 2.393144827369686 36.30899375406965 10.969415147810668 0 0 0
320 1 5.184841554594761 36.58543416348259 8.160859876250187 0 0 0
322 1 6.845672731403867 34.89789654637683 9.568514712191172 0 0 0
328 1 11.270544889833538 36.85917620036098 8.38527010575177 0 0 0
330 1 13.158017464034089 34.80965056332924 9.586744386451933 0 0 0
336 1 17.644454977815858 36.352002949020914 8.277583783915931 0 0 0
341 1 2.0932153239692504 39.593433478706885 8.24474610285374 0 0 0
339 1 3.889059412569791 38.2607981655804 9.676539530167716 0 0 0
349 1 8.451893867546463 39.92604390018349 8.057502175632798 0 0 0
347 1 9.635329388174384 38.22382310259127 9.950396038938434 0 0 0
357 1 14.393146738658949 39.638196189610426 8.262844755607736 0 0 0
355 1 16.346147757512888 38.152894767961925 9.894710308699622 0 0 0
338 1 0.5121925329994781 41.1387374725539 9.760643768022476 0 0 0
346 1 7.027840976205219 41.578568436754566 9.848377525675144 0 0 0
344 1 4.93168828254253 42.85841610003476 8.210573347330794 0 0 0
352 1 11.425217872861381 42.95393761274654 8.125643098947855 0 0 0
354 1 12.941741710670787 41.076681803855195 9.962352388591711 0 0 0
360 1 17.530599687535993 42.68064456903595 8.34100722644947 0 0 0
1874 1 19.123508735205935 41.0989737706404 9.87779329583483 0 0 0
363 1 3.5527024395045927 44.230100261845195 9.830110927359105 0 0 0
365 1 1.9272672055404958 45.68516944468642 8.333704888290994 0 0 0
367 1 5.101046378551645 45.63644252783439 11.145070427604507 0 0 0
373 1 8.180386976341648 45.92194757813185 8.063974658788112 0 0 0
371 1 10.071810853412583 44.608550138203086 10.01963582183712 0 0 0
381 1 14.730603357041907 45.61231188361083 8.042960091753539 0 0 0
379 1 15.914063652210128 44.1753481002668 9.92441050341388 0 0 0
383 1 17.642633507515363 45.76235401074676 11.040442516681393 0 0 0
362 1 0.5159824591644337 47.311655328246374 10.04261714079852 0 0 0
195 1 3.8046167748015036 50.068900248893186 10.041719697712967 0 -1 0
370 1 6.765696720182708 47.32667731393238 9.913816946757136 0 0 0
368 1 5.191416767849612 48.4765352045558 8.101291395769183 0 0 0
203 1 9.786473444661876 50.240877205786234 9.762102287566801 0 -1 0
376 1 11.807705335646418 49.08241761296324 8.230379969857502 0 0 0
378 1 13.062254012687495 47.27846487783627 9.651597939437332 0 0 0
382 1 14.603781379265369 48.963560632089596 11.08921400576717 0 0 0
384 1 17.881760994027708 49.13449310802558 8.431908811666773 0 0 0
389 1 2.2992462069409676 1.834736576522462 14.381624926646696 0 0 0
199 1 4.977190561091471 2.0852780412952026 11.535706151588704 0 0 0
397 1 8.22343549140519 2.087881501442905 14.598092484108323 0 0 0
207 1 11.343701522140053 1.8755832035636113 11.397195707031548 0 0 0
396 1 9.690139698537921 3.63318659848831 12.832582920793541 0 0 0
405 1 14.932009213985802 2.1944041612468905 14.13640996474523 0 0 0
401 1 13.110517915112295 0.5811092712595698 12.888021558473806 0 0 0
404 1 16.561603764019083 3.743336993266237 12.523379482557408 0 0 0
409 1 0.6066757596719654 6.716393675831584 13.033776598637711 0 0 0
388 1 3.555904633838284 3.799428210922786 12.914126506308476 0 0 0
198 1 2.052007999713088 5.14932368706422 11.475806651107984 0 0 0
392 1 5.223102200255975 5.305368054317677 14.70363778161728 0 0 0
417 1 6.791470757939276 6.862021472835543 12.837466231144456 0 0 0
206 1 8.177634415849582 5.027866916529656 11.236363967210366 0 0 0
425 1 13.339043432604067 6.581741209862193 12.673219481622121 0 0 0
400 1 11.820872394672946 5.027870344000456 14.268384495625877 0 0 0
1945 1 19.228139561048415 6.649730242008491 12.89925766840161 0 0 0
413 1 1.814147062339227 8.350885433780828 14.6925882633589 0 0 0
412 1 3.2905690413798587 9.86553174340807 12.94835400471311 0 0 0
223 1 5.155045411681292 8.303422420957935 11.378310943461583 0 0 0
420 1 9.817584226733164 9.738573952116573 13.07295727714338 0 0 0
231 1 11.45624641703512 8.00585453492619 11.519889307798872 0 0 0
421 1 8.168150835046355 8.072060871642094 14.695192912539737 0 0 0
429 1 14.694123023869974 7.7336319945597864 14.693942623856461 0 0 0
239 1 17.895139093920342 8.274406894958064 11.24610556878896 0 0 0
428 1 16.3524771638407 9.558352858984946 12.935090282713317 0 0 0
441 1 6.842197479683662 12.847298819838391 12.748376078917516 0 0 0
416 1 5.465167730943992 11.33862981940979 14.631921532177573 0 0 0
230 1 8.501623170631095 11.407340269990792 11.264139066883189 0 0 0
424 1 11.663193653437641 11.301164542100397 14.235604180930608 0 0 0
238 1 14.63184486791072 10.976703812101585 11.575976480376916 0 0 0
449 1 13.117570052710207 12.785031920146597 12.936360653399314 0 0 0
432 1 18.021423956646206 10.660577120124834 14.657014537801993 0 0 0
1969 1 19.137709633317943 12.710505889970309 12.983582948376991 0 0 0
436 1 3.5995958903963228 15.722536750100849 13.116159444553016 0 0 0
437 1 2.1451528544435465 14.107504536289303 14.279033728045398 0 0 0
247 1 5.438016378924915 14.343447758511529 11.500302769110732 0 0 0
444 1 10.182424464321697 15.9492016883757 12.974401396322667 0 0 0
255 1 11.532762675633224 14.626603100947715 11.19476637834338 0 0 0
445 1 8.401290893106012 14.352318775582926 14.39991976388142 0 0 0
453 1 14.718192780622603 14.386563411382381 14.416506894561294 0 0 0
263 1 17.448165490853576 14.191324335146792 11.575325328082918 0 0 0
452 1 16.035915432275335 15.943909379227918 12.906710554698684 0 0 0
246 1 1.9030167198136279 17.29977351845622 11.276209022506874 0 0 0
465 1 6.674191138581364 19.023088501696705 12.843216603874296 0 0 0
440 1 4.898694499105812 17.366659145844064 14.541531355701137 0 0 0
254 1 8.346049401099808 17.54568345789149 11.602309338643686 0 0 0
448 1 11.532172303791276 17.70133041317421 14.485205228158856 0 0 0
262 1 14.738640398668865 17.66482115462585 11.325992530971092 0 0 0
473 1 13.42766990861585 19.28120184850786 13.114542861513316 0 0 0
456 1 17.415982127817124 17.7314774661398 14.392769640033388 0 0 0
1993 1 19.155517780955044 19.203521961461252 12.924662466740688 0 0 0
460 1 3.414532119012294 22.544658908508346 13.045475191642316 0 0 0
461 1 1.8905676347466929 20.718448687452682 14.384465183547036 0 0 0
271 1 4.997287446865603 21.104457691197382 11.666117200448051 0 0 0
469 1 8.383255242724385 20.752847437231804 14.015565440278408 0 0 0
468 1 10.323409371254128 22.406843884080377 12.71512734466228 0 0 0
472 1 11.607355231390345 23.597226370440556 14.476520440129743 0 0 0
279 1 11.88064241963822 20.721644693245423 11.239517010255407 0 0 0
477 1 14.803957583649733 20.66024440901086 14.669758986641 0 0 0
287 1 17.426528004047896 20.771638814087343 11.808516593914632 0 0 0
476 1 16.090246295040366 22.272965659728293 13.307993057511185 0 0 0
270 1 1.9823561184607417 24.207484357083533 11.27482743051302 0 0 0
489 1 6.840505538565712 25.564074841150813 12.790478282410644 0 0 0
295 1 4.863194170717485 26.943815376696257 11.183369302142145 0 0 0
464 1 5.0848655462823045 24.206881256541138 14.403407930039771 0 0 0
278 1 8.831111013120939 24.113026730936888 11.19090717748761 0 0 0
286 1 14.777249714695785 23.814332225980962 11.581866539825622 0 0 0
497 1 13.166021140622872 25.296917677310088 13.16519108178907 0 0 0
311 1 17.762728204998176 27.094157587559618 11.466654813383752 0 0 0
2017 1 19.095353786175778 25.402306934192964 12.921984570630672 0 0 0
484 1 3.42506076518806 28.575673427408653 12.981607164625519 0 0 0
488 1 5.287989006878075 30.114484377062283 14.547495683326767 0 0 0
302 1 8.39480572664062 29.716362733548827 11.253271618628922 0 0 0
493 1 8.025469952929146 27.165437512077503 14.653879770311658 0 0 0
303 1 11.710050317810651 27.158576657277056 11.213326986236115 0 0 0
492 1 9.820101136901945 28.402550496160465 13.028966198717026 0 0 0
496 1 11.489278118836518 30.15274007175282 14.406065064519005 0 0 0
310 1 14.249655614958094 30.365694678803628 11.383760572879755 0 0 0
501 1 14.687710904288126 27.124667880254716 14.546621927774247 0 0 0
500 1 16.08606365733325 28.402340601833416 12.667595882053037 0 0 0
504 1 17.709989048407266 30.04822305502246 14.554359490479358 0 0 0
509 1 1.8943367303614933 32.85325553023941 14.144417485319707 0 0 0
513 1 6.802910593977874 31.41819729270382 12.780053174995064 0 0 0
517 1 8.17115889838594 33.36917214343816 14.050343616692192 0 0 0
521 1 13.159431092909026 32.093371943040694 12.985462016477655 0 0 0
525 1 14.791090705541842 33.55433817286925 14.428192944212263 0 0 0
335 1 17.768866714564844 33.554200787406856 11.292602959921178 0 0 0
2041 1 18.967204679203068 31.706858368548325 13.060670629368948 0 0 0
508 1 3.7021899953218598 34.53755319221614 12.859030465953653 0 0 0
512 1 5.049484142152782 36.641604243671466 14.262277054252644 0 0 0
326 1 8.425215030682779 36.27291517867957 11.500497575086962 0 0 0
516 1 10.13404462004554 34.86008605880566 12.79095927222328 0 0 0
520 1 11.69295454392773 36.42626027269725 14.338371238308442 0 0 0
334 1 14.591039844541477 36.59394919268519 11.317127702730767 0 0 0
524 1 16.245330195209334 34.896719610640034 12.913346222572704 0 0 0
529 1 0.4914122777723452 37.745536486262125 12.704494394813606 0 0 0
533 1 2.407517624373476 39.54117586044461 14.287459737399661 0 0 0
343 1 5.785932895290893 39.437072113400276 11.39187566711852 0 0 0
537 1 6.872503901917089 38.218906849974275 13.201203688379113 0 0 0
351 1 11.283215209079094 39.598150140504146 11.376563189984115 0 0 0
541 1 8.363804656952112 39.88276696849941 14.641226674346154 0 0 0
545 1 13.082507516926565 37.953650579393624 12.7639138475866 0 0 0
549 1 14.289215097004865 39.715410919087844 14.428839902663093 0 0 0
359 1 17.86388692865512 39.57380408726026 11.61545753763168 0 0 0
342 1 2.1119400260660006 42.81715886013053 11.331253760567433 0 0 0
532 1 4.2666783527324 41.331506663679775 12.503405210041334 0 0 0
536 1 5.1397869135671534 42.90367834777052 14.568866647044635 0 0 0
350 1 8.680876364945178 43.12375937992478 11.698502034883427 0 0 0
540 1 9.840590531875007 41.20975063614918 12.99880759944179 0 0 0
544 1 11.096980538305774 42.82750991507632 14.627692703507991 0 0 0
358 1 14.496988671117249 42.79439943923711 11.517017535156677 0 0 0
548 1 16.14169028816357 41.13167873358387 12.854161742505907 0 0 0
552 1 17.913675566751515 42.68045734911287 14.294559625937747 0 0 0
556 1 3.6172341177989993 46.97251130788399 13.002289625301716 0 0 0
561 1 6.6754980049728525 44.39907614123278 13.164392238640522 0 0 0
375 1 11.549164950429185 46.18098039037628 11.529682479353799 0 0 0
565 1 8.313406396650965 46.05660208349123 14.372687319473616 0 0 0
569 1 13.057007801072652 44.2840731025225 13.151723582785243 0 0 0
573 1 14.786275202609524 45.675122424188785 14.341465688774571 0 0 0
366 1 2.171704272626278 48.61756574249722 11.543012981866294 0 0 0
393 1 6.470883500229899 50.268830041176614 13.318039807285361 0 -1 0
560 1 4.984779619639953 48.5044312961318 14.433213452443063 0 0 0
374 1 8.194284655240647 49.16084982132682 11.690660803242748 0 0 0