

read_data data.ice_${TEMP}K_${PRES}atm_mW group ice
read_data data.ice_272K_${PRES}atm_mW group ice
read_data data.ice_272K_1atm_mW group ice
Reading data file ...
  orthogonal box = (0.48678279 0.43269581 0.43269581) to (56.783727 50.474424 50.474424)
  3 by 1 by 2 MPI processor grid
  reading atoms ...
  4608 atoms
  reading velocities ...
  4608 velocities
  read_data CPU = 0.026 seconds
read_data data.liq_${TEMP}K_${PRES}atm_mW add append shift ${X_HI} ${YZ_LO} ${YZ_LO} group water
read_data data.liq_272K_${PRES}atm_mW add append shift ${X_HI} ${YZ_LO} ${YZ_LO} group water
read_data data.liq_272K_1atm_mW add append shift ${X_HI} ${YZ_LO} ${YZ_LO} group water
read_data data.liq_272K_1atm_mW add append shift 50.4744241873804 ${YZ_LO} ${YZ_LO} group water
read_data data.liq_272K_1atm_mW add append shift 50.4744241873804 -0.432695812621109 ${YZ_LO} group water
read_data data.liq_272K_1atm_mW add append shift 50.4744241873804 -0.432695812621109 -0.432695812621109 group water
Reading data file ...
  orthogonal box = (0.48678279 -0.24224477 -0.24224477) to (104.18936 50.474424 50.474424)
  3 by 1 by 2 MPI processor grid
  reading atoms ...
  4608 atoms
  reading velocities ...
  4608 velocities
  read_data CPU = 0.027 seconds

write_data data.icewater_test
System init for write_data ...
WARNING: Communication cutoff is 0.0. No ghost atoms will be generated. Atoms may get lost. (../comm_brick.cpp:167)

# Define potential
#
pair_style sw
pair_coeff * * /data/emrosky-sim/Freezing_Simulations/Melting/mW_fancy/mW.sw mW
Reading sw potential file /data/emrosky-sim/Freezing_Simulations/Melting/mW_fancy/mW.sw with DATE: 2019-02-27

# Delete water and ice atoms that are overlapping
#
delete_atoms overlap 2.5 water ice
System init for delete_atoms ...
Neighbor list info ...
  update every 1 steps, delay 10 steps, check yes
  max neighbors/atom: 2000, page size: 100000
  master list distance cutoff = 6.3065
  ghost atom cutoff = 6.3065
  binsize = 3.15325, bins = 33 17 17
  2 neighbor lists, perpetual/occasional/extra = 1 1 0
  (1) command delete_atoms, occasional, copy from (2)
      attributes: full, newton on
      pair build: copy
      stencil: none
      bin: none
  (2) pair sw, perpetual
      attributes: full, newton on
      pair build: full/bin/atomonly
      stencil: full/bin/3d
      bin: standard
Deleted 707 atoms, new total = 8509

# set timestep
#
timestep 10.0

# Define output
#
compute 1 all msd
thermo 50
thermo_style custom step temp press vol etotal ke pe c_1[4]

# Neighbor lists
#
neigh_modify delay 0 every 1 check yes

# Set fixes
#
fix 1 all momentum 10 linear 1 1 1 rescale
fix 2 all nph iso ${PRES} ${PRES} ${PCOUPL}
fix 2 all nph iso 1 ${PRES} ${PCOUPL}
fix 2 all nph iso 1 1 ${PCOUPL}
fix 2 all nph iso 1 1 10000.0
fix 3 all temp/csvr ${TEMP} ${TEMP} ${TCOUPL} 837492
fix 3 all temp/csvr 272 ${TEMP} ${TCOUPL} 837492
fix 3 all temp/csvr 272 272 ${TCOUPL} 837492
fix 3 all temp/csvr 272 272 5000.0 837492


# Fix ice atoms in place
#
velocity ice set 0.0 0.0 0.0
fix 4 ice setforce 0.0 0.0 0.0

# Run 1.0 ns equilibration of water
#
dump 1 all atom 1000 eq.all.${NAME}.dump
dump 1 all atom 1000 eq.all.coexist_272K_1atm_mW.dump
run 100000
Neighbor list info ...
  update every 1 steps, delay 0 steps, check yes
  max neighbors/atom: 2000, page size: 100000
  master list distance cutoff = 6.3065
  ghost atom cutoff = 6.3065
  binsize = 3.15325, bins = 33 17 17
  1 neighbor lists, perpetual/occasional/extra = 1 0 0
  (1) pair sw, perpetual
      attributes: full, newton on
      pair build: full/bin/atomonly
      stencil: full/bin/3d
      bin: standard
Per MPI rank memory allocation (min/avg/max) = 4.596 | 4.605 | 4.615 Mbytes
Step Temp Press Volume TotEng KinEng PotEng c_1[4] 
       0    121.77023   -1590.5603    266741.74   -86418.957    3088.1821    -89507.14            0 
      50    149.81971    -1042.533    263904.44   -86163.419    3799.5374   -89962.956   0.97376241 
     100    160.27934     96.69716    259571.77   -85871.279    4064.8014    -89936.08    2.3788219 
     150     166.6293    466.79405    257985.51   -85554.859    4225.8411     -89780.7    3.6732049 
     200    167.79821    477.20215    258347.92   -85358.283    4255.4853   -89613.768    4.8066787 
     250     175.1747    74.588139    259688.66   -85106.691    4442.5585    -89549.25    6.0516695 
     300     180.2974   -132.27974    260960.01   -84808.794    4572.4741   -89381.268     7.382528 
     350    186.17109   -212.10345    261200.48   -84625.782    4721.4351   -89347.217    8.8708624 
     400    186.01259   -49.707184    260944.47   -84427.604    4717.4155   -89145.019      10.5635 
     450    189.78642    41.141953    260731.72    -84194.15    4813.1225   -89007.273    12.277471 
     500    195.08439    21.739017    260704.04    -84024.57     4947.483   -88972.053    14.008569 
     550    194.93311    38.676494    261086.02   -83854.191    4943.6463   -88797.837     15.88487 
     600    198.70873   -36.427097    261501.68   -83688.276    5039.3988   -88727.675     17.88134 
     650    203.58693    111.85734    261812.24   -83516.829    5163.1134   -88679.943    19.769032 
     700    210.27374    -56.04221    262153.56   -83346.607    5332.6961   -88679.304    21.747248 
     750    208.04616   -153.90264    262174.21   -83206.895     5276.203   -88483.098    24.111177 
     800    216.97412    199.81079    261881.62   -83048.424    5502.6226   -88551.046    26.408298 
     850    215.58859    110.36027    262028.58   -82883.962    5467.4844   -88351.447    28.645282 
     900    219.07697   -157.92227    262588.93   -82739.618    5555.9524   -88295.571    30.650836 
     950    220.41392   -70.891786    262990.39   -82599.243    5589.8583   -88189.102    33.138997 
    1000     224.4465   -120.88588    263243.57   -82481.831    5692.1274   -88173.959    35.730573 
    1050     225.1849    139.02064    263115.92   -82378.585    5710.8539   -88089.439    38.170011 
    1100    225.71172    103.99277    263110.48   -82289.722    5724.2145   -88013.936     40.61149 
    1150    230.72033    200.29138     263740.9   -82185.898    5851.2364   -88037.134    43.271713 
    1200    224.40594   -72.114767    264575.02   -82098.915    5691.0989   -87790.014    46.152698 
    1250    229.58923   -143.70176    264694.18   -82009.603    5822.5509   -87832.154    49.117205 
    1300    234.80105   -156.21939    264221.02   -81936.382    5954.7266   -87891.109    52.297324 
    1350    234.89144     385.0433    263689.74   -81861.176    5957.0189   -87818.195    54.986359 
    1400    238.14401    49.768602    263927.81    -81757.01    6039.5063   -87796.516    57.897771 
    1450    243.24486   -76.090519    264518.76   -81661.394    6168.8677   -87830.261     60.90493 
    1500      237.645   -245.26279    265219.85   -81596.809     6026.851    -87623.66    63.633205 
    1550    237.45731    -175.5579    265223.69   -81527.248    6022.0911   -87549.339    66.454301 
    1600    241.87403   -88.935273    264580.42   -81448.953    6134.1025   -87583.055    69.008632 
    1650    244.31167    260.81199    263921.04   -81393.825    6195.9227   -87589.748    71.720459 
    1700    245.33311    184.92736    263985.95   -81309.633    6221.8272    -87531.46    74.739629 
    1750     245.8804    79.878642    264645.65   -81263.283     6235.707    -87498.99    78.689664 
    1800    252.48639    -129.4961    265434.17   -81180.377    6403.2397   -87583.617    81.796653 
    1850    248.41833   -11.366639    265541.65   -81104.127    6300.0706   -87404.198    84.886434 
    1900    253.18727   -83.566071     265376.7    -81024.54    6421.0145   -87445.554    88.318142 
    1950    249.38887    94.032142    265106.21   -80957.971    6324.6842   -87282.656    91.311484 
    2000    254.61192    59.034247    265150.85   -80882.321    6457.1445   -87339.465    94.131308 
    2050    254.25223   -59.367571    265371.48    -80874.07    6448.0227   -87322.093     97.47693 
    2100     256.3704   -34.594304    265662.61   -80853.181     6501.741   -87354.922     100.7743 
    2150    255.23695    87.313408    265711.46   -80805.982    6472.9957   -87278.978    103.74547 
    2200    259.80751   -31.304789    265644.14   -80752.228    6588.9087   -87341.137     107.3461 
    2250     253.9747    240.54949    265533.52    -80723.73    6440.9844   -87164.715     110.3894 
    2300    262.42723   -71.884512    265503.47   -80644.993    6655.3466   -87300.339    113.91854 
    2350    258.47677    44.638004    265531.84   -80564.706      6555.16   -87119.866    117.09183 
    2400    265.16489    190.92474    265636.99   -80548.484    6724.7757   -87273.259    120.07284 
    2450    265.31551     83.77975    265962.78   -80506.136    6728.5954   -87234.732    123.69863 
    2500    262.89082    62.427645    266383.68   -80439.404    6667.1036   -87106.507    127.50339 
    2550     262.9275   -82.635425    266672.73   -80414.472    6668.0339   -87082.506    131.62727 
    2600    262.70422    100.47154    266490.09   -80400.395    6662.3712   -87062.767    135.54766 
    2650    264.04415    57.045784     266130.9   -80329.279     6696.353   -87025.632    139.50482 
    2700    271.26254    49.634247    265806.73   -80309.446    6879.4166   -87188.863    142.92532 
    2750    269.23477   -17.242103    265744.75   -80325.195    6827.9909   -87153.186    145.89621 
    2800    263.45316    136.50037    266078.52   -80303.628    6681.3649   -86984.993    149.52722 
    2850      265.226   -44.112449    266509.77   -80311.484    6726.3256    -87037.81    153.55273 
    2900    264.43367   -268.33053    266754.79   -80324.572    6706.2314   -87030.804    157.52049 
    2950    263.99039    19.783591    266420.18   -80320.539    6694.9894   -87015.529    161.10914 
    3000    268.88304   -164.70196    266234.95   -80271.244    6819.0706   -87090.315     164.6181 
    3050    267.53217    76.594789    265974.55    -80282.05    6784.8117   -87066.862    168.48228 
    3100    265.98224    77.471138    266045.52   -80271.933    6745.5043   -87017.438    171.94466 
    3150    265.03036   -74.629983    266511.81   -80280.733     6721.364   -87002.097    174.84003 
    3200    267.18537   -146.48137    266675.39   -80248.406    6776.0165   -87024.423    179.01157 
    3250    269.76189   -160.87269    266748.78   -80219.483     6841.359   -87060.842    182.42319 
    3300    263.94432    82.508472    266735.86    -80172.28    6693.8212   -86866.101    185.53398 
    3350    263.73496    210.27032    266566.73   -80077.138    6688.5116   -86765.649    188.86768 
    3400    269.01012    27.636706     266471.1   -80126.516    6822.2936   -86948.809    192.63081 
    3450    268.91232   -27.060229    266270.08   -80138.436    6819.8133    -86958.25    195.08456 
    3500    269.86645    66.024641    266160.94     -80130.3    6844.0107    -86974.31    198.29181 
    3550    266.79357    36.885201     266511.7   -80084.905    6766.0801   -86850.985    201.83619 
    3600     270.1195    -48.24755    266992.75   -80100.729    6850.4281   -86951.157    205.81781 
    3650    267.66205    -140.7232    267242.89   -80101.768    6788.1054   -86889.873    208.86642 
    3700    265.84767   -110.31121    267143.51   -80087.002    6742.0916   -86829.094    211.66468 
    3750    268.58663   -65.578251       266841   -80108.286    6811.5535    -86919.84    214.60347 
    3800    267.88265    96.091394    266382.65   -80111.458    6793.7002   -86905.158    217.91832 
    3850    272.21771    61.803501    266131.96   -80103.049    6903.6403   -87006.689    221.55768 
    3900    273.02024    13.710947    265992.76   -80115.156    6923.9931   -87039.149    225.10424 
    3950     272.3229     161.1988    266545.39   -80083.488    6906.3081   -86989.796    228.74546 
    4000    268.99712   -166.94483    267147.99   -80087.236     6821.964     -86909.2    232.94644 
    4050     269.9291   -101.94377    267313.93   -80070.641    6845.5996    -86916.24     236.8139 
    4100    268.60718    78.286686    266996.04   -80063.879    6812.0747   -86875.954    240.74566 
    4150    268.60082   -8.2637229    266505.06   -80021.943    6811.9134   -86833.857    243.99634 
    4200    268.50122    230.96041    266179.24   -80018.391    6809.3874   -86827.779    247.80661 
    4250    270.98263    209.27468    266240.46   -80000.228    6872.3179   -86872.546    250.85931 
    4300      267.475    66.048884    266739.52   -80009.371    6783.3619   -86792.732     254.0978 
    4350    268.92499   -303.89279    267088.89   -80026.019    6820.1347   -86846.154    258.21074 
    4400    266.47999    -10.39546    266918.88    -80015.16    6758.1276   -86773.288    260.44972 
    4450    274.32634   -102.72406    266634.65   -79958.072    6957.1168   -86915.188    264.10702 
    4500    273.57588    24.304568    266346.71   -79912.112    6938.0845   -86850.197    267.47424 
    4550    271.92159    87.059627    266543.01   -79867.568    6896.1306   -86763.699    270.03083 
    4600     273.9815   -71.714868    267134.71   -79871.988    6948.3715   -86820.359    273.18418 
    4650    276.70802   -180.68914    267570.05   -79812.731    7017.5179   -86830.249    276.20966 
    4700    272.84144   -53.413011    267591.21   -79794.027    6919.4586   -86713.485    279.31121 
    4750    272.09726    38.928636    267255.73   -79808.008    6900.5857   -86708.594    281.51114 
    4800    277.90872   -34.601747    266932.07   -79817.388    7047.9686   -86865.356    284.25928 
    4850    273.63043    178.09047    266750.58   -79825.057    6939.4679   -86764.525    287.22209 
    4900    274.40818    312.51053    266464.18   -79823.842    6959.1924   -86783.034    289.50089 
    4950    274.14201    156.21305    266587.48    -79832.13    6952.4421   -86784.572    292.99928 
    5000    273.86963    66.082889    266976.08   -79852.097    6945.5342   -86797.632    297.17142 
    5050    276.70286   -93.484637    267258.18   -79867.104     7017.387   -86884.491     300.5836 
    5100    275.11891   -224.75924    267214.21    -79877.45    6977.2169   -86854.667    303.25115 
    5150    271.12367    193.96551    266893.56   -79894.966    6875.8947   -86770.861     306.9693 
    5200    278.50908    55.047709     266673.1   -79900.951     7063.194   -86964.145    310.05177 
    5250    273.46616   -8.5961288    266863.18   -79884.992     6935.302   -86820.294    313.10137 
    5300    269.98608   -80.708983    267109.39   -79872.286    6847.0446    -86719.33    316.24711 
    5350    273.77275   -30.399433    267229.18   -79841.118    6943.0774   -86784.196    319.36158 
    5400    273.21674   -64.695112    267054.09   -79893.871    6928.9766   -86822.847    322.42569 
    5450    274.21159    105.88007    266800.97   -79880.139    6954.2067   -86834.346    326.46769 
    5500     272.5315    57.895532    266723.17   -79877.276    6911.5982   -86788.874    329.40534 
    5550    271.92569     78.67765    266690.24    -79928.08    6896.2346   -86824.314    332.11707 
    5600    266.88469    81.940041    266755.83   -79982.738    6768.3911   -86751.129    335.91668 
    5650    272.95022    -96.86097     266728.8   -80065.229    6922.2174   -86987.446    338.88379 
    5700     275.9903    143.35904    266428.61   -80050.386    6999.3161   -87049.702    341.59534 
    5750    274.06026    96.813942    266426.26   -80029.206    6950.3688   -86979.575    344.27542 
    5800    270.29191    55.729297    266899.68    -80027.06    6854.8007    -86881.86    348.21655 
    5850    275.20474   -360.10248    267438.34   -79966.909    6979.3937   -86946.303    351.77848 
    5900    273.69537   -95.407046    267357.21   -79993.484    6941.1148   -86934.599    354.69361 
    5950    271.62559   -73.476113    266825.01   -79996.735    6888.6238   -86885.358    357.80947 
    6000    271.75641    218.12757    266202.51   -79997.073    6891.9414   -86889.015    360.29095 
    6050    273.99237    215.06061    266368.21   -79950.692     6948.647   -86899.339    363.51971 
    6100    272.31015   -127.71942    267051.88   -79955.245    6905.9847    -86861.23    366.86495 
    6150    268.61861    -143.6268    267379.67   -79937.942    6812.3645   -86750.306    369.87025 
    6200    272.44468     -147.064    267127.25   -79958.326    6909.3965   -86867.722    373.03849 
    6250    273.15386    43.808329    266678.94   -79940.959    6927.3818   -86868.341    376.47057 
    6300    277.86446    72.316362    266453.47   -79913.514     7046.846   -86960.361    378.63012 
    6350    273.24565    11.483635    266513.34    -79885.39    6929.7098     -86815.1     382.1599 
    6400    271.57856   -110.57097    266756.22   -79941.299    6887.4312    -86828.73    385.99384 
    6450    271.30728     71.72716    266905.48   -79954.288    6880.5511   -86834.839    388.56215 
    6500    275.89206   -130.38286    266870.86   -79906.897    6996.8246   -86903.721    391.58322 
    6550    272.43883   -5.0992346    266796.05   -79889.534    6909.2481   -86798.782    394.61848 
    6600    272.03345   0.27885534    266838.37   -79901.217    6898.9674   -86800.185    397.79193 
    6650     271.9124    77.380626    266829.58    -79946.46    6895.8974   -86842.357    402.13995 
    6700    272.35692    70.062574    266882.46   -79961.423    6907.1708   -86868.594    404.40625 
    6750    268.45786   -50.685114    266968.87   -79982.136    6808.2879   -86790.424    407.68745 
    6800     275.3836   -89.718176     266797.4   -79950.784    6983.9296   -86934.714    409.93027 
    6850    275.01625   -294.74074    266702.47   -79947.225    6974.6134   -86921.838    412.99711 
    6900    273.15895    259.08422    266636.35   -79920.054    6927.5108   -86847.565    416.44363 
    6950    273.65107    36.621197    266784.32   -79911.562    6939.9915   -86851.553    419.53304 
    7000    270.31598   -65.152507    266925.05   -79888.073     6855.411   -86743.484    422.26463 
    7050     274.7888   -141.40864    266960.63   -79874.593     6968.845   -86843.438    425.53168 
    7100      276.995   -16.725492    266703.12   -79881.737    7024.7959   -86906.533     428.8071 
    7150    271.75074    115.33541    266409.23   -79937.554    6891.7977   -86829.352    432.20645 
    7200    274.22052    117.96239    266457.49   -79977.126    6954.4332    -86931.56    436.03571 
    7250    271.40321   -14.765946    266805.16   -79928.431    6882.9841   -86811.415    438.36895 
    7300       276.44   -36.000427    267083.07    -79906.45    7010.7206   -86917.171    441.94748 
    7350      272.709   -263.16936    267239.06   -79893.064       6916.1   -86809.164    446.09126 
    7400    271.92116    140.94461    267008.76   -79848.297    6896.1197   -86744.417    449.39973 
    7450    273.33557    148.63383     267017.7    -79825.52    6931.9902    -86757.51    453.28019 
    7500    275.63895    125.01857    267107.88   -79888.765    6990.4056    -86879.17    456.63721 
    7550    271.02073   -10.945325    267190.47   -79918.649     6873.284   -86791.933    460.95612 
    7600    273.55761   -189.43202    266953.05   -79865.591    6937.6213   -86803.212    463.95322 
    7650     271.5904    115.60874    266645.91   -79882.804    6887.7313   -86770.536    467.30886 
    7700    271.08118    177.55785    266421.35   -79873.682    6874.8171     -86748.5    470.40402 
    7750    275.84947    281.20815    266462.31   -79841.952    6995.7444   -86837.696    474.02783 
    7800    274.68543    73.411222    267018.03   -79875.589    6966.2235   -86841.813    477.87079 
    7850     276.9618   -131.31955    267297.39   -79850.726     7023.954    -86874.68    481.20698 
    7900    271.54353   -18.197656    267237.62   -79883.848    6886.5426   -86770.391    483.69746 
    7950    273.30865   -48.322638    266981.81   -79920.322    6931.3073   -86851.629      487.106 
    8000     273.5061    101.31943    266693.41   -79901.457     6936.315   -86837.772    490.32918 
    8050    277.06239    22.934423    266838.63   -79894.941    7026.5051   -86921.446    493.98757 
    8100    275.43771   -249.39584    266978.51   -79928.625     6985.302   -86913.927    497.16735 
    8150    279.02661    71.818138    266870.88   -79880.795    7076.3191   -86957.114    499.30436 
    8200    274.17464    47.658671    267072.02   -79905.201    6953.2696   -86858.471    502.68526 
    8250    276.24639   -154.44925    266927.28    -79907.81    7005.8105   -86913.621    506.60147 
    8300    271.03401    20.989061    266658.42   -79887.308    6873.6209   -86760.929    508.63603 
    8350    271.10124     111.0095    266546.62   -79947.089     6875.326   -86822.415    512.33153 
    8400    267.17451    145.45446    266586.33   -79942.264    6775.7411   -86718.005     516.6585 
    8450    271.95444   -94.975563    266996.33   -79949.286    6896.9637    -86846.25    519.59493 
    8500    273.45542   -462.93962    267535.34   -79927.548    6935.0296   -86862.577    523.06405 
    8550    271.39669   -207.82821    267368.78   -79950.927    6882.8186   -86833.746    525.54616 
    8600    272.30656   -136.77123    266861.78   -79945.671    6905.8937   -86851.565    527.23332 
    8650    272.11177      61.9143    266478.05    -79942.56    6900.9537   -86843.514    529.78236 
    8700    273.13687    205.09956    266275.34   -79939.333     6926.951   -86866.284    532.69628 
    8750    272.08507    153.01907    266504.59   -79909.267    6900.2765   -86809.544    536.08849 
    8800    274.62218   -234.40732    266977.86   -79927.252    6964.6195   -86891.872     540.1277 
    8850    265.81466   -111.49274    267219.92   -79961.902    6741.2543   -86703.156    543.85762 
    8900    272.11288    20.239703       267146   -79980.727    6900.9817   -86881.709    546.06958 
    8950    274.57836   -16.142768    267050.92   -79961.304    6963.5083   -86924.813    549.30984 
    9000      270.463    219.98485    267007.63   -79951.149    6859.1396   -86810.289    550.90616 
    9050    271.90109    108.94665    266917.74   -79952.516    6895.6108   -86848.127    552.81373 
    9100    271.95666   -80.032133    266883.82   -80014.164    6897.0198   -86911.184    554.92658 
    9150    271.91436    1.4804497    266770.34   -79974.693    6895.9472    -86870.64    558.79467 
    9200    270.84083    168.21923     266596.9   -79979.423    6868.7217   -86848.145     561.1623 
    9250    270.51158    1.7506956    266610.61   -80011.663    6860.3716   -86872.035    563.00621 
    9300    270.33984   -304.93904    266555.59   -80057.373    6856.0161   -86913.389    565.77003 
    9350    266.85917    203.10526    266480.87   -80034.677    6767.7439   -86802.421    568.14766 
    9400    271.57284   -140.29749    266594.06   -80032.095     6887.286   -86919.381    570.56092 
    9450    270.91633    50.276757    266496.43   -79988.754    6870.6364   -86859.391    573.36016 
    9500    274.49357    76.242625    266361.12    -80013.38    6961.3579   -86974.738    574.64677 
    9550    267.47092    34.963843    266555.18   -79991.051    6783.2583    -86774.31    577.74002 
    9600    265.57157    6.5558476    266652.12   -79970.425    6735.0895   -86705.514    581.15433 
    9650    272.60841    202.26209    266697.61   -80003.448    6913.5489   -86916.996    583.49994 
    9700    273.43766    92.953568    266761.59   -80005.314    6934.5791   -86939.893    586.18893 
    9750    270.75076    35.636851     266773.8   -80007.966    6866.4376   -86874.404    588.94256 
    9800    270.88921    121.45904    266717.06   -80014.571    6869.9486    -86884.52    591.97924 
    9850    270.96511    275.28757    266774.02   -80006.814    6871.8735   -86878.687    594.91175 
    9900    269.13998   -207.63863    267194.22   -80005.627    6825.5868   -86831.213     599.1135 
    9950    267.85211    21.436203     267171.8   -79978.528    6792.9256   -86771.454     601.3302 
   10000    273.36002    -116.2636    266692.38   -79978.712    6932.6102   -86911.322    602.99485 
   10050    274.19261    114.04363    266076.48   -79981.234    6953.7252   -86934.959    604.04397 
   10100    271.05096    320.07584    265923.44   -79960.569    6874.0508    -86834.62    608.09315 
   10150    271.39846    70.552826    266613.55   -79947.783    6882.8636   -86830.646    612.32767 
   10200    272.63725   -206.18261    267506.61    -79937.53    6914.2802    -86851.81    616.43571 
   10250    268.76028   -113.29193    267741.47   -79937.282    6815.9574    -86753.24    620.21205 
   10300     270.4848    44.114558    267128.25   -79915.773    6859.6925   -86775.465    623.08827 
   10350    271.65801     272.9745    266346.19   -79912.071    6889.4461   -86801.517    625.45122 
   10400    270.77209    302.82097    266328.58   -79980.166    6866.9784   -86847.145    628.92817 
   10450    270.66942   -54.452148    266902.57   -79956.076    6864.3746    -86820.45    632.85787 
   10500    271.20223   -96.287907    267243.36   -79953.611     6877.887   -86831.498    635.73396 
   10550    275.34575   -159.00492       267390   -79938.143    6982.9697   -86921.113    638.04295 
   10600    273.35608    26.013312    267060.58   -79938.477    6932.5102   -86870.987    640.19726 
   10650    270.84959    131.65733    266784.51   -79922.919    6868.9437   -86791.863    641.52903 
   10700    271.39752    -23.43232    266791.03   -79948.829    6882.8398   -86831.669    643.69737 
   10750    273.42276   -40.744964    266848.66   -79927.265    6934.2014   -86861.467    647.32488 
   10800    269.36681   -280.33281    266788.23   -79945.266    6831.3394   -86776.606     650.6324 
   10850    271.24067    31.138731    266500.21   -79894.637     6878.862   -86773.499    652.06457 
   10900    274.43536    -26.47073    266300.15   -79896.865    6959.8817   -86856.746    653.82542 
   10950     268.6464    326.91177    266392.63    -79903.73    6813.0694   -86716.799    655.70795 
   11000    271.07449   -109.26509    267017.23   -79944.681    6874.6474   -86819.329    659.60991 
   11050     273.3591   -188.44486    267367.26   -79970.268    6932.5868   -86902.854    663.87441 
   11100      269.692   -35.568961     267339.7   -79947.602    6839.5865   -86787.189    665.99473 
   11150    274.08872   -90.639904    266994.56   -79957.748    6951.0904   -86908.838    668.34612 
   11200    274.72025    121.24363    266457.68    -79949.94    6967.1067   -86917.046      669.016 
   11250    274.15342    217.35964    266332.35   -79982.786    6952.7314   -86935.517    671.77295 
   11300    272.56193   -274.82114    266921.63   -79970.076    6912.3701   -86882.446    675.43142 
   11350    269.25175   -190.28364    267338.59   -79995.616    6828.4215   -86824.037    678.22981 
   11400    266.18395   -12.785907    267119.67   -79994.313    6750.6197   -86744.933    680.27783 
   11450    265.24707     105.7433    266790.86   -80038.613    6726.8598   -86765.473    682.45268 
   11500    270.56371   -47.910593    266644.97   -80036.788    6861.6938   -86898.482    685.90998 
   11550    267.56072    180.30099    266500.64    -80060.85    6785.5356   -86846.386    689.25375 
   11600    270.80322    54.066631    266697.28    -80048.07    6867.7678   -86915.838    692.72785 
   11650    272.71522   -86.191385    266773.39   -80033.694    6916.2577   -86949.951     695.3382 
   11700    270.50568    103.74171    266664.04   -79996.092     6860.222   -86856.314    696.53569 
   11750    270.83904   -94.910206    266803.06   -80011.408    6868.6762   -86880.084     698.9632 
   11800    272.24211   -29.973085    266918.96   -80027.293    6904.2592   -86931.552    702.41744 
   11850    266.01454   -10.784221    266949.62    -79951.01    6746.3233   -86697.333    706.08384 
   11900    271.47076   -78.029833    266854.21   -80027.573    6884.6971    -86912.27    707.76434 
   11950    270.39139   -89.699371    266794.98   -80019.152    6857.3236   -86876.476    709.40014 
   12000    271.19725   -29.357957    266792.23    -80019.76    6877.7607   -86897.521    712.27959 
   12050    270.79581   -7.9446333    266613.32   -80004.996      6867.58   -86872.576    714.64731 
   12100    270.75409    229.07543    266542.42   -79979.394    6866.5219   -86845.916    714.70383 
   12150    269.59431   -77.820716    266765.02   -79968.808    6837.1089   -86805.917    716.37484 
   12200    272.12834    80.258386    266950.04   -79958.441    6901.3739   -86859.815    719.52903 
   12250    270.81235   -144.43824    267286.25   -79924.765    6867.9994   -86792.764     723.6396 
   12300    268.51544   -81.307595    267214.91   -79933.108    6809.7481   -86742.856    726.31329 
   12350    266.99015    51.996264    266945.66   -79958.671    6771.0655   -86729.736    729.13704 
   12400    271.78592     43.65975    266577.42   -79999.582      6892.69   -86892.272    731.35753 
   12450     273.5526    78.869805     266420.5   -79971.923     6937.494   -86909.417    734.83684 
   12500    268.39336    309.43107    266440.55    -79937.34    6806.6521   -86743.992    737.73154 
   12550    272.08608     -23.1857     266968.9   -79990.823    6900.3021   -86891.125    741.24868 
   12600    268.47151   -260.96645    267457.56    -79938.74     6808.634   -86747.374    744.80963 
   12650    271.83575   -92.261494    267085.68   -79954.608    6893.9536   -86848.561    747.07934 
   12700    272.30291    163.01676    266514.18   -79931.093    6905.8011   -86836.894    748.95489 
   12750    272.22114    89.466326    266394.49    -79983.21    6903.7272   -86886.937    752.16361 
   12800    270.24661   -11.963032    266762.65   -80003.351    6853.6519   -86857.003    755.86278 
   12850    269.13715   -99.625503    267191.22   -79994.141    6825.5152   -86819.656    758.97115 
   12900    272.14651   -444.30493    267181.85   -79982.811    6901.8346   -86884.646    761.25373 
   12950    269.30896    172.93405    266655.23   -79988.706    6829.8722   -86818.579    762.93236 
   13000    274.99468     138.6685    266334.19   -79965.284    6974.0664    -86939.35    765.29283 
   13050    271.74869   -93.077262    266475.91   -79951.072    6891.7456   -86842.818    767.28128 
   13100    269.36758     139.4773    266754.21   -79928.945    6831.3589   -86760.303    769.42191 
   13150    272.11405    -10.09668    266944.64   -79949.762    6901.0114   -86850.773     772.2784 
   13200    273.61603   -56.023591    266823.87   -79973.007    6939.1027    -86912.11    775.49403 
   13250    271.96319    142.26801    266829.72     -80014.6    6897.1856   -86911.786    778.06468 
   13300    269.32798   -17.270678    266966.62   -80015.329    6830.3547   -86845.683    781.56666 
   13350    273.49814    86.979156    266769.16   -79992.981     6936.113   -86929.094    783.63245 
   13400    267.43327    144.01264    266501.68   -80016.599    6782.3034   -86798.902    786.37624 
   13450    269.81625    224.41663    266525.65   -80043.199    6842.7375   -86885.936    790.11112 
   13500     272.9074   -148.28186    266861.09   -80006.906    6921.1314   -86928.037    794.16332 
   13550    272.05658    -78.74899    266785.31   -80080.739    6899.5539   -86980.293    797.80684 
   13600    272.13576   -109.05926    266587.44   -80085.291    6901.5621   -86986.853    800.48579 
   13650    265.41401     57.33942    266577.06   -80091.802    6731.0935   -86822.895    802.01274 
   13700    266.89052    184.43104    266712.83   -80079.859    6768.5389   -86848.398    804.74757 
   13750    269.58955   -73.214019    266790.41   -80058.706    6836.9882   -86895.694    808.85558 
   13800    268.49666   -49.448916    266709.88   -80103.563    6809.2719   -86912.835    811.79433 
   13850    273.48234   -13.889917    266550.33   -80094.631    6935.7123   -87030.343    814.37785 
   13900    270.43179   -97.315867    266326.62   -80068.362    6858.3482    -86926.71    817.83588 
   13950    267.70859    190.49781    266366.97   -80083.711    6789.2858   -86872.997    820.29594 
   14000    275.02948    36.917675    266548.95    -80042.86    6974.9489   -87017.809    824.45497 
   14050     269.0604   -85.224566    266756.42   -80027.679    6823.5688   -86851.248    828.34917 
   14100    267.92777   -17.059302    266803.99   -80017.712    6794.8443   -86812.556    831.48229 
   14150    267.84629    99.907004    266891.95   -80019.708    6792.7779   -86812.486    834.72017 
   14200    272.82899   -314.10695    267126.82   -80013.237    6919.1429    -86932.38    837.58096 
   14250    273.06225   -53.074447    267160.64   -79940.106    6925.0586   -86865.164    840.73934 
   14300    274.86098   -104.31862    266850.57   -79969.124    6970.6757     -86939.8    842.64971 
   14350    272.57281    86.157448    266197.06   -79968.534     6912.646    -86881.18    844.24303 
   14400      270.739    143.87694     265815.8   -79946.782    6866.1392   -86812.922     847.0358 
   14450    271.29671    66.267186    266118.44   -79992.804    6880.2831   -86873.088    850.12745 
   14500     271.9079   -267.18718    266828.07   -79998.697    6895.7834   -86894.481    853.78402 
   14550     264.7286    -167.1867    267272.94   -80034.125    6713.7111   -86747.836    856.92066 
   14600    269.14842    -389.0755    267197.03   -80019.396     6825.801   -86845.197    858.96113 
   14650    269.46415   -62.659127    266342.23    -80032.94    6833.8081   -86866.748    859.45936 
   14700    276.05984    239.15061    265631.99   -80004.562    7001.0795   -87005.642    860.13087 
   14750    272.39689     135.4073    266102.81   -80018.948    6908.1845   -86927.133    863.48018 
   14800    268.01063   -175.72609     267052.8   -80062.686    6796.9458   -86859.632    867.33203 
   14850    267.64005   -83.703088    267433.47    -80071.04    6787.5476   -86858.587    869.03298 
   14900    265.03734    188.08825    267097.16   -80068.184     6721.541   -86789.725    871.36725 
   14950    270.59135   -235.01088    266661.92   -80134.622    6862.3947   -86997.017    872.06418 
   15000    267.80811    82.950708    266284.32   -80124.774    6791.8097   -86916.583    873.21064 
   15050    271.56189   -35.342023    266316.93   -80128.302    6887.0082    -87015.31    876.23535 
   15100    266.97453    -28.55372    266694.67   -80105.904    6770.6695   -86876.573    878.25188 
   15150    267.27253    103.44904    266734.01   -80115.455    6778.2269   -86893.682    881.19489 
   15200    266.75593    84.309965    266655.72   -80102.934    6765.1256    -86868.06    883.85514 
   15250    266.70332   -50.856597    266654.31   -80110.694    6763.7915   -86874.485    886.27425 
   15300     267.8743   0.26402526    266615.15   -80068.493    6793.4882   -86861.981    891.08043 
   15350     263.9471    301.26973    266568.82   -80070.101    6693.8916   -86763.992    892.44015 
   15400    273.32945   -115.12228    266718.93   -80038.054    6931.8349   -86969.889    895.92261 
   15450    270.61426    38.934056    266808.39   -80045.902    6862.9757   -86908.878    898.85131 
   15500    269.91345   -74.805987    266859.79   -80029.059    6845.2026   -86874.261    901.16635 
   15550    267.24806   -95.984707    266887.52   -80032.551    6777.6065   -86810.158    903.95329 
   15600    270.60228    -36.71802    266926.09   -80034.129    6862.6719   -86896.801    906.49645 
   15650    269.84719    19.057482    266993.53   -80039.592    6843.5223   -86883.114    908.81777 
   15700    272.09598   -169.96961    267041.73   -80012.331    6900.5532   -86912.884    911.21549 
   15750     271.1388    201.47293    266794.83   -80016.999    6876.2784   -86893.278    912.90745 
   15800    269.22446    79.681714    266598.52   -80008.627    6827.7293   -86836.357    914.87061 
   15850    269.28689    19.186819    266471.96   -79986.353    6829.3126   -86815.666    916.47886 
   15900    272.13848    50.026395     266506.8   -79993.009     6901.631    -86894.64      919.728 
   15950    273.95807   -151.59815    266949.13   -79965.749    6947.7771   -86913.526     923.7229 
   16000    273.79162   -224.34323    267197.32   -79939.566     6943.556   -86883.122    925.09227 
   16050    270.33801   -94.253449    267071.95   -79905.268    6855.9697   -86761.238    926.72129 
   16100    273.18733   -143.47051    266747.79   -79904.062    6928.2307   -86832.293    930.02556 
   16150     275.8547    6.9705462     266481.6   -79911.223    6995.8772     -86907.1    931.08492 
   16200    275.62879    206.42956     266469.7    -79869.67    6990.1478   -86859.818    933.36664 
   16250    272.47759    54.760953     266978.5   -79856.945    6910.2312   -86767.176    936.18641 
   16300    276.48711   -4.1079794     267654.4   -79878.284    7011.9154   -86890.199    940.88302 
   16350    270.67699   -377.71559     268157.1   -79893.801    6864.5665   -86758.367    945.04193 
   16400    272.15502     41.15626    267710.58   -79874.667    6902.0506   -86776.717    944.59258 
   16450     274.9321    144.61156    266782.16   -79913.556    6972.4792   -86886.035    945.67173 
   16500    274.20357    92.202721    266103.22   -79883.771    6954.0032   -86837.775    946.87051 
   16550    274.27107    373.55714    266115.38    -79860.27    6955.7152   -86815.985     949.9106 
   16600    272.83857    141.99457    266868.27   -79841.771    6919.3857   -86761.157    954.20765 
   16650    273.74815   -198.14669    267584.64   -79790.997    6942.4535   -86733.451    957.04707 
   16700    270.46878    98.093997    267598.69     -79865.1    6859.2862   -86724.386    959.68504 
   16750    272.62848    111.56361     267415.5    -79877.58    6914.0578   -86791.638    960.44873 
   16800    277.49066   -236.40426    267165.64   -79891.419    7037.3661   -86928.785    962.59426 
   16850    274.38956     89.57223    266814.86   -79924.828    6958.7202   -86883.548    964.36507 
   16900     271.8729    155.44818    266680.28   -79916.822    6894.8956   -86811.718     966.2126 
   16950    272.57522    35.889365    266912.31   -79880.012     6912.707   -86792.719    969.05567 
   17000    269.58659    9.0013941    267254.78   -79911.982    6836.9131   -86748.896    972.46537 
   17050    275.89518    -189.5008    267497.45   -79881.504    6996.9038   -86878.408    974.44961 
   17100     271.5838    154.85335    267270.18   -79882.493     6887.564   -86770.057    977.38802 
   17150    271.91662    220.62038    267050.64   -79826.182    6896.0044   -86722.187    979.95894 
   17200    271.31502    243.35095    267004.66   -79788.362    6880.7475    -86669.11    980.05167 
   17250    275.20582   -185.37288    267067.23   -79791.163    6979.4211   -86770.584    982.97468 
   17300    272.96374    33.754598    267032.92   -79746.232    6922.5602   -86668.792    984.88106 
   17350    277.76842    56.284205    267080.28   -79791.388    7044.4104   -86835.799    987.31955 
   17400    275.30259   -16.697735    267281.74   -79810.764    6981.8752   -86792.639    988.54501 
   17450    273.77446   -152.06957    267378.09   -79776.755    6943.1208   -86719.875    992.20338 
   17500    274.20056   -130.93214    267450.95   -79818.898     6953.927   -86772.825    994.53043 
   17550    271.59707     167.9722    267315.87   -79863.705    6887.9004   -86751.605    995.26465 
   17600    273.63256    36.841737    266960.53   -79842.597    6939.5219   -86782.119     996.8374 
   17650    275.87539    224.58263    266636.06   -79799.917    6996.4017   -86796.319    998.60914 
   17700    272.09864    92.522581    266685.32   -79781.485    6900.6208   -86682.106    1000.3289 
   17750    278.63158    350.18825    266686.63    -79779.93    7066.3008   -86846.231    1003.6077 
   17800    274.94241   -16.084845    267134.24   -79778.144    6972.7408   -86750.885     1007.182 
   17850    274.79503   -113.86659    267332.82   -79803.478    6969.0031   -86772.481    1009.8126 
   17900    274.96392    23.859704    267200.66   -79832.483    6973.2862   -86805.769    1010.7418 
   17950    275.63529    -47.78818    267184.19   -79848.907    6990.3128   -86839.219    1014.4508 
   18000    271.36311   -128.85171    267243.95   -79899.674     6881.967   -86781.641    1016.2521 
   18050    270.62461    142.14412    267092.54    -79930.77    6863.2381   -86794.008    1019.0573 
   18100     275.3768   -30.536428    267118.71   -79967.015    6983.7573   -86950.773    1022.9929 
   18150    273.54371   -317.67359    267184.54   -79996.966    6937.2686   -86934.235    1025.9106 
   18200    273.55659    11.603011    266606.72   -79946.957    6937.5954   -86884.552    1026.9236 
   18250    275.56303    253.04707    266113.59    -79898.73    6988.4801    -86887.21    1025.6219 
   18300    273.57593    120.31123    266416.72   -79880.743    6938.0858   -86818.829    1029.3789 
   18350    273.97527   -221.40841    267086.81   -79877.137    6948.2134    -86825.35    1034.0695 
   18400      274.851   -82.223396    267145.45   -79880.982    6970.4226   -86851.404    1036.3491 
   18450    274.18961   -64.136966    266937.16   -79905.812    6953.6492   -86859.461    1038.8463 
   18500    274.97988    60.925874     266671.5   -79879.626    6973.6909   -86853.317    1042.1017 
   18550    275.67057   -64.243665    266576.06   -79852.971    6991.2075   -86844.179    1043.9256 
   18600     276.4899   -8.5923805    266607.83   -79831.723    7011.9863   -86843.709    1045.6365 
   18650    275.46306   -164.78865    266930.14   -79852.879    6985.9448   -86838.824    1049.7386 
   18700    272.76055   -243.17213    267198.34   -79867.132    6917.4073    -86784.54    1053.2375 
   18750     276.0454    98.469249    267208.74   -79799.446    7000.7135   -86800.159    1055.9386 
   18800    274.25575    71.210409    267163.32    -79804.82    6955.3265   -86760.147    1058.6961 
   18850    273.52979   -26.339434    266895.67   -79830.664    6936.9156   -86767.579    1059.6179 
   18900    277.90316    164.02727    266612.03   -79848.302    7047.8275    -86896.13     1062.391 
   18950    272.54665   -166.97569    267099.94   -79882.132    6911.9825   -86794.114    1066.2689 
   19000     271.1738   -196.03049    267642.57   -79853.815     6877.166   -86730.981    1068.9606 
   19050    273.27481    53.606495    267170.27   -79825.814    6930.4491   -86756.263    1070.5129 
   19100    273.70502    142.94067    266533.67   -79863.994    6941.3596   -86805.354    1070.8098 
   19150     275.7918     218.9787    266385.83   -79838.924     6994.282   -86833.206    1073.7124 
   19200    276.86703   -108.49802    266869.35    -79860.32    7021.5506   -86881.871    1078.1351 
   19250    273.00464   -148.08927    267437.31   -79846.189    6923.5975   -86769.787    1083.2172 
   19300    270.54681   -142.72303    267480.98   -79864.695     6861.265    -86725.96    1086.2674 
   19350    273.27643     20.43008    267010.11   -79892.983    6930.4902   -86823.473    1089.0176 
   19400    270.16789    50.501958    266715.79   -79898.446    6851.6553   -86750.101    1090.9725 
   19450    271.91303    173.97052    266503.63   -79923.554    6895.9134   -86819.468    1093.7078 
   19500    273.63586    99.062559    266534.38   -79989.448    6939.6057   -86929.053    1094.4505 
   19550    276.37382   -172.58081    266598.27   -79930.838    7009.0422    -86939.88    1097.0654 
   19600    274.66707    103.71888       266607   -79911.561    6965.7579   -86877.319    1101.2189 
   19650     272.2828   -64.012002    266648.13   -79870.935     6905.291   -86776.226    1104.6205 
   19700    276.63284   -91.567001    266679.67   -79826.131    7015.6114   -86841.743    1107.3127 
   19750    273.76207    72.786827    266770.46   -79854.443    6942.8066    -86797.25    1111.9649 
   19800     271.7147    15.098842    266758.75   -79873.672    6890.8836   -86764.556    1115.6518 
   19850    277.35612   -162.46363    266936.97   -79858.577    7033.9541   -86892.531     1117.878 
   19900    273.61631    -169.9474    267271.44   -79803.282      6939.11   -86742.392     1123.062 
   19950    272.05586   -36.013172    267321.77   -79805.023    6899.5357   -86704.559    1127.8543 
   20000    274.52175   -217.03015    267213.16   -79774.889    6962.0724   -86736.962    1132.0493 
   20050    272.57632    57.942565    267124.04    -79813.14    6912.7351   -86725.875    1133.5929 
   20100    272.37099    75.156723    267151.04     -79842.4    6907.5275   -86749.927    1137.6002 
   20150    275.69273   -174.65058    267038.07     -79870.5    6991.7693    -86862.27    1139.2045 
   20200    272.47695   -70.752927    266782.37   -79861.549    6910.2149   -86771.764    1143.0875 
   20250    277.46869    271.27274    266512.98   -79887.877    7036.8092   -86924.687    1144.6895 
   20300    271.45629    342.27262    266569.28   -79870.573    6884.3302   -86754.903    1147.6586 
   20350    273.27763    131.42693    266822.47   -79867.217    6930.5206   -86797.737    1150.8469 
   20400    271.44226   -83.819308    267003.56   -79838.371    6883.9744   -86722.345    1153.5663 
   20450    275.62004    56.124043    267012.12   -79797.291     6989.926   -86787.217    1157.8795 
   20500    272.27069    71.985162    266953.69    -79796.29    6904.9839   -86701.274    1162.6597 
   20550    277.12217    273.89324    266828.78   -79788.162    7028.0209   -86816.183    1164.8817 
   20600    279.05142    44.005387    266985.47   -79782.454    7076.9481   -86859.402    1167.5196 
   20650     277.4185   -124.89243     267118.9   -79744.143    7035.5362    -86779.68    1169.7891 
   20700    275.67276   -106.91688    266808.85    -79817.81     6991.263   -86809.073     1170.632 
   20750    277.69923    264.33188    266404.76   -79813.629    7042.6556   -86856.285    1172.0758 
   20800    277.20657    175.99258    266604.49   -79802.305    7030.1615   -86832.466    1175.7434 
   20850    272.19121   -2.8563891    267285.94   -79802.257    6902.9682   -86705.225      1181.74 
   20900    273.98345   -116.14237    267790.51   -79731.599    6948.4208    -86680.02    1186.3152 
   20950    270.18851   -136.32293    267873.45   -79779.861    6852.1784    -86632.04    1189.0693 
   21000    270.34775   -121.43893    267416.77   -79804.107    6856.2167   -86660.323    1190.2011 
   21050    274.67562    245.82301    266483.94   -79764.794    6965.9748   -86730.769    1189.4064 
   21100     277.7275    346.51158    266204.51   -79752.056    7043.3726   -86795.428    1190.2935 
   21150    277.07839    -58.89071    267057.33   -79790.006    7026.9108   -86816.917    1194.7915 
   21200    275.73258    -170.6692     267769.5   -79808.567      6992.78   -86801.347     1198.897 
   21250     272.9323   -225.49109    267875.05   -79845.707    6921.7629    -86767.47    1202.8526 
   21300    279.04068   -199.18016    267372.46   -79839.367    7076.6759   -86916.043    1204.4624 
   21350    275.85274   -35.664639    266649.93    -79902.85    6995.8274   -86898.678    1205.5577 
   21400     278.1404     20.48796    266432.92   -79900.442    7053.8442   -86954.286    1207.4248 
   21450    272.65395   -71.838894    266673.07   -79891.138    6914.7037   -86805.841    1211.4423 
   21500    277.35351   -105.12473    266795.66   -79870.099     7033.888   -86903.987    1215.7498 
   21550    276.33765    49.503361    266851.11   -79880.166     7008.125   -86888.291    1220.8732 
   21600    273.62151   -69.897017    266841.58   -79921.973    6939.2416   -86861.214     1224.591 
   21650    275.40579    97.369467    266569.07   -79934.961    6984.4924   -86919.454    1227.4011 
   21700    273.84067    127.47118    266426.79   -79907.489    6944.7998   -86852.289    1230.6851 
   21750     272.1102    111.30596    266572.02   -79914.046    6900.9138    -86814.96    1234.5584 
   21800    271.20155    -5.747175    266966.76    -79921.97    6877.8698    -86799.84    1238.3575 
   21850    274.45773   -28.541683    267278.99   -79919.995    6960.4488   -86880.443    1241.3613 
   21900     275.5786   -56.606065    267199.24    -79899.75    6988.8751   -86888.625    1242.8434 
   21950    275.23295   -52.530664    266956.27   -79911.117     6980.109   -86891.226    1244.0737 
   22000    277.79965    110.55519     266522.6   -79869.915    7045.2024   -86915.117    1245.2618 
   22050    275.95307     80.22428    266337.46   -79861.792    6998.3717   -86860.164    1250.3313 
   22100    272.82345     11.12575    266652.85   -79849.793    6919.0024   -86768.795    1253.9858 
   22150    272.36924   -59.552361     267029.4   -79843.192    6907.4833   -86750.676    1258.0394 
   22200    272.55531    -87.17337    267158.38   -79829.644    6912.2021   -86741.846    1260.9785 
   22250    273.33002   -161.91721    266969.48    -79847.71    6931.8493   -86779.559     1263.685 
   22300    274.22834   -16.939595    266463.67   -79877.202    6954.6313   -86831.833    1264.0923 
   22350    276.34418    82.790719    266197.49   -79888.653    7008.2906   -86896.944    1265.5703 
   22400    273.82644    91.669193    266452.85   -79906.313    6944.4389   -86850.751    1268.0245 
   22450    269.71951     133.8546    266837.11   -79880.323    6840.2843   -86720.608    1271.2841 
   22500    281.15505   -78.577112     267115.8   -79813.645    7130.2979   -86943.943    1275.0611 
   22550    271.17349   -123.65626    267086.25    -79839.99    6877.1582   -86717.149    1278.7778 
   22600    277.17946   -12.282076    266909.89     -79870.1    7029.4741   -86899.574     1277.916 
   22650     271.3452   -37.024292    266744.18   -79852.542    6881.5129   -86734.055    1280.4347 
   22700    275.91783    114.04469    266491.73   -79874.568     6997.478   -86872.046    1281.8867 
   22750    276.54949    126.73186    266673.89   -79852.125    7013.4974   -86865.623    1285.3967 
   22800    273.98923   -108.14812    267152.63     -79868.9    6948.5674   -86817.467    1291.8217 
   22850    274.38832    60.026572    267235.83   -79856.331    6958.6886    -86815.02    1293.4475 
   22900    274.32923   -289.22767    267148.05   -79801.185    6957.1901   -86758.376    1294.6231 
   22950    275.04379   -120.82457    266822.71   -79811.976    6975.3119   -86787.288     1296.828 
   23000    273.78421    72.893632    266479.08    -79868.39    6943.3679   -86811.758    1297.3519 
   23050    273.57674    127.93273    266626.81    -79857.56    6938.1065   -86795.667     1300.445 
   23100    273.30526   -130.66411     267142.5   -79904.582    6931.2214   -86835.804    1305.3209 
   23150    276.17403   -316.60434    267265.79   -79901.343    7003.9754   -86905.319    1309.5953 
   23200    275.67167   -143.02801    267070.68   -79858.638    6991.2353   -86849.873    1311.4465 
   23250    276.88911    152.16621    266835.72   -79843.241    7022.1104   -86865.351    1312.7504 
   23300    273.54857   -30.287337     266847.8   -79861.511    6937.3919   -86798.903    1316.3327 
   23350    276.27012   -130.60326    266698.73   -79875.867    7006.4124   -86882.279    1318.9232 
   23400    275.74008     119.8834    266651.67   -79864.696    6992.9702   -86857.666    1321.8732 
   23450    275.31649   -3.5600155    266859.66   -79882.245    6982.2276   -86864.473    1325.8176 
   23500    275.93553   -27.596958    266911.89   -79911.322     6997.927   -86909.249    1330.3762 
   23550    271.69957   -72.890436     266872.8   -79902.348    6890.4998   -86792.848    1332.1622 
   23600    268.68036    112.75893    267048.29   -79907.629    6813.9305    -86721.56    1335.6921 
   23650    271.64347    71.973931    267119.11   -79934.344    6889.0773   -86823.421    1338.7599 
   23700    273.88733    22.675904    266832.75   -79955.056    6945.9832    -86901.04    1340.8211 
   23750    277.85969    38.135135    266402.72   -79953.758     7046.725   -87000.483    1342.4294 
   23800    273.56134    109.71837    266430.86   -79929.269    6937.7157   -86866.985    1346.0213 
   23850    275.46045    23.012849    266824.02   -79896.157    6985.8787   -86882.035    1347.7685 
   23900    274.37872   -265.86559    267328.41   -79913.133    6958.4452   -86871.578    1352.7373 
   23950    273.31281   -512.01007    267626.91   -79945.137     6931.413   -86876.549    1356.7126 
   24000    273.78282   -149.30662    267099.86   -79930.276    6943.3326   -86873.609    1359.0279 
   24050     272.3135    73.515638    266340.43   -79922.945    6906.0697   -86829.014    1358.8081 
   24100    276.08797    350.61115    266047.82   -79937.538     7001.793   -86939.331    1360.7114 
   24150    271.74132   -113.56134    266669.06   -79908.763    6891.5587   -86800.321    1364.8768 
   24200    274.22936    -128.6806    267018.51    -79916.24    6954.6573   -86870.898    1369.2317 
   24250    276.36722    9.3826675    266865.86   -79856.785    7008.8751    -86865.66    1371.5526 
   24300    272.68789   -155.73217    266901.18   -79881.134    6915.5644   -86796.698    1375.0154 
   24350     276.0741    30.217177    267003.76   -79911.161    7001.4413   -86912.602    1378.2548 
   24400    272.53307   -185.42648    267087.23   -79924.053    6911.6381   -86835.691    1380.6266 
   24450    274.67899   -109.80856    266699.76   -79930.116    6966.0602   -86896.176    1384.6352 
   24500    274.50863    299.37635     266388.3   -79931.919    6961.7398   -86893.659    1387.7886 
   24550    270.95486    247.03673    266593.32   -79957.597    6871.6135    -86829.21    1391.7246 
   24600    273.82541   -185.55555    267211.86   -79982.781    6944.4128   -86927.194    1396.1094 
   24650     273.1032   -138.81299     267245.8   -79968.282    6926.0971   -86894.379    1399.0663 
   24700    274.00407   -48.811453     267024.6    -79970.79    6948.9436   -86919.734    1400.0566 
   24750    271.22991    183.65321    266890.13   -79956.533    6878.5892   -86835.123    1401.9866 
   24800    269.24466    133.96609    266719.08   -79980.331    6828.2417   -86808.573    1402.0087 
   24850    271.84807    100.44803    266694.27   -79973.385    6894.2661   -86867.651    1403.6016 
   24900    272.82321   -150.89816    266768.67   -80009.828    6918.9962   -86928.824    1405.5402 
   24950    270.88084    17.010025    266352.02    -80010.84    6869.7364   -86880.576    1404.7066 
   25000    271.62108    121.21837    266106.34    -79979.31    6888.5094   -86867.819    1406.7681 
   25050    272.90957    85.566932    266219.74    -79964.86    6921.1863   -86886.047    1409.8427 
   25100    272.40958    210.91397    266436.87   -79988.955    6908.5063   -86897.461    1412.6473 
   25150    271.59415   -6.9469016    266923.88   -79969.955    6887.8264   -86857.781    1417.6458 
   25200    270.80974   -196.50424    267416.22     -79932.6    6867.9332   -86800.533      1421.74 
   25250     275.6268   -249.38295    267391.52   -79922.543    6990.0973    -86912.64    1426.2552 
   25300    273.59528   -14.833341    266957.46   -79890.142    6938.5766   -86828.719    1426.3136 
   25350    271.50539   -84.114344    266571.53   -79895.633    6885.5753   -86781.209    1426.8431 
   25400    271.79411    172.72958    266252.95   -79916.549    6892.8974   -86809.446    1429.0282 
   25450     274.5604   -14.078556    266394.29   -79942.837    6963.0528    -86905.89    1432.4182 
   25500    269.69291   -13.645671    267012.03   -79959.872    6839.6095   -86799.481    1436.3396 
   25550    267.24104   -262.95329    267791.24    -79964.07    6777.4285   -86741.498    1441.7623 
   25600    268.45511   -380.52365    267636.11   -79976.042    6808.2182    -86784.26     1442.328 
   25650    270.64488    50.220464    266415.37    -79962.92    6863.7524   -86826.672    1439.9435 
   25700    275.32305    297.85148     265634.6   -79936.439    6982.3942   -86918.833    1440.3696 
   25750     275.4034    93.947373    265994.25   -79954.188    6984.4319    -86938.62    1444.0888 
   25800    270.15092   -152.42491    267015.58   -79934.477     6851.225   -86785.702    1448.5625 
   25850    271.82875   -287.49874    267623.06   -79936.529    6893.7762   -86830.305    1452.4706 
   25900    274.76416    31.691589    267370.21   -79963.908    6968.2201   -86932.129    1452.4787 
   25950    271.73441     27.63674    266670.97   -79982.387    6891.3835   -86873.771     1451.834 
   26000    269.51416    150.22025    266053.78   -80006.808    6835.0763   -86841.884    1451.9878 
   26050    270.13776    308.53218    265955.62   -80004.083    6850.8913   -86854.974    1454.1006 
   26100    269.38247    58.643572    266358.21   -80019.382    6831.7365   -86851.118    1458.9519 
   26150    270.31185   -80.726189    266822.88   -79961.722    6855.3063   -86817.029    1463.3817 
   26200    270.14701   -33.714221    267213.02   -79953.778     6851.126   -86804.904     1465.238 
   26250    272.83823   -89.915995    267360.88    -79921.03    6919.3772   -86840.407     1467.831 
   26300    271.81987   -72.032958    267021.08   -79924.357    6893.5507   -86817.908    1468.0525 
   26350    269.15997    154.67308    266525.64   -79869.115    6826.0939   -86695.209    1469.0763 
   26400    276.90997    135.54538    266428.84   -79873.907    7022.6395   -86896.546     1472.148 
   26450    271.79235    79.232957    266620.75   -79915.375    6892.8529   -86808.228    1475.7978 
   26500    277.00106   -108.49654    266882.47   -79893.465    7024.9496   -86918.415    1478.9075 
   26550    270.54807    232.02215    266935.72   -79923.342     6861.297   -86784.639    1480.6944 
   26600    267.22912   -144.28891    267262.38   -79913.473     6777.126   -86690.599    1482.5408 
   26650    271.29435   -42.686865    267261.93    -79942.48    6880.2234   -86822.704    1485.0674 
   26700    272.90236    92.942646    267249.91    -79985.54    6921.0036   -86906.543    1487.2393 
   26750    271.86442   -23.183112    267188.26   -80013.851    6894.6806   -86908.532    1486.3643 
   26800    269.15108   -161.47065    267014.91   -80018.062    6825.8684   -86843.931    1488.2169 
   26850    267.88588    18.485441    266709.74   -80058.287    6793.7819   -86852.069    1490.1819 
   26900    271.43032    155.74813    266407.53   -80078.917    6883.6716   -86962.588    1491.6254 
   26950    270.65726    131.61674     266252.3   -80076.992    6864.0661   -86941.059    1493.7117 
   27000    268.70564    151.31186    266430.55   -80090.911    6814.5717   -86905.482    1496.7019 
   27050    271.29751   -172.98072    266662.09   -80090.631    6880.3035   -86970.934    1500.8182 
   27100    268.14738    161.60672    266632.32   -80127.981    6800.4137   -86928.394    1503.1524 
   27150    267.29169    25.451054    266698.91   -80035.472     6778.713   -86814.185     1505.314 
   27200    269.96023   -7.9703375    266639.85   -80033.846    6846.3889   -86880.235    1508.1342 
   27250    272.76179    87.477082    266451.01   -80032.148    6917.4387   -86949.587     1509.459 
   27300    267.89003    388.80486    266409.91   -80014.129    6793.8871   -86808.016    1510.0775 
   27350    270.59802   -149.32982    266860.72   -80017.868    6862.5638   -86880.432    1513.8046 
   27400    268.99241    134.56372    267153.45   -79985.427    6821.8444   -86807.272    1516.0279 
   27450    270.26595    27.078881    267075.79   -79948.014    6854.1423   -86802.156    1517.9549 
   27500     271.7455    49.259442    266812.18   -79909.007    6891.6647   -86800.671    1516.8402 
   27550     274.4774   -2.5030029    266419.88   -79896.975    6960.9478   -86857.923    1514.3801 
   27600    273.12068    151.92644    266255.99   -79883.735    6926.5403   -86810.275    1515.0798 
   27650    273.16914   -6.9611702    266500.34    -79920.64    6927.7692   -86848.409    1516.4069 
   27700     270.4689    68.663487    266915.04   -79926.731    6859.2893    -86786.02    1518.6843 
   27750    272.87751   -356.83972    267391.76    -79895.76    6920.3733   -86816.133    1520.3786 
   27800     268.7825    -148.5856    267450.02    -79941.62    6816.5208   -86758.141    1521.2638 
   27850    275.36533    -176.9123    266984.57   -79919.345    6983.4664   -86902.811    1522.3586 
   27900    280.16749    131.61952    266653.49   -79855.041    7105.2525   -86960.294    1522.5501 
   27950    276.17285    -77.22507    266950.79   -79861.975    7003.9455    -86865.92    1523.8234 
   28000    271.15328     -15.2764    267317.86   -79870.811    6876.6457   -86747.456    1526.4384 
   28050    273.34388    11.579666    267469.66   -79843.063    6932.2008   -86775.264    1528.7285 
   28100    272.02694    69.022198    267420.13    -79847.73    6898.8023   -86746.532     1531.407 
   28150    272.19658   -86.517007    267152.24   -79878.097    6903.1044   -86781.202    1532.2615 
   28200    272.52695      166.227    266819.85   -79898.067    6911.4828    -86809.55    1531.5205 
   28250    273.55938    277.03215     266662.7   -79849.151    6937.6661   -86786.817    1535.8328 
   28300     276.5316    239.08425    266781.11    -79863.67    7013.0438   -86876.714    1538.9091 
   28350    277.48066    54.273324    267242.53   -79895.144    7037.1126   -86932.257     1541.144 
   28400    274.30012   -306.33023    267828.96   -79890.711    6956.4518   -86847.163    1544.0585 
   28450    269.63357    99.431573    267744.79   -79881.308    6838.1047   -86719.412    1545.7911 
   28500    275.61511   -12.046899     267320.2   -79835.475    6989.8009   -86825.276     1545.811 
   28550    274.97925    198.89403    266782.59   -79800.137    6973.6751   -86773.813    1545.9137 
   28600    276.42623    263.33977    266584.44   -79766.463    7010.3714   -86776.835    1546.7206 
   28650    278.01268    -144.3525    267001.02   -79781.222    7050.6051   -86831.827    1548.4146 
   28700    276.12969   -67.130703    267619.74   -79738.972    7002.8511   -86741.823    1552.9875 
   28750    272.38744   -355.78618     267770.2   -79770.276    6907.9448   -86678.221    1558.4897 
   28800    273.35915   -95.527641    267160.29   -79843.077    6932.5882   -86775.665    1558.4377 
   28850    273.38294    74.628731    266270.04   -79848.531    6933.1914   -86781.723    1555.7184 
   28900    274.85725    226.96961    266081.32   -79856.504    6970.5811   -86827.085    1555.8414 
   28950    273.87746    191.05425     266800.6   -79869.273    6945.7329   -86815.006    1560.5606 
   29000    271.54127   -257.58983    267544.41   -79907.225    6886.4855    -86793.71    1567.9359 
   29050    273.43215   -348.26883    267586.63   -79902.183    6934.4395   -86836.622    1569.1689 
   29100    272.22545    61.923456    267087.16   -79884.229    6903.8366   -86788.065    1567.9767 
   29150    275.21423    101.08666     266753.7   -79893.689    6979.6344   -86873.324    1568.1402 
   29200    273.94265   -271.48153    266970.69   -79887.271    6947.3861   -86834.657     1573.159 
   29250    273.88556   -22.017918    266906.69   -79846.768    6945.9382   -86792.706    1573.9472 
   29300    271.88404    118.97402    266780.92   -79886.084    6895.1783   -86781.263    1572.9176 
   29350    272.39956    121.08586    266742.71   -79912.519    6908.2523   -86820.771    1574.6479 
   29400    269.92373    175.91001    266949.42    -79927.49    6845.4634   -86772.953    1575.1305 
   29450    274.26286   -82.571687    267269.67   -79927.959     6955.507   -86883.466    1578.6969 
   29500    274.65554   -157.28242    267290.53   -79936.399    6965.4655   -86901.864    1580.0929 
   29550     273.9098    35.113069    266931.88   -79900.005     6946.553   -86846.558    1581.6042 
   29600    267.23253    349.33961    266590.75   -79876.749    6777.2127   -86653.962    1582.7086 
   29650    275.76024    301.56107    266725.07   -79860.204    6993.4815   -86853.686    1583.9553 
   29700    271.25058   -187.54143    267048.41   -79890.407    6879.1134    -86769.52     1587.949 
   29750    274.76512    100.69319    267176.56   -79876.175    6968.2447    -86844.42    1589.6083 
   29800    274.16517    -83.03628    267397.45   -79853.089    6953.0294   -86806.119    1594.6047 
   29850    270.69148   -57.738794    267291.69    -79844.87    6864.9341   -86709.804    1595.9892 
   29900    274.81741  0.071296498    266797.52   -79808.905    6969.5707   -86778.476    1596.6073 
   29950    275.72538    202.59258    266525.57   -79800.417    6992.5976   -86793.015    1597.3012 
   30000    275.64144    50.674121    266909.17   -79839.209    6990.4686   -86829.677     1600.275 
   30050    274.15578   -55.850614    267496.27   -79866.212    6952.7913   -86819.003    1603.9286 
   30100     268.7691      32.4983    267639.24   -79821.809    6816.1811    -86637.99    1608.5388 
   30150    270.86372     164.4655    267446.87   -79816.315    6869.3022   -86685.617    1610.1768 
   30200      271.469    86.707202     267209.1   -79815.467    6884.6526    -86700.12    1611.6952 
   30250    276.93078    4.0178244    266840.24    -79827.04    7023.1671   -86850.207     1614.563 
   30300    275.51004    154.33844    266868.98   -79808.458    6987.1362   -86795.594    1618.5759 
   30350     276.2807   -106.54386    267300.77   -79831.265    7006.6808   -86837.946    1624.1971 
   30400    270.24771    101.90051    267428.18   -79890.647    6853.6798   -86744.327    1627.6774 
   30450    269.73165    69.237684    267381.11   -79916.458    6840.5921    -86757.05    1630.1857 
   30500    276.28137    36.242009    266926.01   -79875.602    7006.6976     -86882.3    1630.6664 
   30550    279.36955    22.958396    266759.94   -79877.586    7085.0162   -86962.602    1632.4934 
   30600    273.21538   -98.242739    266893.03   -79910.836    6928.9419   -86839.778    1635.3674 
   30650    271.55494   -7.5240692    266890.34   -79934.009     6886.832   -86820.841    1635.9973 
   30700    273.46903   -56.664159    266814.27   -79932.497    6935.3748   -86867.871    1637.4984 
   30750    269.61656   -25.461185    266856.98   -79957.562    6837.6733   -86795.236    1640.5985 
   30800     266.0527   -88.631201    267050.08   -79995.617    6747.2912   -86742.908    1643.6287 
   30850    271.99569   -163.82994     267005.3   -80014.526    6898.0098   -86912.536     1645.791 
   30900    270.87931    198.52401    266845.97   -79993.958    6869.6975   -86863.655      1647.26 
   30950    267.88532   -32.071972    266855.96   -80003.288    6793.7677   -86797.056    1648.8919 
   31000    271.76309   -233.33382     266940.7   -80005.087     6892.111   -86897.198    1651.9766 
   31050    267.34051    104.56462    266930.97   -79993.311    6779.9509   -86773.262    1654.2723 
   31100    274.11918     -12.8486    266982.69   -79972.294    6951.8631   -86924.157    1656.8256 
   31150    273.08049   -168.35664    266853.82    -79942.16    6925.5212   -86867.682     1656.708 
   31200    276.36856     145.4162    266651.23   -79937.795     7008.909   -86946.704    1657.3665 
   31250    274.33113   -184.54195    266820.62   -79935.376    6957.2383   -86892.614    1659.4639 
   31300    269.51769   -81.032942    266947.85   -79922.745    6835.1659   -86757.911    1662.9005 
   31350    269.07179    73.236463    266888.31   -79939.898    6823.8575   -86763.755    1666.1511 
   31400    273.60766   -78.379505    266885.11   -79969.592    6938.8905   -86908.483    1668.8371 
   31450    269.46542    150.63304    266706.25   -79955.489    6833.8402   -86789.329    1670.2009 
   31500    274.05412    95.586627    266731.42   -79956.066    6950.2132   -86906.279    1672.8618 
   31550    271.00498   -127.45074    266958.24   -79966.316    6872.8847   -86839.201    1675.0792 
   31600    273.70199   -126.54934    267064.28   -79975.121    6941.2828   -86916.404     1678.253 
   31650    270.03857   -59.817377    266904.58   -79920.213    6848.3758   -86768.589    1680.4244 
   31700    271.01007   -16.195242    266549.61   -79928.719    6873.0136   -86801.733    1681.2394 
   31750    278.27244   -27.157147    266370.51    -79929.41    7057.1928   -86986.603    1683.5187 
   31800    274.62611    183.54216    266385.15   -79929.641    6964.7191    -86894.36    1686.2705 
   31850    268.96369     42.94453    266987.97   -79965.314     6821.116    -86786.43    1691.9888 
   31900    267.39975   -54.390557    267464.49   -79981.673    6781.4535   -86763.126    1696.2716 
   31950    269.68491    67.547314    267364.03   -79952.138    6839.4067   -86791.545    1698.8769 
   32000    271.05564     74.51425    267061.91   -79974.173    6874.1694   -86848.343    1701.1958 
   32050    269.34614     13.17344    266811.83    -79986.03    6830.8152   -86816.846    1702.5884 
   32100    273.06082    91.852859    266729.76   -79969.805    6925.0223   -86894.828    1705.0486 
   32150    272.39505   -15.807172    266732.03   -80004.489    6908.1377   -86912.627    1708.7273 
   32200    270.57653    138.83178    266763.39   -79977.883    6862.0189   -86839.902    1712.3707 
   32250    268.49013   -218.31367       267074   -79954.925    6809.1063   -86764.031    1713.0736 
   32300    271.82496    134.62756    267012.95   -79971.301    6893.6799   -86864.981    1715.2027 
   32350     272.5772    96.297589    266752.57   -79974.117    6912.7573   -86886.875    1717.7119 
   32400    272.12101   -124.39817    266702.94    -79976.38    6901.1879   -86877.568    1719.5542 
   32450    274.08458    155.26752    266658.25   -80010.749    6950.9855   -86961.735    1723.7646 
   32500    266.79606    24.336614    266711.94   -79983.941    6766.1433   -86750.084    1725.6928 
   32550    271.18103   -175.64182    266536.36   -80001.064    6877.3494   -86878.414    1727.2445 
   32600    277.74068    18.557422    266392.37    -79954.19     7043.707   -86997.897    1730.8308 
   32650    272.59307    87.112824    266429.29   -79959.016    6913.1598   -86872.175    1733.1733 
   32700    271.36716     186.8641    266585.76   -79965.467    6882.0698   -86847.537     1735.136 
   32750    271.01684    153.62584    266901.37   -79948.248    6873.1854   -86821.433    1739.4681 
   32800    271.28731   -244.15855    267199.79   -79964.645    6880.0446    -86844.69    1742.6167 
   32850    273.76027   -187.47243    267022.68   -79950.987    6942.7609   -86893.748    1744.0436 
   32900    270.52867   -69.043023    266598.65   -79971.376     6860.805   -86832.181     1744.283 
   32950    270.03511    81.215315    266227.67   -80012.389    6848.2879   -86860.677     1744.195 
   33000    270.40038    175.76396    266093.72   -79965.204    6857.5516   -86822.756     1745.204 
   33050    268.55986    313.71297    266433.02   -79958.209    6810.8747   -86769.084    1750.6842 
   33100    270.90794    -10.46438    267094.02   -79968.956    6870.4236    -86839.38    1754.8412 
   33150     265.6332   -63.142045    267356.84   -79974.855    6736.6523   -86711.507    1758.7576 
   33200    269.45263    -250.7203     266968.7   -80003.062    6833.5159   -86836.578    1759.9755 
   33250    275.77729    275.01406    266338.84   -80014.022    6993.9139   -87007.936    1761.1852 
   33300     270.5461    156.05629    266265.19   -80005.106     6861.247   -86866.353    1762.0389 
   33350    270.56195   -150.61534    266436.62   -80042.305    6861.6491   -86903.954    1763.1451 
   33400    268.35957    301.55502    266687.79   -80010.651    6805.7952   -86816.446    1768.0695 
   33450    271.79189    40.800236    267277.47    -79989.75    6892.8412   -86882.592    1775.4336 
   33500    269.72308   -294.27985    267621.27   -80011.221    6840.3747   -86851.595    1780.0368 
   33550    271.88826   -42.121955    267292.15   -79987.285    6895.2853    -86882.57      1780.15 
   33600    272.66917    37.925149    266671.82   -80002.694    6915.0898   -86917.784    1778.5077 
   33650    271.81771    212.49172    266227.39   -80005.197    6893.4961   -86898.693    1776.8393 
   33700    268.02032    198.49797    266397.54   -79976.281    6797.1915   -86773.472    1780.6849 
   33750    272.81054     13.17863     266938.9   -79957.299     6918.675   -86875.974    1785.5287 
   33800    266.78521   -73.961042    267466.98    -79965.22    6765.8682   -86731.088    1791.9245 
   33850    270.62199   -8.0424522    267484.25   -79970.616    6863.1718   -86833.788    1793.4127 
   33900    271.92312   -79.827362    266935.39    -79985.17    6896.1694    -86881.34    1793.1949 
   33950    271.89174    142.11083    266360.91   -79995.317    6895.3736   -86890.691    1796.5573 
   34000    275.23878    118.42293    266185.77   -79966.952    6980.2569   -86947.209    1801.6232 
   34050    275.63246    58.460813    266455.32   -79986.387     6990.241   -86976.628    1805.5721 
   34100    272.88845    132.56725    266819.53   -80006.091    6920.6508   -86926.742    1810.7448 
   34150    271.50756   -251.45733     267020.7    -80007.27    6885.6304   -86892.901    1813.9365 
   34200    275.21314   -133.82292    266817.86   -80018.061    6979.6067   -86997.668    1816.6746 
   34250    273.54103   -101.20012    266477.23   -80007.799    6937.2007   -86944.999    1819.7057 
   34300    272.44111    254.19836    266120.53   -79965.679    6909.3058   -86874.985    1821.8224 
   34350    275.20642    100.69505    266367.33   -79991.134    6979.4362   -86970.571    1825.1167 
   34400    267.07673    -197.8954    267032.91   -80032.561    6773.2614   -86805.823    1830.1296 
   34450    272.27319   -204.77597     267164.4   -79989.745    6905.0475   -86894.793    1833.4751 
   34500    269.63412     84.49512    266907.81   -80023.622    6838.1187   -86861.741    1835.0379 
   34550    268.52968   -130.59742    266650.16   -80070.399    6810.1093   -86880.508    1838.0732 
   34600    268.75165    10.255841    266214.77   -80100.432    6815.7385   -86916.171    1840.5401 
   34650    271.50716    183.33137    266209.26   -80075.288    6885.6202   -86960.908    1841.3099 
   34700    273.61841    111.89097       266605   -80052.272    6939.1631   -86991.435    1844.8636 
   34750    272.19386   -92.339344    267250.54   -80074.318    6903.0355   -86977.354    1851.7515 
   34800    266.70874   -419.57863    267643.62   -80038.803    6763.9288   -86802.732    1855.7744 
   34850    269.82669   -33.269983    267071.68   -80068.667    6843.0024   -86911.669    1854.5387 
   34900    275.48567    55.664065    266440.85   -80077.508    6986.5183   -87064.027    1855.0528 
   34950    270.63192   -11.612035     266132.7   -80028.766    6863.4237    -86892.19    1854.7222 
   35000    270.70067    99.014444     266163.9   -80029.805    6865.1671   -86894.972    1857.5591 
   35050     270.6731   -108.20853    266478.53   -80018.898     6864.468   -86883.366    1861.0907 
   35100    272.18202   -27.158778    266954.79   -80048.946    6902.7352   -86951.681    1865.9126 
   35150    263.53733   -53.268746    267399.93   -80055.132    6683.4995   -86738.632    1873.3266 
   35200    272.66121   -449.01978     267260.5       -80051    6914.8878   -86965.888    1874.8902 
   35250    266.53627    177.96356    266221.03   -80006.366    6759.5549   -86765.921    1874.2477 
   35300    271.02128    175.12628    265487.49   -79983.193     6873.298   -86856.491    1872.8931 
   35350    269.81316    253.22898    265736.51    -79961.93    6842.6592   -86804.589    1874.5835 
   35400    273.08024   -196.61147    266784.63   -80005.536    6925.5148   -86931.051    1882.2338 
   35450     270.5425    -109.2069    267555.88   -79985.477    6861.1558   -86846.633    1889.4774 
   35500    270.80213    -358.6698     267534.9   -79951.422    6867.7403   -86819.162    1890.1308 
   35550    271.43529    315.97064       266616    -79989.79    6883.7976   -86873.587    1891.4072 
   35600    275.41755    347.45681     266254.9   -79910.627    6984.7908   -86895.418    1892.2214 
   35650    274.66504    9.2030848    266847.03    -79911.84    6965.7065   -86877.546    1895.6942 
   35700    268.54447   -294.29776    267435.68   -79954.151    6810.4843   -86764.635    1899.9381 
   35750    269.59096   -125.02977    267430.73   -79953.327    6837.0241   -86790.351     1900.851 
   35800    271.81757   -79.403706    267105.22   -79968.931    6893.4926   -86862.424    1899.3777 
   35850    270.53991    42.493378    266743.96   -79938.995    6861.0901   -86800.085    1901.4604 
   35900     276.8895     134.9125    266445.71    -79933.63    7022.1204    -86955.75    1902.1655 
   35950    272.50016    77.053923     266931.5   -79950.309    6910.8034   -86861.112    1907.4915 
   36000    266.90063   -244.81863    267360.04   -79966.934    6768.7953   -86735.729    1911.7925 
   36050    267.75066    49.440118    267118.08   -79993.599    6790.3526   -86783.952    1912.6572 
   36100    270.23539    125.43242    266452.67   -79964.064    6853.3673   -86817.431    1910.1269 
   36150    268.45274    403.25479    266168.51   -79955.428     6808.158   -86763.586     1910.913 
   36200    270.58673    38.998082    266564.08   -79963.707    6862.2776   -86825.985    1916.6406 
   36250    270.68238   -173.12553    267321.59    -79952.99    6864.7032   -86817.693    1922.5518 
   36300    271.01515   -7.9048412    267594.37   -79993.834    6873.1425   -86866.977    1926.9205 
   36350    272.50371    85.696281    267280.88    -79927.27    6910.8935   -86838.164    1929.0706 
   36400    270.56786    137.47453    266701.59   -79975.341    6861.7989    -86837.14    1929.3842 
   36450    270.81308    148.01495    266563.56   -79950.617    6868.0179   -86818.635    1930.3253 
   36500    274.10561    25.243288    266759.13   -79954.786     6951.519   -86906.305    1932.6582 
   36550    271.99704   -3.2920388    266903.01   -79920.419     6898.044   -86818.463    1934.7385 
   36600    272.41082    -76.25716    266945.22   -79903.225    6908.5378   -86811.763    1938.5144 
   36650     273.2307    26.009594       267157   -79923.564    6929.3306   -86852.895    1940.2722 
   36700    272.99235   -47.651885     267340.5   -79913.654    6923.2857   -86836.939    1944.2367 
   36750    273.92019   -63.898866    267208.32   -79938.712    6946.8165   -86885.528    1944.5955 
   36800    269.04852   -35.900347    266922.01   -79890.753    6823.2673   -86714.021    1945.4768 
   36850    272.65051   -104.00372    266633.62   -79903.197    6914.6164   -86817.813    1946.6618 
   36900    274.33502     135.1756    266541.47   -79911.272    6957.3369   -86868.609    1949.4383 
   36950    272.71948   -325.44836     266789.7   -79949.888    6916.3657   -86866.254     1953.775 
   37000    275.02379   -20.982793     266661.5   -79975.586    6974.8047   -86950.391    1957.1573 
   37050    267.58543    264.53848    266408.12   -79981.069    6786.1625   -86767.231     1959.682 
   37100    271.26088    114.70226    266488.68   -79943.566    6879.3745   -86822.941    1962.8025 
   37150    273.45968    111.96037    266689.09   -79955.913    6935.1376   -86891.051    1966.0443 
   37200    272.02994   -224.77078    266989.41   -79976.103    6898.8785   -86874.981      1969.16 
   37250    273.55226   -76.443739    266954.83    -79967.91    6937.4856   -86905.395    1973.1862 
   37300      265.584   -26.161796    266592.27   -79973.187    6735.4047   -86708.591    1976.8849 
   37350    273.42953     127.3675    266169.26   -79972.817    6934.3729    -86907.19    1980.4644 
   37400     268.4227    479.79647    266300.85   -79963.073    6807.3961   -86770.469     1985.895 
   37450    270.95368   -169.59575    267089.09   -79964.454    6871.5837   -86836.038    1993.5495 
   37500    269.81263   -305.54123    267448.66   -79965.957    6842.6457   -86808.602    2000.1912 
   37550    272.57754      -16.185    267194.15   -79954.286     6912.766   -86867.052    2003.3583 
   37600     270.7318    258.89343    266493.04   -79966.238    6865.9566   -86832.194    2004.3154 
   37650    270.12122    297.77221    266153.95   -79963.221    6850.4717   -86813.693    2006.5739 
   37700    270.88621    58.141223    266243.22   -79952.301    6869.8725   -86822.174    2010.6082 
[...]
   90850    271.80644    32.289314    267350.18   -79792.662    6893.2104   -86685.873    4578.8748 
   90900    277.39043     53.90182     267493.3   -79796.015    7034.8242   -86830.839    4585.6791 
   90950     276.6728   -215.74569    267538.21   -79830.514    7016.6247   -86847.139    4586.0217 
   91000    279.22819   -120.38544    267056.12   -79811.336    7081.4312   -86892.767    4579.7647 
   91050    272.29036     258.8216    266488.16   -79837.791    6905.4829   -86743.274    4575.7725 
   91100    276.35611     154.0057       266287   -79798.144    7008.5931   -86806.737    4573.5005 
   91150    275.08777     51.97651    266646.31    -79818.56    6976.4272   -86794.988    4580.8811 
   91200    276.61071   -438.59113    267540.16   -79841.342    7015.0501   -86856.392    4591.2001 
   91250    269.67969   -138.99966    267649.29   -79845.543    6839.2744   -86684.817    4593.0372 
   91300    275.57676    -117.5838    267236.45   -79842.129    6988.8282   -86830.957    4589.5309 
   91350    278.63727    267.58503    266721.63   -79851.417     7066.445   -86917.862    4587.0873 
   91400    273.60735   -44.271652     266585.4   -79884.041    6938.8827   -86822.924    4587.6718 
   91450    269.82138    84.799275    266842.54   -79905.263    6842.8678    -86748.13    4593.7762 
   91500    274.96659   -41.379132    267149.65   -79911.988    6973.3539   -86885.342    4602.8703 
   91550    274.56405    191.76969    266894.79   -79903.199    6963.1453   -86866.344    4603.3676 
   91600    273.20664    11.887826    266670.06    -79927.03    6928.7205   -86855.751    4601.4145 
   91650    270.89795    27.924582    266610.76    -79982.44    6870.1702    -86852.61    4604.0243 
   91700    275.57196    178.47103     266681.5   -79996.272    6988.7065   -86984.979    4607.6726 
   91750    272.53586    71.429644     267013.8   -79953.711    6911.7088    -86865.42    4617.3953 
   91800    272.94391   -155.14248    267149.18   -79959.014    6922.0572   -86881.071    4620.1153 
   91850    273.91167   -128.53609    266890.73   -79986.915    6946.6005   -86933.516    4618.6222 
   91900    275.13843   -47.997212    266575.73   -79973.929    6977.7119   -86951.641    4620.4753 
   91950    271.55344    13.479385    266366.16   -80023.097    6886.7941   -86909.891    4624.7528 
   92000    269.03482    84.349882    266588.86   -79982.282    6822.9199   -86805.202    4631.0722 
   92050    269.95525   -66.621027    266928.54   -80027.173    6846.2628   -86873.436    4635.2096 
   92100    275.06545   -59.989707    267128.22   -79966.576    6975.8611   -86942.437    4643.0582 
   92150    270.59805    219.59999    266958.57   -79959.977    6862.5647   -86822.542     4642.236 
   92200    271.44405     147.1968    266594.83   -79951.596    6884.0199   -86835.616    4638.3046 
   92250    277.54783    92.122119    266638.68   -79935.436    7038.8162   -86974.252    4637.9794 
   92300    274.76712   -41.837275    266935.82   -79949.003    6968.2953   -86917.299    4643.6657 
   92350    272.02887   -70.501957    267096.54   -79958.475    6898.8513   -86857.326    4645.7687 
   92400    271.45488    193.78699    266873.11    -79958.45    6884.2944   -86842.744    4645.2807 
   92450    274.40586    136.94159    266704.47   -79952.525    6959.1336   -86911.659    4645.1997 
   92500    272.70523   -6.2777294    266777.15   -79969.587    6916.0043   -86885.591    4647.4108 
   92550    272.26365   -13.125008    266760.74   -79978.418    6904.8055   -86883.224    4645.6417 
   92600    271.53656    31.002402    266584.38   -80014.607    6886.3659   -86900.973    4645.8318 
   92650    274.05865    3.5115549    266568.88   -80002.664    6950.3279   -86952.992     4647.086 
   92700    269.48856   -144.73773    266639.94   -79994.985    6834.4272   -86829.412    4645.5085 
   92750     270.4694   -9.3341781    266586.97    -80046.41     6859.302   -86905.712    4646.2506 
   92800    269.95761   -96.878098    266463.19   -80036.711    6846.3227   -86883.034    4646.3677 
   92850    266.79205    82.930987    266478.76   -80014.876    6766.0417   -86780.918    4649.6018 
   92900    272.52696   -23.414383    266905.94   -80027.209    6911.4831   -86938.693    4653.6921 
   92950    268.96811   -27.961692    267232.09    -80010.11    6821.2282   -86831.338    4659.1346 
   93000      276.431   -110.17451    267028.36   -79978.299    7010.4926   -86988.791    4656.8472 
   93050     270.3431    298.29177    266601.76   -79953.212    6856.0988    -86809.31    4653.6155 
   93100    269.57391    186.71416    266679.99   -79917.179    6836.5917   -86753.771    4660.1357 
   93150    275.18531   -36.251078    266931.15   -79940.333     6978.901   -86919.234    4666.7068 
   93200    273.78369   -111.39077       267154   -79913.919    6943.3547   -86857.274    4675.5265 
   93250    273.62577    42.759263    267036.11   -79890.304    6939.3497   -86829.654    4677.4757 
   93300    277.52819    69.435417    266906.01   -79917.179     7038.318   -86955.497     4677.653 
   93350    274.54702   -106.90007    267196.47   -79953.603    6962.7134   -86916.316    4681.1523 
   93400    274.99906   -96.854161     267414.2   -79959.226    6974.1775   -86933.403    4686.7137 
   93450    273.04052   -96.250251     267397.2   -79956.592    6924.5073     -86881.1    4689.7748 
   93500    269.35785   -91.030281     267048.4   -79938.806    6831.1123   -86769.918    4683.4098 
   93550    275.52507   -99.945527    266654.34    -79934.19    6987.5174   -86921.707    4679.6002 
   93600    273.22167     120.4607     266381.8   -79899.589    6929.1014    -86828.69    4676.3569 
   93650    274.44858   -36.297421    266573.09   -79910.891    6960.2167   -86871.108    4680.1444 
   93700    273.26255   -36.946185    266892.49   -79903.199    6930.1383   -86833.337    4686.1979 
   93750    271.47243   -15.255483    267305.72    -79890.19    6884.7396    -86774.93    4696.5037 
   93800    270.26024    -375.4973    267612.52   -79877.852    6853.9975    -86731.85    4702.2265 
   93850    269.62344   -101.81171    267162.67   -79880.014    6837.8479   -86717.862    4698.5104 
   93900    274.00905    80.561204    266615.66   -79871.977    6949.0701   -86821.047    4696.2752 
   93950    271.68456    104.13428    266516.43   -79868.292    6890.1193   -86758.411    4695.6406 
   94000    279.39369   -123.91978    266922.84   -79859.404    7085.6284   -86945.033    4702.2023 
   94050    274.50528    38.380054    267387.63   -79825.992    6961.6549   -86787.647    4711.5317 
   94100    275.59645   -455.63889    267605.31   -79849.198    6989.3276   -86838.526    4716.2895 
   94150     275.5777    100.05723    267041.89    -79838.25    6988.8521   -86827.102    4710.0537 
   94200    274.84368   -19.541204    266743.33   -79834.125    6970.2369   -86804.362    4707.5394 
   94250    276.35752    117.54756    266787.42   -79814.111    7008.6289    -86822.74    4708.7288 
   94300    274.26261   -208.49018    267221.62   -79792.445    6955.5006   -86747.945    4715.2569 
   94350    270.63306   -85.593609    267457.55   -79806.114    6863.4526   -86669.566    4720.2884 
   94400    270.06411    102.63771    267388.63   -79822.636    6849.0235   -86671.659    4723.2401 
   94450     275.0845     -78.4078    267151.93   -79820.242    6976.3444   -86796.586    4721.3259 
   94500    277.47559   -2.1594392    266852.26   -79804.331    7036.9841   -86841.315    4719.3047 
   94550    272.57554    19.606026    266908.62   -79839.835    6912.7152    -86752.55    4724.4547 
   94600    275.49771   -38.327934    267162.67   -79827.771    6986.8235   -86814.595    4731.7778 
   94650    276.84932   -69.903793    267069.43   -79805.654    7021.1014   -86826.755    4732.9854 
   94700    275.57534    312.58501    266629.84   -79766.365    6988.7922   -86755.157    4729.5232 
   94750    275.97357   -1.4713119    266703.33   -79814.521    6998.8918   -86813.413    4732.8165 
   94800     274.8627    80.697665    267175.76   -79830.687    6970.7193   -86801.406    4736.4509 
   94850    272.35972   -248.12472    267810.07   -79836.743    6907.2417   -86743.984    4744.7417 
   94900    275.81753   -54.268799    267726.05   -79831.562    6994.9345   -86826.496    4750.7342 
   94950    276.19755   -284.05252     267254.3   -79873.503    7004.5721   -86878.075    4746.9105 
   95000     271.5295   -16.277223    266454.13   -79881.519     6886.187   -86767.706    4740.5944 
   95050    274.01358     175.3746    266157.26   -79849.317     6949.185   -86798.502      4740.38 
   95100    271.34357    167.18195     266644.1   -79871.487    6881.4716   -86752.959    4749.5068 
   95150    276.15272   -146.32031    267518.78   -79886.084     7003.435   -86889.519    4765.0199 
   95200    269.96071   -168.15215    268005.11   -79885.774    6846.4013   -86732.175    4776.0533 
   95250    272.33833     98.74353     267575.9   -79873.204    6906.6995   -86779.904    4769.8933 
   95300    271.33231    217.02753    266813.91   -79916.544     6881.186    -86797.73    4765.3185 
   95350    271.23215    32.014132    266404.88   -79932.182    6878.6459   -86810.828    4762.2596 
   95400    272.05345    254.00271    266219.39   -79891.296    6899.4746   -86790.771    4764.0822 
   95450    274.72155    94.670235    266612.57   -79913.915    6967.1397   -86881.055    4771.2262 
   95500    270.43838   -165.54166    267385.98   -79905.385    6858.5152     -86763.9    4784.3341 
   95550    270.77197   -163.39954    267537.21   -79909.586    6866.9754   -86776.561    4785.0709 
   95600    275.17293   -60.767042    266898.57   -79906.723    6978.5869    -86885.31    4781.0848 
   95650    276.33913    -93.41137    266302.03   -79940.137    7008.1626   -86948.299    4777.8626 
   95700    272.49781   -92.430269    266366.69   -79922.417    6910.7439   -86833.161     4782.194 
   95750    273.32561   -35.192933    266912.75   -79919.289    6931.7375   -86851.027    4788.9868 
   95800    273.38544   -82.945729    267311.58   -79944.621    6933.2548   -86877.876     4801.047 
   95850    274.95736   -173.83116    267356.28   -79930.222    6973.1199   -86903.342    4803.1663 
   95900    271.97509    -195.6734    267214.46   -79927.543    6897.4874   -86825.031    4804.3234 
   95950    274.95442   -193.00388    267128.44   -79928.906    6973.0454   -86901.951    4807.0024 
   96000    271.82725    18.889909    266859.42   -79930.867    6893.7381   -86824.605    4809.6932 
   96050    277.09518   -183.95389    266774.66   -79914.914    7027.3366   -86942.251    4811.9716 
   96100    274.92249   -89.872187    266820.03    -79854.28    6972.2356   -86826.515    4816.3963 
   96150     272.9866    7.4228429    267040.49   -79880.499    6923.1401   -86803.639    4821.7491 
   96200    273.33023    86.616032     267285.6   -79842.104    6931.8548   -86773.959    4829.2278 
   96250    277.95195   -205.69297    267644.68   -79833.928     7049.065   -86882.993    4836.0064 
   96300     269.8558    66.122583    267589.53   -79829.824    6843.7407   -86673.564    4837.2827 
   96350     274.1839    1.3790313    267129.73   -79843.438    6953.5043   -86796.942    4836.8519 
   96400    272.31906    156.40487    266815.35   -79871.939    6906.2108   -86778.149    4838.8913 
   96450    275.29097    108.72567    266620.43   -79839.564    6981.5805   -86821.145    4840.8823 
   96500    278.93735    100.78036     266783.1   -79843.046    7074.0554   -86917.101    4846.6051 
   96550    276.81613   -171.36158    267271.08   -79833.034    7020.2597   -86853.294    4857.3332 
   96600    274.42201   -105.64439    267518.66    -79831.04    6959.5429   -86790.583    4860.6497 
   96650    271.58725    -119.3928    267514.96   -79863.023    6887.6514   -86750.675    4862.0594 
   96700    276.08282   -230.00345    267134.12   -79870.433    7001.6623   -86872.095    4862.4735 
   96750    275.56781    266.88872    266337.31   -79856.273    6988.6013   -86844.874    4857.7595 
   96800    278.72453    109.70046     266061.6    -79865.53    7068.6581   -86934.188    4854.0423 
   96850    275.77725   -33.206121    266411.53   -79897.938    6993.9128   -86891.851    4861.8138 
   96900    273.88764   -67.887126    266995.63   -79854.389     6945.991    -86800.38    4873.6973 
   96950    274.42939   -123.74088    267561.12   -79865.209    6959.7301   -86824.939    4884.7672 
   97000    272.16388     -486.514    267813.03   -79871.302    6902.2752   -86773.577    4890.2567 
   97050    276.49325   -220.38393    267214.55   -79855.241    7012.0712   -86867.312    4883.3898 
   97100    273.21754 -0.046852999    266534.85   -79893.888    6928.9969   -86822.885    4871.7125 
   97150    272.54806    311.56228    266276.66   -79903.763    6912.0183   -86815.782    4868.5123 
   97200    272.09541    260.22091    266524.55   -79898.299    6900.5387   -86798.838    4875.2568 
   97250    270.38224    29.227339    267105.45   -79900.266    6857.0915   -86757.358    4882.3622 
   97300    273.06612   -158.01859    267316.29    -79926.03    6925.1567   -86851.186    4887.5126 
   97350    273.86061   -145.11798    266960.94   -79942.913    6945.3054   -86888.219    4887.5873 
   97400    272.56545    73.781806    266630.08   -79962.035    6912.4594   -86874.494    4886.5576 
   97450     271.4266   -164.27927    266814.67   -79978.442    6883.5773    -86862.02    4890.6673 
   97500    268.97227   -118.26293    266872.58   -79978.652    6821.3337   -86799.985    4894.6348 
   97550    274.76564   -131.49778    266707.24   -79945.078    6968.2576   -86913.335    4897.9854 
   97600    273.88734    75.667883     266373.8   -79922.891    6945.9834   -86868.875    4899.9431 
   97650    268.93654    94.756224    266292.56   -79912.221    6820.4276   -86732.649    4905.2019 
   97700    275.18741   -272.86062     266622.4   -79913.653    6978.9541   -86892.607    4914.1883 
   97750    271.97024   -204.77724    267045.65   -79907.159    6897.3643   -86804.524    4923.7929 
   97800    266.37324    86.602723    267126.36   -79932.227    6755.4203   -86687.648     4929.707 
   97850    270.72396    99.627671    267101.32   -79954.884    6865.7578   -86820.641    4931.2372 
   97900    267.24148    22.266565    266991.26   -79990.165    6777.4394   -86767.604    4929.1829 
   97950    272.43454    101.60463     266798.7   -79956.573    6909.1394   -86865.713     4928.878 
   98000    271.30926    88.883168    266655.73   -79973.304    6880.6014   -86853.905    4928.1717 
   98050    272.47886   -14.405092     266872.5   -79974.286    6910.2634    -86884.55    4934.1449 
   98100    268.47432   -139.50546     267131.3   -79990.119    6808.7052   -86798.824    4939.3589 
   98150    269.56129   -34.281136    266937.53   -79999.655    6836.2717   -86835.926    4938.9686 
   98200    272.69467   -102.00994    266583.98   -80017.593    6915.7365    -86933.33    4936.2456 
   98250    270.04901    68.260058    266291.07   -80006.542    6848.6406   -86855.182    4935.1872 
   98300    269.93651   -42.966378    266350.76   -80045.591    6845.7874   -86891.379    4940.1221 
   98350    271.28914    57.890463    266692.15   -80051.777    6880.0911   -86931.868    4949.1411 
   98400    269.15138   -137.32182    267020.15   -80014.962    6825.8761   -86840.838    4952.0308 
   98450    271.06394   -93.360797    267061.76   -79990.379    6874.3799   -86864.759    4956.7458 
   98500    271.82072   -90.470191    266939.64    -80005.14    6893.5723   -86898.713    4957.6526 
   98550    273.20256   -26.888685    266621.59   -80037.776     6928.617   -86966.393    4953.9206 
   98600     272.0293    199.26758    266380.74   -80046.519    6898.8622   -86945.382    4952.8868 
   98650    278.24783   -70.039177     266350.7   -80058.152    7056.5685    -87114.72    4953.5894 
   98700    271.48755   -51.687604    266603.84     -80034.2     6885.123   -86919.323    4954.8334 
   98750     272.6121     24.35818    266832.21   -80021.197    6913.6424   -86934.839     4960.939 
   98800    268.18518   -135.87472    267123.51   -80020.869    6801.3724   -86822.242    4968.3595 
   98850    267.62623   -65.868251    266989.65    -79999.08    6787.1972   -86786.277    4967.6012 
   98900     272.3083     93.58379    266590.63   -80009.676    6905.9378   -86915.614    4964.3837 
   98950    272.69422    71.922406    266646.73    -79989.43    6915.7251   -86905.155    4966.9013 
   99000    271.11568   -145.01537    267257.31   -79967.627    6875.6921   -86843.319    4976.2456 
   99050    272.01847   -332.66707    267561.27   -79966.641    6898.5875   -86865.229    4980.5051 
   99100    270.14704    83.824773    267101.19   -79974.605    6851.1267   -86825.732    4979.5765 
   99150    268.50108    297.29694     266559.5   -79978.823    6809.3839   -86788.207    4976.5533 
   99200    273.79806   -3.1075882    266405.47   -80000.476    6943.7193   -86944.196    4977.3759 
   99250    269.87807    268.42237     266309.7   -80029.423    6844.3053   -86873.728    4977.4005 
   99300    266.96859    204.44832    266552.29   -80063.211    6770.5189    -86833.73     4985.443 
   99350    265.54243   -300.71016    267071.03   -80070.275    6734.3504   -86804.625    4997.6615 
   99400    265.96106   -49.978352    267349.44   -80043.893    6744.9672    -86788.86    5004.2884 
   99450    267.94557   -206.61239    267315.95   -80032.843    6795.2958   -86828.139    5006.6782 
   99500    267.22755    43.526832    266703.12    -80055.21    6777.0862   -86832.296    5001.4124 
   99550    272.23129    28.998156    266167.76   -80013.507    6903.9848   -86917.492    4998.2129 
   99600    273.72277    107.45583    266008.29   -80021.512    6941.8098   -86963.322    4996.8401 
   99650    271.67815   -194.12755    266315.42   -80021.673    6889.9567    -86911.63     5003.552 
   99700    272.77401   -261.31053    266675.43   -80012.634    6917.7485   -86930.382    5010.5794 
   99750    273.71296   -95.812913    266820.94   -80022.151    6941.5611   -86963.712    5015.0779 
   99800    270.03598    184.35421    267018.54   -80020.296    6848.3101   -86868.606    5016.9607 
   99850    270.60374   -19.152604    267150.09   -80010.508     6862.709   -86873.217      5019.94 
   99900    272.47272   -12.197216    267083.04   -80027.845    6910.1077   -86937.952    5019.3339 
   99950    269.04454   -8.1356983    267041.14    -80013.77    6823.1664   -86836.936    5022.5203 
  100000    272.93144    -26.26002    266745.37   -79981.472     6921.741   -86903.213    5018.4376 
Loop time of 354.389 on 6 procs for 100000 steps with 8509 atoms

Performance: 243.800 ns/day, 0.098 hours/ns, 282.176 timesteps/s
99.6% CPU use with 6 MPI tasks x no OpenMP threads

MPI task timing breakdown:
Section |  min time  |  avg time  |  max time  |%varavg| %total
---------------------------------------------------------------
Pair    | 175.72     | 233.82     | 296.24     | 306.9 | 65.98
Neigh   | 31.654     | 37.759     | 44.612     |  73.8 | 10.65
Comm    | 8.0076     | 76.609     | 140.81     | 584.7 | 21.62
Output  | 0.13329    | 0.13525    | 0.14312    |   1.0 |  0.04
Modify  | 5.0076     | 5.0315     | 5.0668     |   1.0 |  1.42
Other   |            | 1.032      |            |       |  0.29

Nlocal:        1418.17 ave        1459 max        1402 min
Histogram: 1 3 1 0 0 0 0 0 0 1
Nghost:        2206.00 ave        2232 max        2180 min
Histogram: 1 1 1 0 0 1 0 0 0 2
Neighs:        0.00000 ave           0 max           0 min
Histogram: 6 0 0 0 0 0 0 0 0 0
FullNghs:      45089.3 ave       46043 max       44073 min
Histogram: 1 0 1 1 0 0 1 0 1 1

Total # of neighbors = 270536
Ave neighs/atom = 31.794100
Neighbor list builds = 20391
Dangerous builds = 0

# Create data file for import to other simulations
#
write_data data.${NAME}
write_data data.coexist_272K_1atm_mW
System init for write_data ...

Total wall time: 0:05:54
