
# Create simulation box of size 50 x 50 x 50 Angstrom
#
lattice	            sc 1
Lattice spacing in x,y,z = 1.0000000 1.0000000 1.0000000
region 	            all block 0 ${X} ${YZ_LO} ${YZ_HI} ${YZ_LO} ${YZ_HI} units box
region 	            all block 0 53.4 ${YZ_LO} ${YZ_HI} ${YZ_LO} ${YZ_HI} units box
region 	            all block 0 53.4 0.4326958126211089.0 ${YZ_HI} ${YZ_LO} ${YZ_HI} units box
region 	            all block 0 53.4 0.4326958126211089.0 50.47442418738036.0 ${YZ_LO} ${YZ_HI} units box
region 	            all block 0 53.4 0.4326958126211089.0 50.47442418738036.0 0.4326958126211089.0 ${YZ_HI} units box
region 	            all block 0 53.4 0.4326958126211089.0 50.47442418738036.0 0.4326958126211089.0 50.47442418738036.0 units box
create_box          1 all
Created orthogonal box = (0.0000000 0.43269581 0.43269581) to (53.400000 50.474424 50.474424)
  3 by 1 by 2 MPI processor grid

# fill box with 4175 randomly distributed atoms
#
create_atoms        1 random 4608 63782 all
Created 4608 atoms
  create_atoms CPU = 0.001 seconds
mass                1 18.015

# Define potential
#
pair_style          sw
pair_coeff          * * /data/emrosky-sim/Freezing_Simulations/Melting/mW_fancy/mW.sw mW
Reading sw potential file /data/emrosky-sim/Freezing_Simulations/Melting/mW_fancy/mW.sw with DATE: 2019-02-27

# Run minimization
#
minimize            1.0e-8 1.0e-8 10000 1000
WARNING: Using 'neigh_modify every 1 delay 0 check yes' setting during minimization (../min.cpp:187)
Neighbor list info ...
  update every 1 steps, delay 0 steps, check yes
  max neighbors/atom: 2000, page size: 100000
  master list distance cutoff = 6.3065
  ghost atom cutoff = 6.3065
  binsize = 3.15325, bins = 17 16 16
  1 neighbor lists, perpetual/occasional/extra = 1 0 0
  (1) pair sw, perpetual
      attributes: full, newton on
      pair build: full/bin/atomonly
      stencil: full/bin/3d
      bin: standard
Per MPI rank memory allocation (min/avg/max) = 4.236 | 4.254 | 4.260 Mbytes
Step Temp E_pair E_mol TotEng Press 
       0            0    4780530.1            0    4780530.1    3415989.7 
     687            0   -52214.307            0   -52214.307    483.24623 
Loop time of 2.20915 on 6 procs for 687 steps with 4608 atoms

99.3% CPU use with 6 MPI tasks x no OpenMP threads

Minimization stats:
  Stopping criterion = max force evaluations
  Energy initial, next-to-last, final = 
      4780530.12875919  -52214.2121336241  -52214.3065799552
  Force two-norm initial, final = 1.0951389e+08 1.9852904
  Force max component initial, final = 57786616.0 0.40887332
  Final line search alpha, max atom move = 0.085865022 0.035107917
  Iterations, force evaluations = 687 1000

MPI task timing breakdown:
Section |  min time  |  avg time  |  max time  |%varavg| %total
---------------------------------------------------------------
Pair    | 1.8919     | 1.9737     | 2.0772     |   4.6 | 89.34
Neigh   | 0.044366   | 0.045512   | 0.04661    |   0.3 |  2.06
Comm    | 0.063359   | 0.16758    | 0.25136    |  15.8 |  7.59
Output  | 0          | 0          | 0          |   0.0 |  0.00
Modify  | 0          | 0          | 0          |   0.0 |  0.00
Other   |            | 0.02238    |            |       |  1.01

Nlocal:        768.000 ave         779 max         759 min
Histogram: 1 0 2 0 0 1 0 1 0 1
Nghost:        1707.17 ave        1716 max        1697 min
Histogram: 1 1 0 1 0 0 0 1 0 2
Neighs:        0.00000 ave           0 max           0 min
Histogram: 6 0 0 0 0 0 0 0 0 0
FullNghs:      26046.3 ave       26548 max       25515 min
Histogram: 1 0 0 1 2 0 0 0 1 1

Total # of neighbors = 156278
Ave neighs/atom = 33.914497
Neighbor list builds = 39
Dangerous builds = 0

# Add velocity/set timestep
#
velocity            all create ${TEMP} 120598 rot yes dist gaussian
velocity            all create 272 120598 rot yes dist gaussian
timestep            5.0

# Define output
#
compute	            1 all msd
thermo	            100
thermo_style        custom step temp press vol etotal ke pe c_1[4] density

# Neighbor lists
#
neigh_modify        delay 0 every 1 check yes

# Set fixes
#
fix                 1 all momentum 10 linear 1 1 1 rescale
fix                 2 all nve
fix                 3 all temp/csvr ${TEMP} ${TEMP} 500.0 928347
fix                 3 all temp/csvr 272 ${TEMP} 500.0 928347
fix                 3 all temp/csvr 272 272 500.0 928347
fix                 4 all press/berendsen iso ${PRES} ${PRES} 1000.0 modulus 20000
fix                 4 all press/berendsen iso 1 ${PRES} 1000.0 modulus 20000
fix                 4 all press/berendsen iso 1 1 1000.0 modulus 20000

# Run 0.5 ns equilibration
#
dump                1 all custom 1000 eq.${NAME}.dump id type x y z vx vy vz
dump                1 all custom 1000 eq.liq_272K_1atm_mW.dump id type x y z vx vy vz
run                 100000
Per MPI rank memory allocation (min/avg/max) = 3.504 | 3.507 | 3.510 Mbytes
Step Temp Press Volume TotEng KinEng PotEng c_1[4] Density 
     687          272    1760.1213    133722.92   -48479.042     3735.265   -52214.307 4.8750102e-34    1.0308369 
     700     129.1292    1960.8683    134764.69    -48286.61    1773.2786   -50059.888  0.078081837    1.0228682 
     800    185.81455    214.76658    136792.68   -46796.477    2551.7154   -49348.192   0.51919996    1.0077039 
     900    212.53106    353.80468    137537.07   -45853.644    2918.6023   -48772.246    1.0104343    1.0022499 
    1000    231.81128     67.71005    138004.17   -45251.358    3183.3697   -48434.728    1.4843359    0.9988576 
    1100    243.41216    184.53328    138299.46   -44786.533    3342.6799   -48129.213    2.1260503   0.99672492 
    1200     250.6989    9.9082754    138650.01   -44438.707    3442.7456   -47881.453     2.841101   0.99420487 
    1300    258.76084   -53.157781    138583.43   -44116.785    3553.4571   -47670.242     3.722635    0.9946825 
    1400    261.99723   -9.3644159    138355.45   -43997.689     3597.901    -47595.59    4.6927345   0.99632158 
    1500    267.42627   -71.128413     138360.3   -43827.978    3672.4558   -47500.434     5.671599   0.99628661 
    1600    268.96764   -324.58681    138541.75   -43799.249    3693.6228   -47492.872    6.5770248   0.99498176 
    1700    265.02963   -194.40078    137823.18   -43754.649    3639.5438   -47394.193    7.4899865    1.0001694 
    1800    264.36513   -60.650045    137505.38   -43620.307    3630.4184   -47250.726    8.7083667    1.0024809 
    1900    269.66515   -73.071877    137788.53   -43557.898    3703.2014   -47261.099    9.8045004    1.0004209 
    2000    271.79609    195.76059    137866.21   -43435.608    3732.4648   -47168.073    11.181094   0.99985714 
    2100    267.04541   -205.72043    137796.98   -43506.369    3667.2257   -47173.594    12.781887    1.0003595 
    2200    270.49888    71.278733    137471.25   -43489.027    3714.6507   -47203.678    14.192629    1.0027298 
    2300    270.10412   -48.631528    137588.53   -43406.169    3709.2296   -47115.398    15.595688    1.0018751 
    2400    270.59529   -19.993322    137761.51   -43404.812    3715.9748   -47120.787    16.825909    1.0006171 
    2500    278.26101   -11.229331     137564.6   -43396.116    3821.2449   -47217.361    17.812091    1.0020494 
    2600    272.86851    19.721079    137517.99   -43345.801    3747.1919   -47092.993     19.16294     1.002389 
    2700    277.08136    3.0304333    137863.58   -43287.392    3805.0452   -47092.437    20.506715   0.99987622 
    2800    271.33716    -33.98469    137825.17   -43428.141    3726.1624   -47154.304    21.800084    1.0001549 
    2900    274.36644    28.254787    137564.25   -43381.593    3767.7624   -47149.355    23.100717    1.0020519 
    3000    273.52469   -93.484952    137609.28   -43282.097     3756.203     -47038.3    24.572957     1.001724 
    3100    272.33552   -66.223165    137692.86   -43258.142    3739.8726   -46998.015    25.954154    1.0011159 
    3200    274.58363   -198.35829    137434.49   -43273.805    3770.7449    -47044.55    27.307108     1.002998 
    3300    269.23506    32.090754    137449.44   -43338.828    3697.2951   -47036.123    28.856207    1.0028889 
    3400    272.26508     186.5265     137789.2   -43296.514    3738.9052   -47035.419    30.406547     1.000416 
    3500     276.4017   -166.56828    137732.88   -43205.785    3795.7118   -47001.497    31.795142     1.000825 
    3600     274.6812    97.917333    137899.05   -43211.172    3772.0848   -46983.257    33.481806   0.99961902 
    3700    273.60196    220.13933     138113.8   -43275.792    3757.2641   -47033.057    34.719861   0.99806475 
    3800    273.51893   -253.43628     137941.5   -43287.552    3756.1238   -47043.676     36.08602    0.9993114 
    3900    273.38426   -36.995589    137715.07   -43404.068    3754.2745   -47158.343    37.662647    1.0009545 
    4000    267.61479   -19.947283    137743.46   -43422.644    3675.0447   -47097.688     39.34959    1.0007482 
    4100    272.22766   -88.828051    137761.11   -43338.204    3738.3914   -47076.595    40.984967      1.00062 
    4200    271.23128   -150.52584    137569.67   -43342.522    3724.7085    -47067.23    42.167344    1.0020124 
    4300    273.84199   -183.04449    137389.22   -43305.653    3760.5603   -47066.213    43.580129    1.0033285 
    4400    273.84141   -24.920362    137559.33   -43320.682    3760.5524   -47081.235    45.275575    1.0020877 
    4500     276.4892   -104.18678    137519.43   -43267.682    3796.9134   -47064.596    46.815299    1.0023785 
    4600     272.1794    187.02811    137487.28   -43320.396    3737.7286   -47058.125    48.512546    1.0026129 
    4700    273.32783   -24.200598    137414.33   -43354.355    3753.4996   -47107.855    49.816308    1.0031451 
    4800    273.18895    81.013107    137302.59   -43317.973    3751.5923   -47069.566    51.187359    1.0039615 
    4900    271.10345    28.918647     137407.6   -43300.135    3722.9531   -47023.088    52.841985    1.0031942 
    5000    273.55953   -21.713282    137642.61   -43401.768    3756.6814    -47158.45    54.412366    1.0014814 
    5100    273.85156   -134.93806    137822.76   -43324.719    3760.6917   -47085.411    55.928449    1.0001724 
    5200    269.30721   -31.292353     137721.4   -43386.963    3698.2861   -47085.249    57.294282    1.0009085 
    5300     270.0562   -39.219656    137793.91   -43414.062    3708.5716   -47122.633     58.73273    1.0003818 
    5400    270.69568    44.805497    137758.47   -43313.531    3717.3533   -47030.884    59.854366    1.0006392 
    5500    272.19938    59.072739    137738.15   -43241.523     3738.003   -46979.527    61.483225    1.0007868 
    5600    273.63986   -14.142194    137510.14   -43182.013    3757.7846   -46939.797    62.894531    1.0024462 
    5700    273.43104   -45.204558    137355.24    -43298.57    3754.9168   -47053.487    64.180287    1.0035767 
    5800    271.61585    148.23817     137616.6   -43229.874    3729.9896   -46959.863    65.693459    1.0016707 
    5900    271.97887   -63.956599    137477.41   -43331.178    3734.9748   -47066.153    67.065185    1.0026848 
    6000    270.61098   -58.169528    137441.72   -43422.223    3716.1901   -47138.413    68.698582    1.0029453 
    6100    273.86527    -6.850129    137575.53   -43441.085      3760.88   -47201.965     70.24779    1.0019697 
    6200    271.04001    69.971524    137780.53   -43440.427    3722.0818   -47162.509    71.864995    1.0004789 
    6300    270.99439   -33.524139    137562.27   -43475.509    3721.4553   -47196.964     73.03664    1.0020663 
    6400    274.66856   -141.52981    137903.81   -43420.521    3771.9113   -47192.432    74.297777   0.99958452 
    6500    272.51801    208.50566    137580.01   -43386.099    3742.3787   -47128.478    75.651904    1.0019371 
    6600    267.98505    7.2404138    137407.07   -43459.526    3680.1294   -47139.656    76.709184    1.0031982 
    6700    266.69171   -154.62708    137588.75   -43429.928    3662.3684   -47092.296    77.831524    1.0018735 
    6800    269.51402    76.668006    137643.94   -43495.652     3701.126   -47196.778      78.7998    1.0014718 
    6900     263.6068   -51.743373    137714.82   -43436.985    3620.0047    -47056.99    80.019987    1.0009563 
    7000    273.87494    279.56169    137850.96   -43295.494    3761.0128   -47056.507    81.317601   0.99996774 
    7100    269.54674     -78.6608    137862.15    -43396.68    3701.5753   -47098.256    82.929152   0.99988663 
    7200    270.37208    232.26354    137986.92   -43397.379    3712.9095   -47110.288    84.451251   0.99898251 
    7300    268.99931    40.064471    137843.48   -43410.198    3694.0577   -47104.255    85.798564     1.000022 
    7400    270.79773   -77.366205    137811.79   -43494.255    3718.7548    -47213.01    86.882395     1.000252 
    7500    266.36559    60.050906    137417.52   -43426.022    3657.8899   -47083.912    87.953538    1.0031219 
    7600    273.33817    50.173734    137683.17   -43333.374    3753.6415   -47087.015    89.495817    1.0011864 
    7700    274.40033    292.61297    137683.98   -43285.052    3768.2278    -47053.28    90.546222    1.0011805 
    7800    269.30724    -96.60541    137539.07   -43347.477    3698.2864   -47045.763    91.738696    1.0022353 
    7900     268.1647    113.80902    137425.95   -43405.191    3682.5964   -47087.787    93.062286    1.0030603 
    8000     270.4079    24.337248    137400.04   -43437.456    3713.4014   -47150.858    94.169822    1.0032495 
    8100    273.08989    22.363944    137396.95   -43324.377     3750.232   -47074.609    95.297119     1.003272 
    8200    275.20887   -55.423911    137360.49   -43340.824    3779.3311   -47120.155    96.363816    1.0035383 
    8300    276.41095   -230.42561    137536.32   -43374.639    3795.8388   -47170.478    98.198111    1.0022554 
    8400    272.35818   -217.85179    137375.93   -43417.442    3740.1838   -47157.626     99.75753    1.0034255 
    8500    270.16228    66.959169    137372.02   -43465.152    3710.0284   -47175.181    101.02193    1.0034541 
    8600    273.75278   -85.101342    137509.32   -43352.176    3759.3352   -47111.511    102.31405    1.0024522 
    8700    274.94067   -103.26645    137476.71   -43347.587    3775.6481   -47123.235    103.68965    1.0026899 
    8800    277.18728    92.554085    137322.72   -43267.865    3806.4997   -47074.365    104.86409    1.0038143 
    8900    274.17685    24.134908    137610.37    -43291.15    3765.1588   -47056.309    106.60766     1.001716 
    9000    269.85361   -17.302119    137723.76   -43235.593    3705.7895   -46941.382    108.38184    1.0008913 
    9100    274.30505   -30.187673    137603.37   -43211.343    3766.9192   -46978.262    109.95709     1.001767 
    9200    275.67517      74.1615     137597.8   -43264.068    3785.7346   -47049.802    111.14484    1.0018076 
    9300    271.41579   -25.418448    137667.83   -43295.427    3727.2422   -47022.669    112.49736    1.0012979 
    9400    272.67399  -0.96197238    137729.78   -43290.561    3744.5206   -47035.082    113.76153    1.0008475 
    9500    269.28081   -18.491409    138012.88   -43374.139    3697.9235   -47072.063    115.23216   0.99879457 
    9600    269.47488    82.209766    137868.53   -43386.624    3700.5886   -47087.213    116.14122    0.9998403 
    9700    272.25555   -6.4649074    137782.21   -43335.555    3738.7744   -47074.329    117.20167    1.0004667 
    9800    273.04596     78.22328     137899.7   -43387.314    3749.6287   -47136.942    118.37141   0.99961436 
    9900    273.92234     52.07875    137986.94    -43267.96    3761.6638   -47029.624      119.772   0.99898238 
   10000    270.77646   -109.05088    137610.39   -43423.398    3718.4626   -47141.861    120.73372    1.0017159 
   10100    269.33729    45.003046    137668.16   -43363.434     3698.699   -47062.133    121.76071    1.0012955 
   10200    271.57467   -23.123633    137466.94   -43381.299    3729.4241   -47110.723    122.95827    1.0027612 
   10300    269.12111    55.929069    137644.84   -43372.605    3695.7304   -47068.336    124.28688    1.0014652 
   10400    277.60135   -14.622033    137656.84   -43287.149    3812.1861   -47099.335    125.39787    1.0013779 
   10500    269.77004     99.50456    137771.95   -43292.097    3704.6419   -46996.739     126.8835    1.0005412 
   10600    271.11165    33.159905    137853.61   -43289.064    3723.0656    -47012.13    128.48374   0.99994855 
   10700    273.45147    15.855395    137394.93   -43381.079    3755.1974   -47136.276    129.43335    1.0032867 
   10800    272.43608    138.81364    137700.08   -43307.394    3741.2535   -47048.647    130.90953    1.0010635 
   10900    275.54506    -81.36135     137768.8   -43221.583    3783.9478   -47005.531    132.64067    1.0005641 
   11000    274.80757    211.13197     137991.8   -43240.376    3773.8203   -47014.197    134.02289   0.99894715 
   11100    272.27148   -104.18304    137904.29   -43258.968    3738.9931   -46997.961    134.94855   0.99958107 
   11200    276.08041    68.082125    137539.16   -43250.621    3791.2996   -47041.921    135.78162    1.0022347 
   11300    269.89088   -80.993692    137613.34   -43296.161    3706.3013   -47002.462    137.40357    1.0016944 
   11400    276.31797    263.78755     137804.3   -43312.497    3794.5619   -47107.059    138.67877    1.0003063 
   11500    271.16471   -130.91855    137548.77   -43443.801    3723.7943   -47167.596    139.93521    1.0021646 
   11600    266.92159   -152.97403    137398.03   -43487.523    3665.5252   -47153.049    141.28309    1.0032642 
   11700    269.16005   -70.247588    137395.38   -43393.677    3696.2651   -47089.942    142.71625    1.0032835 
   11800    270.60782   -29.093493    137482.54   -43337.237    3716.1468   -47053.383    143.41497    1.0026474 
   11900    271.51131   -115.85566    137413.98   -43447.431     3728.554   -47175.985    144.79204    1.0031477 
   12000    268.20474    114.00523    137466.06   -43414.809    3683.1462   -47097.955    145.82263    1.0027677 
   12100    270.97411   -86.179591    137313.96   -43427.487    3721.1769   -47148.664    146.96456    1.0038784 
   12200    270.27694    276.91785    137438.48   -43300.135    3711.6029   -47011.738    148.65566    1.0029689 
   12300    279.20668   -116.75087    137524.18   -43241.723    3834.2314   -47075.954    149.72028    1.0023438 
   12400     277.3572    -157.3464    137485.02   -43176.863    3808.8332   -46985.696    151.07185    1.0026293 
   12500    272.43907    138.31839    137678.67    -43218.82    3741.2945   -46960.115     152.4978    1.0012191 
   12600     279.6702    169.43125    137656.34   -43243.297    3840.5967   -47083.894    153.70931    1.0013816 
   12700    276.95466    37.059775     137993.2   -43209.911    3803.3053   -47013.216    154.92186   0.99893705 
   12800    272.34193    137.31109    137612.43   -43295.999    3739.9606   -47035.959    155.96861    1.0017011 
   12900    265.56431    206.19623    137786.76    -43291.22    3646.8863   -46938.106    157.88711    1.0004337 
   13000    276.42625    42.412473    137654.56   -43292.054    3796.0489   -47088.103    159.33724    1.0013945 
   13100    273.46126    94.101446    137693.78   -43325.019    3755.3319   -47080.351    160.58974    1.0011092 
   13200    279.24082   -100.92466    137814.35   -43272.258    3834.7002   -47106.958    162.25261    1.0002334 
   13300    273.88213   -53.464904    137940.91   -43261.062    3761.1115   -47022.173    163.97558   0.99931567 
   13400    269.47435    135.21689    137875.33   -43318.076    3700.5812   -47018.658    165.10092     0.999791 
   13500    270.52029    45.354552     137919.5    -43291.68    3714.9447   -47006.625    166.11524   0.99947082 
   13600      270.016   -88.059751    137672.32   -43309.013    3708.0195   -47017.032    167.69835    1.0012653 
   13700    269.51418    140.08398    137610.97   -43280.605    3701.1283   -46981.734    169.07998    1.0017117 
   13800    272.27352   -68.639106    137686.98   -43310.838    3739.0212   -47049.859     170.1871    1.0011587 
   13900    270.58006   -100.43505    137540.87    -43373.02    3715.7655   -47088.785    171.58345    1.0022222 
   14000    267.21873    32.175321    137307.67   -43449.471    3669.6058   -47119.077    173.00242    1.0039243 
   14100    268.19148   -46.851624    137392.46   -43465.544    3682.9641   -47148.508    174.22122    1.0033048 
   14200    266.41203    45.334058    137463.44   -43394.056    3658.5277   -47052.584    175.38927    1.0027868 
   14300    272.54044   -25.792665    137431.04   -43381.766    3742.6866   -47124.453    176.92951    1.0030232 
   14400    267.99436   -93.470978    137611.71   -43412.176    3680.2572   -47092.433    177.95553    1.0017063 
   14500    272.42519    49.083762    137728.18   -43412.277    3741.1039   -47153.381     179.5423    1.0008592 
   14600    275.30124    94.115929    137845.37   -43349.026    3780.5996   -47129.625    180.99931    1.0000083 
   14700    273.94587   -105.92142    138112.92   -43298.198    3761.9868   -47060.185    182.51439   0.99807114 
   14800    273.17841    52.857043    138233.54   -43337.575    3751.4476   -47089.023    184.24847   0.99720021 
   14900    272.14621    97.958715    138142.06   -43345.619    3737.2728   -47082.892    185.75365   0.99786055 
   15000    270.32278   -187.58312    137976.42   -43416.233    3712.2325   -47128.466    187.36853   0.99905851 
   15100     271.4482    146.63665    137817.27   -43423.068    3727.6874   -47150.756     188.7978    1.0002122 
   15200    268.10227   -129.14923     137739.3   -43463.293    3681.7391   -47145.033    189.93761    1.0007784 
   15300    270.88046    207.33671    137584.37   -43385.039    3719.8908    -47104.93    190.81232    1.0019054 
   15400    275.37688   -57.936306    137886.83    -43355.81    3781.6384   -47137.449    192.18898   0.99970763 
   15500    269.90911   -37.529313    137730.86   -43339.994    3706.5516   -47046.546     193.7348    1.0008397 
   15600    266.75315    41.387311    137803.19   -43375.553    3663.2122   -47038.766      195.189    1.0003144 
   15700    270.53169   -218.10693    137753.28   -43378.069    3715.1013    -47093.17    195.98345    1.0006768 
   15800    272.80109   -34.144425    137781.08   -43362.744     3746.266    -47109.01     197.3961    1.0004749 
   15900    275.63244    54.994059     137910.4   -43343.984    3785.1479   -47129.132    199.22017   0.99953679 
   16000    266.14264   -6.7759281    137750.84   -43415.155    3654.8283   -47069.983     200.4236    1.0006946 
   16100    270.18462   -264.85315     137693.3   -43407.915    3710.3352    -47118.25    201.66375    1.0011127 
   16200    277.68461    28.209657    137516.66    -43332.05    3813.3294   -47145.379    202.59806    1.0023987 
   16300    277.84748   -22.944875    137321.72   -43281.324    3815.5661    -47096.89    203.28693    1.0038217 
   16400    274.34382   -124.48417    137739.71   -43257.234    3767.4517   -47024.686    204.42637    1.0007754 
   16500    272.48403    37.113949    137670.31   -43254.364    3741.9119   -46996.276    205.49548    1.0012799 
   16600    271.98049    120.52813    137829.57   -43295.212    3734.9971   -47030.209    207.24622    1.0001229 
   16700    266.08908   -43.885668    137839.35    -43301.51    3654.0928   -46955.603     208.5106     1.000052 
   16800     274.3651    7.5129424    137778.02   -43315.683     3767.744   -47083.427      210.154    1.0004971 
   16900    276.18544    25.629575    137736.72   -43353.776    3792.7419   -47146.518    212.33501    1.0007972 
   17000    273.52154   -45.962178    137725.06   -43360.539    3756.1596   -47116.699    214.17164    1.0008819 
   17100    273.51949   -98.106675    137739.24    -43374.74    3756.1315   -47130.871    215.80994    1.0007788 
   17200    273.70654     31.98838    137648.08   -43304.273    3758.7002   -47062.973    216.45585    1.0014416 
   17300    271.34047   -130.84491     137788.6    -43216.76    3726.2079   -46942.968    217.44969    1.0004204 
   17400    274.18852    59.913266    137815.15   -43299.693    3765.3191   -47065.013    218.92541    1.0002276 
   17500    272.93423    86.579777    137787.45   -43290.201    3748.0945   -47038.295    220.63991    1.0004287 
   17600    268.02107    11.607316    137754.58   -43364.161    3680.6239   -47044.785     221.8824    1.0006674 
   17700     268.2935     144.3163    137712.87   -43380.366    3684.3652   -47064.731    223.33303    1.0009705 
   17800    267.64001     186.4988    137627.35   -43368.212     3675.391   -47043.603    224.14172    1.0015924 
   17900     266.3397   -36.698894    137398.72   -43405.881    3657.5344   -47063.416    224.91973    1.0032591 
   18000    271.02872   -74.847821    137454.01   -43445.679    3721.9268   -47167.606    225.94646    1.0028556 
   18100    264.88083     12.83874    137474.83   -43467.732    3637.5003   -47105.232    226.84474    1.0027037 
   18200    266.90378   -40.583335    137673.85   -43315.666    3665.2807   -46980.947    227.87335    1.0012542 
   18300    265.24311   -296.15737    137486.44   -43365.542    3642.4754   -47008.018    229.31058     1.002619 
   18400    265.44043    67.597712    137274.14   -43402.364    3645.1851   -47047.549    230.43444    1.0041696 
   18500    268.39165   -7.4385972    137358.07   -43343.719     3685.713   -47029.432    232.05579     1.003556 
   18600    268.22876    11.039593    137486.53   -43263.671    3683.4761   -46947.147    233.74598    1.0026183 
   18700    273.46588    237.99635     137775.9    -43202.39    3755.3954   -46957.785    235.39938    1.0005126 
   18800    272.42859    26.416856    138181.32   -43195.302    3741.1506   -46936.453    237.32665    0.9975771 
   18900    267.18038    99.710751    138280.73   -43290.325    3669.0791   -46959.404    239.30773    0.9968599 
   19000    276.31581   -72.559781    138043.09   -43287.427    3794.5322    -47081.96    241.09615   0.99857597 
   19100    271.73922   -237.75593    137982.88     -43371.5    3731.6838   -47103.183    242.54228   0.99901171 
   19200    272.04514   -143.08804    137885.32   -43328.291    3735.8849   -47064.176    244.32343   0.99971856 
   19300    274.59397   -75.618205    137803.71   -43310.241    3770.8869   -47081.128    245.55034    1.0003106 
   19400    269.35254    109.57402    137723.14   -43346.664    3698.9085   -47045.572      247.098    1.0008959 
   19500    272.72132   -68.215451    137643.42   -43310.222    3745.1706   -47055.393    247.66031    1.0014755 
   19600    272.00517     34.46857    137557.22    -43314.28     3735.336   -47049.616    248.82725    1.0021031 
   19700    274.37442   -16.429087     137589.1     -43311.5     3767.872   -47079.372    249.92774    1.0018709 
   19800    270.77787    70.454148    137745.87    -43214.38     3718.482   -46932.862    251.85741    1.0007306 
   19900    275.96084    -134.0145    137846.99   -43257.355    3789.6576   -47047.012    253.62881   0.99999655 
   20000    274.08076   -27.143453    137987.42    -43159.49    3763.8392   -46923.329    255.41086   0.99897889 
   20100    268.92847    78.570901    137576.06   -43214.303     3693.085   -46907.388    256.60535    1.0019659 
   20200    276.10797    16.834358    137484.72    -43192.59     3791.678   -46984.268    258.51654    1.0026315 
   20300    276.84029   -82.696489    137565.69   -43155.404    3801.7347   -46957.139     261.1179    1.0020414 
   20400    275.72615    184.80345    137647.98   -43236.397    3786.4346   -47022.832    262.88994    1.0014424 
   20500    276.18193    123.98017    137717.56   -43194.574    3792.6937   -46987.268     264.3855    1.0009364 
   20600    271.10861   -92.029607    137630.36   -43255.485    3723.0238   -46978.509    266.79781    1.0015706 
   20700    270.99622   -177.21019    137444.66    -43298.07    3721.4805   -47019.551    268.19671    1.0029238 
   20800    269.47384   -138.77375    137419.44   -43316.707    3700.5743   -47017.281     270.0517    1.0031078 
   20900    274.51327    46.753505    137342.38   -43321.856    3769.7787   -47091.635    271.78873    1.0036707 
   21000    274.98714     179.7037    137253.08   -43272.974    3776.2862    -47049.26    273.58786    1.0043236 
   21100    267.83407    10.169357       137509   -43317.998     3678.056   -46996.054    275.89924    1.0024545 
   21200    271.18562   -202.94823    137547.15   -43389.509    3724.0815    -47113.59    278.01641    1.0021764 
   21300    268.50548    141.26503    137634.27   -43411.997    3687.2762   -47099.273     280.2548    1.0015421 
   21400    268.80773    190.49846    137621.18   -43326.434    3691.4268   -47017.861     281.9808    1.0016374 
   21500    279.17319    60.030982    137799.62   -43160.307    3833.7715   -46994.079    284.07227    1.0003403 
   21600    272.55148    140.41177    137644.97   -43282.422    3742.8382    -47025.26    285.85101    1.0014642 
   21700    271.41196    6.1209358    137399.25   -43298.439    3727.1897   -47025.628    286.89049    1.0032552 
   21800    276.69812   -1.8042194    137409.85   -43216.497    3799.7824    -47016.28    288.67014    1.0031778 
   21900    275.61518    183.34231    137601.88    -43257.72    3784.9108   -47042.631     290.6952    1.0017779 
   22000    271.08173    119.02482    138024.17   -43280.058    3722.6548   -47002.713    292.33027   0.99871287 
   22100    271.17755   -56.149179    137717.03    -43272.57    3723.9707    -46996.54    293.92168    1.0009403 
   22200    277.29273   -117.35873       137712   -43204.512    3807.9479    -47012.46    295.42267    1.0009768 
   22300    272.82989   -122.96762    137840.01   -43219.063    3746.6615   -46965.724    296.26772    1.0000472 
   22400    269.56949    54.893125    137594.31   -43375.601    3701.8878   -47077.488    297.18156     1.001833 
   22500    269.33243    154.56566    137649.71   -43358.713    3698.6324   -47057.346    298.37087    1.0014298 
   22600    270.32139    -111.6555    137685.24    -43358.57    3712.2133   -47070.784    300.15539    1.0011714 
   22700    270.18355   -226.07597    137523.99   -43377.809    3710.3204   -47088.129     300.9221    1.0023453 
   22800    268.11618   -14.260578    137609.19   -43428.097    3681.9301   -47110.027    302.23484    1.0017247 
   22900    272.36264   -181.54375    137597.95   -43443.132     3740.245   -47183.377    303.38627    1.0018065 
   23000    270.58752   -53.659472    137499.45   -43332.592     3715.868    -47048.46    304.10975    1.0025241 
   23100     274.3024    61.262726    137683.63   -43321.328    3766.8829   -47088.211    305.57294     1.001183 
   23200    277.32997   -20.351396    137706.11   -43312.073    3808.4593   -47120.532    308.28524    1.0010196 
   23300    272.96634    222.26752    137618.38   -43357.753    3748.5353   -47106.288      309.513    1.0016577 
   23400    264.70168    196.27402    137754.04   -43405.751    3635.0401   -47040.791    311.16403    1.0006713 
   23500    270.38083    59.819836    137780.06   -43353.206    3713.0296   -47066.235    313.24117    1.0004824 
   23600    274.20249   -129.54758    137723.24   -43399.848    3765.5109   -47165.359    314.18735    1.0008951 
   23700    269.46201   -95.062713    137575.97   -43441.327    3700.4119   -47141.739    315.16785    1.0019665 
   23800      270.714   -157.59634    137803.62   -43381.785    3717.6048    -47099.39    316.63123    1.0003113 
   23900    269.44216    181.10245    137956.28    -43315.63    3700.1392   -47015.769    318.06644   0.99920435 
   24000     275.0548   -133.19655    137710.49     -43251.8    3777.2154   -47029.015    318.85762    1.0009878 
   24100      272.935   -161.62274    137401.24   -43267.602    3748.1049   -47015.707    319.55095    1.0032407 
   24200    280.71409    40.484109    137182.85   -43178.746    3854.9321   -47033.678    321.14133    1.0048378 
   24300    269.59426      15.2056    137404.15    -43245.53    3702.2279   -46947.758    322.13791    1.0032195 
   24400    277.77681    9.5559658    137394.39    -43198.75    3814.5955   -47013.346    323.68659    1.0032907 
   24500    276.29482   -18.669507    137572.56   -43263.037    3794.2441   -47057.282    325.57456    1.0019913 
   24600    278.47691   -109.60054    137531.34   -43306.301    3824.2097   -47130.511    326.98074    1.0022917 
   24700    277.34645   -216.17129    137502.43   -43271.512    3808.6856   -47080.198    328.35018    1.0025024 
   24800    274.44348   -166.11928    137469.51   -43211.222    3768.8204   -46980.042    329.99141    1.0027425 
   24900    277.21879    91.237217    137275.55   -43298.282    3806.9326   -47105.215    330.97105    1.0041593 
   25000    270.94549   -71.100379    137322.74   -43344.412    3720.7839   -47065.195    332.05672    1.0038142 
   25100     272.3835   -15.751549    137350.27     -43332.9    3740.5315   -47073.432    333.50378     1.003613 
   25200    269.42067    23.401527    137439.95   -43366.511    3699.8441   -47066.355     334.8683    1.0029581 
   25300     272.5335    94.971276    137531.26   -43378.491    3742.5914   -47121.082    336.71222    1.0022922 
   25400    269.01322    40.483583    137564.23   -43362.413    3694.2488   -47056.662    338.50336     1.002052 
   25500    272.91244    66.462706    137457.49   -43356.822    3747.7952   -47104.617    339.32461    1.0028301 
   25600    274.81789    118.31481    137557.07   -43434.675    3773.9619   -47208.637    340.57865    1.0021042 
   25700    267.72928   -266.40974    137477.83   -43446.562    3676.6169   -47123.179    341.32933    1.0026818 
   25800    267.37179    68.460798    137561.39   -43452.037    3671.7077   -47123.745    342.63124    1.0020727 
   25900    270.33596   -63.578133    137443.86   -43577.362    3712.4134   -47289.775    343.21526    1.0029296 
   26000    272.45415   -187.37619    137378.96   -43442.651    3741.5016   -47184.153    344.34803    1.0034034 
   26100    271.77413    65.589027    137542.35   -43508.425    3732.1632   -47240.588    345.84316    1.0022114 
   26200    272.88321    47.405217    137682.24   -43388.195    3747.3937   -47135.589     346.7636    1.0011931 
   26300    267.72406   -151.10901    137708.45   -43339.328    3676.5452   -47015.873     347.3878    1.0010026 
   26400    268.79777   -114.95419    137480.16   -43382.179    3691.2901   -47073.469    348.00759    1.0026648 
   26500    275.80212   -94.368727     137604.3   -43246.256     3787.478   -47033.734    350.13964    1.0017603 
   26600    273.00959    54.778975       137782   -43248.234    3749.1293   -46997.364    351.48339    1.0004682 
   26700     271.8177    163.25758    137856.34   -43295.007    3732.7616   -47027.769    352.74353   0.99992875 
   26800    276.08697    143.24796    137892.23   -43283.436    3791.3898   -47074.825    354.04058   0.99966845 
   26900    269.76657   -18.924748    137966.14       -43348    3704.5942   -47052.594    355.46926   0.99913298 
   27000    267.34188    100.65577    137579.18   -43384.457     3671.297   -47055.754    356.96591    1.0019432 
   27100    273.28594    25.395475    137669.65   -43379.192    3752.9242   -47132.116    358.01952    1.0012847 
   27200    276.12281   -8.4542799    137915.46   -43328.163    3791.8818   -47120.045    359.35081   0.99950012 
   27300    271.97782   -3.7935813     137902.4   -43286.047    3734.9603   -47021.008    360.64507   0.99959477 
   27400     281.0018    51.087349    137835.22   -43233.288     3858.883   -47092.171    361.82739     1.000082 
   27500    274.80818    146.36192    137635.23   -43333.129    3773.8285   -47106.958    362.70276    1.0015351 
   27600    271.92941    85.551902    137654.22   -43279.727    3734.2957   -47014.023    364.02123     1.001397 
   27700    275.37889    50.121855     137412.3   -43287.453     3781.666   -47069.119    364.88805      1.00316 
   27800    275.24996   -146.95345    137325.29   -43227.747    3779.8953   -47007.642    366.59162    1.0037956 
   27900    274.83467    55.093254    137501.14   -43263.051    3774.1923   -47037.244     368.8434    1.0025118 
   28000    275.55995    73.852275    137546.19   -43146.815    3784.1523   -46930.967    370.72557    1.0021835 
   28100    272.40493   -130.20716    137358.81   -43217.159    3740.8258   -46957.985    371.41797    1.0035506 
   28200    269.71411   -7.6243918    137352.95   -43317.978    3703.8738   -47021.852    373.10173    1.0035935 
   28300    264.68953    155.50012    137235.82   -43408.393    3634.8733   -47043.266    373.75717      1.00445 
   28400    273.84128    281.62071     137231.5   -43251.209    3760.5505   -47011.759     374.3115    1.0044816 
   28500    274.56455    90.864383    137364.76   -43288.866     3770.483   -47059.349     375.7678    1.0035072 
   28600    271.02988    40.475905     137499.7   -43331.875    3721.9427   -47053.818    377.43997    1.0025223 
   28700    270.37214   -66.493937    137614.76    -43377.56    3712.9102    -47090.47    379.23449    1.0016841 
   28800      271.611   -22.811091    137338.37   -43357.144     3729.923   -47087.067    380.10727       1.0037 
   28900    270.23368    18.485486    137450.64   -43320.032    3711.0089   -47031.041    381.95957    1.0028801 
   29000    269.70131    69.073373    137533.71    -43338.87    3703.6981   -47042.568    383.51943    1.0022744 
   29100    276.29129   -138.18177    137651.62    -43276.97    3794.1956   -47071.165    385.72441    1.0014159 
   29200    268.50386     75.57176    137841.99   -43324.313    3687.2539   -47011.567    386.73894    1.0000328 
   29300    270.74182     38.16459    137755.59   -43339.943    3717.9869    -47057.93    387.08588      1.00066 
   29400    276.80188   -68.392035     137857.3   -43343.595    3801.2073   -47144.803    388.89056   0.99992175 
   29500    268.68775   -160.16849    137796.32   -43374.304    3689.7792   -47064.083    390.37366    1.0003642 
   29600     274.2894    56.339909    137690.01   -43355.939    3766.7044   -47122.644    391.80057    1.0011367 
   29700    268.35412   -25.456804    137623.23   -43313.055    3685.1977   -46998.252    393.08653    1.0016225 
   29800    272.15182    89.123508     137448.4   -43299.973    3737.3499   -47037.323    394.49814    1.0028965 
   29900    277.33078    82.189341     137918.3   -43216.901    3808.4704   -47025.372    396.68903   0.99947954 
   30000    271.07468    123.96616    137986.17   -43229.054     3722.558   -46951.612    397.93537   0.99898792 
   30100    274.31606    56.246629    137964.22   -43222.424    3767.0705   -46989.494    399.09963   0.99914687 
   30200    271.90124   -168.61096    137782.73   -43240.939    3733.9088   -46974.848    400.59303     1.000463 
   30300     275.9967    114.62973    137661.51   -43216.568    3790.1501   -47006.718    401.70061    1.0013439 
   30400    266.62085    39.541286    137723.42   -43283.562    3661.3954   -46944.957    403.87718    1.0008938 
   30500    269.33203    11.867145    137705.86   -43328.501    3698.6268   -47027.128    405.27304    1.0010215 
   30600    274.42868    95.013869    137852.77    -43306.98    3768.6171   -47075.597    407.30146   0.99995461 
   30700     275.9881   -155.35162    138008.18    -43331.12     3790.032   -47121.152    409.82123   0.99882858 
   30800    274.11428    -101.6886    137627.66   -43335.013    3764.2996   -47099.312    411.11645    1.0015902 
   30900    279.42446    45.715958    137876.87   -43318.729     3837.222   -47155.952    412.91658   0.99977983 
   31000    279.05949    47.021646    137772.58   -43321.821    3832.2101   -47154.031    413.94649    1.0005367 
   31100    266.82526   -61.889487    137751.84   -43421.039    3664.2025   -47085.242    413.98577    1.0006873 
   31200    266.69308    -66.49409    137566.54   -43480.217    3662.3872   -47142.604    414.65587    1.0020352 
   31300    274.89749    33.242544    137681.33   -43349.747     3775.055   -47124.802    416.49022    1.0011998 
   31400    271.52752     2.109185    137888.31   -43440.654    3728.7766    -47169.43    418.90517   0.99969693 
   31500    270.56278   -6.6085697    137871.68   -43350.195    3715.5283   -47065.724    420.50627   0.99981751 
   31600    273.09812   -36.632797    137997.58   -43297.893     3750.345   -47048.238    423.01059   0.99890529 
   31700    275.91027   -118.08616    138113.06   -43294.727    3788.9632    -47083.69    424.89257   0.99807007 
   31800    274.68438   -42.721585    137614.33   -43334.027    3772.1285   -47106.156    426.27574    1.0016873 
   31900    274.10532    8.0749925    137560.21   -43293.319    3764.1764   -47057.495    427.28544    1.0020813 
   32000    276.22947     26.02665    137715.89   -43281.564    3793.3466   -47074.911    429.21997    1.0009486 
   32100    272.21871    101.14438    137875.27   -43350.149    3738.2685   -47088.417    431.30845   0.99979147 
   32200    274.26192    99.704159     137721.3   -43282.057     3766.327   -47048.384    431.86769    1.0009092 
   32300    269.66054   -244.56362    137479.37   -43354.211    3703.1381    -47057.35    433.43553    1.0026706 
   32400    278.51656    112.34434    137789.41   -43267.909    3824.7542   -47092.663    435.66273    1.0004145 
   32500     272.2333   -32.296374    137739.71   -43326.882    3738.4689   -47065.351    437.50018    1.0007754 
   32600    275.98753    10.880462    137626.22    -43344.52    3790.0241   -47134.544    438.95815    1.0016007 
   32700    276.05917   -53.251884    137449.96   -43347.057     3791.008   -47138.065    440.24637    1.0028851 
   32800    272.73663    126.95956    137806.35   -43416.047    3745.3809   -47161.428    441.98359    1.0002914 
   32900    268.24737   -68.102655    137781.66   -43496.143    3683.7317   -47179.875    443.62738    1.0004707 
   33000      267.331    57.724971    137785.18   -43440.774    3671.1475   -47111.922    444.59645    1.0004452 
   33100    267.51849    128.90041    137565.77     -43475.9    3673.7222   -47149.622    445.54234    1.0020408 
   33200    271.57114   -105.74505    137538.74   -43327.414    3729.3756   -47056.789    446.82421    1.0022378 
   33300    271.34393    158.36224    137618.18   -43299.494    3726.2554    -47025.75    449.32495    1.0016592 
   33400    270.59379   -45.122314    137409.99   -43375.647    3715.9541   -47091.601    451.02568    1.0031768 
   33500    278.11977   -235.80494    137612.69   -43277.945    3819.3053    -47097.25    452.69695    1.0016992 
   33600    271.66584    83.172476    137781.34    -43354.34    3730.6761   -47085.016    454.29789     1.000473 
   33700    277.76275   -127.99605    137591.72   -43371.303    3814.4024   -47185.706    455.98872    1.0018519 
   33800    277.92335    141.66869    137614.06   -43334.888    3816.6079   -47151.495    458.05343    1.0016892 
   33900    269.53737   -237.79147    137630.87   -43337.193    3701.4468    -47038.64    459.90983    1.0015668 
   34000    273.14923    87.208979     137776.6   -43322.614    3751.0469   -47073.661      462.706    1.0005075 
   34100    270.53919   -36.523973    137576.05    -43349.14    3715.2042   -47064.344     463.2549     1.001966 
   34200    272.68836    130.33666    137362.53   -43364.444    3744.7179   -47109.162    465.23149    1.0035234 
   34300    269.67536    34.626452    137436.59   -43343.018    3703.3417   -47046.359    466.69925    1.0029827 
   34400    277.01394    5.9264537    137461.66   -43231.738    3804.1193   -47035.857    468.14291    1.0027997 
   34500    278.67656   -54.118356    137495.76   -43204.685    3826.9515   -47031.637    468.88777     1.002551 
   34600     278.5264    129.12341    137660.42   -43265.289    3824.8893   -47090.178    469.97757    1.0013518 
   34700    271.50287   -111.21343     137711.9   -43324.897    3728.4381   -47053.335    470.66772    1.0009775 
   34800    270.92795   -35.398582    137962.43   -43366.123    3720.5429   -47086.666    472.52286   0.99915984 
   34900    269.08574   -5.8438892    137709.85   -43379.933    3695.2446   -47075.178    473.39259    1.0009924 
   35000    268.52065   -39.162276    137928.03    -43374.46    3687.4845   -47061.944    475.38763   0.99940901 
   35100    275.79351    139.63851    137779.02   -43298.863    3787.3598   -47086.223    476.60575    1.0004899 
   35200    273.88532     46.73877    137978.04   -43197.575    3761.1553   -46958.731     477.8306   0.99904675 
   35300    275.65936   -255.78664    137957.34     -43232.1    3785.5175   -47017.618    479.67223   0.99919669 
   35400    273.44378   -135.83348    137703.59   -43330.981    3755.0919   -47086.073    480.78544    1.0010379 
   35500    277.23464    -13.66929    137780.75   -43317.511    3807.1502   -47124.661     482.3499    1.0004773 
   35600    270.60866   -30.203871    137670.18   -43375.004    3716.1583   -47091.162    483.94407    1.0012809 
   35700    270.79367    -206.1524    137189.85   -43344.912    3718.6989   -47063.611    484.59313    1.0047866 
   35800    273.98556    169.50924    137136.61   -43311.363    3762.5319   -47073.895    486.46593    1.0051766 
   35900    273.90828    232.95571    137103.91   -43295.787    3761.4706   -47057.258     487.8949    1.0054163 
   36000    273.40639   -80.418875    137497.55   -43317.777    3754.5784   -47072.356    490.56757     1.002538 
   36100    273.20176   -15.517669     137562.5   -43334.022    3751.7683    -47085.79    492.48247    1.0020647 
   36200    274.12152    183.28732    137584.03   -43272.852     3764.399   -47037.251    493.59392    1.0019079 
   36300    270.77012   -59.373321    137416.99   -43261.865    3718.3756   -46980.241    493.65887    1.0031258 
   36400    272.57502    61.184337    137588.03   -43241.418    3743.1615    -46984.58    495.74543    1.0018787 
   36500    273.54599    201.18141     137849.4   -43128.255    3756.4954   -46884.751    497.06148    0.9999791 
   36600    273.66866   -63.496134    137967.57    -43255.53      3758.18    -47013.71    499.46754   0.99912259 
   36700     271.2687   -217.18525    137947.64   -43266.503    3725.2224   -46991.725     500.4994   0.99926693 
   36800    270.36076   -57.656029    137551.35    -43344.46     3712.754   -47057.214    500.64694    1.0021458 
   36900    267.24056    -42.39692    137450.62     -43373.2    3669.9056   -47043.105    502.21043    1.0028803 
   37000    274.23191    182.07735    137288.32   -43289.986    3765.9149     -47055.9    503.37541    1.0040659 
   37100    269.40697    71.936815    137476.33   -43339.198     3699.656   -47038.854    505.06086    1.0026927 
   37200    277.33329    -215.9306    137403.16   -43321.731    3808.5049   -47130.236     506.2723    1.0032267 
   37300    274.51615    17.072269    137580.94   -43358.942    3769.8182    -47128.76    507.69873    1.0019303 
   37400    270.52581   -172.59318    137425.37    -43380.73    3715.0206   -47095.751    507.59324    1.0030645 
   37500    268.90276    -177.0838     137250.3   -43436.904    3692.7318   -47129.636    509.28841     1.004344 
   37600    273.38969    125.91055     137422.3   -43354.646     3754.349   -47108.996    511.44879     1.003087 
   37700    272.62682    106.33259    137328.43    -43369.86    3743.8728   -47113.733    512.10481    1.0037726 
   37800    267.14855   -21.044696    137296.69   -43409.713    3668.6419   -47078.355    513.70744    1.0040046 
   37900    269.27926   -123.62371    137540.59   -43412.754    3697.9021   -47110.656     515.5338    1.0022243 
   38000    265.00977   -64.217944    137320.13    -43419.62    3639.2711   -47058.891    516.08893    1.0038333 
   38100    265.31135    134.98374     137477.6   -43407.805    3643.4124   -47051.217    517.73025    1.0026835 
   38200     269.0983     33.72368    137552.77   -43414.221    3695.4172   -47109.638    519.12018    1.0021355 
   38300    268.90515    80.226378    137451.75   -43458.919    3692.7647   -47151.683    520.49122    1.0028721 
   38400     269.6977   -12.468756    137333.99    -43527.79    3703.6485   -47231.438    522.09299     1.003732 
   38500    262.46764     6.018484    137513.84   -43543.732    3604.3609   -47148.093    524.49155    1.0024192 
   38600    268.69069    120.94256    137493.36   -43426.944    3689.8196   -47116.764    526.68895    1.0025685 
   38700    269.99337   -122.37642    137504.42   -43386.224    3707.7087   -47093.933    528.98141    1.0024879 
   38800     274.0125   -142.34831    137594.63   -43333.894    3762.9018   -47096.796    530.89423    1.0018307 
   38900    270.19659    35.377423     137714.7   -43264.915    3710.4995   -46975.414    532.96407    1.0009572 
   39000    273.53302   -1.8916147    137539.93   -43329.163    3756.3173   -47085.481    534.21919    1.0022291 
   39100     267.6256    128.77924    137542.21   -43288.443    3675.1932   -46963.636    535.37895    1.0022125 
   39200    271.10266   -109.48309    137409.09   -43291.757    3722.9422   -47014.699     536.5152    1.0031834 
   39300     275.8747   -29.732348    137415.56    -43270.49    3788.4747   -47058.964    538.04794    1.0031361 
   39400    275.09616   -23.198893    137506.32   -43263.728    3777.7833   -47041.512    538.73956    1.0024741 
   39500    276.23715    9.2219668    137496.04   -43244.284    3793.4521   -47037.737    539.59812     1.002549 
   39600    272.46513   -62.395173    137606.76   -43265.339    3741.6524   -47006.991    541.09151    1.0017423 
   39700    274.37229   -154.10178    137775.23   -43282.226    3767.8428   -47050.069    543.32024    1.0005174 
   39800    271.04652   -70.183565    137576.05   -43319.844    3722.1712   -47042.015    544.06669     1.001966 
   39900    268.65737   -73.630454    137721.57   -43428.028     3689.362    -47117.39    546.42497    1.0009073 
   40000    273.05536    48.387366    137721.01   -43426.128    3749.7578   -47175.886    547.95461    1.0009113 
   40100    272.36122     109.2289    137766.99   -43344.239    3740.2255   -47084.465    549.11611    1.0005773 
   40200    274.64954    105.84846    137772.95   -43311.341      3771.65   -47082.991    550.02273     1.000534 
   40300    272.70027    180.16322    137734.15   -43283.411    3744.8815   -47028.292    552.17692    1.0008158 
   40400    268.53453    159.98696    137994.49   -43306.944    3687.6751   -46994.619    554.30606   0.99892768 
   40500    268.85754   -289.48684    137824.13   -43322.667    3692.1108   -47014.777     555.3548    1.0001625 
   40600    269.46593    2.5529427    138059.96   -43261.524    3700.4656   -46961.989    557.63661   0.99845395 
   40700    273.62998    24.796106    137929.92   -43299.076    3757.6489   -47056.725    558.60848   0.99939535 
   40800    273.47238    98.053968    137835.77   -43268.301    3755.4846   -47023.786    559.60963     1.000078 
   40900    274.36464    20.530555     137577.9   -43289.208    3767.7376   -47056.946    561.35337    1.0019525 
   41000    274.20383     45.88237    137453.38   -43326.016    3765.5292   -47091.545    561.71856    1.0028601 
   41100    269.91709    23.024104    137571.46   -43380.361    3706.6613   -47087.022    563.63634    1.0019994 
   41200     273.8882    30.323469    137751.52   -43252.333    3761.1949   -47013.528    565.06678    1.0006896 
   41300    268.47688    -83.89702    137750.94   -43313.326    3686.8834    -47000.21    566.13182    1.0006938 
   41400    272.32705    141.97708    137730.28     -43299.1    3739.7562   -47038.856    566.62587     1.000844 
   41500    267.16175    164.27929    137924.37   -43327.823    3668.8233   -46996.647    568.37382   0.99943553 
   41600    276.07626   -11.139327    137662.07   -43262.739    3791.2427   -47053.982    569.06023    1.0013399 
   41700    266.92783   -96.517524    137577.71    -43407.96    3665.6109   -47073.571    569.77159    1.0019538 
   41800    272.73892    24.558523    137483.52   -43306.231    3745.4123   -47051.643    570.30727    1.0026403 
   41900    278.29857   -225.07318    137611.47   -43225.204    3821.7607   -47046.964    571.68272     1.001708 
   42000    273.74129    79.057538    137448.02   -43331.288    3759.1775   -47090.466    572.49717    1.0028993 
   42100    274.87784    143.66846    137810.14   -43287.413    3774.7853   -47062.198    574.79087    1.0002639 
   42200    270.49624    30.234937    137861.99   -43294.521    3714.6145   -47009.135    575.84283   0.99988776 
   42300    270.53395   -137.63894    137594.64   -43356.823    3715.1323   -47071.955    576.99807    1.0018305 
   42400    267.66549   -198.45492    137404.58   -43387.134     3675.741   -47062.875     577.9462    1.0032163 
   42500    274.87642   -46.725428    137577.97   -43343.961    3774.7657   -47118.726     579.1547    1.0019519 
   42600    273.10268   -9.6933979    137645.36   -43388.969    3750.4076   -47139.376    580.02227    1.0014614 
   42700    268.94617    94.245398    137575.78   -43374.548     3693.328   -47067.877    581.41136    1.0019679 
   42800    267.65549    127.57768    137597.37   -43500.972    3675.6036   -47176.575    582.55404    1.0018107 
   42900    267.28604    31.731666    137740.91   -43444.528    3670.5301   -47115.058    583.70766    1.0007667 
   43000    274.98428    188.44407    137657.96   -43379.804    3776.2469   -47156.051    585.40257    1.0013697 
   43100    266.95733    31.496533    137832.31   -43431.137     3666.016   -47097.153    587.13923     1.000103 
   43200    270.34869    210.31025    137700.18       -43427    3712.5883   -47139.588     588.0073    1.0010627 
   43300    266.46759    152.19911    137791.43   -43411.787    3659.2907   -47071.077    588.35908    1.0003998 
   43400    271.18229   -115.71055    137607.84   -43475.334    3724.0357    -47199.37    588.75325    1.0017345 
   43500    271.70568    43.370449    137509.11   -43446.708    3731.2232   -47177.931    589.39011    1.0024537 
   43600    270.61184    238.75946    137377.17   -43419.627     3716.202   -47135.829    589.65628    1.0034165 
   43700    267.36312   -51.723502    137277.64   -43419.907    3671.5887   -47091.495    590.96211     1.004144 
   43800    271.99726    149.24601    137148.21   -43326.612    3735.2273    -47061.84    592.79416    1.0050916 
   43900    266.73661   -108.35995    137135.61   -43357.165    3662.9851    -47020.15     595.1509    1.0051839 
   44000    271.26106    136.77733    137105.38   -43323.252    3725.1175   -47048.369    596.74568    1.0054056 
   44100     273.9752    97.883146    137239.11   -43262.314    3762.3897   -47024.704    598.24536    1.0044259 
   44200    272.21884   -16.296502    137247.44   -43265.316    3738.2702   -47003.586     599.6412     1.004365 
   44300     266.7207    171.75593    137239.27   -43366.327    3662.7666   -47029.094    600.76625    1.0044247 
   44400      268.803   -44.797187    137572.46   -43360.049    3691.3618    -47051.41    602.55342    1.0019921 
   44500    267.29604    -56.67442     137510.3   -43436.579    3670.6674   -47107.247     603.9187     1.002445 
   44600     269.0742   -205.77728    137383.79   -43415.229    3695.0861   -47110.316     605.4495    1.0033681 
   44700    271.23811   -48.485877    137587.79    -43470.42    3724.8022   -47195.222    606.59336    1.0018805 
   44800    265.09593    28.071006    137844.96   -43404.254    3640.4542   -47044.708    608.50136    1.0000113 
   44900    274.14304   -96.562886    137604.77   -43367.137    3764.6945   -47131.832    607.99593    1.0017568 
   45000    271.86608    40.670729    137729.14   -43361.695     3733.426   -47095.121    609.68027    1.0008523 
   45100    272.45191     115.6794    137789.34   -43393.191    3741.4708   -47134.662    611.40564     1.000415 
   45200    267.42068    88.264745    137682.54   -43402.345    3672.3791   -47074.724     613.3171     1.001191 
   45300    269.10768   -30.413594    137496.49   -43358.862    3695.5459   -47054.408    614.57853    1.0025457 
   45400    268.87967   -228.75218    137438.36   -43387.161    3692.4147   -47079.575    615.49647    1.0029698 
   45500    274.43467    170.42665    137612.41    -43324.89    3768.6993   -47093.589    617.46066    1.0017012 
   45600    273.72645   -177.88446     137587.5   -43309.464    3758.9736   -47068.437    619.26176    1.0018825 
   45700    272.60784    188.50899    137335.33   -43371.534    3743.6123   -47115.146    618.91703    1.0037222 
   45800    275.49293    12.603633    137273.75   -43270.526    3783.2319   -47053.758    620.06376    1.0041725 
   45900    271.88796   -30.701966    137316.21   -43319.245    3733.7264   -47052.971    622.41618     1.003862 
   46000    269.30505    50.857825    137320.87   -43371.733    3698.2564   -47069.989    624.19319    1.0038279 
   46100    272.09264    52.468552    137545.85   -43403.821    3736.5372   -47140.358    625.96951    1.0021859 
   46200    271.27268    165.95664    137669.41   -43371.875     3725.277   -47097.152    627.33244    1.0012865 
   46300    272.44817   -108.99178    138001.18   -43320.742    3741.4196   -47062.162    629.65988   0.99887927 
   46400     269.2839     76.99643     137760.3   -43298.612    3697.9659   -46996.578    629.73984    1.0006258 
   46500    269.11832    31.931513    137739.85   -43325.396     3695.692   -47021.088    630.25971    1.0007744 
   46600    274.15235   -118.84054    137546.26   -43229.789    3764.8224   -46994.612    631.21035    1.0021829 
   46700    280.12707    81.811283    137610.41   -43242.649    3846.8707    -47089.52    632.57467    1.0017157 
   46800    273.40169    123.39729    137986.84   -43194.085    3754.5139   -46948.599    634.84337   0.99898304 
   46900    275.09567   -28.272793    137748.42   -43219.591    3777.7766   -46997.368    635.30322    1.0007122 
   47000    272.43082    137.28277    137769.52   -43243.712    3741.1813   -46984.893    635.78895    1.0005589 
   47100    270.00682   -36.025613    137771.82   -43270.826    3707.8935    -46978.72    636.14705    1.0005422 
   47200    271.11141   -83.482471    137803.03   -43230.137    3723.0624     -46953.2    637.42868    1.0003156 
   47300    274.53316    91.905918    137569.11   -43269.329    3770.0519   -47039.381    637.85742    1.0020165 
   47400    277.11996   -169.91276    137648.44   -43231.837    3805.5753   -47037.413    639.25131     1.001439 
   47500    268.81628     34.29646    137537.87   -43285.598    3691.5442   -46977.142    640.34799    1.0022441 
   47600    277.28248    -15.03633    137410.34   -43268.311    3807.8072   -47076.118    642.20982    1.0031743 
   47700    269.53824    18.394739     137431.2   -43315.372    3701.4586    -47016.83    643.79567     1.003022 
   47800     272.8402   -14.319635     137488.5   -43328.573    3746.8031   -47075.376    645.06497    1.0026039 
   47900    276.40124    -72.95751    137705.82   -43337.257    3795.7054   -47132.962    647.17579    1.0010217 
   48000    266.68184   -103.96511    137689.19   -43453.827    3662.2329    -47116.06       648.17    1.0011426 
   48100    269.79533   -111.62195    137580.63   -43416.722    3704.9891   -47121.712    648.67075    1.0019326 
   48200    269.04953    115.96795    137729.12   -43375.883    3694.7474   -47070.631    649.88414    1.0008524 
   48300    270.92641    1.3057394    137909.41   -43328.588    3720.5218    -47049.11    651.12556   0.99954397 
   48400     272.0945    64.890947    137885.09   -43281.164    3736.5627   -47017.727    653.27966   0.99972028 
   48500    269.36749   -235.23547    137772.69   -43317.244    3699.1138   -47016.358    654.47585    1.0005358 
   48600     271.2337    11.439366    137552.28   -43361.908    3724.7418    -47086.65    655.57722    1.0021391 
   48700    266.32697   -36.741374    137574.48   -43410.925    3657.3596   -47068.284    657.25536    1.0019774 
   48800    271.03034    119.84176    137451.33   -43377.022     3721.949   -47098.971    659.59869    1.0028751 
   48900    275.48753   -81.062578    137396.15    -43346.99    3783.1578   -47130.147    661.76883    1.0032779 
   49000    270.02644     -101.099     137414.9   -43375.527    3708.1629    -47083.69    663.82745     1.003141 
   49100    272.03976     -24.1826    137332.26   -43362.631    3735.8109   -47098.442    665.46139    1.0037446 
   49200     268.9033   -42.346605    137420.88   -43447.069    3692.7393   -47139.808    667.43282    1.0030973 
   49300    272.95333    96.221667    137414.12   -43441.983    3748.3566   -47190.339    668.40591    1.0031467 
   49400    272.38149    50.282308    137678.71   -43344.196    3740.5039     -47084.7    670.37201    1.0012188 
   49500    275.97293   -228.69165    137715.03   -43364.859    3789.8236   -47154.683    671.98752    1.0009548 
   49600      268.836   -251.01181    137481.67   -43418.416    3691.8151   -47110.231    672.89552    1.0026538 
   49700     268.3025    170.05862    137779.63   -43396.428    3684.4888   -47080.917     675.2862    1.0004855 
   49800    272.44021    90.290219    137723.62   -43330.403    3741.3102   -47071.713    676.98402    1.0008923 
   49900    268.84209   -10.512247     137817.7   -43378.189    3691.8987   -47070.087    679.62657    1.0002091 
   50000    271.65086   -32.451186    137571.39   -43408.843    3730.4704   -47139.314    680.70803    1.0019999 
   50100    270.34304    106.86717     137509.8   -43429.607    3712.5106   -47142.118    682.68495    1.0024487 
   50200    271.14094  -0.72870096    137724.58   -43389.262    3723.4678   -47112.729    684.91752    1.0008854 
   50300    269.04892   -40.957312    137922.13   -43376.366    3694.7391   -47071.105    687.62934   0.99945175 
   50400    272.97706    63.650758    137821.58   -43373.232    3748.6826   -47121.915    687.87158    1.0001809 
   50500    272.79379   -115.55241     137859.3   -43432.994    3746.1658    -47179.16    688.41723   0.99990729 
   50600    269.68031   -18.348621    137695.51   -43413.748    3703.4097   -47117.157     689.1029    1.0010967 
   50700    273.58455   -98.821465    137889.89   -43416.567    3757.0249   -47173.591     691.6103   0.99968547 
   50800    267.67798    141.07458    137936.99   -43338.548    3675.9124    -47014.46    692.88243   0.99934407 
   50900     267.9209    33.287526    137967.65   -43344.271    3679.2484    -47023.52    694.85914   0.99912201 
   51000    269.03678  -0.98385511    137825.07   -43363.027    3694.5723   -47057.599    696.28742    1.0001556 
   51100    272.11541    90.085463    137794.42    -43347.82    3736.8499   -47084.669    697.32119    1.0003781 
   51200    270.66071   -99.840987    137605.49   -43274.453     3716.873   -46991.326    698.61759    1.0017516 
   51300    275.65589    37.394327    137282.08   -43224.848    3785.4699   -47010.318    699.33988    1.0041115 
   51400    270.78294    166.07566    137190.68   -43442.185    3718.5516   -47160.736    700.48594    1.0047804 
   51500    268.37047    182.41369    137326.95     -43422.5    3685.4222   -47107.922    702.58603    1.0037834 
   51600    266.99207   -202.43431    137287.35   -43418.743    3666.4931   -47085.236    703.97365     1.004073 
   51700    269.74386   -199.71312    137148.33   -43352.892    3704.2824   -47057.175    705.13256    1.0050908 
   51800    266.96421   -73.581973    136875.76   -43409.631    3666.1106   -47075.742    704.47934    1.0070923 
   51900    270.13125    130.79931    137349.44   -43431.327    3709.6022   -47140.929    707.31314     1.003619 
   52000    270.22399    4.2122557    137332.61   -43421.464    3710.8758    -47132.34    709.12687    1.0037421 
   52100    267.67999    136.96407     137439.7   -43378.053    3675.9401   -47053.993    710.61881    1.0029599 
   52200    267.44318   -28.457457    137464.47   -43433.655    3672.6881   -47106.343     710.7688    1.0027793 
   52300    271.42324    61.760109    137309.26   -43344.645    3727.3446    -47071.99    711.35415    1.0039128 
   52400    274.83243    179.67046    137526.51   -43278.805    3774.1617   -47052.967    713.58628    1.0023268 
   52500    272.92727    147.42253    137741.77   -43331.021    3747.9989    -47079.02    716.00538    1.0007604 
   52600    268.75619   -16.425606    137790.25   -43397.839    3690.7191   -47088.559    717.71652    1.0004083 
   52700    267.57031   -50.742984    137934.22   -43361.256    3674.4339    -47035.69    719.70623   0.99936418 
   52800    267.09708   -115.56001    137590.21   -43428.304    3667.9351   -47096.239    720.82382    1.0018628 
   52900    269.06532    244.28092    137477.18   -43459.098    3694.9643   -47154.062    721.68887    1.0026866 
   53000    265.12636    116.53357    137568.04   -43511.609    3640.8722   -47152.481    723.04414    1.0020243 
   53100    259.82891     85.85458    137465.54   -43533.334    3568.1244   -47101.459    724.83339    1.0027714 
   53200    271.90096    49.889853    137361.26   -43352.959    3733.9049   -47086.864    726.30635    1.0035327 
   53300    266.55254    123.47369    137390.29    -43392.51    3660.4573   -47052.967     727.8103    1.0033206 
   53400     276.3925    51.230241    137408.63     -43285.4    3795.5854   -47080.985    728.77811    1.0031867 
   53500    274.12509   -100.80302    137448.89   -43277.472     3764.448    -47041.92    730.06817    1.0028929 
   53600     272.4469   -68.885493    137368.08   -43272.045    3741.4021   -47013.447    731.81742    1.0034829 
   53700    269.76032    155.97775    137186.37   -43235.622    3704.5084    -46940.13    733.90625     1.004812 
   53800    270.89038   0.43045987    137290.21   -43387.746    3720.0271   -47107.773    735.70518    1.0040521 
   53900     269.7482     168.7868    137247.69   -43432.409    3704.3419   -47136.751    738.47386    1.0043631 
   54000    274.79028   -80.184166    137501.81   -43408.254    3773.5827   -47181.837    739.67789    1.0025069 
   54100    274.43712   -1.8801893    137753.06   -43383.107    3768.7329    -47151.84    741.90808    1.0006785 
   54200    272.25887    133.75226    137776.39   -43367.264    3738.8199   -47106.084    743.10047     1.000509 
   54300    268.94075   -26.067107    137713.72   -43381.131    3693.2536   -47074.385    745.30241    1.0009643 
   54400     272.5772   -150.52635    137711.31   -43372.485    3743.1914   -47115.677    747.12559    1.0009818 
   54500    271.40677    287.66148    137648.92   -43409.348    3727.1184   -47136.466    748.77609    1.0014355 
   54600    273.74422   -88.987308    137635.15   -43403.906    3759.2177   -47163.124    749.28516    1.0015357 
   54700    269.15752    131.97407    137650.31   -43401.579    3696.2303    -47097.81    750.52213    1.0014254 
   54800     268.1826    207.70498    137545.91   -43426.554    3682.8422   -47109.396    752.71866    1.0021855 
   54900    274.55937    103.42439    137824.97   -43328.472    3770.4117   -47098.883    754.47489    1.0001564 
   55000      271.604   -9.8432048    137923.42   -43296.432    3729.8268   -47026.259    756.01126   0.99944239 
   55100    273.09226   -111.67427    138040.71   -43210.884    3750.2646   -46961.149    757.20332   0.99859322 
   55200    277.43896    49.668229    137689.11   -43281.775     3809.956   -47091.731    757.27675    1.0011432 
   55300    277.95152    23.113387    137667.26   -43274.041    3816.9948   -47091.035    758.71149    1.0013021 
   55400    272.11652   -331.58906    137527.81   -43291.996    3736.8651   -47028.861    759.35882    1.0023174 
   55500     268.9625    99.730398    137284.19   -43279.866    3693.5523   -46973.418    760.10037    1.0040961 
   55600    270.75689   -113.59488    137337.66     -43256.8    3718.1939   -46974.994    761.79082    1.0037051 
   55700    270.37606    100.17847    137309.48   -43280.144    3712.9641   -46993.108    763.52547    1.0039112 
   55800    269.08434    176.59585    137398.57   -43323.191    3695.2254   -47018.416    765.36669    1.0032602 
   55900    269.44482    86.714775    137325.91   -43412.326    3700.1758   -47112.502    766.62158     1.003791 
   56000    266.21403    75.945271    137312.78     -43489.2    3655.8087   -47145.008    768.20872     1.003887 
   56100    270.04758    58.218825    137267.32   -43413.498    3708.4532   -47121.951    769.32814    1.0042195 
   56200    274.36875    -78.88801    137207.59   -43401.861    3767.7941   -47169.655    770.77232    1.0046566 
   56300     268.5897    31.137963    137390.05   -43342.805    3688.4327   -47031.238    773.58441    1.0033224 
   56400     270.6323   -56.449496    137248.43   -43282.989    3716.4829   -46999.472    775.83675    1.0043577 
   56500    271.65402    68.179627    137397.62   -43244.705    3730.5137   -46975.219    778.19887    1.0032672 
   56600    276.04357   -151.71827    137752.01   -43209.564    3790.7937   -47000.358    781.08985    1.0006861 
   56700    280.15035   -36.682297    137812.21   -43250.418    3847.1904   -47097.609    782.79409    1.0002489 
   56800    275.21042    270.20051    137735.08   -43225.405    3779.3524   -47004.758    783.87062    1.0008091 
   56900    268.29406    87.555364    137663.34   -43306.793    3684.3728   -46991.165    785.35609    1.0013306 
   57000    275.76294     18.39744    137790.81   -43364.466      3786.94   -47151.406    786.03497    1.0004043 
   57100    271.91181    -95.43888    137870.46   -43438.337    3734.0539    -47172.39    787.75607   0.99982632 
   57200    270.17506    38.972594    137656.92   -43537.566    3710.2038    -47247.77    788.57211    1.0013773 
   57300    268.22369   -46.677445    137448.63    -43587.89    3683.4065   -47271.297    789.05034    1.0028948 
   57400    267.93089    80.529116    137493.87   -43529.802    3679.3856   -47209.187    791.54613    1.0025648 
   57500     268.8903   -124.75934    137539.85    -43510.93    3692.5607   -47203.491    793.44195    1.0022297 
   57600    269.89335    29.300989    137607.76   -43552.466    3706.3352   -47258.801     794.6303    1.0017351 
   57700    266.25849   -73.275892     137378.5    -43539.94    3656.4192   -47196.359    794.22629    1.0034067 
   57800    269.91626    1.6872624    137591.14   -43381.231    3706.6498    -47087.88    797.38795    1.0018561 
   57900    273.79173    217.61621     137482.8   -43395.197    3759.8701   -47155.067    798.40624    1.0026456 
   58000    269.91262    196.49545    137603.19   -43495.732    3706.5999   -47202.332    800.01421    1.0017683 
   58100    273.30232   -140.29725    137852.25   -43410.744    3753.1493   -47163.894    801.40378   0.99995841 
   58200    265.66754   -49.606399    137739.08   -43401.631     3648.304   -47049.935    802.27648      1.00078 
   58300    271.88585   -148.19023    137679.14   -43436.023    3733.6974    -47169.72    802.62094    1.0012157 
   58400    273.77838    212.04054     137764.1   -43343.665    3759.6867   -47103.352    803.27719    1.0005982 
   58500      272.114    23.649961    137743.37   -43305.809    3736.8306    -47042.64    804.45663    1.0007488 
   58600    270.31233    3.7831659    137817.42   -43364.685     3712.089   -47076.774    805.40272    1.0002111 
   58700    271.20541   -94.152732    137781.67   -43301.962    3724.3532   -47026.315    807.12874    1.0004707 
   58800    267.34293    110.24379    137559.48   -43312.507    3671.3114   -46983.819    808.41608    1.0020867 
   58900     273.9802    171.07962    137700.59   -43225.684    3762.4582   -46988.143     810.8022    1.0010597 
   59000    274.94566   -20.386306    137678.33   -43304.707    3775.7165   -47080.424    811.08025    1.0012216 
   59100    269.07675   -95.661404    137566.89   -43306.597    3695.1211   -47001.718    811.87833    1.0020327 
   59200    268.40583    -16.63715    137558.24   -43327.005    3685.9078   -47012.913    813.36858    1.0020957 
   59300    269.01475   -77.679647    137524.49   -43359.392    3694.2698   -47053.661    814.75748    1.0023416 
   59400     274.6381   -7.3746339    137278.62   -43280.309     3771.493   -47051.802    814.88418    1.0041368 
   59500    273.19129    95.862434    137555.47   -43331.033    3751.6244   -47082.657    816.50534    1.0021158 
   59600     277.6918   -109.65934    137206.29   -43266.928    3813.4281   -47080.356    816.86677    1.0046662 
   59700    272.08955   -25.814381    137392.78   -43284.177    3736.4948   -47020.672    818.57412    1.0033025 
   59800     271.5876   -5.6643087    137376.22   -43249.075    3729.6016   -46978.677    818.96852    1.0034234 
   59900      268.938   -21.513131    137362.26   -43320.883    3693.2159   -47014.099    820.27157    1.0035254 
   60000    268.12162    16.110607    137222.08   -43303.761    3682.0048   -46985.766    820.80133    1.0045506 
   60100    277.02745    96.444309    137205.67   -43264.263     3804.305   -47068.568     821.3278    1.0046707 
   60200    269.71767   -20.586358     137332.1   -43394.359    3703.9227   -47098.282    822.46404    1.0037458 
   60300     272.6926    29.597143    137168.63   -43371.234    3744.7761    -47116.01    822.93385     1.004942 
   60400    273.00081    102.84853    137256.49   -43349.009    3749.0087   -47098.018     824.5242    1.0042987 
   60500    269.56425   -36.226874    137340.81   -43425.291    3701.8159   -47127.107    825.66546    1.0036821 
   60600    268.64365    99.800695    137383.31   -43420.654    3689.1736   -47109.828    827.50518    1.0033716 
   60700    268.91425   -19.414489    137369.03   -43382.018    3692.8897   -47074.908    829.46104    1.0034759 
   60800    268.67869   -61.848218    137110.14   -43383.864    3689.6548   -47073.519    828.92117    1.0053707 
   60900    272.07951   -41.153572       137268   -43299.481    3736.3569   -47035.838    831.32156    1.0042145 
   61000    269.76168    55.669643    137359.07   -43228.264     3704.527   -46932.791    833.09927    1.0035487 
   61100    273.45719    70.864031    137326.56   -43155.928    3755.2761   -46911.204    835.17575    1.0037863 
   61200    275.63405   -76.756959    137295.44   -43229.503    3785.1699   -47014.673    836.68489    1.0040138 
   61300    279.85347    -23.78775    137232.62   -43235.422    3843.1135   -47078.536    838.29246    1.0044734 
   61400    281.64922    27.900085    137509.44   -43143.325    3867.7739   -47011.099    840.97407    1.0024513 
   61500     275.5367   -28.136742    137642.16   -43167.947     3783.833    -46951.78    842.92653    1.0014847 
   61600    269.06171   -73.504412    137530.93   -43223.228    3694.9146   -46918.143    843.18645    1.0022947 
   61700    270.59674    14.058803    137611.01   -43279.747    3715.9945   -46995.742     844.7608    1.0017114 
   61800    276.61833    36.532869    137728.74   -43322.695    3798.6866   -47121.382    846.27588    1.0008551 
   61900    273.82016    -80.63241    137736.64   -43250.441    3760.2606   -47010.702    846.18075    1.0007977 
   62000    271.36223    31.602545     137749.6   -43381.681    3726.5068   -47108.188    847.45255    1.0007035 
   62100    273.41233   -49.465297    137878.66   -43380.474    3754.6599   -47135.134    850.28346   0.99976689 
   62200     268.6044    89.129156    137788.37   -43340.895    3688.6346   -47029.529    851.17382     1.000422 
   62300     274.9468   -116.35478    137804.01   -43367.808    3775.7322    -47143.54    851.98048    1.0003085 
   62400    271.32975   -66.037829    137700.61   -43459.881    3726.0608   -47185.942    853.14246    1.0010596 
   62500    271.74052   0.24860917    137272.47   -43440.649    3731.7017    -47172.35     852.3762    1.0041818 
   62600    272.22273    157.68175    137284.55   -43396.494    3738.3237   -47134.818     854.4955    1.0040934 
   62700    280.71274    22.806548    137437.67   -43389.145    3854.9134   -47244.059    857.40212    1.0029748 
   62800    271.88745     135.0226    137502.43   -43388.582    3733.7194   -47122.302    859.47791    1.0025024 
   62900     274.1074   -37.553673    137542.38   -43320.389     3764.205   -47084.594    860.85311    1.0022113 
   63000    272.00819     -23.4675    137513.15    -43349.44    3735.3775   -47084.817    860.27757    1.0024242 
   63100    269.82381   -99.970072    137473.14   -43330.095    3705.3802   -47035.476    860.87479     1.002716 
   63200    268.57067      54.5529    137603.21   -43349.624    3688.1714   -47037.795    862.85876    1.0017682 
   63300    271.92151    96.615586    137754.22   -43376.797    3734.1872   -47110.984     863.9453      1.00067 
   63400    266.75672   -189.16997    137564.59    -43437.48    3663.2612   -47100.741    864.00335    1.0020494 
   63500    267.86631   -22.059142     137512.2   -43371.339    3678.4987   -47049.838    866.04906    1.0024311 
   63600    269.13383   -12.492408    137510.94   -43344.533    3695.9051   -47040.438    867.35032    1.0024404 
   63700    269.48332   -135.36145    137334.83   -43358.475    3700.7044    -47059.18    867.28741    1.0037258 
   63800    269.18365    115.75381    137216.29   -43394.966    3696.5893   -47091.555    868.71263     1.004593 
   63900    273.50665    30.820488    137300.72   -43328.872    3755.9553   -47084.828    870.16004    1.0039752 
   64000    267.70247    6.5323566    137205.14   -43411.819    3676.2487   -47088.068    872.02366    1.0046746 
   64100    271.56703    -151.9307    137157.02   -43450.458    3729.3193   -47179.777    873.58174    1.0050271 
   64200    268.54868    16.781232    137140.91   -43453.034    3687.8694   -47140.904    873.97833    1.0051451 
   64300    266.71452    134.14254    137107.38   -43489.436    3662.6816   -47152.117      874.748    1.0053909 
   64400    273.34037   -76.980472    137379.65    -43479.75    3753.6717   -47233.422    877.78309    1.0033984 
   64500    269.55551    69.911138    137446.45   -43531.651    3701.6958   -47233.347    880.12993    1.0029107 
   64600    271.05165     17.96046     137634.6    -43429.39    3722.2417   -47151.631    881.84423    1.0015397 
   64700    269.74936   -136.40135    137622.93    -43384.58    3704.3579   -47088.938    883.21154    1.0016247 
   64800    269.97082    19.115305    137593.88   -43296.167    3707.3991   -47003.566    884.65327    1.0018361 
   64900    276.52416    174.11326    137613.42   -43257.752    3797.3934   -47055.145    886.57455    1.0016938 
   65000    269.93487    318.73704    137708.58   -43325.751    3706.9054   -47032.657    888.63306    1.0010017 
   65100    272.23712   -92.963982    137884.19   -43391.109    3738.5213    -47129.63     890.5714   0.99972679 
   65200    273.82361     138.4313    137543.02   -43333.724    3760.3079   -47094.031    890.89187    1.0022065 
   65300    269.99634    46.016649    137388.52    -43381.75    3707.7495     -47089.5    891.67988    1.0033336 
   65400    266.99588    144.34844    137529.62   -43374.857    3666.5454   -47041.402    892.76698    1.0023042 
   65500    274.10076   -9.6569485    137615.64   -43320.674    3764.1138   -47084.788    894.19797    1.0016777 
   65600    272.17559    -21.46122    137542.29   -43301.479    3737.6764   -47039.156    895.32275    1.0022119 
   65700    270.04457   -46.989862    137732.27   -43256.627    3708.4119   -46965.039    897.28636    1.0008295 
   65800    275.23744   -108.21947    137659.89   -43333.749    3779.7234   -47113.472    898.43896    1.0013557 
   65900    275.21789   -56.632721    137422.36   -43298.048     3779.455   -47077.503    899.19798    1.0030865 
   66000    270.73472    146.58131    137500.78   -43286.332    3717.8894   -47004.222    899.95906    1.0025144 
   66100    270.91808   -51.397577    137483.21   -43319.778    3720.4074   -47040.185    900.92693    1.0026426 
   66200    275.44679    196.08656     137780.9   -43237.659    3782.5983   -47020.257    903.20046    1.0004762 
   66300    273.15304    10.926865    137792.51   -43234.041    3751.0992   -46985.141    904.38477     1.000392 
[...]
   84600    270.02194    -12.65504    137473.99   -43407.462     3708.101   -47115.563    1168.2657    1.0027098 
   84700    260.22681   -166.08889    137536.25   -43437.532    3573.5885   -47011.121    1170.9482    1.0022559 
   84800    272.33907    31.464849    137608.67   -43377.276    3739.9213   -47117.198    1174.0318    1.0017284 
   84900    270.84578    49.138313    137559.77   -43349.865    3719.4146   -47069.279    1175.9709    1.0020845 
   85000    266.78566     66.56298    137457.98   -43325.966    3663.6586   -46989.624    1177.5007    1.0028266 
   85100    270.42835    67.728882    137379.33   -43356.381    3713.6822   -47070.063    1178.2886    1.0034007 
   85200    270.24395    217.56613    137206.09   -43352.058    3711.1498   -47063.208    1178.8815    1.0046676 
   85300    273.64932    30.527953    137460.85   -43315.425    3757.9145    -47073.34    1182.8304    1.0028056 
   85400    274.02333   -84.702375    137609.42   -43304.524    3763.0506   -47067.575    1185.1639     1.001723 
   85500    268.94525   -229.73993    137349.27   -43323.939    3693.3154   -47017.254    1185.0245    1.0036203 
   85600    271.07974    111.50462    137107.55   -43274.294    3722.6274   -46996.922    1184.6773    1.0053897 
   85700    277.38699    159.52343     137134.7    -43315.28    3809.2424   -47124.522      1187.97    1.0051907 
   85800     267.9255    232.09298    137033.34   -43306.537    3679.3115   -46985.848    1189.1118    1.0059342 
   85900      274.398   -74.784288    137077.62   -43349.522    3768.1958   -47117.718    1190.1913    1.0056092 
   86000    270.99283   -11.467621    137289.97   -43352.187     3721.434   -47073.621    1192.3863    1.0040538 
   86100    270.92773     115.0535    137015.53   -43356.402    3720.5399   -47076.941    1192.5891    1.0060649 
   86200    275.14089   -79.538159     137196.9   -43374.303    3778.3976     -47152.7    1194.5207    1.0047349 
   86300    272.25028    193.56476    137405.26   -43375.007    3738.7019   -47113.709     1197.056    1.0032114 
   86400    272.12767    37.772445    137453.41   -43336.109    3737.0182   -47073.128    1198.0984      1.00286 
   86500    275.26384    3.8598937    137444.37    -43370.34     3780.086   -47150.426    1200.7769    1.0029259 
   86600    268.48115     41.03351    137337.93   -43360.671     3686.942   -47047.613    1201.2954    1.0037032 
   86700    270.26629    90.533815    137263.72   -43377.393    3711.4567    -47088.85    1202.0294    1.0042458 
   86800    273.08364    45.812932    137531.73   -43309.944    3750.1461    -47060.09    1204.4481    1.0022888 
   86900    272.95063   -96.187176    137625.18   -43340.663    3748.3197   -47088.983    1207.4637    1.0016082 
   87000    267.86327   -267.95639    137564.74   -43359.599    3678.4569   -47038.056    1208.8073    1.0020483 
   87100    272.59119    118.43688     137566.8   -43408.449    3743.3835   -47151.833    1210.0201    1.0020333 
   87200    270.23881   -4.3070854    137636.56   -43389.677    3711.0793   -47100.756    1211.8269    1.0015254 
   87300    271.52293    196.74424    137488.66   -43247.676    3728.7136    -46976.39    1212.2186    1.0026028 
   87400    270.70036   -46.082296    137795.84   -43285.601    3717.4176   -47003.019     1215.587    1.0003677 
   87500    269.96052    128.19023    137539.54    -43356.08    3707.2577   -47063.338    1214.6809    1.0022319 
   87600    276.23253    103.85264    137619.28   -43332.282    3793.3886    -47125.67    1215.8266    1.0016512 
   87700    267.49362     12.38459    137396.42   -43368.199    3673.3807    -47041.58    1217.0774    1.0032759 
   87800    273.84605    46.242224     137304.1   -43243.143     3760.616   -47003.759    1218.1955    1.0039505 
   87900    278.51217   -60.846142     137483.1   -43228.069     3824.694   -47052.763    1222.4731    1.0026433 
   88000    275.46521   -119.52809    137538.55   -43238.039    3782.8513    -47020.89    1224.4785    1.0022391 
   88100    268.99943   -105.55121     137506.6   -43330.376    3694.0593   -47024.435    1224.6206     1.002472 
   88200    277.12412    31.814709       137175   -43255.981    3805.6325   -47061.614    1225.3372    1.0048954 
   88300    276.17749   -199.78494    137118.35   -43270.555    3792.6327   -47063.188    1227.6009    1.0053105 
   88400    270.66558   -27.913202    137202.63   -43284.294      3716.94   -47001.234    1229.4057    1.0046929 
   88500    270.71732   -30.148191    137326.19   -43364.232    3717.6504   -47081.883    1231.1343     1.003789 
   88600    271.17451    66.353165    137374.19    -43367.13    3723.9289   -47091.059    1233.0371    1.0034383 
   88700    272.65465   -156.79623    137373.37   -43394.751    3744.2551   -47139.006    1233.6595    1.0034443 
   88800    275.15407    88.693825    137622.06   -43365.086    3778.5785   -47143.664    1236.9885     1.001631 
   88900    270.99781    155.46962    137783.42   -43407.977    3721.5023   -47129.479    1237.9203     1.000458 
   89000    273.16558   -76.632773    137774.94   -43366.688    3751.2714    -47117.96    1239.4883    1.0005195 
   89100    267.89862    -33.45552    137868.86   -43337.474    3678.9424   -47016.417    1241.3655   0.99983791 
   89200     267.9813   -51.612246    137815.59   -43385.554    3680.0778   -47065.632    1243.1505    1.0002244 
   89300    268.56552   -101.68284    138130.69   -43355.222    3688.1007   -47043.323    1245.2221    0.9979427 
   89400    271.54429   -60.976464    138027.33   -43290.727    3729.0069   -47019.734    1246.2873   0.99869003 
   89500    272.36426   -102.26184    137883.43   -43388.041    3740.2672   -47128.308    1246.8798   0.99973232 
   89600    274.53857   -212.97109    137923.13   -43370.259    3770.1262   -47140.385    1247.7661   0.99944451 
   89700    269.39715    20.985735    138015.17   -43326.511    3699.5211   -47026.032    1250.5946   0.99877799 
   89800    269.25053     165.0345    137818.75    -43402.12    3697.5076   -47099.628    1251.1024    1.0002015 
   89900     270.9172   -205.43068    137808.59   -43388.963    3720.3953   -47109.359    1252.7207    1.0002752 
   90000    268.90113    24.774788     137634.2   -43425.899    3692.7095   -47118.609    1252.5522    1.0015426 
   90100    270.44182    27.512852    137728.51   -43318.373    3713.8672    -47032.24    1254.4063    1.0008568 
   90200    267.18111   -103.58003    137537.78   -43455.329    3669.0891   -47124.418    1255.0525    1.0022447 
   90300    267.76448   -111.83306    137180.38   -43501.846    3677.1004   -47178.946    1253.7485    1.0048559 
   90400    268.17064    254.22061    137499.18   -43408.282    3682.6779    -47090.96    1256.9098    1.0025261 
   90500    272.88079    12.318175    137677.58   -43322.791    3747.3605   -47070.151    1259.6905     1.001227 
   90600    268.93129   -83.719852    137747.14   -43349.309    3693.1236   -47042.433    1263.0368    1.0007214 
   90700    267.29772    70.172602    137780.88   -43352.557    3670.6905   -47023.247    1263.5641    1.0004764 
   90800    272.73348   -259.66893    137860.16   -43330.713    3745.3376    -47076.05    1264.4206   0.99990102 
   90900    269.07936   -87.915104    137766.52   -43427.806    3695.1571   -47122.963     1265.767    1.0005807 
   91000    269.68901   -52.774639    137592.59   -43378.654    3703.5292   -47082.183    1266.1903    1.0018455 
   91100    272.43639     136.2041    137521.07   -43311.802    3741.2578    -47053.06    1267.8337    1.0023666 
   91200    270.26697    90.578989       137394    -43323.01     3711.466   -47034.476     1268.797    1.0032935 
   91300    266.93397   -69.561212    137532.88   -43351.865    3665.6952    -47017.56    1270.9827    1.0022805 
   91400    270.31644   -6.0196936    137410.71   -43393.694    3712.1453    -47105.84    1271.4182    1.0031716 
   91500     269.9728    57.890232    137143.09   -43375.724    3707.4263    -47083.15    1271.4306    1.0051292 
   91600    267.52166    -2.009513    137223.31   -43375.724    3673.7657   -47049.489    1272.8846    1.0045415 
   91700    271.70557    164.54005    137250.41   -43399.817    3731.2217   -47131.039    1274.2006    1.0043432 
   91800    267.00776    110.16697    137374.38   -43507.188    3666.7086   -47173.897    1275.3781    1.0034368 
   91900    263.48765    148.11629    137469.04   -43449.123    3618.3684   -47067.491    1277.9687    1.0027459 
   92000    271.28783   -87.737344    137400.19   -43358.859    3725.4851   -47084.344     1278.776    1.0032483 
   92100    268.81806    165.20716    137522.76   -43334.011    3691.5687    -47025.58    1280.6686    1.0023542 
   92200    277.60481   -80.568977    137753.23    -43216.67    3812.2336   -47028.904    1282.7482    1.0006772 
   92300    273.99901    79.504298    137601.99   -43261.246    3762.7165   -47023.962    1282.9835     1.001777 
   92400    270.71511    31.642814    137474.28    -43337.75    3717.6202    -47055.37    1283.6297    1.0027077 
   92500    268.21929    211.20879    137649.13   -43283.429    3683.3461   -46966.775    1285.7735     1.001434 
   92600    273.08009    78.156397    137392.85   -43293.713    3750.0975   -47043.811    1285.5214     1.003302 
   92700    268.89489    66.681159    137677.15   -43348.573    3692.6239   -47041.197    1287.8001    1.0012301 
   92800    275.24969   -41.774208    137659.08   -43310.963    3779.8917   -47090.855    1289.3334    1.0013616 
   92900    273.10461   -19.840419    137612.61   -43320.542    3750.4341   -47070.976    1290.6805    1.0016998 
   93000    274.78612    32.540919    137519.48   -43258.255    3773.5257    -47031.78    1291.9109    1.0023781 
   93100    271.16508    -195.0513    137674.62   -43321.325    3723.7994   -47045.124    1293.5587    1.0012486 
   93200    273.53958    75.357139    137670.16   -43266.979    3756.4074   -47023.387     1294.731     1.001281 
   93300    274.09615    61.318599    137633.62   -43185.268    3764.0505   -46949.318    1294.8947    1.0015468 
   93400    272.71548    57.044878    137663.67     -43292.6    3745.0904   -47037.691    1295.7154    1.0013282 
   93500    269.23517    31.315255    137690.48   -43347.892    3697.2968   -47045.189    1297.0386    1.0011332 
   93600    265.77588   -45.434115    137584.64   -43370.621    3649.7917   -47020.413    1296.9768    1.0019034 
   93700    269.26473    180.98375    137622.63   -43366.061    3697.7026   -47063.764     1298.918    1.0016268 
   93800    273.11017   -68.023361    137323.52   -43246.794    3750.5105   -46997.304    1298.4906    1.0038085 
   93900    275.27882    22.556716    137299.51   -43326.359    3780.2916   -47106.651    1301.3331     1.003984 
   94000    274.83068   -31.097253    137557.46   -43372.744    3774.1376   -47146.882    1303.3079    1.0021014 
   94100    269.88125    130.01704    137583.08   -43436.027    3706.1691   -47142.196    1304.6016    1.0019147 
   94200    264.48775    84.346169    137638.29    -43439.57    3632.1023   -47071.672    1305.9301    1.0015128 
   94300    274.19796   -34.164169    137518.26   -43394.423    3765.4487   -47159.872    1305.9348     1.002387 
   94400     271.6398    64.140196    137667.42   -43382.469    3730.3185   -47112.788    1308.7732    1.0013009 
   94500     271.7662    104.46039    137859.85   -43435.434    3732.0544   -47167.488    1312.2919   0.99990327 
   94600    268.50078   -40.323141     137683.4   -43508.842    3687.2116   -47196.053    1312.4957    1.0011847 
   94700    270.15769      174.308    137752.28   -43460.789    3709.9653   -47170.754    1313.4487    1.0006841 
   94800    271.43132   -74.990216    137704.25   -43394.193    3727.4556   -47121.649    1315.0618    1.0010331 
   94900    271.36075    201.73953    137792.77   -43355.312    3726.4864   -47081.798    1317.8004    1.0003901 
   95000    277.74046   -37.598687    137914.14    -43345.34    3814.0964   -47159.436    1319.8226   0.99950964 
   95100    269.13146    71.354991    137672.39   -43375.227    3695.8724     -47071.1    1318.8945    1.0012648 
   95200    270.58571    74.302236    137877.91    -43325.92    3715.8432   -47041.764    1322.1395   0.99977229 
   95300    270.27919    7.0694282    138178.18     -43331.3    3711.6338   -47042.934     1325.796   0.99759977 
   95400    268.96188   -7.6494797     137982.5   -43348.834    3693.5437   -47042.377    1326.7722   0.99901446 
   95500     276.4074   -188.11351    137819.14   -43324.189    3795.7901   -47119.979    1327.8014    1.0001987 
   95600    274.54882    93.555611    137794.63   -43417.089    3770.2669   -47187.356    1328.1912    1.0003766 
   95700    270.21474   -245.31817    137636.24    -43420.77    3710.7487   -47131.519    1329.0935    1.0015278 
   95800    274.44485   -56.416823    137671.38   -43352.491    3768.8391    -47121.33    1329.9817    1.0012722 
   95900    270.60453    46.008077    137532.41   -43353.355    3716.1015   -47069.457    1330.8966    1.0022839 
   96000    272.55411    148.15082    137703.82   -43284.394    3742.8743   -47027.269    1333.5982    1.0010362 
   96100     272.2255    -45.97902    137931.21   -43291.131    3738.3617   -47029.492    1337.0735   0.99938598 
   96200     272.8566   -128.67358    137882.37   -43295.861    3747.0284   -47042.889    1337.5077   0.99973994 
   96300    276.25404   -12.394273    137601.99    -43301.99    3793.6839   -47095.674    1336.6015     1.001777 
   96400    269.50184    66.159306    137816.67    -43386.82    3700.9587   -47087.779    1339.7904    1.0002166 
   96500    274.75615    29.487262    137725.79   -43309.858    3773.1141   -47082.972    1339.6977    1.0008766 
   96600    275.12845    59.757237    137732.88   -43308.932    3778.2268   -47087.159    1341.6821     1.000825 
   96700    277.06091   -233.82772    137719.56    -43289.63    3804.7645   -47094.394    1342.7846    1.0009218 
   96800    274.00222    44.646297    137849.88    -43254.73    3762.7607    -47017.49    1345.2631   0.99997562 
   96900    277.17955    -67.56884       137826   -43267.995    3806.3936   -47074.388    1346.7493    1.0001489 
   97000    269.02516    37.534539     137862.9   -43309.033    3694.4128   -47003.446    1348.0961   0.99988115 
   97100    274.33655   -46.483624    137686.16   -43304.744    3767.3519   -47072.096    1348.2246    1.0011647 
   97200    275.39805   -18.538139    137712.89   -43296.859    3781.9291   -47078.788    1350.7019    1.0009703 
   97300    271.92451   -51.754759    137700.87   -43332.818    3734.2283   -47067.046    1352.8055    1.0010577 
   97400    271.68938    33.561322    137324.37   -43326.413    3730.9993   -47057.413     1352.617    1.0038023 
   97500    274.40927    58.223521    137323.93   -43330.811    3768.3505   -47099.162     1355.641    1.0038055 
   97600    267.96805   -118.84386    137483.23   -43302.722    3679.8959   -46982.618    1357.4994    1.0026424 
   97700    267.80737    106.26196    137465.78   -43365.091    3677.6894   -47042.781    1359.2953    1.0027697 
   97800    268.95328    250.25828    137426.48   -43349.661    3693.4257   -47043.086    1360.3139    1.0030565 
   97900    274.14815    263.06322    137587.85    -43277.45    3764.7647   -47042.215    1361.2563      1.00188 
   98000    276.51242    46.029295    138020.01   -43225.707    3797.2322    -47022.94    1365.1771   0.99874301 
   98100    273.35717   -105.26355    137857.58   -43295.206    3753.9025   -47049.109    1365.5061   0.99991978 
   98200    275.06415    13.655239    137516.75   -43269.667    3777.3437   -47047.011    1365.0287     1.002398 
   98300     278.5387   -117.47206     137329.1   -43226.728    3825.0583   -47051.786     1364.252    1.0037677 
   98400     271.1517    120.78333    137647.32   -43209.451    3723.6157   -46933.067    1368.7069    1.0014472 
   98500    270.33666   -50.580942    137559.13   -43284.695     3712.423   -46997.118    1368.7415    1.0020892 
   98600    272.43588     75.65873    137643.78   -43283.443    3741.2507   -47024.694     1371.241    1.0014729 
   98700    270.53782   -65.770816    137663.48   -43377.578    3715.1855   -47092.764     1374.167    1.0013296 
   98800     274.5511   -15.161715    137486.54   -43372.965    3770.2982   -47143.263    1373.9973    1.0026183 
   98900    276.78381    236.09326     137412.5   -43360.145    3800.9592   -47161.105      1374.34    1.0031585 
   99000    274.04569   -3.1939344    137693.34   -43291.821    3763.3576   -47055.179    1377.0099    1.0011124 
   99100    272.03117   -119.56426    137963.29   -43373.593    3735.6931   -47109.286    1379.3967   0.99915359 
   99200    271.16009    159.82663    137855.67   -43308.792    3723.7308   -47032.523    1380.8765   0.99993363 
   99300    276.46649   -15.370029    138041.11   -43349.158    3796.6014   -47145.759    1382.9367   0.99859029 
   99400    276.60834   -162.34365    137893.92   -43289.042    3798.5495   -47087.591    1383.8345   0.99965624 
   99500    271.50012   -30.194885    137724.72   -43336.645    3728.4003   -47065.046    1383.1471    1.0008844 
   99600    264.14946    106.09439    137688.92    -43390.88    3627.4567   -47018.337    1384.4294    1.0011446 
   99700    272.64275   -40.816539     137968.7   -43352.145    3744.0916   -47096.237    1387.1891   0.99911442 
   99800     271.8712   -83.412995    137836.32   -43396.885    3733.4962   -47130.381    1388.6436     1.000074 
   99900    267.04937    133.97413    137965.01   -43359.911      3667.28   -47027.191    1391.6084   0.99914117 
  100000     269.1283   -133.79241    137737.89   -43321.394    3695.8291   -47017.223    1390.1938    1.0007886 
  100100    270.64188    42.499467    137853.13   -43339.134    3716.6145   -47055.749    1391.9124   0.99995204 
  100200     269.1926   -222.84156    137696.34   -43319.456    3696.7121   -47016.168    1391.4219    1.0010906 
  100300    270.52295    45.536397    137402.28   -43325.324    3714.9812   -47040.305    1391.0339    1.0032331 
  100400    269.86386     54.07405    137436.51   -43363.356    3705.9302   -47069.286    1392.8597    1.0029833 
  100500     269.2329    54.602826    137792.93   -43379.891    3697.2656   -47077.157    1396.9538    1.0003889 
  100600     268.2644   -144.36232    137647.02   -43417.906    3683.9655   -47101.872    1399.3078    1.0014493 
  100687    268.31849   -14.626096    137644.65   -43355.375    3684.7084   -47040.083    1401.0135    1.0014666 
Loop time of 189.615 on 6 procs for 100000 steps with 4608 atoms

Performance: 227.830 ns/day, 0.105 hours/ns, 527.385 timesteps/s
99.3% CPU use with 6 MPI tasks x no OpenMP threads

MPI task timing breakdown:
Section |  min time  |  avg time  |  max time  |%varavg| %total
---------------------------------------------------------------
Pair    | 165.19     | 168.53     | 173.34     |  21.5 | 88.88
Neigh   | 7.441      | 7.5506     | 7.7523     |   4.3 |  3.98
Comm    | 5.6836     | 10.79      | 14.204     |  88.4 |  5.69
Output  | 0.17308    | 0.17382    | 0.17709    |   0.4 |  0.09
Modify  | 1.8383     | 1.9519     | 2.0176     |   4.7 |  1.03
Other   |            | 0.6211     |            |       |  0.33

Nlocal:        768.000 ave         775 max         759 min
Histogram: 1 0 0 1 0 1 1 0 1 1
Nghost:        1687.33 ave        1709 max        1671 min
Histogram: 2 0 0 1 1 0 1 0 0 1
Neighs:        0.00000 ave           0 max           0 min
Histogram: 6 0 0 0 0 0 0 0 0 0
FullNghs:      25750.7 ave       26021 max       25511 min
Histogram: 1 0 1 0 2 0 1 0 0 1

Total # of neighbors = 154504
Ave neighs/atom = 33.529514
Neighbor list builds = 7025
Dangerous builds = 0

undump              1
unfix               2
unfix               3
unfix               4


################################################
#######         Run Simulation         #########
################################################

reset_timestep      0
log                 log.run_${NAME}
log                 log.run_liq_272K_1atm_mW
