
# Define the lattice
#
variable	    lattice_constant equal 6.36339
lattice		    diamond ${lattice_constant}
lattice		    diamond 6.36339
Lattice spacing in x,y,z = 6.3633900 6.3633900 6.3633900

# Define region
# multiples of lattice spacing
#
region 		    simbox block 0 9 0 8 0 8

# Create Atoms
#
create_box          1 simbox
Created orthogonal box = (0.0000000 0.0000000 0.0000000) to (57.270510 50.907120 50.907120)
  3 by 1 by 2 MPI processor grid
create_atoms        1 box
Created 4608 atoms
  create_atoms CPU = 0.000 seconds
mass                1 18.015

# Define potential
#
pair_style          sw
pair_coeff          * * /data/emrosky-sim/Freezing_Simulations/Melting/mW_fancy/mW.sw mW
Reading sw potential file /data/emrosky-sim/Freezing_Simulations/Melting/mW_fancy/mW.sw with DATE: 2019-02-27

# Add velocity/set timestep
#
velocity            all create ${TEMP} 120598 rot yes dist gaussian
velocity            all create 272 120598 rot yes dist gaussian
timestep            5.0

# Define output
#
compute	            1 all msd
thermo              100
thermo_style        custom step temp press vol etotal ke pe c_1[4]

# Neighbor lists
#
neigh_modify        delay 0 every 1 check yes

# Set fixes
#
fix                 1 all momentum 10 linear 1 1 1 rescale
fix                 2 all nve
fix                 3 all temp/csvr ${TEMP} ${TEMP} 500.0 928347
fix                 3 all temp/csvr 272 ${TEMP} 500.0 928347
fix                 3 all temp/csvr 272 272 500.0 928347
fix                 4 all press/berendsen iso ${PRES} ${PRES} 1000.0 modulus 20000
fix                 4 all press/berendsen iso 1 ${PRES} 1000.0 modulus 20000
fix                 4 all press/berendsen iso 1 1 1000.0 modulus 20000

# Run 0.5 ns equilibration
#
dump		    1 all custom 1000 eq.${NAME}.dump id type x y z vx vy vz
dump		    1 all custom 1000 eq.ice_272K_1atm_mW.dump id type x y z vx vy vz
run                 100000
Neighbor list info ...
  update every 1 steps, delay 0 steps, check yes
  max neighbors/atom: 2000, page size: 100000
  master list distance cutoff = 6.3065
  ghost atom cutoff = 6.3065
  binsize = 3.15325, bins = 19 17 17
  1 neighbor lists, perpetual/occasional/extra = 1 0 0
  (1) pair sw, perpetual
      attributes: full, newton on
      pair build: full/bin/atomonly
      stencil: full/bin/3d
      bin: standard
Per MPI rank memory allocation (min/avg/max) = 4.778 | 4.778 | 4.778 Mbytes
Step Temp Press Volume TotEng KinEng PotEng c_1[4] 
       0          272   -4583.2148    148418.52   -52818.257     3735.265   -56553.522            0 
     100    217.30171    -661.4654    140920.93   -51682.227    2984.1157   -54666.343   0.28666926 
     200    218.12257   -48.443247    140234.02   -50804.322    2995.3882    -53799.71   0.37713395 
     300    224.87439    21.833125    140369.15   -50239.481    3088.1082   -53327.589   0.38896657 
     400    243.70802    5.6986783    140554.62   -49857.896    3346.7428   -53204.639   0.35398205 
     500    258.07539   -1.7361548    140689.54   -49589.127     3544.044   -53133.171   0.36939522 
     600    262.41832    44.341189    140812.34   -49327.584    3603.6837   -52931.268   0.39127166 
     700    266.25163    61.761687    140838.89   -49258.716    3656.3249   -52915.041   0.33498542 
     800    269.55496   -10.877949    140873.84    -49178.66    3701.6883   -52880.348   0.37267086 
     900    272.87705    -28.29388    140932.55   -49163.134    3747.3092   -52910.443    0.3700009 
    1000    275.29818    36.759074    140893.27   -49209.118    3780.5576   -52989.676   0.34879294 
    1100     273.6499    11.467525    140902.33   -49148.506    3757.9223   -52906.429   0.34863113 
    1200    276.59839    49.128965    140929.68   -49153.099    3798.4128   -52951.512   0.35755662 
    1300    271.56968   -2.3074155    140929.29   -49061.074    3729.3556   -52790.429   0.38015121 
    1400    271.78341    -20.39805    140947.11   -49154.667    3732.2907   -52886.958   0.33833755 
    1500    268.38641   -45.695338    140880.71   -49182.509     3685.641    -52868.15   0.37252572 
    1600    272.09646    5.4590808    140899.52   -49126.948    3736.5897   -52863.537   0.38080224 
    1700    271.06576    19.240803    140914.12   -49146.232    3722.4355   -52868.668   0.34278943 
    1800     267.0345   -18.098993    140928.01   -49143.107    3667.0758   -52810.183   0.35176297 
    1900    279.64542    26.437002    140933.13   -49058.467    3840.2564   -52898.723   0.37700698 
    2000    279.74905   -8.6360184    140951.84   -49011.028    3841.6796   -52852.708   0.36195738 
    2100    272.43402   -11.740381    140906.46   -49167.664    3741.2253   -52908.889   0.33955197 
    2200    278.24469   -19.107148       140906   -49109.679    3821.0208   -52930.699   0.37498318 
    2300    277.56764   -2.4691372    140923.55   -49040.241    3811.7231   -52851.964   0.37635523 
    2400    271.34852   -15.531599    140908.85   -49058.168    3726.3185   -52784.486   0.34389358 
    2500    274.47529   -18.627395     140891.4   -49102.446    3769.2572   -52871.703   0.37090017 
    2600    271.19234   -11.547989    140885.12   -49137.783    3724.1737   -52861.957    0.3844644 
    2700    272.25436    3.0701404    140882.46   -49111.415    3738.7581   -52850.173   0.34928171 
    2800     273.1633    61.602784     140903.4   -49021.951    3751.2401   -52773.191   0.35539931 
    2900    270.16539    5.2935706    140914.56   -49037.106     3710.071   -52747.177   0.38450048 
    3000    270.75767    12.081151    140894.27   -49095.189    3718.2046   -52813.394   0.35620952 
    3100    269.99053   -16.157032    140902.44   -49068.219    3707.6698   -52775.888   0.35296864 
    3200    268.26249   -31.196285    140875.46   -49174.358    3683.9393   -52858.297   0.37928306 
    3300    268.80178   -34.287415    140815.67   -49230.196    3691.3451   -52921.541   0.37279655 
    3400    271.71672    10.133711    140809.04   -49165.054    3731.3749   -52896.429   0.36039729 
    3500    271.04172   -39.368243    140837.66   -49131.408    3722.1053   -52853.514   0.37868234 
    3600    274.52126    43.333152    140837.83   -49137.794    3769.8884   -52907.682   0.37353601 
    3700    270.47308    17.717127    140870.41   -49098.536    3714.2964   -52812.833   0.35456731 
    3800    273.89557   -8.3820734    140866.99   -49087.838    3761.2961   -52849.134   0.35546265 
    3900     274.6279    -31.46719    140876.47   -49096.686    3771.3529   -52868.039   0.37822777 
    4000     273.6665   -3.6959928    140865.43   -49139.427    3758.1503   -52897.577   0.36413527 
    4100    270.41391   -10.198179    140860.02   -49160.543    3713.4839   -52874.027   0.35451097 
    4200    273.33376     28.21474    140849.56     -49111.3     3753.581   -52864.881   0.36613316 
    4300    268.86829   -17.886021    140837.84   -49240.138    3692.2585   -52932.397   0.37911454 
    4400    274.66482    5.5112527    140840.25   -49133.966    3771.8599   -52905.826    0.3595631 
    4500    264.14577    18.060133    140856.95   -49188.473     3627.406   -52815.879   0.35408594 
    4600    267.85014   -2.0901559    140845.78   -49224.489    3678.2766   -52902.766   0.38889177 
    4700     272.3978    20.786982     140865.9   -49129.539    3740.7278   -52870.267   0.34695054 
    4800    280.45664    42.796827     140911.9   -49036.084    3851.3966   -52887.481   0.34387877 
    4900    272.09466   -12.562555    140939.09    -49001.72    3736.5649   -52738.285   0.38606891 
    5000    267.18364   -37.730066    140951.07   -49133.037    3669.1239   -52802.161   0.35828727 
    5100    271.48331    2.6729075    140924.33   -49058.325    3728.1695   -52786.495   0.35084444 
    5200    268.69746    9.7345714    140931.98   -49133.201    3689.9126   -52823.114   0.36838951 
    5300    267.02707   -11.912542    140870.36   -49226.001    3666.9737   -52892.974   0.37738276 
    5400    269.74056     40.04275    140851.03   -49194.589     3704.237   -52898.826    0.3303829 
    5500    271.08611    23.736484    140857.07   -49160.561    3722.7149   -52883.276   0.36709164 
    5600    267.76777     41.46122     140859.2   -49192.455    3677.1456     -52869.6   0.37464377 
    5700    271.72625    35.929073    140881.59   -49189.569    3731.5057   -52921.075   0.33460966 
    5800    271.33053    12.387738    140847.99   -49121.486    3726.0714   -52847.557   0.37043323 
    5900    266.82022   -28.536266    140853.25   -49205.928    3664.1332   -52870.061   0.37641038 
    6000    270.45598    37.653217    140836.09   -49179.114    3714.0616   -52893.175   0.35623452 
    6100    267.94286   -1.8407058    140824.63   -49253.137    3679.5499   -52932.687   0.35931014 
    6200    269.18368    6.1325556    140828.08   -49235.324    3696.5897   -52931.914   0.36864324 
    6300    271.12123   -17.775617    140848.66   -49121.218    3723.1972   -52844.415   0.37102189 
    6400    273.09044     -7.37978    140880.12    -49171.04    3750.2395    -52921.28   0.34309459 
    6500    271.49121   -6.8295636    140851.33    -49183.42     3728.278   -52911.698   0.35943186 
    6600       271.78     33.80212    140819.27   -49190.499    3732.2438   -52922.743   0.36499042 
    6700    264.38841   0.80594834    140783.85   -49233.796    3630.7381   -52864.534   0.36949597 
    6800    267.78201     8.892261    140806.34   -49198.187    3677.3411   -52875.528   0.36230575 
    6900    271.14156   -25.080376    140837.37    -49124.71    3723.4763   -52848.186    0.3774188 
    7000    272.99281    11.778989    140845.66   -49124.142    3748.8989   -52873.041   0.37436471 
    7100    271.67874    12.391676    140860.65   -49130.957    3730.8533    -52861.81   0.34090058 
    7200    266.68958     13.95868    140840.05   -49238.486    3662.3392   -52900.825   0.37412212 
    7300    270.56095   -45.402804    140781.69   -49286.673    3715.5031   -53002.176   0.38176157 
    7400    269.38156    8.9015416    140782.62   -49180.318     3699.307   -52879.625   0.34664773 
    7500    275.95982    24.236332    140820.59     -49116.1    3789.6437   -52905.744   0.37398365 
    7600    271.09317   -21.289083    140834.81   -49089.917    3722.8119   -52812.729   0.39308198 
    7700    273.69643   -5.2196566    140819.62   -49181.617    3758.5614   -52940.178   0.34275951 
    7800    270.22209   -6.7613644    140791.11   -49229.094    3710.8497   -52939.943   0.35794484 
    7900    275.08956     12.56686    140788.73   -49177.707    3777.6927     -52955.4    0.3958101 
    8000     273.4553   -30.145646     140829.2   -49081.784      3755.25   -52837.034   0.35894845 
    8100    275.50305    23.166661    140841.98    -49049.05    3783.3709   -52832.421   0.34489275 
    8200    270.55344   0.47579306    140843.73     -49068.4       3715.4     -52783.8   0.39250801 
    8300    273.21122    10.045832    140863.94   -49034.727    3751.8981   -52786.625    0.3647628 
    8400    272.41399    6.2252481    140902.22   -49012.172    3740.9501   -52753.122   0.34808426 
    8500    273.87556    25.231268    140892.15   -49091.908    3761.0213   -52852.929   0.37872519 
    8600    275.62796    10.175101    140911.44   -49114.387    3785.0863   -52899.474   0.37249475 
    8700    273.91034   -1.6441994    140904.38   -49084.928    3761.4989   -52846.427   0.34603937 
    8800    273.01179  -0.15355016    140874.39   -49125.596    3749.1595   -52874.755   0.36659503 
    8900    273.98441   -13.594585     140853.3   -49188.902    3762.5161   -52951.418   0.37545035 
    9000    274.31966   -13.718508    140854.86   -49119.621    3767.1199   -52886.741   0.36014674 
    9100    272.74567   -15.224846    140897.42   -49168.932     3745.505   -52914.437   0.35281666 
    9200    274.36769   -5.0252869    140909.76   -49067.792    3767.7795   -52835.571   0.37065399 
    9300    267.71141    -7.789645    140877.79   -49205.535    3676.3716   -52881.907   0.37532016 
    9400    266.72941    37.212535     140860.9    -49169.91    3662.8862   -52832.796   0.34416554 
    9500    269.58353   -23.045444    140869.49   -49217.583    3702.0806   -52919.663   0.36794082 
    9600    267.58503   -4.6713236    140882.96   -49208.108     3674.636   -52882.744   0.37447858 
    9700    271.73004   -8.5816269    140925.03   -49090.364    3731.5578   -52821.922   0.35253876 
    9800     274.4143   -9.9215222    140951.27   -49050.413    3768.4196   -52818.833   0.35009426 
    9900    273.01812    17.099011    140956.24   -49077.145    3749.2464   -52826.392   0.37053715 
   10000    271.30992   -2.4257513    140928.63   -49134.424    3725.7884   -52860.212   0.36550713 
   10100    274.67678    -14.06485    140912.36   -49086.713    3772.0242   -52858.737   0.34327316 
   10200    272.05415    8.0956712    140939.78   -49060.491    3736.0087     -52796.5   0.37225742 
   10300     274.4591    16.367605    140936.26   -49051.189    3769.0348   -52820.224    0.3732598 
   10400    274.52748    7.0166317       140951   -49061.942    3769.9739   -52831.916   0.33148393 
   10500    271.10258    -11.49894    140910.89   -49103.372    3722.9411   -52826.314   0.37299645 
   10600    268.35122    13.566602    140917.81   -49129.952    3685.1578   -52815.109   0.38110156 
   10700    272.68989    30.441332    140917.79   -49155.493    3744.7389   -52900.232   0.33610006 
   10800    267.69657   -2.5278766     140860.3   -49273.104    3676.1677   -52949.272    0.3565672 
   10900     267.5152    1.9349754    140816.05   -49260.916    3673.6771   -52934.593   0.38057444 
   11000    265.62466   -19.613184    140787.52   -49267.971    3647.7151   -52915.686   0.35986591 
   11100     268.1691    16.372881    140826.01   -49173.854    3682.6568    -52856.51    0.3521507 
   11200    265.95961    -27.97414    140823.78   -49282.643    3652.3148   -52934.958   0.38836882 
   11300    263.98182     11.42284    140824.43    -49202.33    3625.1547   -52827.485   0.36475364 
   11400    270.91802     20.07433    140832.48   -49179.827    3720.4066   -52900.234   0.34569086 
   11500    270.01041    15.787383    140875.38   -49083.269    3707.9427   -52791.211    0.3788654 
   11600     274.8399    21.067137    140912.86   -49079.827    3774.2642   -52854.091   0.36480599 
   11700    274.54455   -10.386578    140945.34   -48957.278    3770.2083   -52727.486   0.35604404 
   11800    272.97037    -8.272565    140944.85    -49027.88    3748.5907   -52776.471   0.35841461 
   11900    273.65244   -22.980804     140912.1   -49078.672    3757.9572   -52836.629   0.36856153 
   12000    273.58022    0.5514905    140900.91   -49039.311    3756.9656   -52796.277    0.3605527 
   12100    272.62426    2.1889449    140891.87    -49088.02    3743.8378   -52831.858   0.34700567 
   12200    270.44052    13.590124    140873.48   -49091.426    3713.8493   -52805.276   0.37933405 
   12300    271.66123    22.439142    140854.33   -49149.851    3730.6128   -52880.464    0.3795953 
   12400     268.6252   -8.5573182    140846.64   -49139.868    3688.9203   -52828.789   0.34497991 
   12500    275.79572    22.454873    140875.01   -49073.338    3787.3901   -52860.728   0.36901216 
   12600    273.18758    12.708647    140884.28   -49037.462    3751.5736   -52789.036   0.38627408 
   12700    276.11289    8.5753964    140864.91   -49110.305    3791.7456    -52902.05   0.34884348 
   12800    275.81223    6.2917143    140859.85   -49097.006    3787.6168   -52884.623   0.35857691 
   12900    272.53564   -27.531719    140843.49   -49154.824    3742.6207   -52897.444   0.39714276 
   13000    273.92131   -4.4439032    140855.65   -49129.541    3761.6496   -52891.191   0.36084189 
   13100    267.95237   -3.6213433    140861.66    -49198.95    3679.6805   -52878.631    0.3456491 
   13200     270.1253  -0.23642115    140840.84   -49225.455    3709.5205   -52934.975   0.38403931 
   13300     267.5409   -19.348291    140834.86   -49307.405    3674.0299   -52981.435   0.35824158 
   13400    266.71198   -23.260244     140789.5   -49290.407    3662.6468   -52953.054   0.34750576 
   13500    264.27788   -16.991956    140813.03   -49203.501    3629.2203   -52832.722   0.38474351 
   13600    272.52082    24.568282    140841.73   -49155.738    3742.4172   -52898.155    0.3736533 
   13700    270.37259    28.406584    140855.17   -49184.303    3712.9165   -52897.219   0.33797183 
   13800    274.26941    6.5616707    140859.42   -49137.863    3766.4299   -52904.293   0.36841637 
   13900    272.60835    59.591051    140843.11   -49123.745    3743.6192   -52867.364   0.37223927 
   14000    274.58822    7.1918404    140877.87   -49018.398    3770.8079   -52789.206   0.36163873 
   14100    273.21425   0.61212855    140881.44   -49105.271    3751.9398    -52857.21   0.35309446 
   14200    272.49662     4.574128    140887.85   -49106.713    3742.0849   -52848.798   0.37813248 
   14300    271.38045   -4.4580291    140883.58   -49138.336     3726.757   -52865.093   0.36357277 
   14400    265.87481   -34.739695    140865.83   -49186.793    3651.1503   -52837.943   0.35407754 
   14500    267.99304   -20.540618    140844.47    -49207.74     3680.239   -52887.979   0.37933811 
   14600    272.95706    -21.08785    140857.74   -49167.565    3748.4079   -52915.973   0.37324376 
   14700    273.81546   -6.8381859    140855.32   -49124.963     3760.196   -52885.159   0.35690261 
   14800    274.18522   -20.319127    140868.29   -49098.944    3765.2737   -52864.217   0.36111516 
   14900    267.92123   -16.320426    140882.56    -49111.22    3679.2529   -52790.473   0.38607659 
   15000    273.35916    45.190019    140854.55   -49168.374    3753.9298   -52922.304   0.36565443 
   15100    272.65516   -2.5717965    140855.78   -49187.229     3744.262   -52931.491    0.3528297 
   15200    274.00663    13.963283    140863.37    -49116.79    3762.8212   -52879.611    0.3853625 
   15300    269.57424    1.5692732    140854.09    -49200.65    3701.9531   -52902.603   0.37104047 
   15400    270.74566    22.194553     140836.7   -49195.939    3718.0397   -52913.978   0.34185852 
   15500    268.98085   -7.3719764    140862.43   -49136.887    3693.8043   -52830.691   0.38272594 
   15600    275.67988   -12.857337    140893.45   -49020.417    3785.7993   -52806.217   0.37838655 
   15700     274.5635   -43.354217    140919.34   -49034.261    3770.4684   -52804.729   0.34963429 
   15800    277.09079   -8.8852642    140936.11   -49035.491    3805.1748   -52840.666   0.35934444 
   15900    265.58351   -14.419023    140912.47   -49056.432      3647.15   -52703.582   0.39299634 
   16000    270.45847   -3.8709355    140906.65   -49104.489    3714.0958   -52818.585   0.35310214 
   16100    271.62644   -18.038239     140846.6   -49134.532     3730.135   -52864.667   0.35679522 
   16200    271.20592   -24.513503    140894.25   -49150.293    3724.3602   -52874.654   0.39066592 
   16300    271.36543   -18.569005    140838.91   -49160.871    3726.5507   -52887.422    0.3672773 
   16400    274.68417   -10.840853    140849.03   -49171.279    3772.1256   -52943.404   0.34732982 
   16500    274.59346    2.3856579    140867.05   -49087.997      3770.88   -52858.877   0.38821987 
   16600    274.13943    24.254938    140898.39   -49014.675     3764.645    -52779.32   0.37674414 
   16700    273.20256    16.367245    140876.74   -49050.238    3751.7793   -52802.017    0.3516762 
   16800    268.75169   -49.025228     140851.1   -49109.987    3690.6573   -52800.644   0.38249426 
   16900    277.94804    58.514527    140832.77   -49129.725    3816.9471   -52946.672   0.37839885 
   17000     273.7256    16.047038    140817.16   -49178.157    3758.9619   -52937.119   0.35274391 
   17100    273.36313   -17.094982    140849.53   -49126.988    3753.9843   -52880.972   0.36719489 
   17200    273.20666   -13.134672    140825.72   -49189.064    3751.8356   -52940.899   0.39471558 
   17300    270.94801    -64.73629    140823.36   -49282.531    3720.8184   -53003.349   0.35603239 
   17400    266.73481   -30.399783    140786.05   -49269.156    3662.9603   -52932.117   0.35933693 
   17500    274.60036    52.933268    140794.59   -49170.581    3770.9747   -52941.556   0.37296366 
   17600    269.96876   -8.2831095    140797.66   -49183.024    3707.3708   -52890.395   0.37033279 
   17700    264.10296   -15.028198     140778.5   -49232.437    3626.8181   -52859.256   0.36676245 
   17800    272.92822    7.5761025    140770.34   -49189.704    3748.0119   -52937.716   0.36798861 
   17900    271.46019    12.498463    140807.43   -49134.967     3727.852   -52862.819   0.38662454 
   18000    273.47877    32.280572    140857.29   -49052.881    3755.5724   -52808.453   0.36209314 
   18100    273.91263   -2.5303117    140881.75   -49063.466    3761.5304   -52824.997   0.35159775 
   18200    272.62365   -7.7670152    140841.56   -49101.364    3743.8293   -52845.193   0.38584946 
   18300    274.58396   -1.0245817    140854.95    -49108.34    3770.7494    -52879.09   0.36626332 
   18400    273.17595    37.656318    140849.08   -49196.981    3751.4138   -52948.395   0.34330321 
   18500    267.10865   -6.8737415    140842.01   -49140.324    3668.0941   -52808.418    0.3779573 
   18600    271.70886    20.641913    140870.07   -49098.103    3731.2669    -52829.37   0.37682645 
   18700    271.93159    32.507512    140894.94   -49118.354    3734.3256   -52852.679   0.35148028 
   18800    272.91132    29.856891    140874.81   -49134.791    3747.7798   -52882.571   0.36193114 
   18900    270.52709    16.736535    140899.03    -49099.42    3715.0382   -52814.458    0.3868862 
   19000    269.52936   -16.309681    140919.46   -49134.054    3701.3367   -52835.391   0.35197968 
   19100    274.40672    11.505268    140909.87   -49043.345    3768.3154   -52811.661   0.35680585 
   19200    275.82661    20.770839    140899.68   -49069.368    3787.8142   -52857.182   0.38122394 
   19300    278.91165    26.792419    140941.64   -48965.612    3830.1799   -52795.792    0.3551051 
   19400    278.43323   -24.628052     140963.9   -49033.297    3823.6099   -52856.907   0.34787262 
   19500    275.47977    38.565233     140956.7   -49032.346    3783.0512   -52815.397   0.37146674 
   19600    277.11011   -2.4844493    140942.07    -49027.58      3805.44    -52833.02   0.36300189 
   19700    274.97646  -0.25636459    140931.59   -49072.532    3776.1395   -52848.672   0.36183689 
   19800    277.41694   -2.2038472    140948.79   -49024.672    3809.6537   -52834.325   0.36309923 
   19900    270.40169   0.58604934    140949.38   -49105.426     3713.316   -52818.742   0.36854134 
   20000    274.93333    24.978621    140922.96   -49128.997    3775.5472   -52904.544   0.35629085 
   20100    271.30719   -17.018394    140888.78   -49170.097     3725.751   -52895.848   0.35088854 
   20200    270.76148    51.047721    140888.16   -49147.842    3718.2568   -52866.099   0.37394834 
   20300     270.2981    3.5664727       140914    -49110.81    3711.8936   -52822.703   0.35540265 
   20400    273.15206   -21.325914    140930.61   -49172.522    3751.0858   -52923.608   0.34894799 
   20500    266.83141    0.6809114    140858.12   -49204.821    3664.2868   -52869.108   0.37763744 
   20600    272.40596   -2.2665864    140869.06   -49228.557    3740.8398   -52969.396   0.36421648 
   20700    269.53234     23.04434    140870.81    -49173.77    3701.3777   -52875.148   0.35252318 
   20800    282.46076    36.323652    140909.27   -49038.821    3878.9184   -52917.739   0.35672777 
   20900    274.31265    8.2398591     140901.4    -49141.79    3767.0236   -52908.813    0.3771187 
   21000    270.92778    -7.302388     140898.1   -49154.852    3720.5407   -52875.393   0.34899737 
   21100    275.48784    9.7528399    140916.29   -49043.945    3783.1621   -52827.107   0.34824279 
   21200    272.20761    22.604788    140909.18   -49058.718    3738.1161   -52796.834   0.39241102 
   21300    272.50248    24.000225    140928.49   -49051.086    3742.1653   -52793.252   0.34577529 
   21400    274.12084  -0.34231414    140895.24   -49088.206    3764.3897   -52852.596   0.34705523 
   21500    274.04385    20.137575    140902.92   -48999.089    3763.3324   -52762.422   0.39452243 
   21600    277.67903    4.0857168    140918.04   -49007.218    3813.2528   -52820.471   0.35706585 
   21700    276.06878    8.5544479    140892.68    -49133.18    3791.1399    -52924.32   0.35660795 
   21800    274.32578    22.536301    140881.62   -49160.855     3767.204   -52928.059   0.37340235 
   21900    273.31535   -28.396569    140855.51   -49135.073    3753.3282   -52888.401   0.37796592 
   22000    273.80921    19.601685    140848.11   -49165.546    3760.1101   -52925.656   0.34843806 
   22100    270.06199    1.0570423    140865.46   -49206.786    3708.6511   -52915.437   0.36253439 
   22200    269.79012    8.8992927    140848.89   -49287.761    3704.9177   -52992.678   0.36712793 
   22300    275.36827    10.634395       140864   -49178.278      3781.52   -52959.798   0.35219994 
   22400    274.04154    41.632497     140920.6   -49132.177    3763.3006   -52895.478   0.36101269 
   22500    273.25604   -35.115686    140904.69   -49085.463    3752.5137   -52837.977   0.37333837 
   22600    271.03023   -29.642202    140902.94   -49127.791    3721.9475   -52849.739    0.3658121 
   22700    271.48992   -16.847828    140869.03   -49180.347    3728.2603   -52908.607   0.36397936 
   22800    273.25693    13.022826    140898.65   -49109.536    3752.5259   -52862.062   0.36129511 
   22900    272.23152    17.724747    140872.84   -49142.745    3738.4444    -52881.19   0.36829986 
   23000    268.43426   0.60854804    140840.96   -49210.728    3686.2981   -52897.026   0.36161278 
   23100     270.8356    10.803267    140837.06   -49148.518    3719.2748   -52867.793   0.35021943 
   23200     274.7331    24.681873    140844.13    -49098.07    3772.7976   -52870.868   0.38061232 
   23300    273.99123    10.635215    140857.01   -49094.359    3762.6098   -52856.969   0.36966582 
   23400     270.0901   -9.5807915    140872.71   -49146.007    3709.0372   -52855.044   0.34190403 
   23500    273.39973    14.258235    140895.05   -49033.269    3754.4869   -52787.756    0.3769888 
   23600    273.49022   -27.836821    140916.65    -49060.27    3755.7296       -52816   0.37369804 
   23700    272.51611    16.130426    140906.47    -49047.01    3742.3525   -52789.362   0.34557229 
   23800    275.72622    18.642498    140897.17   -49052.294    3786.4356    -52838.73    0.3661774 
   23900    273.60911   -10.412789    140879.63   -49137.624    3757.3623   -52894.987   0.37452039 
   24000    272.35308    9.4400803       140885   -49086.603    3740.1137   -52826.716   0.34940832 
   24100    277.57198    11.002729    140935.21    -49026.13    3811.7827   -52837.912   0.34835047 
   24200    271.09626    3.1760114    140921.01   -49143.564    3722.8544   -52866.419   0.38345308 
   24300    269.22079   -22.850116    140860.95   -49175.176    3697.0992   -52872.275   0.34399753 
   24400    273.17897   -13.115797    140865.32   -49203.582    3751.4553   -52955.038    0.3465106 
   24500    271.48973    8.6606478    140865.81   -49163.891    3728.2576   -52892.149   0.38697441 
   24600    272.03344    7.5052737    140875.46   -49210.575    3735.7243   -52946.299   0.34853339 
   24700    267.65666   -19.741161     140864.9   -49212.694    3675.6197   -52888.313   0.35672818 
   24800    272.97429    15.564654     140866.7   -49156.102    3748.6446   -52904.746   0.37119955 
   24900    269.83154   -34.314081    140850.07   -49209.585    3705.4865   -52915.072   0.37209923 
   25000    270.78573    6.3305328    140839.69   -49199.967    3718.5899   -52918.557   0.35800917 
   25100    267.25225   -43.834568    140815.49   -49241.284    3670.0661    -52911.35   0.36951739 
   25200    264.14354   -47.406924    140788.04   -49371.906    3627.3755   -52999.282   0.37363211 
   25300    274.22803    32.376506    140793.64   -49214.006    3765.8617   -52979.867   0.35667247 
   25400    265.51949    11.305465    140815.94   -49250.712    3646.2708   -52896.983   0.35915025 
   25500    270.25171    36.077882    140821.28   -49141.902    3711.2564   -52853.158   0.37234265 
   25600    273.42342    3.8261101    140864.25   -49073.741    3754.8122   -52828.554   0.36400436 
   25700    267.69336   -40.970707    140850.56   -49152.569    3676.1236   -52828.693   0.36508641 
   25800    271.87932   -3.9657099    140868.91   -49020.803    3733.6078   -52754.411    0.3668299 
   25900    271.29964    12.913662    140865.28   -49041.399    3725.6472   -52767.046   0.37934475 
   26000    269.85201   -7.2726286    140858.56   -49080.823    3705.7676   -52786.591   0.36330253 
   26100    272.89238   -3.9463592    140891.92   -49065.542    3747.5197   -52813.062   0.36411041 
   26200    272.78759   -15.180691    140853.78   -49163.625    3746.0806   -52909.705   0.38801578 
   26300    267.89466    1.4670226    140831.19   -49128.464    3678.8881   -52807.352   0.35881512 
   26400    267.99327    20.863047    140816.83   -49181.438    3680.2421    -52861.68   0.35676164 
   26500    278.31494     17.90034    140857.74   -49101.791    3821.9855   -52923.776   0.37415322 
   26600    274.87308    10.151068    140881.68   -49042.682    3774.7198   -52817.402   0.37291297 
   26700    270.72321    11.744787    140900.86   -49050.522    3717.7314   -52768.253   0.35146643 
   26800    271.10019   -23.150921    140877.59   -49095.103    3722.9083   -52818.011   0.37733292 
   26900    276.35183   -34.536946    140873.78   -49047.745    3795.0269   -52842.772   0.38376257 
   27000    276.51305   -7.2761975    140865.38   -49075.523    3797.2409   -52872.764   0.35120366 
   27100    275.80348   -18.410103    140838.33    -49021.53    3787.4966   -52809.026   0.37524701 
   27200     274.5209    22.009989    140840.36   -49085.521    3769.8835   -52855.404   0.38123494 
   27300    278.69165    50.008629    140901.26   -48928.275    3827.1587   -52755.433   0.35653881 
   27400    276.13483   -20.261044    140897.37   -49044.696    3792.0469   -52836.743   0.36541497 
   27500     273.1442     18.68452    140892.83   -49155.336    3750.9779   -52906.314   0.37250829 
   27600    270.14807    3.9430013     140850.3   -49203.316    3709.8332    -52913.15   0.35859531 
   27700     273.6748  -0.91556995    140838.25   -49095.203    3758.2644   -52853.468   0.35883787 
   27800    273.89278   -17.134738    140884.61   -49083.336    3761.2578   -52844.593   0.37967324 
   27900    273.54996    12.033294    140864.17   -49137.419    3756.5499   -52893.969   0.37163383 
   28000    272.59297   -3.5676098    140860.76   -49208.582     3743.408    -52951.99   0.35078682 
   28100    269.20939    1.3785157    140821.31   -49177.706    3696.9427   -52874.649   0.36779263 
   28200    271.81642     7.413518    140834.13   -49144.322     3732.744   -52877.066   0.37298057 
   28300    267.99154    37.744584    140841.16    -49171.75    3680.2185   -52851.968   0.35581197 
   28400     270.5679     14.60738     140871.3   -49105.768    3715.5985   -52821.367   0.36017582 
   28500    270.20984    -11.06739    140858.08   -49135.091    3710.6814   -52845.773   0.38047905 
   28600    270.76438    33.888168    140848.88   -49139.683    3718.2968    -52857.98   0.36312777 
   28700    272.22648    8.0771123    140859.05   -49141.336    3738.3751   -52879.711   0.36127591 
   28800    272.88988     13.16684    140854.59   -49189.334    3747.4854    -52936.82    0.3679042 
   28900    269.99808   -12.650628    140847.99   -49159.091    3707.7734   -52866.864   0.36942504 
   29000     271.3423   -47.330076    140874.07   -49108.598    3726.2331   -52834.831   0.36282468 
   29100    276.12168    1.3736341    140882.18   -49099.377    3791.8663   -52891.243   0.37046444 
   29200    278.44256   -8.0069124    140904.69   -49037.797    3823.7381   -52861.535   0.37589315 
   29300    275.83059    30.380411     140930.3   -49038.665    3787.8689   -52826.534   0.34828635 
   29400    273.62652    19.718403    140940.08   -49056.467    3757.6013   -52814.069   0.36922415 
   29500    271.23585   -5.3040957    140919.53   -49099.584    3724.7712   -52824.356   0.37441357 
   29600    272.78007     6.507188    140885.23   -49067.754    3745.9774   -52813.731   0.36914345 
   29700    268.43509   -4.0588689    140864.51   -49146.297    3686.3096   -52832.606   0.35733157 
   29800    268.03525   -22.639961    140817.05   -49225.354    3680.8188   -52906.173   0.37216051 
   29900     269.6418   -20.789814    140818.09    -49209.36    3702.8807   -52912.241   0.37692457 
   30000    270.42242    14.174259    140826.78   -49176.048    3713.6007   -52889.649   0.35234239 
   30100    268.57716   -2.1811423    140840.88   -49144.864    3688.2605   -52833.125   0.37197526 
   30200    269.47814   -7.2677534    140855.86   -49155.415    3700.6333   -52856.049   0.38141136 
   30300    272.62245    3.2019165    140850.23   -49144.949    3743.8129   -52888.762   0.35833646 
   30400    272.80707   -17.049287    140870.26   -49181.446    3746.3482   -52927.794   0.36055926 
   30500    270.76709    26.443534    140832.26   -49273.146     3718.334    -52991.48   0.37112035 
   30600     275.1288    3.1269802       140821   -49153.231    3778.2315   -52931.462   0.35906782 
   30700    269.85417   -33.197239    140815.33   -49184.391    3705.7972   -52890.189   0.35853799 
   30800    269.91885   -24.287023    140850.43   -49124.927    3706.6854   -52831.613   0.37890567 
   30900    274.54268    10.578182    140901.13   -49101.178    3770.1826   -52871.361   0.36665731 
   31000    275.88179   -30.659867    140907.06   -49134.547     3788.572   -52923.119   0.34920498 
   31100    271.90576    22.997539    140906.01   -49151.438    3733.9709   -52885.409   0.36008162 
   31200    270.30947    6.9922821    140908.67   -49098.066    3712.0496   -52810.115   0.37322881 
   31300    278.24614   -7.8219312     140917.4   -49034.469    3821.0407   -52855.509   0.35178547 
   31400     270.0452   -22.112741    140893.28   -49141.474    3708.4206   -52849.895   0.36006372 
   31500    277.23074   0.87980458    140891.57    -49095.82    3807.0966   -52902.916   0.37325679 
   31600    279.44153    19.818347    140925.35   -49120.419    3837.4564   -52957.875   0.35579975 
   31700    274.17617   -5.2681056    140924.18   -49090.089    3765.1494   -52855.238   0.35413605 
   31800    272.17056   0.36082006    140921.54   -49153.116    3737.6072   -52890.724   0.36774989 
   31900    270.55052   -5.2932183    140923.49   -49143.984    3715.3599   -52859.343   0.36959024 
   32000    270.25446    43.511181    140911.85   -49097.449    3711.2942   -52808.743   0.35560534 
   32100    273.36783    6.0236449    140909.84   -49136.217    3754.0488   -52890.266   0.35927543 
   32200    269.27812    -10.04772    140890.09   -49249.391    3697.8865   -52947.278    0.3692895 
   32300    268.46067   -9.0780058    140885.11   -49191.977    3686.6608   -52878.637   0.35379615 
   32400    264.72981   -23.748887    140865.06    -49282.14    3635.4265   -52917.567   0.35754849 
   32500    270.66764    1.1025416    140888.28   -49147.175    3716.9683   -52864.144   0.37530989 
   32600    278.65808    35.127288    140901.57   -49101.391    3826.6977   -52928.089   0.35290618 
   32700    267.12908   -1.1041551     140887.8   -49187.573    3668.3746   -52855.947   0.35079112 
   32800    273.34473    1.8190472    140905.66   -49064.173    3753.7317   -52817.905   0.37400047 
   32900     273.7326    4.1752116    140903.38   -49131.142    3759.0581     -52890.2   0.36473947 
   33000    277.20865   -6.5666711    140878.98   -49116.527    3806.7933   -52923.321   0.35227696 
   33100    273.25654   -9.7708201    140860.86   -49143.038    3752.5206   -52895.559   0.37332697 
   33200    274.71335    14.732276    140857.92   -49127.833    3772.5263   -52900.359    0.3722599 
   33300     273.0907    12.293132    140887.97   -49135.236    3750.2431   -52885.479   0.35208714 
   33400    274.03461   -12.555964    140860.49   -49152.254    3763.2055   -52915.459   0.36304645 
   33500    270.82712   -19.112854     140830.5   -49171.477    3719.1583   -52890.635   0.37295212 
   33600    272.55338    9.0070327    140817.63   -49182.007    3742.8643   -52924.871   0.36510138 
   33700    274.08954    28.804048    140837.54   -49084.091    3763.9598   -52848.051    0.3626382 
   33800    276.92198    20.113583    140911.54   -48979.379    3802.8565   -52782.235   0.37201531 
   33900    276.41664    8.8014555    140898.72   -49000.593    3795.9169   -52796.509   0.37997946 
   34000     273.5632   -5.3023056    140871.37   -49141.131    3756.7317   -52897.863   0.35336243 
   34100    272.18287   -6.8412813    140851.15   -49158.232    3737.7763   -52896.008   0.36236136 
   34200    271.88073   -31.048979    140844.53   -49161.026    3733.6271   -52894.653    0.3828211 
   34300    269.79237     34.58426    140827.15   -49183.495    3704.9485   -52888.443   0.35696474 
   34400    271.15778    3.4808266    140870.23   -49121.188    3723.6991   -52844.888   0.36072551 
   34500    271.79127    -4.229881     140904.9    -49050.01    3732.3986   -52782.409   0.37849731 
   34600     270.0528   -28.201271    140937.79    -49048.14    3708.5249   -52756.665    0.3653793 
   34700    271.66858   -17.521665    140875.48   -49156.056    3730.7138    -52886.77    0.3539317 
   34800    273.18054    20.830713    140875.83   -49150.844    3751.4768   -52902.321   0.37820991 
   34900    275.06986   -13.728069    140912.84    -49140.96    3777.4221   -52918.382   0.36594301 
   35000      274.213    18.652765    140879.03   -49111.298    3765.6552   -52876.953   0.35196131 
   35100    272.13604    11.463193    140884.93   -49130.809    3737.1332   -52867.942   0.36935525 
   35200     272.5392    22.146225    140903.67   -49071.272    3742.6697   -52813.941   0.37471172 
   35300    271.49068   -18.709902    140894.89   -49154.756    3728.2707   -52883.027   0.35402235 
   35400    270.92707    18.894638    140874.06   -49153.994    3720.5309   -52874.525   0.36532685 
   35500    270.90694    28.678905     140866.5   -49137.661    3720.2544   -52857.916   0.37476918 
   35600     270.8815   0.87117461    140877.02   -49114.798    3719.9051   -52834.703   0.36198235 
   35700    269.91893    -1.541971    140850.52   -49119.548    3706.6864   -52826.235   0.37301729 
   35800    273.95562   0.56134987    140933.25   -48969.689    3762.1207   -52731.809   0.37039653 
   35900    271.78585   -48.227277    140919.93   -49074.187    3732.3242   -52806.511   0.36573554 
   36000     275.1132    1.1048993    140914.68   -49126.482    3778.0173   -52904.499   0.36105915 
   36100    267.47548   -1.9685435     140889.9   -49168.943    3673.1316   -52842.075   0.36088442 
   36200    268.03503    21.280413    140909.04   -49206.284    3680.8156     -52887.1   0.36233246 
   36300    272.98139     26.72152    140923.93   -49143.362     3748.742   -52892.104   0.36179988 
   36400    267.15993   -15.066372    140909.59   -49197.521    3668.7983   -52866.319   0.35791461 
   36500    270.57059   -35.158172    140875.61   -49174.609    3715.6355   -52890.245   0.37660249 
   36600    274.15939   -16.560896    140872.73   -49173.779     3764.919   -52938.697   0.36957471 
   36700    269.94352   -1.3813429    140864.72   -49204.887    3707.0242   -52911.911   0.35797468 
   36800     268.4767    7.9064909    140838.93     -49273.7     3686.881   -52960.581   0.36826639 
   36900    268.16077   -39.735183    140846.23   -49196.595    3682.5424   -52879.138   0.37782356 
   37000    271.93866   -26.969622    140852.72   -49187.552    3734.4226   -52921.974   0.35971387 
   37100    268.32999    17.472072    140839.56   -49226.055    3684.8663   -52910.921   0.36404236 
   37200    274.03655    3.9521052    140819.54   -49225.715    3763.2321   -52988.947   0.38076997 
   37300     274.3177   -23.442159    140820.58   -49221.557    3767.0931    -52988.65   0.36607909 
   37400    267.70787    0.7498474    140846.99   -49232.674     3676.323   -52908.997   0.35817245 
   37500    277.22471    36.565954    140851.99   -49210.536    3807.0139    -53017.55   0.37668664 
   37600     267.2077    7.4228506    140797.25   -49249.977    3669.4544   -52919.432   0.36647247 
   37700    262.25908   -15.612375    140764.43   -49325.025     3601.497   -52926.522   0.36368555 
   37800    262.94089    -3.951311    140736.31    -49345.25    3610.8599    -52956.11   0.39079889 
   37900    273.70153    25.594583    140773.85   -49252.377    3758.6314   -53011.009   0.36561204 
   38000    271.05129    35.986598    140785.86    -49188.01    3722.2368   -52910.247   0.36050831 
   38100     271.5204    6.5679112    140820.77   -49128.349    3728.6789   -52857.028   0.37902459 
   38200    275.89654   -2.0194658    140847.41   -49096.326    3788.7746   -52885.101   0.37269239 
   38300    271.16487   0.43802847    140849.67    -49146.67    3723.7964   -52870.467   0.35444612 
   38400    273.05045    21.427644    140868.02   -49083.331    3749.6904   -52833.022   0.37527652 
   38500    271.58687   -8.3477666    140839.36   -49134.823    3729.5917   -52864.414   0.37911467 
   38600     273.4221   -26.110085    140852.64   -49102.116    3754.7941    -52856.91   0.36261116 
   38700    274.03331    -21.67584    140890.23   -49074.236    3763.1875   -52837.424    0.3687829 
   38800    276.93554    32.664003    140878.96   -49108.498    3803.0428   -52911.541   0.36487974 
   38900    272.40969    39.959747     140888.8   -49055.553    3740.8911   -52796.444   0.36607982 
   39000    273.84806    -9.573493     140892.1   -49112.596    3760.6437   -52873.239   0.36852468 
   39100    273.83935   0.78190932     140880.9   -49132.935    3760.5241   -52893.459    0.3645347 
   39200     270.6605    4.8867076    140852.01   -49252.732    3716.8702   -52969.603   0.36217866 
   39300    266.04604  -0.57791085    140789.87   -49261.818    3653.5017    -52915.32   0.37609938 
   39400    271.43771  -0.15248153    140865.87   -49146.315    3727.5433   -52873.859   0.35975874 
   39500     271.1849    15.007902    140869.24   -49123.752    3724.0715   -52847.824    0.3751413 
   39600    272.07107    12.920979    140872.39   -49119.499     3736.241    -52855.74   0.37578193 
   39700    274.95497   -2.4671382    140920.81   -49109.839    3775.8444   -52885.684   0.35381219 
   39800    270.24416    -9.349123    140895.63   -49129.516    3711.1528   -52840.669   0.37157699 
   39900    275.31357   -9.9883801     140911.8   -49095.979    3780.7689   -52876.748   0.37590096 
   40000    271.15509    4.0102129    140875.82   -49158.145    3723.6622   -52881.807   0.34818997 
   40100    270.85408   -18.617933     140865.5   -49174.787    3719.5285   -52894.315   0.36617031 
   40200    272.81245   -23.470259    140884.02   -49154.577     3746.422   -52900.999   0.38656791 
   40300    270.80611    42.772069    140887.55   -49161.488    3718.8698   -52880.358   0.34961542 
   40400    269.97538     22.86567    140870.72   -49243.583    3707.4617   -52951.045   0.35557098 
   40500    273.67254    23.802946    140846.69   -49105.979    3758.2333   -52864.212   0.39112487 
   40600    268.38023   -25.893042    140874.06   -49176.671    3685.5561   -52862.227   0.35824987 
   40700    269.96157    7.3417096    140873.12   -49186.388    3707.2721    -52893.66   0.35329805 
   40800    275.07335   -1.5502501     140881.7   -49165.121    3777.4701   -52942.591   0.38651094 
   40900    268.96871    11.999374    140873.42   -49149.465    3693.6376   -52843.103   0.35857035 
   41000    269.58931   -7.2747749    140863.41   -49212.923    3702.1599   -52915.083    0.3553955 
   41100    269.21327    13.382545    140831.54   -49177.233     3696.996   -52874.229   0.37935212 
   41200    275.75182    19.239446    140877.25   -49076.529    3786.7872   -52863.316   0.36606837 
   41300    267.17445   -41.079177     140852.1   -49154.655    3668.9977   -52823.653   0.36449198 
   41400     272.6854   -3.0101068    140849.18    -49096.98    3744.6774   -52841.657    0.3770049 
   41500    271.45872    11.047884    140837.36   -49108.871    3727.8318   -52836.703   0.37539135 
   41600    271.49909    6.7551986    140877.82   -49120.289    3728.3863   -52848.675   0.36285429 
   41700    270.25409    15.830155    140848.05   -49224.301    3711.2892   -52935.591   0.36295216 
   41800    273.00798   -24.406975    140857.79   -49140.718    3749.1072   -52889.825   0.37056814 
   41900    270.15536    17.736624    140829.37   -49216.601    3709.9333   -52926.534   0.36733627 
   42000    274.34178    43.496624    140850.58   -49192.699    3767.4236   -52960.123   0.35771383 
   42100    269.47173    16.451112    140817.27   -49258.473    3700.5453   -52959.019   0.36521554 
   42200    271.92281   -11.392747    140839.88   -49223.861     3734.205   -52958.066   0.37292809 
   42300    264.77167   -12.388631    140824.37   -49181.343    3636.0013   -52817.344   0.37621015 
   42400    269.25525    -4.658864    140848.57   -49206.325    3697.5725   -52903.898   0.36470659 
   42500      266.259    1.6172023    140868.56   -49172.547    3656.4262   -52828.973   0.37873672 
   42600    265.91284   -37.825665    140861.64    -49207.62    3651.6726   -52859.293   0.36799428 
   42700    266.23193   -35.799055    140861.04   -49273.154    3656.0544   -52929.209   0.35622717 
   42800    270.32326    9.9490418    140853.25   -49191.069     3712.239   -52903.308   0.37645284 
   42900    270.81599   -1.0055548    140869.71   -49204.577    3719.0055   -52923.583   0.36434828 
   43000    267.68463    12.938188     140890.5   -49219.148    3676.0038   -52895.151   0.35479225 
   43100    272.80306    38.415159    140872.59   -49147.862    3746.2932   -52894.155   0.37032593 
   43200    274.84456   -9.7515941    140881.78   -49163.505    3774.3282   -52937.834    0.3689716 
   43300    273.68326    9.7594665    140848.11   -49157.829    3758.3805   -52916.209   0.35834229 
   43400    270.75955   -11.929613    140887.67   -49096.026    3718.2305   -52814.257   0.36120276 
   43500    269.50245    1.7909874    140878.55   -49145.481    3700.9672   -52846.449   0.37936579 
   43600    270.34573    17.227697    140877.05   -49190.703    3712.5476   -52903.251   0.36189244 
   43700    273.05522    10.900847    140854.17    -49228.45     3749.756   -52978.206   0.35390602 
   43800    269.52253   -9.2156354    140844.65   -49265.574    3701.2429   -52966.817   0.37348612 
   43900    268.71221   0.05821696    140834.62   -49178.925    3690.1152   -52869.041   0.36844068 
   44000    268.20185    18.847401    140819.64   -49261.116    3683.1066   -52944.222   0.35233407 
   44100     269.5112   -10.175438    140806.61   -49219.776    3701.0873   -52920.863   0.37358798 
   44200    273.02929    35.996033    140805.33   -49183.064    3749.3999   -52932.464   0.37770665 
   44300    269.23918    6.3941942    140816.91   -49189.067    3697.3518   -52886.419   0.35895848 
   44400    275.76089   -5.0311334    140819.06     -49197.8    3786.9118   -52984.711   0.36536595 
   44500    273.75105   -23.861366    140803.01   -49200.348    3759.3115   -52959.659   0.38172983 
   44600    269.52484    6.4658252     140794.4   -49201.643    3701.2746   -52902.918   0.36579043 
   44700    269.38627    14.361801    140815.75   -49194.533    3699.3717   -52893.905   0.36476957 
   44800    273.68032    35.047915    140828.47   -49148.052    3758.3402   -52906.392     0.378488 
   44900    270.77469    7.2582919    140859.23   -49132.457    3718.4384   -52850.895   0.36481082 
   45000    272.17735    17.428183    140869.05   -49178.698    3737.7004   -52916.399   0.34996591 
   45100    272.02515   -9.6804866    140868.31   -49072.319    3735.6104   -52807.929   0.37664133 
   45200      273.289   -36.139052    140862.25   -49107.905    3752.9663   -52860.871   0.37067407 
   45300    272.20487   -7.9650891    140864.39   -49131.653    3738.0784   -52869.732    0.3577084 
   45400    269.90204   -15.135776    140849.47   -49187.455    3706.4546   -52893.909   0.36672211 
   45500    275.16836    21.649393    140864.79   -49130.177    3778.7748   -52908.952   0.37517735 
   45600    274.78944   -22.814887     140861.5   -49124.349    3773.5713    -52897.92   0.35938983 
   45700    275.55539   -9.8325355    140855.78   -49083.051    3784.0897   -52867.141   0.36545818 
   45800    270.35341   -20.120393     140851.5   -49149.373    3712.6531   -52862.026   0.37755349 
   45900    272.28288    34.347085    140891.52   -49023.921    3739.1497   -52763.071   0.36543404 
   46000    275.08495    10.423754    140912.26   -49086.411    3777.6293    -52864.04   0.35572115 
   46100    277.54223    25.216729    140932.08   -48997.835    3811.3742   -52809.209   0.36586473 
   46200    277.27537 -0.082714125     140917.8   -49049.986    3807.7095   -52857.696   0.36405955 
   46300    273.33359   -23.971751    140916.96   -49039.566    3753.5786   -52793.145   0.35852463 
   46400    274.26682   -24.211971    140875.43   -49083.432    3766.3943   -52849.827   0.36360468 
   46500    275.64869   -7.2020975    140858.04   -49044.367    3785.3709   -52829.738   0.37285692 
   46600     276.0644    23.839706    140847.31   -49102.711    3791.0798    -52893.79   0.36481961 
   46700    274.60371    30.577219    140842.82   -49039.857    3771.0206   -52810.878   0.36705149 
   46800    272.64357     16.03943    140879.75   -49049.038    3744.1029   -52793.141   0.37142942 
   46900    266.02979   -13.864819    140865.68   -49106.449    3653.2785   -52759.728   0.37052275 
   47000    272.27574   -47.053311    140833.28   -49138.055    3739.0517   -52877.107   0.36497367 
   47100    268.26629   -39.416452    140831.92   -49142.883    3683.9914   -52826.874   0.37376403 
   47200    272.21278    46.032847    140843.37   -49115.829     3738.187   -52854.016   0.37150289 
   47300    267.72312   -32.338915    140826.06   -49230.753    3676.5323   -52907.286   0.36534333 
   47400    266.68168    12.504389    140810.51   -49164.591    3662.2307   -52826.822    0.3660905 
   47500    273.97868    24.393493    140814.12    -49172.07    3762.4374   -52934.508   0.37897866 
   47600    274.03361    14.085946    140845.12   -49171.894    3763.1917   -52935.086   0.35914805 
   47700    274.06632    30.888906    140886.31   -49098.823    3763.6409   -52862.464   0.34655357 
   47800    270.89316    13.270119    140863.57   -49158.467    3720.0652   -52878.533   0.37810986 
   47900    267.50715  -0.24153679     140851.1   -49209.079    3673.5665   -52882.645   0.36263558 
   48000     270.7516    20.436326    140835.61    -49170.11    3718.1213   -52888.231   0.35204699 
   48100    270.25138    7.2639031    140817.07   -49207.075    3711.2519   -52918.326     0.370911 
   48200    271.52685   -17.569706    140834.97   -49198.596    3728.7675   -52927.364   0.36943219 
   48300    270.22484    19.723326    140849.37   -49152.536    3710.8875   -52863.423   0.35365246 
   48400     270.7547   -4.7582911    140859.03   -49191.566    3718.1637    -52909.73   0.37070409 
   48500    268.08808   -7.9865459    140846.61   -49273.651    3681.5442   -52955.195   0.37023024 
   48600    267.60799    2.5345939    140822.16   -49265.943    3674.9514   -52940.894    0.3474943 
   48700    270.83126    49.753671    140844.16   -49158.402    3719.2151   -52877.617   0.37177052 
   48800    270.69293    5.0422182    140867.89   -49151.397    3717.3155   -52868.713   0.36928027 
   48900    269.47489   -21.598909    140859.13   -49176.228    3700.5887   -52876.816   0.35828984 
   49000    273.03611   -20.994928    140838.39   -49202.697    3749.4935   -52952.191   0.36778472 
   49100    274.59342   0.50772193    140885.89   -49126.769    3770.8793   -52897.649   0.36508649 
   49200    272.20238   -6.2560365    140893.69   -49155.909    3738.0442   -52893.953   0.35993096 
   49300    264.79801   -44.671658     140880.7   -49221.384     3636.363   -52857.747   0.36605339 
   49400    270.57886    13.460438    140857.67   -49239.051     3715.749     -52954.8   0.36051216 
   49500     266.7156   -8.9657271    140890.37   -49185.945    3662.6965   -52848.642   0.35314849 
   49600    267.44672   0.52749232    140877.53     -49179.3    3672.7366   -52852.036   0.36743852 
   49700    274.60687     11.85466    140883.32   -49187.194    3771.0641   -52958.258   0.35368565 
   49800      265.903    14.090216    140870.17   -49188.919    3651.5374   -52840.457   0.35924588 
   49900    270.04203    2.6484025    140867.07   -49173.336     3708.377   -52881.713   0.37714226 
   50000    267.91617    -8.533993    140847.88   -49181.833    3679.1834   -52861.016   0.35507535 
   50100    273.52967    24.462113    140898.84   -49046.377    3756.2714   -52802.648   0.36737561 
   50200    275.64176   -6.0477282    140923.35   -49120.291    3785.2757   -52905.567   0.36957827 
   50300    272.42542    -18.90374    140909.77   -49132.761    3741.1071   -52873.868    0.3514637 
   50400    270.68969    21.553618    140885.39   -49150.007    3717.2711   -52867.278   0.35349926 
   50500    274.02688    22.600083    140890.74   -49063.318    3763.0993   -52826.417   0.38173993 
   50600    278.85537    4.3946199    140927.16   -48997.585     3829.407   -52826.992   0.36048336 
   50700    271.84927   -30.982859    140887.09   -49222.219    3733.1952   -52955.415   0.34720944 
   50800    272.24261    6.2567101    140821.13   -49197.641    3738.5966   -52936.238   0.38189381 
   50900    268.41474    -5.510623    140824.01   -49225.182      3686.03   -52911.212   0.36160753 
   51000    270.94064   -21.072003    140833.76   -49187.886    3720.7172   -52908.604   0.35325666 
   51100    271.13557   -4.5011723    140829.64   -49192.317    3723.3942   -52915.712    0.3755322 
   51200    270.95754   -13.757092    140806.35   -49247.051    3720.9494       -52968   0.36655113 
   51300    272.32752    45.045849    140802.51   -49259.202    3739.7627   -52998.964   0.34778249 
   51400    268.96755    42.262944    140833.19    -49196.95    3693.6215   -52890.572   0.37674081 
   51500    263.80834   -26.328156    140852.14   -49250.567    3622.7723   -52873.339   0.36676211 
   51600    269.30497    14.719279    140868.76   -49168.103    3698.2553   -52866.358   0.35941459 
   51700    273.97066    -18.51761    140900.57   -49074.328    3762.3273   -52836.655   0.37506235 
   51800    272.31692    2.8849944    140907.88   -49120.409    3739.6172   -52860.026   0.36067611 
   51900    271.50347    3.2042324    140893.53   -49182.922    3728.4463   -52911.368   0.35553637 
   52000     268.6762    12.226704    140859.81   -49164.264    3689.6206   -52853.885   0.36465291 
   52100    271.03124    17.980965    140866.83   -49249.247    3721.9614   -52971.209   0.35883823 
   52200    265.63759   -1.5220458    140832.35   -49296.871    3647.8926   -52944.764   0.36170698 
   52300    265.50306   -14.505332    140832.76   -49281.608    3646.0451   -52927.653   0.36739199 
   52400    264.33278   -14.262595    140796.23   -49356.554    3629.9742   -52986.528   0.35947841 
   52500    267.18315    22.654986    140832.91   -49216.161    3669.1172   -52885.278   0.36482497 
   52600    270.47436    8.1391781    140863.59   -49186.425     3714.314   -52900.739   0.36970394 
   52700    270.35465   -7.3270725    140874.05    -49126.52    3712.6701    -52839.19   0.36044713 
   52800    270.81563  -0.98230997    140881.81   -49096.035    3719.0005   -52815.035   0.36608013 
   52900    276.29397    41.077054    140872.52   -49117.538    3794.2323    -52911.77   0.37181398 
   53000     274.4311   -29.984513    140848.98    -49065.91    3768.6503    -52834.56   0.36273115 
   53100    271.77502   -15.524577    140825.33   -49195.593    3732.1754   -52927.768    0.3628251 
   53200    272.52504   -16.810444    140823.28   -49241.493    3742.4752   -52983.969   0.38125815 
   53300    272.15281   -12.719425    140827.36   -49205.178    3737.3634   -52942.542   0.35931283 
   53400    269.76966    31.121824    140854.66   -49141.302    3704.6366   -52845.939   0.36301323 
   53500    268.19424   -15.212994    140889.79   -49129.173    3683.0021   -52812.175   0.37430582 
   53600    265.59847   -39.135158    140857.95   -49202.528    3647.3554   -52849.883   0.36220405 
   53700    269.82051   -8.9247513    140880.75   -49182.102     3705.335   -52887.437   0.35807784 
   53800    269.47283   -11.834042    140845.71   -49201.056    3700.5604   -52901.617   0.36643682 
   53900    268.61794    2.1001782    140850.82   -49206.379    3688.8205   -52895.199   0.36558986 
   54000    266.76624   -9.1527773    140846.93   -49217.453     3663.392   -52880.845    0.3594201 
   54100    265.80462    6.6264107    140844.19   -49194.438    3650.1863   -52844.624   0.37069424 
   54200    271.61399    20.878334    140870.61   -49144.931     3729.964   -52874.895   0.36763598 
   54300    270.59918    2.4954087    140890.29   -49077.401    3716.0282   -52793.429   0.36151792 
   54400    280.65359    26.611238     140899.8   -49001.513    3854.1012   -52855.614    0.3662376 
   54500    274.72251    17.071575    140906.42   -49063.715    3772.6521   -52836.368   0.35773173 
   54600    277.66127   -4.8707061    140908.36   -49080.212     3813.009   -52893.221   0.36513897 
   54700    273.20451   -47.312224    140891.39   -49132.454    3751.8061    -52884.26   0.35784262 
   54800    274.50086    11.714331    140900.27   -49059.957    3769.6083   -52829.566   0.36787223 
   54900    278.30502      45.2997    140903.47   -49079.613    3821.8493   -52901.462   0.36261622 
   55000    276.09887   -6.1665649    140915.45    -49112.37    3791.5531   -52903.923   0.36062528 
   55100     273.1888   -25.926597    140871.05   -49128.728    3751.5904   -52880.319    0.3683201 
   55200    266.91245   -31.878486    140817.84    -49234.39    3665.3997    -52899.79   0.37576459 
   55300    268.01493   -10.170865    140765.36   -49275.341    3680.5397   -52955.881   0.36893043 
   55400    268.15036    21.450919    140756.62   -49238.961    3682.3994    -52921.36   0.35778782 
   55500    272.98226    28.935453    140779.48   -49205.089     3748.754   -52953.843   0.38081395 
   55600    273.91334     12.32466    140828.34   -49103.873    3761.5401   -52865.413   0.36697119 
   55700    273.83061  -0.74566105    140854.65   -49069.412    3760.4041   -52829.816   0.35883321 
   55800    272.58236    6.4806977    140915.52   -49060.346    3743.2623   -52803.608    0.3803543 
   55900    271.07799   -3.2372489     140884.5   -49071.083    3722.6034   -52793.687   0.37081358 
   56000    270.58957    -4.562086    140892.75   -49089.276    3715.8961   -52805.172   0.35768238 
   56100    274.80767    19.433574    140884.87   -49068.463    3773.8215   -52842.284   0.36920193 
   56200    273.50896   -10.701813    140873.08   -49101.141    3755.9869   -52857.128   0.37511789 
   56300    269.11823    10.584022    140832.09   -49164.184    3695.6908   -52859.875   0.35731991 
   56400    272.87427   -26.188554    140848.32   -49217.605     3747.271   -52964.876   0.36024192 
   56500    263.51939    -3.545332    140815.79   -49262.104    3618.8042   -52880.908   0.37372027 
   56600    263.30674    20.520834    140802.06    -49317.94     3615.884   -52933.824   0.35144673 
   56700    267.75468   -10.700802    140807.64   -49297.624    3676.9658    -52974.59   0.36192774 
   56800    269.96687    48.071297    140853.23   -49185.945    3707.3449    -52893.29   0.36574701 
   56900    261.22327   -14.918641    140842.13   -49277.552    3587.2726   -52864.824   0.36461437 
   57000    263.82336  0.066505945    140833.79   -49269.375    3622.9785   -52892.353   0.36261412 
   57100    268.61274    6.9986711    140839.56   -49185.751    3688.7491     -52874.5   0.35629069 
   57200    273.63394    -8.048251    140893.24    -49149.93    3757.7033   -52907.633   0.36656166 
   57300    267.89399     22.75792    140855.57   -49272.992    3678.8788   -52951.871   0.36254386 
   57400    273.49945    12.550395    140874.81   -49162.445    3755.8563   -52918.302   0.34797757 
   57500    275.01744    42.262394    140902.46   -49121.233    3776.7023   -52897.935   0.37065146 
   57600    271.17273   -12.920252    140841.44   -49224.628    3723.9044   -52948.533   0.36639966 
   57700    268.32534    11.967968    140850.07   -49143.153    3684.8024   -52827.956   0.35372288 
   57800    272.53797    20.377799    140861.48   -49090.948    3742.6527   -52833.601   0.37000699 
   57900    272.48957    6.7377182    140857.02   -49129.136    3741.9881   -52871.124    0.3780275 
   58000    272.46935     12.51272    140878.46   -49085.237    3741.7104   -52826.947   0.35749358 
   58100    269.95865   -9.6528696    140869.49   -49132.582     3707.232   -52839.814   0.36619426 
   58200    275.40064   -24.684659    140925.69   -49037.146    3781.9646    -52819.11   0.38802939 
   58300    271.65897   -15.271649    140899.55   -49091.714    3730.5818   -52822.295   0.35150282 
   58400    273.44647   -28.362075    140897.25   -49139.985    3755.1287   -52895.114   0.35899313 
   58500    270.55487    14.701022    140878.09   -49147.558    3715.4196   -52862.978   0.39175408 
   58600    270.98292     6.670785    140818.61    -49183.67    3721.2978   -52904.968   0.35592378 
   58700    273.66812    28.829632    140855.97   -49143.203    3758.1726   -52901.375   0.35612762 
   58800    269.81519    2.5899428    140848.17   -49183.244    3705.2619   -52888.506    0.3817976 
   58900    270.29367   -13.445326    140854.42   -49104.118    3711.8326    -52815.95    0.3634373 
   59000    271.37713    -42.43583    140897.76   -49077.687    3726.7114   -52804.398   0.36233352 
   59100    276.83586    55.340237    140902.23   -49042.882    3801.6739   -52844.556   0.37399062 
   59200     268.8474    7.0615814    140909.15   -49156.165    3691.9716   -52848.136   0.36577244 
   59300    270.68142    10.638516    140898.22   -49141.245    3717.1575   -52858.403   0.35408083 
   59400    273.79018    22.358046    140872.65   -49120.216    3759.8488   -52880.064   0.36666501 
   59500    269.08145   -7.1431747    140844.92   -49226.795    3695.1857   -52921.981    0.3700093 
   59600    269.82338    -8.288951    140835.35   -49202.869    3705.3743   -52908.244   0.35871348 
   59700    271.15564   -7.4332169    140864.44   -49135.533    3723.6698   -52859.203   0.36857252 
   59800     272.1845   -10.932555    140842.55   -49244.556    3737.7987   -52982.354   0.35614637 
   59900    268.03724   -3.9273848    140830.25   -49235.016     3680.846   -52915.861   0.36584333 
   60000    271.98692    30.076979    140846.67   -49207.161    3735.0854   -52942.247   0.36062609 
   60100    268.38506    48.407966    140826.78   -49167.401    3685.6225   -52853.024   0.35650613 
   60200    271.55261   -13.599113    140856.05    -49139.72    3729.1212   -52868.841   0.38252899 
   60300    272.75375  -0.73964955    140888.33   -49099.469    3745.6159   -52845.085   0.36635693 
   60400    275.51573   -15.291907    140914.25   -49055.093     3783.545   -52838.638   0.35004901 
   60500    280.43325   -6.8001016    140911.06   -49082.213    3851.0754   -52933.288   0.38211162 
   60600    276.67078    34.493015    140880.46   -49135.046     3799.407   -52934.453   0.36444989 
   60700    277.33095    11.273047    140927.97   -48971.532    3808.4728   -52780.005    0.3435845 
   60800    272.93782   -2.2382546    140949.01   -48995.301    3748.1437   -52743.444   0.37419019 
   60900    268.71099    -29.64695    140949.03   -49085.347    3690.0983   -52775.446   0.37138237 
   61000    275.58473  -0.98730719    140929.21   -49126.259    3784.4926   -52910.751   0.33255849 
   61100    274.53508  -0.69338193    140932.13   -49109.999    3770.0782   -52880.078   0.36995046 
   61200     275.9802    37.383116    140941.89   -49057.011    3789.9235   -52846.934   0.37494977 
   61300    267.19613    -1.318528    140935.59   -49148.885    3669.2954   -52818.181   0.33782725 
   61400    264.07923    -44.03442    140894.92   -49194.284    3626.4923   -52820.777    0.3695512 
   61500    269.77602    18.271888    140872.22   -49136.702     3704.724   -52841.426   0.38021928 
   61600    271.57077    20.700909    140851.48   -49168.941    3729.3706   -52898.312   0.34726056 
   61700    269.72851    4.1996768     140869.3   -49234.434    3704.0716   -52938.506   0.35996364 
   61800    267.72446    4.1928246    140856.92   -49224.261    3676.5508   -52900.812   0.37751985 
   61900    274.51551    23.032136    140888.54   -49124.839    3769.8094   -52894.648   0.35140146 
   62000    275.76162    45.099802    140877.69   -49135.641    3786.9218   -52922.563   0.35767352 
   62100    269.62296   -34.757357    140861.39   -49201.092     3702.622   -52903.714   0.36690867 
   62200    278.40888   -22.702951    140898.24   -49103.252    3823.2755   -52926.527   0.35565029 
   62300    271.41428    15.967504    140889.83   -49140.651    3727.2216   -52867.873   0.35288361 
   62400    272.43606    6.5158236     140887.6   -49186.993    3741.2533   -52928.246   0.36513512 
   62500    271.01157   -30.897177    140900.29   -49180.291    3721.6913   -52901.982    0.3657619 
   62600    270.18621   -10.097057    140887.39   -49209.939     3710.357   -52920.296   0.35642395 
   62700    266.06863   -4.7998204    140870.67   -49243.133    3653.8119   -52896.945   0.36161445 
   62800     269.0546    10.742448    140850.68   -49213.693     3694.817    -52908.51   0.36356691 
   62900    273.01928    29.661734    140879.71   -49126.767    3749.2624    -52876.03   0.37181686 
   63000    273.09666    24.871852     140865.6   -49153.216     3750.325   -52903.541   0.35985907 
   63100    270.11486    30.474948    140847.35   -49225.727    3709.3772   -52935.104   0.35704654 
   63200     277.6323    39.357985    140864.84   -49111.468    3812.6111   -52924.079   0.37236356 
   63300    270.80554   -26.891996    140873.75   -49207.888    3718.8619    -52926.75   0.35721215 
   63400    269.87934    20.223024    140860.11   -49290.393    3706.1428   -52996.536   0.35216569 
   63500    266.70572   -22.856811    140879.03   -49268.924    3662.5608   -52931.484   0.37192322 
   63600    267.98052    8.2674205    140833.33    -49312.71    3680.0671   -52992.777   0.36702633 
   63700    266.68084    17.805311    140823.38   -49276.439    3662.2192   -52938.659   0.34865962 
   63800    264.00253   -14.359269    140813.29    -49343.25    3625.4391    -52968.69     0.375887 
   63900    270.24432    33.569708    140844.23   -49239.091    3711.1549   -52950.246    0.3672715 
   64000    269.49335     8.977894       140860   -49158.087    3700.8422   -52858.929   0.33936505 
   64100    272.20373    31.422234    140888.34   -49114.422    3738.0627   -52852.485   0.37618777 
   64200    273.05927    19.330259    140898.36   -49104.718    3749.8116   -52854.529   0.37439192 
   64300     271.6745   -31.769559    140930.45    -49147.16     3730.795   -52877.955    0.3433673 
   64400    271.91447   -4.2780136    140884.13   -49197.659    3734.0905   -52931.749   0.36746393 
   64500    270.10719     6.637045     140871.5   -49186.815    3709.2717   -52896.087    0.3742412 
   64600    267.04911  -0.32758882    140856.61   -49218.984    3667.2765    -52886.26   0.35287779 
   64700    271.57042    26.711278    140858.33   -49228.067    3729.3658   -52957.433   0.36033778 
   64800    274.19757    31.312444    140821.01   -49167.529    3765.4433   -52932.972   0.37715336 
   64900     277.1993   -17.919115    140840.74   -49087.458    3806.6649   -52894.123   0.36264927 
   65000    275.41603    9.5259892    140876.49   -49076.321    3782.1759   -52858.497   0.36520158 
   65100    271.37604    35.696221    140857.73   -49141.431    3726.6964   -52868.127   0.37899487 
   65200    270.87052    29.218105    140857.71   -49158.791    3719.7544   -52878.546   0.35708887 
   65300    273.48464   -3.8905235    140872.07   -49099.554     3755.653   -52855.207   0.36253131 
   65400    269.43199    -25.32963    140841.39   -49134.029    3699.9995   -52834.028   0.38003824 
   65500     274.9853    5.2334606    140859.53   -49069.958    3776.2609   -52846.219   0.36367789 
   65600    274.39706   -1.8584159    140871.66   -49090.873    3768.1828   -52859.055   0.37560758 
   65700    271.50419   -37.245283    140864.83   -49047.873    3728.4562   -52776.329   0.37133902 
   65800    278.24829   -38.389551    140854.62   -49111.422    3821.0702   -52932.492   0.36872335 
   65900    272.38497   -27.330314    140855.48   -49124.762    3740.5516   -52865.314   0.38238352 
   66000    273.83673    25.422686    140833.34   -49126.901    3760.4881   -52887.389   0.35290374 
   66100    274.57895    -13.39393    140843.34   -49100.907    3770.6807   -52871.588   0.37749371 
   66200    264.45455   -20.441136    140828.42   -49225.962    3631.6464   -52857.608   0.38458758 
   66300    271.94065   -24.935335    140844.76   -49163.084      3734.45   -52897.534   0.35229899 
   66400    271.27356    27.163075    140853.54   -49163.094    3725.2891   -52888.383   0.36657438 
   66500    268.10078   -48.289696    140868.52   -49203.806    3681.7185   -52885.524    0.3926463 
   66600    272.89262    22.811429    140857.75   -49204.904     3747.523   -52952.427   0.35502127 
   66700    268.87716    9.0634496    140862.99   -49192.991    3692.3803   -52885.371   0.35474084 
   66800    269.19508    4.6537535    140853.27   -49218.311    3696.7461   -52915.057   0.38869311 
   66900    269.57203    10.789416    140838.36   -49225.821    3701.9227   -52927.744   0.36444162 
   67000    264.54415    10.427545     140808.4   -49324.441    3632.8769   -52957.318   0.34363659 
   67100    267.94677   -1.7549092    140814.84   -49173.376    3679.6037    -52852.98   0.40560489 
   67200      269.457   -6.7400003    140801.75   -49264.104     3700.343   -52964.447   0.37184713 
   67300    265.83137     -10.2424    140812.21   -49188.392    3650.5538   -52838.946   0.34884152 
   67400    266.63098    -4.407608    140837.65   -49168.114    3661.5345   -52829.648   0.39660579 
   67500    272.76939   -9.4025347    140853.66   -49156.105    3745.8307   -52901.936   0.36763762 
   67600    276.36076   -16.690081    140898.92   -49030.198    3795.1495   -52825.348   0.35386078 
   67700    280.07608    13.517826    140860.46   -49092.833    3846.1705   -52939.004   0.37231259 
   67800    275.67161   -1.3933866    140850.07   -49130.381    3785.6858   -52916.067     0.369604 
   67900    268.91296   -32.024721    140849.95   -49161.267    3692.8719   -52854.139   0.37596536 
   68000    272.66719   -21.028696    140827.76    -49197.04    3744.4272   -52941.467   0.36721656 
   68100    266.23263     13.76709    140844.62   -49204.627     3656.064   -52860.691   0.38004995 
   68200    269.21165    2.4080157    140821.34   -49165.339    3696.9737   -52862.313   0.38656575 
   68300    271.34649   -7.2796287    140860.64   -49118.765    3726.2906   -52845.055   0.36409165 
   68400    270.61936   -7.7704344    140859.97   -49084.329    3716.3052   -52800.634   0.37607144 
   68500    270.88141   -1.5018778    140872.36    -49078.27    3719.9039   -52798.174   0.39000257 
   68600    271.32164   -21.168994    140827.85   -49167.471    3725.9494    -52893.42   0.37140854 
   68700    275.09734    4.6713834    140807.95   -49141.183    3777.7994   -52918.982   0.35394615 
   68800    275.41112    3.0016404    140835.67   -49139.663    3782.1086   -52921.772     0.386144 
   68900    270.83996   -25.850489    140818.93   -49142.293    3719.3347   -52861.628    0.3815158 
   69000    274.92722    1.7416872    140846.08   -49141.059    3775.4633   -52916.523   0.33766328 
   69100    269.95973    18.658781    140853.65   -49202.742    3707.2468   -52909.989   0.38484811 
   69200    267.99102    8.5885659    140851.39   -49212.416    3680.2113   -52892.628   0.38918064 
   69300     266.0717    5.7956367    140856.93   -49247.698    3653.8541   -52901.552   0.33603078 
   69400     267.1378    31.710405    140840.92   -49293.069    3668.4944   -52961.563   0.37274708 
   69500    267.90803    1.4112129    140833.13   -49164.718    3679.0717    -52843.79   0.39252853 
   69600    272.69654   -8.4550107    140892.55    -49067.54    3744.8303   -52812.371     0.348332 
   69700    268.66519    2.9711336    140862.81   -49152.211    3689.4695    -52841.68   0.36614925 
   69800    271.20301   -6.2035369    140856.02   -49151.032    3724.3203   -52875.353   0.39119729 
   69900    268.60389   -56.313111    140843.69   -49242.094    3688.6277   -52930.721   0.35674941 
   70000    273.45626   -3.5919906    140825.54    -49175.02    3755.2633   -52930.283   0.35332164 
   70100    264.76527   -19.395613    140790.48   -49285.679    3635.9134   -52921.592   0.39093673 
   70200    273.71129     13.75301    140824.06   -49131.646    3758.7654   -52890.412   0.36712475 
   70300    273.02342   -11.258945    140849.14   -49142.627    3749.3192   -52891.946   0.35042069 
   70400    272.98992    19.154881    140858.35   -49040.647    3748.8592   -52789.507   0.38490787 
   70500    273.71464     11.13909    140845.71   -49108.012    3758.8114   -52866.823   0.37705256 
   70600    272.15666    5.4287697    140859.27   -49159.327    3737.4164   -52896.743   0.35335294 
   70700    273.70321    3.5001466    140835.14     -49131.8    3758.6545   -52890.454    0.3725637 
   70800    272.03289    18.778985    140834.45   -49166.911    3735.7166   -52902.627   0.38343573 
   70900    269.59595    28.183283    140843.16   -49161.429    3702.2512    -52863.68   0.36603266 
   71000     269.2912   -16.353152     140829.8   -49169.601    3698.0662   -52867.667   0.36266178 
   71100     270.7652   -0.7879919    140810.93   -49161.966     3718.308   -52880.274   0.37769095 
   71200    268.94062   -14.090186    140806.95   -49197.996    3693.2518   -52891.248   0.38866724 
   71300    265.30551   -3.7325129    140784.74   -49247.322    3643.3322   -52890.654   0.36289051 
   71400    270.52597     3.368072    140809.59   -49194.893    3715.0228   -52909.916   0.36815035 
   71500    269.74181      13.8899    140827.91   -49147.202    3704.2541   -52851.456   0.39620105 
   71600     273.4339   -6.7880154    140842.13   -49165.136    3754.9562   -52920.092   0.35873329 
   71700    273.90262    3.9274609    140860.88   -49157.016     3761.393   -52918.409   0.35678042 
   71800    267.06211   -6.1358005    140839.95   -49323.096    3667.4549   -52990.551   0.39344649 
   71900    264.75903   -4.2726583    140787.22   -49264.498    3635.8277   -52900.326   0.37321791 
   72000    265.76943    23.244435     140786.7   -49230.847    3649.7031    -52880.55   0.35139468 
   72100    269.41294     37.16255    140816.45   -49107.863    3699.7379   -52807.601   0.40094124 
   72200     275.8809    29.142997     140897.3   -49002.736    3788.5597   -52791.296   0.39552171 
   72300    280.32746   -25.652776    140909.44   -48979.453    3849.6227   -52829.076   0.34262748 
   72400      270.851   -54.376549    140861.11   -49093.542    3719.4863   -52813.028   0.38254828 
   72500    267.78503   -10.445422    140846.96   -49083.296    3677.3825   -52760.679   0.40784836 
   72600    272.70176    21.223252    140874.12   -49036.608     3744.902    -52781.51   0.34492936 
   72700    270.85578   -14.460871    140838.93   -49187.242    3719.5519   -52906.794   0.37255117 
   72800     271.1943   -32.185095    140838.49   -49116.468    3724.2006   -52840.668    0.3990491 
   72900    267.50966    20.989044    140844.64   -49120.894    3673.6009   -52794.495   0.35251463 
   73000    268.41971    8.4218811    140839.09    -49135.76    3686.0983   -52821.858   0.37121546 
   73100    275.65231    38.654972    140837.75   -49090.378    3785.4207   -52875.798   0.38489392 
   73200    268.34361    15.506368    140891.95   -49078.606    3685.0532   -52763.659    0.3690452 
   73300     271.1711   -17.411045    140873.72   -49059.381    3723.8821   -52783.264   0.36913757 
   73400    271.96429    12.030309    140901.89    -49045.02    3734.7747   -52779.794   0.38010644 
   73500    274.70398    16.837005     140926.9   -49056.309    3772.3976   -52828.706   0.37951009 
   73600     274.2088   -29.151381    140888.15   -49090.783    3765.5976    -52856.38   0.36491267 
   73700    271.58539   -25.783096    140871.82   -49145.536    3729.5713   -52875.107   0.36740448 
   73800       272.56   -13.244638       140817   -49229.255    3742.9553   -52972.211   0.38050645 
   73900    267.19634      -25.923     140828.7   -49214.778    3669.2983   -52884.076   0.38122369 
   74000    272.01632    1.8865749    140824.03   -49135.495    3735.4891   -52870.984   0.35961318 
   74100    282.59177    22.259556    140890.75   -48985.532    3880.7175    -52866.25   0.37623248 
   74200    271.66435    -35.68167    140885.56   -49142.933    3730.6557   -52873.589   0.39099854 
   74300      275.541   -13.156705    140871.73   -49142.042    3783.8921   -52925.934   0.35297312 
   74400     271.8742    2.7672716    140847.65    -49172.93    3733.5374   -52906.468   0.36303735 
   74500    269.69122    25.807979    140815.74    -49189.21    3703.5594   -52892.769   0.40645241 
   74600    273.75185    3.5996356    140834.24   -49191.954    3759.3224   -52951.276   0.34200226 
   74700    276.15863    20.016779    140870.23   -49111.246    3792.3737    -52903.62   0.35450944 
   74800     272.9373   -1.5202935    140842.31   -49159.209    3748.1365   -52907.346   0.40978067 
   74900    274.66689   -27.763348    140856.28    -49164.56    3771.8884   -52936.448   0.35096778 
   75000    272.19714    16.758328    140842.23   -49144.914    3737.9722   -52882.886   0.36002816 
   75100    274.10387    12.728638    140887.17   -49082.743    3764.1566   -52846.899   0.39766962 
   75200    275.43235    6.2374554    140897.28   -49133.235       3782.4   -52915.635   0.36405759 
   75300    271.96978   -19.921627    140849.38   -49175.303      3734.85   -52910.153   0.34902757 
   75400    267.40701   -4.6891588    140836.99   -49184.179    3672.1913    -52856.37   0.38795242 
   75500     268.9791   -7.4977961    140851.55   -49184.422    3693.7803   -52878.203   0.38259121 
   75600    273.54849    28.296795    140867.54   -49119.545    3756.5297   -52876.075   0.34067761 
   75700    273.22772   -18.860132     140898.6    -49077.94    3752.1248   -52830.065    0.3827954 
   75800    272.47745   -7.8005324    140888.86   -49093.816    3741.8217   -52835.637   0.38108714 
   75900     270.7407   -15.755533    140856.02   -49114.414    3717.9716   -52832.385   0.35346129 
   76000    272.52451    -6.310687     140872.4   -49118.115    3742.4679   -52860.583   0.38325288 
   76100    268.62533   -18.761795    140842.45   -49199.257    3688.9221   -52888.179   0.37276227 
   76200    266.64018   -5.5297417    140814.67   -49241.432    3661.6608   -52903.093   0.37136629 
   76300    273.13741    46.811654    140818.46   -49182.887    3750.8846   -52933.772   0.37016655 
   76400    269.98725    14.516528    140834.79   -49186.529    3707.6247   -52894.153   0.36818939 
   76500    267.79041   -7.4657231    140830.03    -49171.19    3677.4565   -52848.647   0.38959294 
   76600    268.28397   -31.815928    140823.21   -49205.922    3684.2343   -52890.156   0.37296952 
[...]
   81900    269.68896   -10.276471    140836.76   -49209.064    3703.5284   -52912.593   0.36412443 
   82000    273.74105    32.514086    140873.05   -49130.097    3759.1742   -52889.271   0.36334128 
   82100    273.80728   -20.503799    140906.83   -49083.025    3760.0836   -52843.109   0.37548016 
   82200    275.64341   -1.2992827    140918.34   -49092.089    3785.2984   -52877.387   0.36432788 
   82300    270.95043   -53.715409    140911.08   -49164.585    3720.8516   -52885.436   0.36098749 
   82400    277.24033   -8.7011557    140914.77   -49056.007    3807.2283   -52863.236   0.36976412 
   82500    278.70136    4.7030235    140953.58    -48959.65     3827.292   -52786.942   0.37518146 
   82600    271.91049    3.7183905    140960.14   -49052.574    3734.0358    -52786.61   0.35673554 
   82700    272.64761    31.235165    140894.11   -49128.304    3744.1584   -52872.463   0.35313678 
   82800    268.60378   -8.7715695    140873.74   -49141.481    3688.6261   -52830.107   0.38700491 
   82900    271.35782  -0.19041924    140874.13   -49094.393    3726.4462    -52820.84   0.36259073 
   83000    277.59172    3.4256588    140912.38   -49043.233    3812.0537   -52855.287   0.35120987 
   83100    278.10209   -23.848263    140920.09   -49081.788    3819.0625   -52900.851   0.38532033 
   83200    276.19371   -22.851475    140916.59   -49109.749    3792.8554   -52902.604   0.36688957 
   83300    275.70911   -1.5113312    140881.66   -49101.444    3786.2007   -52887.644   0.35160075 
   83400    267.12028   -19.701802    140878.25   -49173.783    3668.2538   -52842.037   0.39222222 
   83500    267.87778   -14.320271    140857.04   -49272.481    3678.6562   -52951.138   0.36898308 
   83600    271.59325   -7.5251761    140843.98   -49217.927    3729.6792   -52947.606   0.35128962 
   83700    270.25492    8.8656802    140813.37   -49242.258    3711.3005   -52953.559   0.37804827 
   83800    269.55725   -1.8626804     140845.1    -49209.55    3701.7197   -52911.269   0.37094599 
   83900    268.87438   -8.8652039    140834.76   -49202.981    3692.3422   -52895.323   0.35598703 
   84000    267.92908   -7.7590709    140827.71   -49220.695    3679.3608   -52900.056   0.36295288 
   84100    271.67429    30.330059    140845.67   -49153.034    3730.7922   -52883.827   0.38479205 
   84200    270.68875    19.941164    140860.25   -49110.733    3717.2582   -52827.991   0.36283819 
   84300    268.87383    8.2411122    140857.48   -49160.387    3692.3346   -52852.722   0.36252454 
   84400    273.37356    10.433036    140845.85   -49156.472    3754.1275     -52910.6   0.38132393 
   84500    269.36147   -16.175386    140854.35   -49208.849    3699.0312   -52907.881   0.36601025 
   84600    273.44912    16.605619    140878.72   -49126.507    3755.1651   -52881.672   0.36178129 
   84700    269.68995    37.758463    140879.04   -49131.402     3703.542   -52834.944   0.37342914 
   84800    274.47915    30.364065    140896.28   -49126.774    3769.3101   -52896.084   0.36067066 
   84900    275.00992    12.281426    140904.26   -49057.261     3776.599    -52833.86   0.36685139 
   85000    269.82928     19.27536    140881.91   -49121.767    3705.4553   -52827.223   0.36842327 
   85100    268.62378   -1.7605896    140890.99   -49152.344    3688.9008   -52841.245   0.37255118 
   85200    273.75107   0.96010416    140880.11    -49186.37    3759.3118   -52945.682   0.37478244 
   85300    273.08143    18.462204    140879.69   -49197.512    3750.1159   -52947.628   0.35407345 
   85400    265.96778   -7.2863062    140875.53   -49229.061     3652.427   -52881.488   0.37204766 
   85500    270.65439    22.185197    140880.17     -49178.1    3716.7863   -52894.887   0.37030505 
   85600    266.94419    -4.159761    140852.67   -49205.854    3665.8357   -52871.689   0.35736067 
   85700    273.02877    44.191621    140880.12   -49149.251    3749.3927   -52898.644   0.36288694 
   85800    273.19829   -9.1601014    140891.28   -49144.964    3751.7207   -52896.684   0.37159061 
   85900    269.68407    47.041027    140911.11   -49114.202    3703.4613   -52817.663   0.36503165 
   86000    273.38268     38.15696    140897.24   -49159.444    3754.2528   -52913.696    0.3529024 
   86100    273.12739     38.48231    140918.45   -49139.759     3750.747   -52890.506   0.37648177 
   86200    270.32857    9.9190708    140913.14   -49101.845    3712.3119   -52814.157   0.36648399 
   86300     272.0705    28.766498    140899.26   -49146.209    3736.2331   -52882.442   0.34384362 
   86400    267.73643   -15.094504    140896.38   -49204.859    3676.7151   -52881.574   0.38202653 
   86500    271.71571   -33.422816    140882.67   -49233.879     3731.361    -52965.24   0.36474664 
   86600    272.91349    8.8974626    140916.66   -49083.746    3747.8096   -52831.556   0.35021535 
   86700    274.10626    5.6523614    140942.54   -49084.321    3764.1894   -52848.511    0.3740313 
   86800    271.16703   -20.223266    140915.75   -49196.819    3723.8262   -52920.645   0.35720067 
   86900    270.71843   -14.129651    140911.73    -49178.31    3717.6657   -52895.976   0.36013857 
   87000    272.75905   -9.4618623    140911.42    -49156.21    3745.6887   -52901.899   0.37127185 
   87100    270.66804    24.220635    140892.19   -49133.493    3716.9737   -52850.467    0.3615218 
   87200    272.31015    15.928672    140912.25   -49071.672    3739.5242   -52811.197   0.37247804 
   87300    270.71151    26.810271    140910.08   -49082.614    3717.5706   -52800.185   0.36313052 
   87400    272.60042   -31.707734    140884.82   -49139.203    3743.5103   -52882.714   0.36743788 
   87500    273.12314    14.963241    140891.31   -49110.558    3750.6886   -52861.246   0.37995571 
   87600    272.55561   -22.730484    140889.47   -49133.563    3742.8949   -52876.458   0.36502731 
   87700     272.6476    6.3437467    140881.95   -49103.666    3744.1583   -52847.825   0.36620507 
   87800    271.95386    -21.52265    140856.31   -49183.269    3734.6313     -52917.9   0.37543089 
   87900    269.75299   0.26896825    140853.17   -49207.416    3704.4077   -52911.824   0.37576358 
   88000    268.17081    5.2634659    140840.43   -49170.226    3682.6803   -52852.906   0.35926617 
   88100    267.08332    23.667213    140864.11   -49143.715    3667.7463   -52811.461   0.38219155 
   88200    265.45804   -28.211615    140830.41   -49238.789     3645.427   -52884.216   0.38630619 
   88300    273.69622    19.772434    140849.52   -49186.614    3758.5585   -52945.173   0.33981076 
   88400    278.01612     37.47979    140868.57   -49118.301    3817.8819   -52936.183   0.37604599 
   88500    273.36804   -12.306716    140864.07   -49182.579    3754.0518   -52936.631   0.38248084 
   88600    268.93973  0.072317921    140840.61   -49173.827    3693.2395   -52867.067   0.35304957 
   88700    269.23467   -11.676619    140840.99   -49147.493    3697.2898   -52844.783   0.39290496 
   88800    273.00763    8.5177888    140837.91    -49204.15    3749.1024   -52953.252    0.3771276 
   88900    269.68552    13.994789    140837.56    -49147.78    3703.4812   -52851.261   0.35873239 
   89000    267.46735    37.902893    140864.76   -49113.066      3673.02   -52786.086   0.38179185 
   89100    266.32719    17.054412    140859.42   -49163.953    3657.3627   -52821.316   0.37303441 
   89200    270.54692   -5.3467346    140877.92   -49123.737    3715.3104   -52839.048   0.36611083 
   89300    268.92414   -12.904383    140865.27   -49232.704    3693.0254   -52925.729   0.36590995 
   89400    274.33286   -9.8450975    140888.91   -49147.314    3767.3012   -52914.615   0.36977567 
   89500    267.18252   -42.028871    140876.55   -49235.433    3669.1085   -52904.542   0.36189202 
   89600    265.89617  -0.37968474    140834.72   -49259.195    3651.4436   -52910.638   0.35612668 
   89700    268.74348   -10.290129    140844.76   -49180.179    3690.5446   -52870.724   0.37706058 
   89800    278.77255    42.751053    140856.33   -49118.529    3828.2697   -52946.799    0.3574123 
   89900    273.77072   -19.037639    140886.38   -49107.942    3759.5816   -52867.524    0.3705281 
   90000     277.0423    48.897093    140908.26   -49124.242    3804.5088   -52928.751   0.35719968 
   90100    272.73542    13.645027    140900.59   -49110.683    3745.3642   -52856.047   0.35708683 
   90200    273.15471   -15.381451    140873.59   -49178.158    3751.1222   -52929.281   0.37433228 
   90300    272.76952    8.6423267    140855.41   -49150.429    3745.8324   -52896.261   0.35559433 
   90400    273.10756   -7.4697102    140866.14   -49142.563    3750.4746   -52893.038   0.36221297 
   90500    273.89729    6.9418706    140873.31   -49150.033    3761.3197   -52911.353    0.3797883 
   90600    275.36275   -17.847854    140896.98   -49170.967    3781.4443   -52952.411   0.35321527 
   90700    267.11812   -26.978168    140868.91   -49206.533    3668.2241   -52874.757    0.3582264 
   90800    268.91431    44.949248    140862.53   -49218.965    3692.8905   -52911.856   0.37515248 
   90900    271.50861   -18.583241     140871.2   -49200.795    3728.5169   -52929.312   0.35587534 
   91000    268.85769   -5.8572499    140842.11   -49214.391    3692.1129   -52906.504   0.35832254 
   91100    266.17912   -2.5990692    140812.95   -49310.404    3655.3293   -52965.733   0.37886404 
   91200     268.5859    5.6287981    140804.08   -49258.156    3688.3806   -52946.537   0.35871713 
   91300    273.37036    3.6931125    140830.52   -49195.931    3754.0836   -52950.015   0.35263537 
   91400    269.79242   -1.8828538    140847.59   -49169.773    3704.9492   -52874.722   0.37810507 
   91500    273.99368   -8.5951109    140886.77   -49020.998    3762.6434   -52783.642   0.37497501 
   91600    276.05686   0.72059199    140924.99   -49081.015    3790.9762   -52871.991   0.34564175 
   91700    268.24287    7.2598701    140898.48   -49152.438    3683.6699   -52836.108   0.37137521 
   91800    274.55669      14.5748    140926.41   -49125.904     3770.375   -52896.279   0.36817694 
   91900    273.03023    36.394257    140903.56   -49118.359    3749.4128   -52867.771   0.34642478 
   92000    268.65311   -24.954383    140884.46   -49160.167    3689.3035   -52849.471   0.37472039 
   92100    267.46542   -16.708713    140861.11   -49140.257    3672.9934    -52813.25   0.37554396 
   92200    265.77928    2.2971797    140864.39   -49176.415    3649.8383   -52826.254    0.3592634 
   92300    271.13689   -25.847367    140894.17   -49057.027    3723.4122   -52780.439   0.37302521 
   92400    269.58097     22.02495     140876.1   -49098.249    3702.0454   -52800.295   0.36668581 
   92500     273.2847  -0.69050215    140881.95   -49090.788    3752.9073   -52843.695   0.36847512 
   92600     279.7492    53.485977    140906.89   -49009.256    3841.6817   -52850.937   0.36589333 
   92700    273.55861   -1.5851798    140912.86   -49126.178    3756.6687   -52882.846    0.3651728 
   92800    271.75305    0.3042528    140884.35   -49134.224    3731.8737   -52866.097   0.37079952 
   92900    270.84275   -21.684983    140900.43    -49167.76    3719.3729   -52887.133    0.3651459 
   93000    271.93841    14.894406    140834.27   -49174.657    3734.4192   -52909.076   0.36089169 
   93100    276.88964    28.540791    140867.89   -49097.328    3802.4125   -52899.741   0.36843391 
   93200     264.4562   -67.233527    140869.91   -49161.662    3631.6691   -52793.331    0.3799958 
   93300    272.01734    13.296174    140839.29   -49202.471    3735.5032   -52937.974   0.35481926 
   93400    264.88105     38.57651    140848.38     -49256.5    3637.5034   -52894.004   0.36070495 
   93500    267.43824     10.80452    140850.14   -49262.267    3672.6202   -52934.888    0.3811393 
   93600    270.95194    22.488874       140848   -49210.075    3720.8725   -52930.948   0.35133794 
   93700    267.98852    5.5746779    140874.24    -49196.98     3680.177   -52877.157   0.35805503 
   93800     272.0484     4.267489     140882.7   -49200.231    3735.9297    -52936.16   0.38801244 
   93900    268.17784   -42.539701    140876.29   -49271.004    3682.7769   -52953.781   0.34315953 
   94000    270.42296   -3.9156102    140859.65   -49237.154    3713.6082   -52950.762   0.35738425 
   94100       269.88    28.304616    140903.31   -49131.147    3706.1519   -52837.299   0.38533161 
   94200    272.51552    23.105289    140918.71   -49118.944    3742.3444   -52861.289   0.35200071 
   94300    271.86185   -13.703099    140910.59   -49131.146    3733.3678   -52864.514   0.35832516 
   94400    272.69837     2.154896    140901.83   -49125.211    3744.8554   -52870.067    0.3827774 
   94500    270.24341     8.062961    140914.87   -49126.465    3711.1425   -52837.608   0.36389017 
   94600    275.18539    13.772533    140924.73   -49129.528    3779.0087   -52908.537   0.35511281 
   94700    270.43808   -1.9439799     140910.7   -49168.719    3713.8158   -52882.535   0.37191567 
   94800    267.66703   -8.1343484    140913.71    -49208.34    3675.7621   -52884.102   0.36185465 
   94900    269.86122    -2.945257    140911.54    -49233.47    3705.8939   -52939.364   0.34663609 
   95000    274.21228    30.939333     140875.4   -49194.189    3765.6453   -52959.835    0.3715959 
   95100    270.77679    38.798741    140883.72   -49154.179    3718.4672   -52872.646   0.36227568 
   95200     271.1118    -19.33502     140871.3   -49182.784    3723.0678   -52905.852   0.34893152 
   95300    273.43988    3.2479978     140875.9   -49145.358    3755.0383   -52900.397   0.38153149 
   95400     272.6509    11.899063    140888.78   -49112.633    3744.2036   -52856.836   0.35256713 
   95500    272.23844   -25.039928    140913.79   -49132.915    3738.5394   -52871.454   0.36062694 
   95600    271.81626   -5.8434018    140900.85   -49115.975    3732.7417   -52848.717   0.37492434 
   95700    272.95186   -11.312748    140924.55   -49158.261    3748.3364   -52906.597   0.34657405 
   95800    276.70138    52.742815    140926.31   -49103.657    3799.8272   -52903.484   0.36097843 
   95900    274.93951    5.6323389    140914.93    -49113.77    3775.6321   -52889.402   0.36333247 
   96000    272.85072   -4.0307171    140950.21   -49092.085    3746.9476   -52839.033   0.34548428 
   96100    276.00813   -23.321711    140960.66   -49041.887     3790.307   -52832.194   0.36717459 
   96200    278.79093   -1.0869653    140963.19   -49063.123     3828.522   -52891.645   0.36860498 
   96300    272.90699   -16.302589    140928.42   -49077.821    3747.7204   -52825.541   0.35009496 
   96400    270.89991   -6.9094888    140909.66   -49127.011    3720.1579   -52847.169   0.36573023 
   96500    272.88633    6.1126998    140892.87     -49118.6    3747.4366   -52866.036   0.37207059 
   96600    272.28434   -25.400341    140876.45   -49168.853    3739.1697   -52908.023   0.35330197 
   96700    273.32726   -9.0819177    140884.48   -49141.447    3753.4918   -52894.939    0.3566456 
   96800    268.04305   -3.3638058    140868.17    -49159.19    3680.9258   -52840.116    0.3830472 
   96900     269.0405    20.131121    140854.43   -49167.189    3694.6234   -52861.812   0.35103392 
   97000     275.2796    12.184104     140855.3   -49232.578    3780.3024    -53012.88   0.35845764 
   97100    270.59787   -10.135248    140860.19   -49208.484    3716.0101   -52924.494   0.37694517 
   97200    276.02421    38.062605     140854.6   -49148.752    3790.5278    -52939.28   0.34283379 
   97300    276.62752   0.50377693     140903.3   -49048.823    3798.8128   -52847.636    0.3683066 
   97400    270.77824   -11.964315     140886.5   -49131.895    3718.4871   -52850.382   0.37604162 
   97500    273.78312    3.1527564    140892.65   -49109.114    3759.7518   -52868.866   0.35045554 
   97600    276.41658   -3.3812024    140899.54   -49049.251    3795.9161   -52845.167   0.35945797 
   97700    276.72307    21.137451    140928.54   -49013.582     3800.125   -52813.707   0.36972137 
   97800    273.36054   -1.9197918    140905.23   -49117.361    3753.9487   -52871.309    0.3495424 
   97900    273.62475   -34.906306    140918.32    -49074.23    3757.5771   -52831.807   0.36243585 
   98000    270.78727   -44.321661    140905.73   -49167.133     3718.611   -52885.744   0.37276943 
   98100    271.74301     8.578767    140890.19   -49143.695    3731.7359   -52875.431   0.35198742 
   98200    272.22463   -17.116775    140878.43   -49139.073    3738.3497   -52877.422   0.36733564 
   98300    271.61069   -44.485438    140883.77   -49081.914    3729.9188   -52811.833   0.37106745 
   98400    275.06269   -9.9660324     140880.9   -49122.722    3777.3236   -52900.046   0.35586579 
   98500    270.57018   -11.578491    140863.95   -49101.814    3715.6299   -52817.443   0.36807761 
   98600    270.37839  -0.25006981    140866.56   -49106.194     3712.996    -52819.19   0.36987201 
   98700    276.41532   -4.4535657    140868.78   -49071.917    3795.8988   -52867.816   0.36175448 
   98800    272.41997    4.8726797    140884.36   -49084.152    3741.0323   -52825.184   0.36843484 
   98900    272.74374   -20.325267    140861.87   -49141.474    3745.4785   -52886.952   0.36971021 
   99000    265.73058     21.08423    140841.84   -49132.943    3649.1695   -52782.113   0.35746543 
   99100    265.10129    1.7077959    140841.28   -49194.086    3640.5279   -52834.614   0.38390221 
   99200    266.70033   -15.919197    140836.02   -49197.833    3662.4868    -52860.32   0.37335096 
   99300    274.87937    73.402793    140841.45   -49124.316    3774.8062   -52899.122   0.35616551 
   99400    271.33588   -25.042357    140826.15   -49164.162     3726.145   -52890.307   0.39126769 
   99500    275.39349    29.464971     140838.1   -49123.986    3781.8664   -52905.853   0.36061671 
   99600    274.49728   -8.0063936    140846.99   -49114.848    3769.5591   -52884.407   0.35763953 
   99700    272.81264    8.3017974    140841.41   -49157.002    3746.4246   -52903.427   0.37896038 
   99800    267.79722   -4.0878877    140836.96    -49167.92    3677.5499    -52845.47   0.37442978 
   99900    270.81124   -18.269229    140817.89   -49221.016    3718.9402   -52939.957   0.35640969 
  100000    270.15017   -51.908941    140820.11   -49143.484     3709.862   -52853.346   0.38729817 
Loop time of 118.567 on 6 procs for 100000 steps with 4608 atoms

Performance: 364.351 ns/day, 0.066 hours/ns, 843.405 timesteps/s
99.0% CPU use with 6 MPI tasks x no OpenMP threads

MPI task timing breakdown:
Section |  min time  |  avg time  |  max time  |%varavg| %total
---------------------------------------------------------------
Pair    | 100.29     | 101.03     | 102.48     |   7.1 | 85.21
Neigh   | 6.2886     | 6.446      | 6.6903     |   6.6 |  5.44
Comm    | 6.9471     | 8.3075     | 9.245      |  24.0 |  7.01
Output  | 0.16778    | 0.1686     | 0.17173    |   0.3 |  0.14
Modify  | 1.8405     | 1.9045     | 1.9425     |   2.6 |  1.61
Other   |            | 0.7102     |            |       |  0.60

Nlocal:        768.000 ave         771 max         764 min
Histogram: 1 0 1 0 1 0 0 0 2 1
Nghost:        1672.67 ave        1686 max        1661 min
Histogram: 1 1 0 1 0 0 1 1 0 1
Neighs:        0.00000 ave           0 max           0 min
Histogram: 6 0 0 0 0 0 0 0 0 0
FullNghs:      24336.7 ave       24492 max       24152 min
Histogram: 1 0 0 0 2 0 1 1 0 1

Total # of neighbors = 146020
Ave neighs/atom = 31.688368
Neighbor list builds = 6522
Dangerous builds = 0

undump              1
unfix               2
unfix               3
unfix               4




################################################
#######         Run Simulation         #########
################################################

reset_timestep      0
log                 log.run_${NAME}
log                 log.run_ice_272K_1atm_mW
