LAMMPS data file via write_data, version 29 Oct 2020, timestep = 200000

4608 atoms
1 atom types

-0.37461112623425663 53.7746111262374 xlo xhi
-0.02713957231954467 50.93425957231706 ylo yhi
-0.02713957231954467 50.93425957231706 zlo zhi

Masses

1 18.015

Atoms # atomic

3017 1 0.09630897335389249 19.342479268978142 22.479738933454577 0 1 0
3107 1 4.201233482892424 1.7986140139077724 2.652812901053624 1 1 0
2405 1 6.028384485790929 1.386919588922623 0.22251439580679433 1 1 1
4334 1 8.550544418334496 3.464158987771675 0.2262299272505645 1 0 0
2902 1 0.06693301379690791 15.620834918651203 14.217099918384985 1 0 1
2091 1 0.4094856538525937 28.575607578377287 16.06801916758023 1 0 1
3995 1 3.047894919449163 20.163726848407432 22.743231305192452 0 0 1
1421 1 4.3658914897135395 4.561696888586148 3.842280039605963 1 0 1
1419 1 9.44067554068992 6.865448771098786 2.207295577786751 -1 1 1
3949 1 -0.1426930682298992 27.65698428654684 4.9886475335241665 1 0 0
702 1 5.300169941889768 38.4388467645836 0.08703685077967402 0 -1 0
2543 1 9.72861207110791 24.52354457675585 24.379359057310683 0 -1 0
627 1 0.23204589462412817 23.276493403021007 14.667094712411492 0 0 -1
403 1 11.808575062675994 19.118627153507806 23.47015051436878 0 0 0
3043 1 4.403327470221128 49.2040790632539 23.94976520893502 2 0 0
2001 1 16.61136429841351 48.52979595969971 17.125153429638363 0 -1 1
4060 1 11.891228210607686 5.54089333761606 1.5325609162013232 1 1 1
692 1 4.100167508782019 19.48079818962555 1.3743794769171291 0 0 1
2064 1 15.668747754016092 42.67649424353198 25.32555467980448 1 0 0
2045 1 7.240154557192366 32.608794500049015 1.1512592791512586 1 0 1
439 1 7.985944868509732 25.44234001938996 1.8847666128127845 -1 0 1
1026 1 0.6827309227173943 4.670416667028861 22.86146224353831 1 0 1
4244 1 0.048196668106377905 0.3454521399694592 13.635813387954354 1 0 0
3290 1 0.14830215431849725 21.18676569102464 8.326636312775126 0 0 0
265 1 0.009989299634653726 18.33405238566793 16.867487176328602 1 0 0
2751 1 -0.27961768902913875 28.956413482230637 20.877377828296275 0 0 0
4295 1 14.963061345972806 10.860421872535664 2.2174146303975144 1 0 0
2023 1 16.473061971464617 11.34494627601682 22.468519271294216 1 0 0
4280 1 7.280424120590855 14.639735020770487 1.7209146926430174 0 0 1
709 1 11.058649955129763 10.751947224373595 0.8464164887659354 0 0 0
3254 1 13.986556893234134 13.879434062279277 3.8115862960253053 0 0 0
2519 1 0.4769313683196923 17.65252974963622 5.053437602997205 0 1 2
3819 1 1.7626237087467254 18.85594903656042 7.217320063679958 2 0 1
2276 1 4.222335224651212 17.850440860282784 5.766356709386869 2 -1 0
1443 1 5.418143113701699 19.723960298091566 4.110775746112361 0 0 1
2384 1 9.094009946742222 16.993013758859988 0.9502409892947454 1 0 2
2917 1 -0.15775190430039743 32.486277632590514 1.5509044634925142 0 -1 1
466 1 13.414844442244773 18.02550787455277 2.5180840120360166 0 0 0
2300 1 13.176987725259583 20.650178727566995 25.22325993864396 1 0 -1
1136 1 0.5410720719869907 19.944604329278217 14.415465999750895 1 1 0
4178 1 16.36520095674581 48.11439775379358 23.409682047238142 0 -2 1
1866 1 3.6292196014332223 21.82240435967303 4.780959698572144 1 0 0
3989 1 0.34952673908145193 12.070702968276347 0.9341521911308602 0 0 0
2850 1 11.75609674734662 21.52696531697073 3.907501748320434 1 0 0
3233 1 13.275997453127115 37.11074029533455 1.1562052211676261 1 -1 1
1444 1 4.967936114803953 24.35690437699344 2.076321939370585 1 0 0
3274 1 6.571030943716175 27.74671032958713 3.7185472755677145 2 0 0
2184 1 4.927795627273361 14.332098725859636 1.7652149485570523 1 0 0
4146 1 0.8896985459041664 46.863322701266824 4.346398469633779 0 0 1
141 1 16.86445542177486 34.782647791491655 0.1565728738120335 1 1 -1
101 1 17.55376971180426 5.769553438745047 1.505919300844557 0 2 0
626 1 2.5111137943790593 30.751311633636693 4.91862420772843 0 -1 0
3856 1 4.022297732285552 26.87175021131084 2.1160857642462383 1 0 2
1439 1 10.564557234911643 41.866775525899925 22.811612752189916 0 -1 0
2824 1 13.721040061920606 26.895887841368808 3.5632956240968032 1 1 1
867 1 16.090021335025604 23.52193227269324 4.630374188901672 0 0 0
324 1 -0.22449877268700985 13.776016769203283 5.187694001324356 0 1 0
1940 1 2.210137574345601 5.573416797842548 24.904172455500213 0 0 0
1255 1 6.734109547811661 29.4169963399418 1.1097901428720693 0 0 0
4300 1 0.6590694970221944 27.861101351446905 7.734177090218159 1 0 -1
947 1 14.091197476917147 29.452798027981817 2.3181503593598625 0 0 1
834 1 0.8892819074343503 41.567665467237774 9.639577850626074 1 -2 1
4278 1 3.420496697285083 35.217318970481955 0.8018403257480573 1 0 0
3593 1 9.724883758976034 34.44970306674219 4.34647838302514 2 -1 0
1383 1 9.7299180755566 29.925116667129288 0.5916663207058055 -1 0 0
3542 1 15.194319125239275 33.17320382488356 1.5556679953019856 1 -1 0
4421 1 16.847476529030832 29.905411805737206 1.5552700067814096 1 0 1
1553 1 14.524281664775113 49.65780841751767 0.6360041955285144 1 -2 -1
4166 1 0.25300658679813615 19.382142286028785 2.874047336933968 1 0 1
2873 1 8.340726977940149 36.303305169367036 1.5107782463501296 2 0 0
3284 1 7.660338169229409 39.161347198030285 2.7744468520012386 0 -1 0
3128 1 0.2648922941184194 36.29791710591448 18.537951124983437 0 0 0
1747 1 17.342701900741268 43.93376162004991 21.661568167744186 0 0 0
4514 1 5.451792408881429 22.857016749503572 22.62615239387313 1 -1 0
1778 1 9.295684785198372 40.95981682401839 25.343703642416337 0 0 0
3770 1 15.855473475334232 41.645225435990895 1.1483683885819234 1 0 0
2507 1 13.864748546616124 41.07864491680195 3.1406676046493684 0 1 0
4371 1 16.501325214952274 26.10617391697919 13.991368136911904 1 0 0
2259 1 13.034575966073948 20.425440008625245 1.1286215851190329 0 0 0
2571 1 8.253467161122892 44.14163847534314 3.9484012748223503 0 1 1
1801 1 6.63713902884667 41.31089153277031 1.3562683383817944 0 0 1
230 1 10.409633644303904 39.818517245053 1.9987574735268594 0 -1 -1
1375 1 9.187561387051739 47.22500009064912 5.279037843148294 0 0 1
886 1 1.4093304832142497 1.4070629677366897 0.9479785703875533 0 1 1
3009 1 8.546829969254931 41.30128545529263 20.922078278909638 1 0 0
2329 1 -0.15927329178233107 10.63254769850507 18.42325685011823 1 0 -1
4147 1 12.814814241483933 33.068890230937654 0.335928021649236 2 0 0
23 1 0.9864896967358618 48.86364015646508 14.466538794673365 1 0 0
961 1 9.342531763991671 3.1418652063174353 24.930417888968762 0 0 1
264 1 2.7476976233440387 44.354256854881044 24.748893495855405 0 -2 0
254 1 1.8557590171470122 0.12377710897076077 3.9607976806951735 0 -2 0
3973 1 11.159567371583883 49.58287622232993 2.0562062786057784 0 1 1
1140 1 11.763390220502442 35.69186637921662 24.836731594449855 0 0 -1
2310 1 9.90467892957688 37.57241810962525 24.493622245293032 0 -1 1
339 1 4.750684957603219 6.617149560260114 6.905528775836195 1 0 0
2202 1 3.5380168317017096 9.420225461404517 15.094109161146164 0 0 -1
2290 1 7.69972667291451 4.7756086790363215 2.1966496177040877 0 -1 1
4537 1 8.539805857670146 0.16140989174566717 1.2135371362813545 1 1 0
757 1 16.847564973754018 50.09264990477354 1.711013584633555 0 1 0
3788 1 3.9013310078060064 11.732855318525518 0.6266265790578834 0 0 1
4204 1 4.673634208109404 9.18807600635156 7.297027332705983 1 1 0
1622 1 2.240889220909709 5.996051277637864 7.702290746199217 1 0 0
4203 1 8.424030064864361 6.509165594992602 5.212132297933551 0 1 1
3381 1 11.087715894425228 2.9500362499164887 0.9820107083422023 1 1 1
1120 1 16.61195469886064 36.992382759488436 5.796324734871087 -1 0 0
549 1 4.488883276267217 9.45723336646673 2.80284532375533 1 1 1
1814 1 7.587150577796552 8.832849509067184 2.5731807831284694 1 0 0
3719 1 12.686103496382827 4.790127611603027 3.9233756171931744 0 -1 0
2531 1 13.777576145021788 8.322398897686309 2.299177718692785 1 0 2
4183 1 1.917947077794461 8.063845035081831 2.9947268125764217 0 0 1
883 1 1.83745507857829 12.280528328625142 3.2302970421228276 1 1 0
3994 1 12.143539794136505 8.691431456980029 6.084169849861882 0 0 1
3862 1 11.171149593145222 9.128328404233377 3.2810657543941972 1 1 0
3546 1 15.444309605902218 6.574292389489061 3.6579476815250356 0 1 -1
1154 1 0.8391203705601538 15.71067489489952 3.114191521503961 -1 0 1
2351 1 1.4732400311150686 13.92785129882809 7.936355465108055 1 0 1
870 1 3.4887805517347608 15.533072956594337 3.945601633841745 0 1 1
211 1 8.059247714868054 13.557434521027524 3.901739208710395 -1 -1 0
4108 1 11.231107538892555 11.504614576794754 4.499262605003183 1 0 1
4575 1 16.594167607792084 11.098090832849753 4.30474649041745 1 0 1
1411 1 6.623882979304266 40.14031802568179 23.599919855154493 -1 1 0
2395 1 10.840264083833702 17.320054334062696 3.640769790336477 2 -1 -1
2050 1 8.915353524534705 15.026379103211545 6.183256859718858 2 0 0
1269 1 -0.06625248930202782 29.40362731673213 2.513217716422202 1 -1 1
1407 1 15.087067836545662 39.18482654711731 6.842419120185355 -1 -1 2
2075 1 4.118915081839741 20.83814709797709 7.325700870571 1 0 0
4201 1 7.669825056597906 17.492287786693755 6.512407434481622 1 0 0
3611 1 8.018242564395736 22.76384107411334 3.9309114935921885 1 0 0
2550 1 16.133573002063173 20.212496140484475 2.2011123767924414 0 0 0
2148 1 9.131211655967324 19.34633076315772 4.4927445528101675 0 1 -1
444 1 3.464431687413639 22.315900469761132 0.8775353138531856 0 1 -1
655 1 0.982936737686606 30.690804164155566 7.433979076701969 0 1 0
2786 1 3.1505257756369907 26.9116844891013 6.280379931058322 0 -1 0
1096 1 2.7935214523011975 24.096664485277035 6.897475783078622 0 1 -1
2232 1 5.601197356515978 23.74862126010856 4.597621155682839 0 0 1
333 1 5.825815264442006 26.522355098822917 5.879772632646856 0 -1 -1
2585 1 0.440233464017162 9.860638992756432 3.8646910923286635 2 0 0
3188 1 10.589655989035428 23.935105408202993 2.439089932458515 1 0 0
4547 1 2.3890492101345444 28.098977217724542 3.991538051180587 2 -1 0
3759 1 3.6060259128390038 28.561290933590474 8.72331747841761 0 0 -2
2137 1 12.977148279949057 29.724969075903715 6.556503673546529 1 0 0
3511 1 1.8892831435266935 34.743131111126786 7.5070080801441215 2 0 0
1081 1 12.233056109730093 23.109240241898107 25.19613631981966 1 0 1
1875 1 9.13994666362167 27.865232549633188 4.342788381295741 1 0 0
1240 1 3.5900015106357666 32.560013071779835 1.8509414408133753 1 0 1
587 1 11.041312657327675 25.838370640592892 4.430339446443404 0 -1 0
4083 1 10.135868553638826 30.334516535961303 3.285166675711399 0 1 0
1640 1 11.02113831680819 30.26918589599142 8.437656169386756 1 -1 0
2277 1 2.46916753748322 35.628861905060205 4.469039514344524 0 0 1
1545 1 1.1520168977017453 36.13435497336734 1.7001398617129162 0 0 0
3683 1 4.95997143171946 36.99892156982642 2.522968388131844 1 0 0
1294 1 1.2896053531545755 32.98261786407684 3.6283763067419077 0 0 0
2286 1 8.438584939167026 32.06421604646533 4.74509622443341 0 -1 2
488 1 11.745416647674892 34.22123194404688 7.080389512075462 -1 0 0
1806 1 0.12392154978382858 23.690070508025244 7.3474337681442226 1 1 0
2967 1 17.05293079948785 43.219673537246734 8.625366522343889 1 -1 1
1918 1 4.56000356929193 39.679845206256644 5.361588735247946 1 0 0
3967 1 3.469037916322587 39.08905769949203 3.1719768905132435 -1 -1 1
3424 1 9.842616560549022 33.556657754889784 1.5949124704181215 1 0 0
130 1 10.364251843408688 39.12410345525423 5.109638433953523 1 0 -1
433 1 12.772277866580007 38.82673329076904 2.9736143615319133 0 0 0
1127 1 12.351397095818397 33.47458680849718 4.534357210941181 0 -1 1
1916 1 4.282072086481539 40.89523722388368 0.18010814189726942 1 0 0
4128 1 6.838747467711903 41.53460555362403 7.270553825856552 2 1 1
3708 1 10.618028956896538 41.654448189387296 6.3364957490959055 0 0 -1
2904 1 11.684564853089897 42.617000750016544 4.226354159400638 2 -1 0
3191 1 12.263122941311961 45.80241136603718 25.139285689670288 0 0 -1
3350 1 2.7597759819066128 42.15400774591647 2.5503053969198772 1 0 1
2015 1 2.5546359846868896 44.764428584915166 5.305213637339427 -1 -1 -1
1106 1 9.78030347633244 42.668979377440266 2.1895966943949796 0 0 2
3075 1 12.382128482496354 44.968010615619534 5.5979675132011275 1 0 0
1894 1 2.5991876236672082 48.80335033741582 5.560336430317183 0 0 -1
2897 1 4.538967393505734 46.91608581317537 6.193217410605321 1 0 1
21 1 6.3833297251939936 46.270157192810885 1.3875021544389625 1 0 1
3755 1 9.794570989730829 47.033350892064576 2.591501495774899 0 -1 0
1349 1 16.287214058759197 44.24560776205102 4.043610938935973 -1 -1 1
687 1 14.139638703528595 45.36285643575064 3.0556015495442983 0 0 0
1893 1 1.6738424556984501 3.1651695332196397 8.251726851943632 0 1 0
2561 1 5.046439160160096 50.81818823962007 4.477817444214748 2 2 0
2349 1 4.266413000332539 47.98112221440164 8.821649731202596 1 -1 1
2639 1 9.639239738340857 49.96295945982614 5.712039166532785 0 -2 1
74 1 9.200260696470826 1.150571056822391 3.838795025498191 1 1 0
3811 1 13.854284946564574 48.043123540290296 4.412292650274262 1 -2 1
3779 1 15.165441753706762 46.89872966964599 0.9760055157718752 0 -2 1
3640 1 1.4481172914323086 49.01078838318439 1.8655337614646836 0 -1 0
1846 1 2.134645154238869 4.639177455241268 15.117347805776046 0 -1 -1
1104 1 6.78587478823324 49.34666536317948 2.979741415265616 0 1 2
3003 1 6.589799490185286 47.07296561497705 4.352113850821933 1 0 0
579 1 7.805552304436647 4.081763202056788 6.448754224883274 0 0 -1
1402 1 13.1813163313246 50.85858694903908 3.0731500415845914 1 1 0
4480 1 11.632493046470676 2.2331939230232085 3.6134050037006307 0 1 1
2806 1 15.111799997388998 50.78418168284952 7.306466908930561 0 -1 1
4344 1 16.37587232664678 26.29641539000294 5.060801226979201 1 -1 1
1059 1 5.452620730557223 6.994197065258684 3.881923211411278 0 -1 2
3667 1 7.74743794543631 8.058503723110244 7.694594484922271 1 1 -1
2665 1 3.797314824924798 7.1460297839711355 10.397189447354641 1 1 0
3318 1 7.152504201633059 2.546392415124779 4.06861252655208 1 1 -1
1087 1 8.30511616960882 12.917445019800471 22.087535270872657 -1 1 1
733 1 3.4483735148959624 9.54469691611755 9.728683576484466 -1 0 0
1804 1 11.149682316397026 6.308473526598606 5.585191700154839 1 1 -1
1567 1 14.45560680469123 7.6456721373522445 6.951946225827626 -1 -1 1
4086 1 14.599725936523729 3.064884843063493 2.0339182172129386 1 1 -1
2242 1 16.473621889433947 11.87156340936166 24.9729608631131 1 1 1
3046 1 1.919050809532619 2.653104451060141 17.41620853308603 1 1 -2
3782 1 0.6983902156291664 9.242258457573065 8.981360404026544 0 1 0
4428 1 3.983334771262869 11.01670130376258 5.075682648403152 1 0 1
2624 1 8.495201594190581 10.607442995065261 4.281611405060194 1 2 1
3603 1 7.408925098373429 10.880283274923373 7.431139013279543 0 -1 1
763 1 10.51197816648096 9.242456517270151 8.315819023349174 -1 -1 0
2393 1 10.438292358571706 11.992973395903855 7.157521744491274 1 1 1
4429 1 3.915106052089784 14.485210142168048 6.664462219632743 0 1 1
3569 1 5.556721489483554 12.976517611637032 5.018112869643608 0 1 1
4243 1 8.56031280044013 14.42034823985609 11.243209100457369 1 -1 1
2264 1 16.732724652940078 8.35039779912911 5.457220227389665 -1 0 2
3814 1 0.61322055355096 16.491261552907854 8.509899833610653 2 1 0
2650 1 5.621300517099161 16.387778932985587 8.129153953731691 1 0 0
2567 1 6.890840303748202 20.45564848041763 7.095194913242314 1 0 1
546 1 9.115683601085681 17.906807966857457 9.175100991471048 0 0 1
71 1 11.321571904759793 16.35679629062882 6.356928360380877 1 0 0
940 1 14.206701414778419 16.525379207190056 5.20647624848253 0 1 0
1516 1 12.728361437245956 13.682987315328882 6.8895463670371475 1 -1 0
236 1 1.464564679859945 12.015785207187514 22.20855109969648 -1 1 -1
3676 1 5.103287328158433 23.16580836689659 8.841922394788732 1 0 1
27 1 10.050397092780138 21.80846790104062 6.360765186913852 0 0 1
3575 1 8.376089842853618 20.488591970078687 9.264767023898306 0 -2 0
2017 1 14.992231152897363 20.02688745865773 4.656680871969683 0 -1 -1
2201 1 15.497214742162091 16.764934529185737 7.85259472246219 0 0 1
2488 1 17.122857514824435 19.07294129456613 6.216245637088619 0 0 0
1006 1 0.5344313029274026 6.839038225648317 21.38630581108385 0 0 0
917 1 7.679144778531251 24.278971094444543 8.731764725159604 0 0 1
861 1 10.476479275180562 26.531676792983703 8.42530095790178 0 0 0
999 1 12.697032996211751 25.66670199010845 6.778188988993411 0 2 2
3767 1 13.652265194104752 22.40611780409954 5.5864519092785905 0 1 2
3971 1 2.1575443781737835 32.579700317606395 10.43292702991665 1 0 0
3405 1 3.6135469259289046 32.548751379002496 7.775633560418708 1 0 0
4273 1 6.768089757622938 26.905208432505066 8.52508734397502 1 -1 2
4039 1 8.672752497279518 28.968650486469404 6.996441413339065 0 0 1
1175 1 11.800112528397293 26.972051173886427 11.098514995926545 -1 0 1
4488 1 1.0800899086947398 13.252098279359133 18.40176133451465 1 1 -1
3952 1 5.236217039880967 30.31676030256222 4.95540040248338 1 -1 2
955 1 5.911048171368484 32.61821020216861 3.340587577844492 1 -1 1
2346 1 5.974576260554287 34.1398394380051 7.444981999932518 0 1 0
3871 1 10.129622581442772 32.654069520606356 8.617815096663561 0 0 0
3316 1 5.700313570487682 29.958285517224034 7.7863281656691745 0 -1 -1
451 1 15.08322923138963 27.53632286840565 7.357349071558242 0 1 1
2003 1 15.493889642325096 30.914145471276377 8.753540279079608 -1 0 1
2753 1 15.542564037182878 12.77123607421279 6.152260183742243 1 1 -1
374 1 5.234116332846836 34.978299476731834 4.998165232677183 1 0 1
2646 1 7.954770257141421 32.20436524929934 7.432557368833575 1 0 0
1782 1 8.893321908573064 31.211699885714193 11.669190670582552 1 0 0
3100 1 12.482892264207601 30.72330486122244 4.043514944595648 0 0 -1
666 1 0.5912513623659571 38.543847291116265 3.5142697922221204 0 0 1
605 1 1.5072136631499273 37.840993275116446 6.141648483731729 0 -1 1
2625 1 7.535120308341259 36.21886890956171 4.297841200910229 1 0 1
3544 1 7.708593054609372 37.21727671337145 8.125430901141572 1 0 0
182 1 9.256455926351189 38.830071140491214 10.116477299424094 0 0 0
300 1 7.452124104489914 38.89004368388511 5.75808312073792 0 0 0
159 1 10.714388510251808 36.88065933114636 6.729552921404407 0 1 -1
53 1 13.579583706595752 36.96997797570192 5.071954368574312 0 0 0
422 1 14.48461819053773 32.72198103004166 7.101172586022178 0 0 1
3152 1 0.7827422401940389 46.250341459631855 1.6125060365388895 0 0 1
1264 1 4.327660453742978 39.63656197363272 12.822804732228015 1 -1 2
3665 1 8.195911740119158 43.74460788513895 6.507027723326153 1 0 -1
118 1 15.398403798733067 41.529499472893704 5.412408229516619 0 0 0
942 1 13.335284423781776 40.141508941583155 8.902295171150255 0 -1 1
3649 1 0.15906296354915095 42.29150476770562 3.360427090216318 1 0 0
3054 1 1.5422415560910958 44.58975832129907 7.7845731823462305 0 -1 0
3255 1 4.688777640992891 42.30026999772244 5.642763140014431 2 -2 1
1527 1 8.75669247085218 44.917912686076434 9.739546251879505 0 0 2
4543 1 13.933670342448659 43.435738428102624 7.2560952779564 1 -1 0
855 1 17.408191116299946 35.43335588924313 25.124929720309048 1 0 0
3522 1 1.4140296612976004 46.85670823328989 8.861022561546962 1 -1 1
761 1 9.531322206938437 47.55388133259481 9.416042001722342 -1 1 -1
2483 1 10.25322231844793 45.69677578368726 6.9359074465487245 0 0 0
534 1 14.99344933665153 46.22859827734929 8.002086651005204 0 0 0
3773 1 4.065749413050861 2.086668040565615 9.418360978063667 1 1 0
3833 1 11.383973567570054 48.89110094363694 8.029596881983856 1 -2 -1
3857 1 11.77052360258057 50.81282565737963 9.710549680520804 1 0 1
635 1 13.715064564469174 48.169397778602956 6.951152037120474 0 0 0
1301 1 0.05729555806792397 7.75417865761985 15.62970813097226 1 1 0
29 1 3.3860730385039157 2.895662988843671 13.568086282481088 -1 0 1
1149 1 11.294065109185732 2.6343333263278685 6.377750303395479 0 0 0
1329 1 15.552657580010145 48.16976227225186 11.808574308130153 0 0 1
4584 1 6.911514574823528 6.234126473909472 10.014433840052964 1 1 0
1063 1 5.7872389325269955 4.294401149549026 7.988127932113084 0 0 0
799 1 11.446853271623137 5.160912720864751 8.049800933546793 0 1 1
1937 1 10.777882925918028 3.0464766583316503 10.71478062721865 1 2 0
1973 1 14.212324702474818 5.265557822540487 8.560604049468967 0 1 0
2143 1 14.47862219062428 3.932866483914735 6.103780762278858 1 1 1
862 1 16.974758905852955 20.314760309415053 22.29873090938168 1 -1 0
3831 1 9.929778364468126 5.5550667828953175 10.035926887172534 1 1 0
732 1 17.056543263705805 6.243987699355873 8.865705778868982 0 0 1
276 1 1.6918809894552518 47.02376481297378 22.276771822729224 0 0 1
3992 1 17.133116373544134 8.243040553832548 15.056907823049627 2 -1 0
1345 1 1.692840284260234 13.033072385575581 12.618787850547445 1 0 1
2014 1 4.096856786712149 12.891879464931867 9.912184979229608 0 -1 -1
3561 1 8.335360223025232 11.077619364919332 10.397827183329392 1 0 0
1230 1 11.545963748190148 11.972968814289997 9.960376939709 0 0 0
1107 1 8.457831793325726 12.962341228446785 13.627682496360123 0 0 1
503 1 13.358029560421246 8.324031125690956 9.733891523147175 0 0 0
110 1 16.51072530972253 8.370764893431975 10.655317466522854 0 1 0
3801 1 17.67427944849243 38.05274901644775 3.244814309802885 0 0 1
532 1 1.6728266085038435 13.594269097653257 15.495303044889415 0 0 0
1320 1 3.4050768622521455 15.013007204981504 11.873012219506146 0 1 0
4106 1 6.210177478634019 15.19230616110079 13.120752188422596 1 0 0
1491 1 6.685296119416393 13.386343029784566 9.140422651716134 0 0 0
4247 1 12.712454543578394 14.860202253398688 13.234532419228893 -1 1 1
3717 1 1.7989510016997095 19.820384001244385 11.955746377883155 1 0 0
3470 1 3.462545547937493 16.741761299028138 9.797057551623874 2 1 -1
3837 1 4.180583069392454 18.616039653741865 11.674742815571058 0 0 1
4214 1 6.718876989729924 17.21751084556568 14.583666902274116 0 1 -1
4399 1 6.793649297528209 16.945559844135264 10.912205590823751 1 1 0
136 1 10.98191712309233 20.786124555988497 10.528709080830799 0 0 0
2951 1 11.505630678599752 16.86685423758728 9.279659710355574 1 1 2
792 1 15.212828539900379 15.572869391072096 11.888802201665358 -1 1 0
2205 1 17.430236935388304 3.473969297486254 7.441467722365493 1 2 0
2407 1 3.7890933014778385 22.12761864666997 11.047476352303457 1 0 1
3074 1 6.58762865787533 20.580472890251773 11.359783446688898 1 -1 -1
3878 1 8.92075430612452 24.634463702628278 11.300631834321468 2 0 1
3235 1 11.739878240947954 21.407790119329285 13.473236310176059 1 0 1
3657 1 12.442344136753423 23.05066829341282 7.858091873891623 0 0 0
3806 1 10.756875583608725 18.56012034635384 12.625020855023037 0 0 0
1627 1 1.0068523247821377 24.79748016177062 10.570271831407796 0 0 0
4175 1 3.781660020028638 25.464018287772 9.661949969315616 0 1 -1
1454 1 9.261326143253012 24.090139299455334 6.406386523097333 0 1 0
3653 1 8.979109226607633 26.02152796684368 14.233697774273013 0 1 1
1623 1 13.3284950835923 20.508824476941793 8.831373302635154 0 -1 0
4504 1 12.72645860685926 19.12583963820589 6.40809641211197 0 1 2
1276 1 3.6452683295410413 31.25786786758903 15.133552345025603 0 0 1
1890 1 11.52515210836385 26.71553290938101 14.015157107682697 0 -1 -1
415 1 6.805371771145001 28.253580089160817 14.156461253069125 0 1 0
2805 1 13.923282425378929 18.182507706785017 10.473293725641055 0 2 1
82 1 12.851374678490266 23.985297162228605 12.923794407414011 0 1 1
784 1 15.873907788970804 16.689357623682856 15.785140119649315 0 1 -1
3053 1 3.907215210075404 34.211186440397626 18.998720696808203 0 0 -1
625 1 4.859262965988249 33.21386356051191 11.262721097165198 -1 0 1
1324 1 4.605086200885086 29.9026201744675 12.471024813606705 0 -1 -1
3955 1 10.289661291386388 29.264257603537597 10.858548220018688 0 0 0
2203 1 14.467075123094837 26.78111441550789 9.69759289553791 0 -1 1
3620 1 1.0722588422586987 16.32672726616583 21.300816077717908 1 0 0
419 1 15.702231642336383 20.435203266888067 24.96843919753099 -1 -1 0
1687 1 5.9148761049886565 35.76847584509882 9.620020105713321 0 0 0
1765 1 0.8198028346900832 33.90871605565033 12.288549237074864 1 -1 1
913 1 10.749301628861524 34.12831406941194 11.28028122487371 0 0 1
4186 1 9.734877060397856 35.47418651084911 13.079209838301782 1 -1 1
1724 1 13.55080968470197 29.558091938390078 10.26233241141373 1 0 0
1271 1 -0.06824316581833456 7.627539347167203 0.193865768822219 0 0 1
3025 1 3.128934934841644 36.703729038201445 9.512924065418854 1 0 2
2254 1 11.875334769296613 37.817053261430615 8.887978824895955 0 -1 0
2893 1 13.299889021190983 35.62490825956198 9.374686090063216 0 0 0
1990 1 9.514999627629358 18.57435259897971 25.216929230435905 1 1 0
168 1 2.593454349848818 39.12610650584581 10.63284793850735 1 0 -1
1947 1 2.4166000019466805 39.989551351170576 7.54191665467201 1 0 1
1021 1 3.672296215682046 43.02797729071155 11.552511311835916 0 -1 1
289 1 7.569930939582979 40.804617018944654 9.626311240194012 -1 0 0
1011 1 13.830292553220522 39.74257244705686 11.832043417785895 -1 -1 0
3061 1 9.847433847864908 42.28568712247048 10.184299459195366 1 -1 0
840 1 -0.12363796055923315 41.684146566846266 23.292136345979372 -1 0 1
16 1 0.25697924105281655 6.714825774817668 10.00314183955972 0 1 0
2101 1 5.190604741075736 46.95847946865092 11.312547942025896 -1 0 0
4222 1 3.026353534530225 45.41038627057938 11.773684984922879 2 -1 2
455 1 9.58549479838609 42.242062673807496 13.059109758959774 0 -1 0
1823 1 11.770473282013914 42.003538079623695 8.493856007256138 1 0 0
787 1 3.9450390106421045 43.11396355745552 8.584469802296132 0 -1 0
2061 1 6.097141026395454 44.908321652683284 8.173785232053623 0 0 0
1042 1 9.114515804542666 0.7090360107576408 9.850273662689904 -1 1 1
1842 1 7.767350408765175 49.448528004036916 10.262697555312833 0 0 2
1114 1 11.735494637784585 47.36458121925291 11.291864179779354 -1 -1 0
808 1 13.276477592944977 49.63138776825389 11.614619419481057 1 0 1
1256 1 13.73994302750454 45.75359192632446 10.445284792792314 0 0 1
2979 1 13.67856501650071 31.999258274297663 22.226673914701422 1 -1 1
1221 1 2.6614212771718724 50.85632112445967 11.122167472207341 1 0 1
2 1 5.782024893833447 0.9548365592160764 7.164533188708235 0 0 0
2732 1 8.669171174384857 1.2369476322397233 7.476724775324781 1 1 1
3374 1 13.278861122037016 1.4859991822318845 8.160432158236969 1 0 0
540 1 13.150689923619241 44.40629444259915 13.024081323511139 -1 -1 2
3594 1 7.2561193658000995 18.89940029768777 0.17893840956104837 1 0 0
3704 1 5.960630044034144 5.440106086033204 13.717183468754403 1 0 -1
1665 1 5.701446217636746 1.0594164155759151 14.360835396767017 0 1 -1
1415 1 5.2100318120828515 3.6651761525270747 11.63566856875918 1 0 2
207 1 9.604882833512901 1.692741375656478 16.26247551550998 0 1 -1
2267 1 15.178576762498336 3.046834940267372 9.699602943302502 0 -1 0
497 1 11.550770442832238 0.43489372908296403 13.02634861713067 1 0 1
2057 1 14.334942303082341 48.902505335288836 18.853378523966676 0 -1 0
2973 1 17.167841542631354 2.6658453806864215 11.973453015254602 2 2 0
1945 1 1.3850970777398894 0.009654469454910324 21.973554169427214 1 1 0
3464 1 7.961918452870707 7.447788813705253 12.559485965889268 1 0 0
4559 1 4.933009355119644 10.011489064669867 18.423292189582586 0 1 0
3500 1 13.08933204235628 3.208366185522483 11.780652783532098 2 1 -1
2803 1 16.46600001644588 4.439452682221195 13.901125574784196 0 1 2
2848 1 13.727774859238309 1.5599012146875835 14.641325966404441 0 0 1
282 1 5.166171550607984 12.864957077160344 14.518657622576898 0 1 -1
1228 1 7.038866294003537 10.719500808077573 12.80506032652761 0 -1 2
3007 1 12.915870486206407 6.431854481703432 11.844016743065007 0 1 1
178 1 16.566711373578524 48.533482137112614 14.138512103995964 1 0 0
430 1 11.453409321789175 44.905946696627325 2.2400444397768493 0 0 1
4533 1 10.994221138072053 11.475311360372364 12.711123098144542 1 1 0
2452 1 4.267622013514208 17.545292288123388 15.86854516242208 -1 2 1
1581 1 4.586130499488211 13.008719730446874 17.158612721377175 0 1 1
679 1 11.044728428768236 14.820487120042072 10.9649373056863 0 0 -1
1280 1 14.715971374348822 11.72963626070355 13.553429903371217 0 0 0
138 1 12.763078785910503 12.375934584756239 15.465425877061588 -1 -1 0
3474 1 9.985415124614647 8.68024818301626 11.211526956462809 0 0 -1
1704 1 14.736126833288779 13.992117637470134 9.387883846772919 0 0 0
3276 1 17.24367063302772 6.143383690587542 19.881396269399332 0 0 0
3521 1 2.3508947146216634 17.161625925101855 13.848372139370383 0 1 -1
1038 1 11.260098323785831 10.683966903423087 17.265502479941333 0 0 -1
2981 1 14.87221203009195 14.300505334874895 18.58836052172568 1 -1 1
3095 1 13.971094492947664 10.9610435990332 10.760637205968177 1 -1 1
3027 1 3.2249338820223894 20.270533266634903 15.21762904891777 1 0 -1
3840 1 9.387704068822964 13.272928317882368 16.097362652849654 1 -1 1
1822 1 11.188034705698964 16.71139924041303 14.822729171322292 0 1 0
3317 1 9.03126480929571 16.055910458094854 16.644206088058503 0 -2 0
1177 1 3.3334622820899518 23.19862653145478 15.290981925304587 0 1 0
3639 1 7.048545741271066 23.045314138175353 13.033126215933837 1 1 0
1103 1 6.456174641997434 23.62217725469711 16.268134473981966 0 0 -1
338 1 10.32695501543652 19.745221481948015 17.1258640905941 0 0 -1
2491 1 7.921517299201364 19.22023858930475 13.01474768620147 -1 1 1
3749 1 13.59422935204109 18.301643104442658 15.219051706289335 -1 -1 -1
4353 1 9.161613251665628 27.099327306093226 22.938709966089867 1 0 1
550 1 4.700940873532898 24.114006172995836 13.077434229051 1 0 1
3451 1 7.0121923237576915 28.448405102690387 18.370801353605934 0 1 0
2515 1 11.590228804092282 23.830878681751194 10.410812521569603 1 0 0
2243 1 4.7378548690899605 28.107479522886962 16.140078878790817 1 -1 0
2445 1 13.97017393837105 25.67519990205726 15.320374465603154 0 0 0
882 1 12.264509032192658 26.556049965023973 20.089716055380727 -1 0 0
903 1 13.423238842730289 41.499966112651975 23.9486686185331 -1 0 0
1592 1 12.70059986158769 20.989069164301757 16.126278278334492 2 1 1
167 1 5.144094541251795 26.555530707406955 12.012263408472455 1 -1 0
3077 1 2.5879654292570775 30.143707456278012 17.116807605073245 0 0 -1
2740 1 9.54854879793918 24.61752787229926 17.610292132044595 0 0 0
2409 1 7.96471760120574 30.744890086796346 14.293096233323828 -1 1 0
3398 1 14.410593594406572 29.008488623413935 14.956375949678062 2 1 1