LAMMPS data file via write_data, version 29 Oct 2020, timestep = 100000

8500 atoms
1 atom types

0.2681046267766405 104.45251866639316 xlo xhi
-0.37841326273310827 50.66325859175356 ylo yhi
-0.37841326273310827 50.66325859175356 zlo zhi

Masses

1 18.015

Atoms # atomic

1588 1 0.3618134786225713 0.06295351158404833 1.3638835386619488 0 1 0
1652 1 5.141454965952859 1.7172021531450006 -0.3457000869316365 0 1 1
1882 1 6.574031583462754 0.0801858600615567 1.519344998205581 0 1 0
39 1 9.359596986324037 3.091124434608222 2.5426861364268754 0 1 0
1600 1 11.137680678523688 2.181313551219667 0.030664962656747285 0 1 1
66 1 12.614988512731298 0.2015732442870849 2.26558056969841 0 1 0
1528 1 17.357118633347298 1.2855784225981797 0.1164533715041931 0 1 1
2805 1 22.393639744587414 2.77587765948142 1.524936082324106 0 1 0
2689 1 24.17763973203427 1.3421240456779533 0.3942750110399166 0 1 1
1391 1 28.5473735340667 3.029226433261785 2.4411695421361346 0 1 0
2705 1 30.420047952867353 1.1693145491517032 0.17650565316243394 0 1 1
3597 1 34.96016130223422 2.6304296715489603 2.5368492221293844 0 1 0
1499 1 1.7942893190811156 4.561815848691506 0.39663987269015766 0 1 1
300 1 3.686327148753002 3.1781122722013517 2.2984411896610015 0 1 0
1474 1 8.011456048671867 4.576163114725538 0.29054016766317936 0 1 1
1382 1 22.03142476864447 44.6654190145304 24.10214224559304 0 0 0
1659 1 13.22510236226749 5.844403930593063 1.5134515857324284 0 0 0
185 1 15.967439677759826 3.344125189098949 2.2797381121901306 0 1 0
2527 1 20.720884117630415 4.326681914305167 0.14204885419141167 0 1 1
2461 1 26.5109918083213 4.83079664262773 0.2907159798787836 0 1 1
1390 1 31.69859996459175 5.979828611518217 2.3680408864307556 0 0 0
2305 1 33.06490734059899 4.355488763384632 0.2381362732748019 0 1 1
7668 1 0.5288760223789105 33.78808254040452 1.5133631309404914 1 1 1
2057 1 4.974755673032185 8.278650187685548 -0.1180714923883514 0 0 1
74 1 6.531465578995715 7.004766557239758 2.46200867601756 0 0 0
2060 1 11.500750070761397 8.248982425817964 -0.028649072696974254 0 0 1
2064 1 17.4060534290426 8.842320211648214 -0.18530248700422064 0 0 1
2834 1 19.2686985632799 7.162423378855062 1.4737154359247724 0 0 0
2760 1 23.83394365063874 8.412550718303972 0.39404966488739723 0 0 1
2762 1 30.137798267277784 8.485240554015768 -0.19774342029437053 0 0 1
2165 1 3.3284964101043255 9.630942458680403 1.4910753612379455 0 0 0
2066 1 2.2441955763401547 11.776489152008297 0.21123082760510836 0 0 1
1470 1 9.700355034499795 9.890469511909005 1.305610902181902 0 0 0
2071 1 8.422658150097028 11.646163735244626 -0.12447251495025302 0 0 1
2162 1 15.810279815098783 10.085198758518876 1.5401884544862678 0 0 0
2072 1 14.53924345670267 11.970840193497084 0.059639074368947664 0 0 1
2827 1 22.233989615962727 10.086509402505987 1.518266864457561 0 0 0
2766 1 20.668611869049872 11.685402539126258 0.2058699986676764 0 0 1
2767 1 26.940307740784142 11.352585246145583 0.0052363857047365014 0 0 1
1397 1 28.40479435188405 9.8987334275396 2.320945341869122 0 0 0
2769 1 33.184802846440334 11.287494785188194 0.23318926833267406 0 0 1
1393 1 34.67422455710548 9.86066469048831 2.3344246816717376 0 0 0
2077 1 5.088623564633294 14.467867372869378 -0.06217719136472244 0 0 1
2080 1 6.7462319715617145 13.096537060553764 1.3766507277203026 0 0 0
2079 1 11.239644855208773 15.037818067062355 -0.18120343871781033 0 0 1
1890 1 12.975790714730563 13.664502225300218 1.2741521618474008 0 0 0
2082 1 17.835695160060805 14.678931924021674 0.1738083073144907 0 0 1
748 1 18.845053219718622 13.056053795355254 2.608107142544785 0 0 0
2828 1 25.089112491616092 13.037334870568522 1.3756380796602834 0 0 0
2772 1 23.75053727346949 14.743852824306703 -0.1499597139985888 0 0 1
2773 1 29.968843186499452 14.621403658174064 -0.021531193083791145 0 0 1
1398 1 31.568552041969728 12.909971071709471 2.2929223795889824 0 0 0
2084 1 2.070465886953899 17.868306711162038 -0.007028791324549644 0 0 1
2147 1 3.5182207565678256 16.03386271142832 1.4097971708021981 0 0 0
1506 1 9.624995754163002 16.144793707927168 1.5181560048848635 0 0 0
2086 1 8.259073140800538 17.835951525584846 0.20465871349377351 0 0 1
1926 1 15.802919247243649 16.38946017566186 1.5380988909823154 0 0 0
2088 1 14.196378997800469 17.987234099702555 0.14746116892238814 0 0 1
2776 1 20.546254220010233 17.611990250352793 -0.09700083885995825 0 0 1
1396 1 22.078246095650698 16.164984855245617 2.277997662520141 0 0 0
2344 1 28.23513364494974 16.087508971035074 1.3462431634196232 0 0 0
2778 1 26.874976922626 17.827057460107262 0.011687267296170811 0 0 1
2779 1 33.50728212663895 17.314643825691423 -0.10683379834761819 0 0 1
1401 1 32.20466135120299 19.074182208743956 2.3208696631973904 0 0 0
2092 1 5.062753867050279 20.88772511287275 0.18702325484343585 0 0 1
43 1 6.674747398557381 19.392543602407173 2.600514878865056 0 0 0
2093 1 10.768271368066081 20.99870965528383 0.10032092089248529 0 0 1
67 1 12.53825162617064 19.621621407936395 2.450521914639925 0 0 0
1482 1 19.10961290336244 19.384849554251854 1.4483601675235032 0 0 0
2097 1 17.319132577075926 20.877611976150092 0.010173801801024451 0 0 1
2781 1 23.62100481422998 20.734242921651123 0.20997581178042557 0 0 1
1400 1 25.381283770653816 19.407621365039976 2.2804130936498557 0 0 0
2782 1 30.246823024728965 20.67674108681056 -0.05863161498001024 0 0 1
2156 1 3.197380673363849 22.407526697676122 1.519860929980246 0 0 0
2099 1 1.6928103201215416 24.101257765346162 0.04660676250385526 0 0 1
2102 1 8.064348978746544 23.902437323065428 0.20498694922112337 0 0 1
1422 1 16.00288304165796 22.544645715727984 1.5346791738963803 0 0 0
2103 1 14.223124438635763 23.966186052961376 0.2645687090318104 0 0 1
907 1 19.179347601159574 25.429365225607732 2.4324168975606795 0 0 0
2836 1 22.099236811275667 22.296291984963304 1.5806259095488062 0 0 0
2785 1 20.40676913840678 23.724158208762056 0.45900141775622105 0 0 1
2448 1 25.33458411137895 25.428575629507865 1.3510345831250947 0 0 0
2787 1 26.772415229830894 23.78131811961486 0.02696401372993229 0 0 1
1394 1 28.54996341057602 22.405178109070818 2.495310287837913 0 0 0
2790 1 33.3658864687547 23.260441836307358 0.3116840814884161 0 0 1
2833 1 32.11731112982984 25.428168042732402 1.4391930126851566 0 0 0
1230 1 34.57202135737867 -0.3390920593654442 24.320048916706465 0 1 0
2100 1 4.780347143326917 27.254797841968212 0.16644199410618787 0 0 1
30 1 6.677182157349922 25.79876054167362 2.52231101496607 0 0 0
2110 1 11.076642581570473 27.383378900001258 0.023222457243216088 0 0 1
19 1 12.710636199398582 25.678269019718112 2.407836769367313 0 0 0
2105 1 17.573898420864754 27.058902569347612 0.14414897765552093 0 0 1
1147 1 22.007726749961634 28.49600481285102 2.399543766936089 0 0 0
2794 1 23.332076815681177 27.14499720723295 -0.12744123192675438 0 0 1
1399 1 28.50810276455186 28.657609881525584 2.4915006096636434 0 0 0
2789 1 29.969853461966053 26.942281954679324 0.045508298957185056 0 0 1
2115 1 1.416908545769639 30.85942791506377 0.36100433403432863 0 0 1
393 1 3.395858849360465 29.200744924904203 2.408635829104951 0 0 0
2109 1 7.733119058512358 30.665066918935462 0.08109905590257405 0 0 1
593 1 9.450576295763138 28.99712793580785 2.351733998639254 0 0 0
2120 1 14.367506146410204 30.33663752554704 -0.04422585930554884 0 0 1
81 1 15.857102317370305 28.79202563925938 2.406793011629369 0 0 0
2474 1 19.23928806512059 31.574772577841063 1.2280079005996138 0 0 0
97 1 0.2938100204674825 9.568044370708227 18.194446105441823 0 0 0
2796 1 26.909902234014332 30.50176719148153 0.26354463043408705 0 0 1
763 1 31.614674073451464 31.658940106410018 2.2658301487448225 0 0 0
3109 1 0.4177028680835796 44.151328470484685 21.412234336705854 3 0 1
858 1 34.4377867252177 28.91693960063421 2.461375448114209 0 0 0
2117 1 5.1294586531166155 33.56975586834051 0.17685643242322058 0 0 1
2018 1 12.783708769647998 32.12425260534542 1.3643575227630278 0 0 0
2119 1 11.313364055015436 33.73581602821275 -0.05965151470427382 0 0 1
2123 1 17.684668891435397 33.68758157043085 0.15525753714489599 0 0 1
814 1 22.02297382911602 35.035291665642376 2.5951197006356703 0 0 0
2802 1 23.662409900895497 33.54357386837346 0.2426584452435604 0 0 1
783 1 24.941813831881642 31.94135644030001 2.431362148950756 0 0 0
1392 1 28.59826879281227 35.03132505563465 2.334428515752719 0 0 0
2804 1 29.90448236088325 33.17843414987132 0.06627496436401104 0 0 1
2124 1 2.19474089423725 36.706859231541685 -0.14278980861390156 0 0 1
340 1 3.3984563633962575 35.11361514167848 2.522556224667885 0 0 0
2126 1 8.052072218282202 36.65599365482757 0.2998134835702184 0 0 1
430 1 9.747293323037487 35.24333935807287 2.27466540188939 0 0 0
683 1 12.856403943669317 38.21229794483634 2.4973305916130824 0 0 0
2128 1 14.436870391832983 36.733361525971304 0.19836604540499914 0 0 1
1463 1 19.100636394887662 38.22331721179002 1.4322564236911992 0 0 0
24 1 16.184063188150724 35.35622267317507 2.557388159425224 0 0 0
2807 1 20.794321599430035 36.63084701960557 0.09901169611831728 0 0 1
2808 1 26.79168376133414 36.60080313268743 0.2676172019792824 0 0 1
2832 1 31.889612616087216 37.88736294563397 1.4213449988156759 0 0 0
2810 1 33.28805068919322 36.527794392726264 -0.29042729729823274 0 0 1
774 1 34.60341205573992 35.23408778870663 2.2768331425861863 0 0 0
1560 1 0.6471687790823033 38.29763270176653 1.162479831967686 0 0 0
519 1 0.322314713350094 19.04214882096268 21.386298646488978 0 0 0
2132 1 5.052838330485827 39.94445743077071 0.2011594578907926 0 0 1
2134 1 11.195645361077869 39.927780671922804 0.11961306611263933 0 0 1
71 1 0.31318061318672835 5.944122923432155 14.898835706661599 0 0 0
2815 1 23.58561900131421 39.792755213781945 -0.12130726022597038 0 0 1
2829 1 25.623681167763944 38.45858756279985 1.5611104039203267 0 0 0
2817 1 30.31538929638661 39.73994477875371 0.0852963623046672 0 0 1
2070 1 2.011049051893119 43.44459255759048 0.10636913421992755 0 0 1
46 1 3.600527706722821 41.56404289881361 2.3892537240015574 0 0 0
1607 1 6.60352636613875 44.572867410000796 1.4142877107691616 0 0 0
2094 1 8.390762260812451 43.44880969589508 -0.07308968408548211 0 0 1
59 1 9.593430637292439 41.48276944805521 2.3517859818046807 0 0 0
2039 1 15.839986977683619 41.7662958388393 1.4828409240686975 0 0 0
2065 1 14.613113799092442 43.45359408930706 -0.24681451626326667 0 0 1
1712 1 18.74893504839237 44.52450843350415 1.2825734372554756 0 0 0
2820 1 20.795535882593775 43.197009219070424 -0.03810486309129002 0 0 1
1357 1 22.073349649412275 41.67326689548656 2.3438229291180646 0 0 0
2266 1 25.24654422945163 44.60896952411562 1.3444250264048176 0 0 0
2312 1 28.508622377909774 41.57789340279378 1.463923360213446 0 0 0
2758 1 26.826490868165237 42.921800153243495 -0.10789319611394255 0 0 1
2286 1 34.75141629564489 41.683828010993864 1.5222450630534852 0 0 0
2800 1 33.20624337451324 43.16614159273834 -0.20347373723852824 0 0 1
1361 1 28.69017840634332 50.58493942642795 23.812410291296835 0 0 0
2130 1 5.02811180977259 46.35507325096435 -0.029533092527321947 0 0 1
2118 1 10.831043616061642 46.12933044553908 0.08131573129759756 0 0 1
103 1 12.705888937729144 44.62119255191472 2.2869200437306265 0 0 0
1478 1 15.563885984965463 47.73806236654056 1.3385581472084882 0 0 0
2129 1 17.039631773192276 46.00149855407635 -0.06021120982110223 0 0 1
2672 1 22.422003448990374 47.492959391899674 1.4278541171225085 0 0 0
2784 1 23.878502868176554 46.06374002034664 -0.29828039171518306 0 0 1
2228 1 28.163365415481593 47.69526147727221 1.116993352360384 0 0 0
2231 1 31.627946298764535 45.040300991733176 1.4248393265404806 0 0 0
2812 1 29.905664442100033 46.170774277491375 -0.13219887101235922 0 0 1
15 1 0.2820754956501669 35.18349196686707 24.04943861198602 0 0 0
2058 1 3.5536949354086493 47.95732445179766 1.502541554997225 0 0 0
1863 1 8.059951857251113 49.90261520210245 -0.04978540448627927 0 0 1
157 1 9.090576191400434 47.902761256021435 2.3462317002239894 0 0 0
1745 1 13.957970857558145 49.52906399119752 -0.13144313794407217 0 0 1
9 1 19.03000772172121 -0.20247296759114078 2.298409435101164 0 1 0
2662 1 20.498505297656372 49.356517190519824 0.18826469557330106 0 0 1
2821 1 26.821289642659192 49.35098541618274 -0.24239302455904557 0 0 1
2563 1 25.646140248442023 -0.37683933890660415 1.5650852325852782 0 1 0
2818 1 33.40346474030424 49.04986161920547 -0.0062181087488403786 0 0 1
896 1 31.908604259525262 -0.3462156196264512 2.5443125654612615 0 1 0
104 1 2.0901085491769167 1.4045252556200094 3.863871899446176 0 1 0
77 1 0.5330032669245132 2.844046287657592 5.756928146856625 0 1 0
105 1 3.6643886756801325 0.03220362200398569 5.303144851366283 0 1 0
106 1 7.738812604537106 1.7143809641770806 3.844867351712491 0 1 0
107 1 9.1333375038981 0.1694946899921389 5.394072294389441 0 1 0
108 1 14.223849768531586 1.6838794751608162 3.9305828761165893 0 1 0
110 1 15.607982600020714 0.2893292620617359 5.412517919667557 0 1 0
844 1 20.351947469451495 1.5559450249531515 3.683664365663721 0 1 0
845 1 22.1422835741023 0.10560680793672894 4.993371875774609 0 1 0
852 1 25.33954649902618 2.825792267337307 5.287995259198641 0 1 0
847 1 26.741529026613073 1.2112739089744151 3.792615659888831 0 1 0
856 1 31.89711457168427 3.0400010073953814 5.144430714291152 0 1 0
849 1 33.48473643196096 1.1340654587568633 4.29915520785576 0 1 0
113 1 4.967364584719436 4.972197650177026 3.8980490332007864 0 1 0
112 1 6.753236562803879 3.5824380145625105 5.367940955958077 0 1 0
115 1 11.403413153848033 4.580576105011302 3.750359871132657 0 1 0
109 1 12.7225908048293 3.406313009647935 5.635302623218185 0 1 0
117 1 17.4210445644439 5.030798984140208 3.6743416539877245 0 1 0
282 1 18.955555632828187 3.317504804388181 5.587275264469528 0 1 0
853 1 23.716464606134135 4.403741490351675 3.9516939002584497 0 1 0
855 1 30.004945298819035 4.393440557990856 3.885934235999322 0 1 0
864 1 34.739981034869984 6.108553436014438 5.519163945006123 0 0 0
1 1 1.693670732886831 8.517909125181292 3.8463518452911707 0 0 0
2 1 3.3862936282966403 6.999280850833976 5.662687236173384 0 0 0
4 1 8.36043904303863 8.501089580812968 3.858123245020807 0 0 0
5 1 9.873317314013494 6.848358607800822 5.426065434037981 0 0 0
6 1 14.00726089939512 8.647375879053081 3.761285343062567 0 0 0
116 1 15.656921828928963 7.078706836175972 5.4015509016373136 0 0 0
851 1 22.019825922597494 6.828406154439019 5.409175144778456 0 0 0
762 1 20.734132247586 8.587183872103664 3.8789112671814214 0 0 0
1315 1 25.196643784358002 7.076183972841222 2.6185602028518695 0 0 0
854 1 28.64038105493951 6.824299794517303 5.387612859670934 0 0 0
765 1 27.06835927180524 8.537547304007322 3.927525585647759 0 0 0
767 1 33.256657591005414 8.447223860624815 4.00155283400542 0 0 0
385 1 9.43934937939182 -0.288100985979203 24.264564183699132 0 1 0
11 1 4.92526080581645 11.360202575532668 3.643661299981577 0 0 0
3 1 6.983365348859063 10.183282101831812 5.392997898356598 0 0 0
13 1 11.333655186896 11.767744317695868 3.337672066844497 0 0 0
7 1 12.435933190785777 10.280548960268858 5.3849211821448115 0 0 0
759 1 18.85657582233758 9.938561538912008 5.424544504688073 0 0 0
16 1 17.076689770386402 11.438581694452251 4.051700096561078 0 0 0
771 1 23.8722616761338 11.500509127048531 3.680065906424474 0 0 0
764 1 25.371529223592887 9.84631956151876 5.5868532272484694 0 0 0
768 1 31.56823500012841 10.301842837542688 5.182784020510887 0 0 0
773 1 29.916155115889605 11.724180895715921 3.7583580650027644 0 0 0
18 1 1.7772257353254757 14.519211710675235 3.7340088810354706 0 0 0
10 1 3.4746085177268147 13.050552623654958 5.316661546615309 0 0 0
21 1 8.248810078897176 14.61999179618104 3.6895613595111207 0 0 0
12 1 10.074225241946683 13.191318389960433 5.168037969837328 0 0 0
17 1 15.53252097299497 12.91886176137613 5.4143674857926225 0 0 0
22 1 14.401207888768008 15.141652921821901 3.8229208564538757 0 0 0
775 1 20.512321034583742 14.534935677401295 4.064784735699277 0 0 0
770 1 22.181582485516053 13.31875930371168 5.448676436806336 0 0 0
869 1 28.46511449454608 13.276420322205846 5.368025113657783 0 0 0
776 1 26.558392768704028 14.642329546324163 3.805034161717316 0 0 0
777 1 33.08995504955603 14.655855147048166 3.992549297485448 0 0 0
27 1 5.124959222514742 17.438125780468255 3.7868032371279705 0 0 0
20 1 6.775103048669353 15.9853703260802 5.401027687838342 0 0 0
23 1 12.75662741315714 16.584561503204036 5.29984139660647 0 0 0
28 1 11.184383960293356 17.79232286896278 3.7277201466486334 0 0 0
31 1 17.538072382015034 17.800853805180687 4.061508791576103 0 0 0
760 1 18.911724638535887 16.01103335588721 5.446040434019287 0 0 0
780 1 22.03713245887135 19.05314022488171 5.430415231178982 0 0 0
782 1 23.72609311520368 17.841421221497942 3.6734619955872905 0 0 0
874 1 25.134499576532374 16.179949682832596 5.450851372611588 0 0 0
778 1 31.496639191760924 16.433587445383438 5.277583179075845 0 0 0
785 1 30.034589453873046 17.414054272327476 3.5804055471025373 0 0 0
26 1 3.1416523271176 19.24550483460331 5.1761122575775875 0 0 0
33 1 1.642328022400926 21.079169519375267 3.720412930944595 0 0 0
36 1 7.79739367865766 20.91023832392712 4.458192531719947 0 0 0
29 1 9.697365773424208 19.16377706217357 5.702816353491366 0 0 0
37 1 14.362750639996595 20.933044251788232 3.8235366057540583 0 0 0
32 1 16.19235340020471 19.401862181017613 5.411395025033035 0 0 0
632 1 18.742224600092115 22.17419623783327 5.370170151230321 0 0 0
786 1 20.661610476729216 20.634611694980755 3.636236943678356 0 0 0
788 1 25.355503272486473 22.188309122996028 5.466012986789226 0 0 0
789 1 26.929278429990216 20.80424247501312 3.8178136751096146 0 0 0
784 1 28.97954436676641 19.225248078523276 5.422543067614667 0 0 0
791 1 33.60564966961757 20.60089055763339 4.167949708906669 0 0 0
792 1 32.05406219338505 22.186798383906112 5.491516081889322 0 0 0
42 1 4.637582990241425 24.315316766889463 3.940903342249624 0 0 0
35 1 6.27462392082611 22.969057413337296 5.686555912369795 0 0 0
307 1 9.489675444381154 22.48464418688938 2.914381455158169 0 0 0
45 1 11.255206821362664 23.9933386281877 4.116279165657967 0 0 0
38 1 12.855264510848512 22.539461229152465 5.504721192529644 0 0 0
48 1 17.307155370847983 23.981391818775098 3.848695705201578 0 0 0
794 1 22.348960030335544 25.126561291330955 5.449313942933274 0 0 0
796 1 23.765954915391923 23.676710233982554 3.612590697530382 0 0 0
798 1 28.2444283684661 25.456623257570676 5.711224582288542 0 0 0
799 1 29.934598504925084 24.043200959502364 3.9320976337193123 0 0 0
40 1 3.259975702299983 25.803948990703788 5.3111475904075585 0 0 0
50 1 1.554240484022109 27.588821013018222 3.8955808418816726 0 0 0
54 1 8.122619798520978 27.52204983194391 4.106267693106131 0 0 0
44 1 9.641663525623185 25.792949070643044 5.573823308452645 0 0 0
56 1 14.351409803693034 27.233358809080563 3.8776718599175313 0 0 0
47 1 15.614106556118706 25.701100824308835 5.779880527478185 0 0 0
756 1 19.043755723920818 28.62295468001817 5.678059566832923 0 0 0
795 1 20.70895716762808 26.86610993915386 4.1682908412611885 0 0 0
804 1 25.28149330247681 28.530627281386764 5.454236740306501 0 0 0
800 1 26.93453771050399 26.809209181414726 3.961357296495768 0 0 0
807 1 31.41523793143368 28.46054431192672 5.532713097838655 0 0 0
806 1 33.04460860607904 26.9531599021938 4.262528112727006 0 0 0
640 1 4.743322930583401 49.23165892326978 22.543603414606373 0 0 0
1297 1 30.35826858499704 49.20727448275895 22.165386899554754 0 0 0
53 1 4.812465478545931 30.86923666576494 4.013142716530116 0 0 0
52 1 6.322207802211986 28.880561874044485 5.451765338120829 0 0 0
55 1 11.53491059462871 30.292093939961468 3.663119487010145 0 0 0
57 1 12.678367245282029 28.779221662578074 5.549655706822823 0 0 0
64 1 15.86923932757978 31.537255208316168 5.658102901851559 0 0 0
58 1 17.579534396020936 30.188774193553343 3.90176308477613 0 0 0
805 1 23.705240853678433 29.96179047022364 3.72628563875827 0 0 0
810 1 30.016020876121967 30.120664704099397 3.7243091060272606 0 0 0
65 1 1.745783725756038 34.011756111127724 4.298810934966941 0 0 0
60 1 3.1486356383669665 32.01809499400845 5.6147686797244685 0 0 0
96 1 6.49452653310394 32.178261488195645 2.72487541870073 0 0 0
61 1 8.343290918760001 33.603246220819344 3.7462412637183826 0 0 0
62 1 9.93575150705866 32.106995772381495 5.297578101384355 0 0 0
63 1 14.74177289499087 33.759276673392804 4.109508873847842 0 0 0
809 1 20.695868857840093 33.22046094967811 4.148172557501334 0 0 0
808 1 22.64582974313968 32.00660716350728 5.320420141172276 0 0 0
811 1 26.806753001749207 33.36871314121535 3.900487484249706 0 0 0
812 1 28.452769621556413 31.980107239503905 5.459955652197002 0 0 0
820 1 32.823113294428666 33.62244209121903 3.6313172874838138 0 0 0
813 1 34.5168596327297 32.03931239892944 5.785689743391978 0 0 0
68 1 4.725399649537094 36.67733160089735 4.3876710709108195 0 0 0
111 1 6.282086557261964 38.04258003554334 2.6645879021632486 0 0 0
78 1 9.459492766737348 38.179548976104584 5.523996941572241 0 0 0
72 1 12.88343365294064 35.11634842041583 5.309075694162349 0 0 0
70 1 11.54858094678111 36.815553725599344 3.9539889419057346 0 0 0
73 1 17.847538226689675 36.881459719206376 4.300006231158177 0 0 0
802 1 19.37234545858592 35.11984937052475 5.594778722870576 0 0 0
818 1 24.130472514032807 36.815344331326216 3.76691599102033 0 0 0
817 1 25.66353366681892 35.21664123223624 5.559834372855177 0 0 0
819 1 30.32299640113556 36.43385368409734 3.681641343709063 0 0 0
821 1 31.603911217658748 35.341672506589205 5.518863491623869 0 0 0
75 1 1.9754906742742067 39.85151280830513 3.9422924019149317 0 0 0
88 1 0.4740114658372315 41.396071943332416 5.564731074029683 0 0 0
84 1 6.523354930319543 41.26061898749664 5.437037983924088 0 0 0
79 1 8.078996842529563 39.8411773899161 3.763596151885248 0 0 0
80 1 14.5221675113001 40.095740146550796 3.854016123276428 0 0 0
82 1 15.813562931931305 38.34115556850948 5.514380834161928 0 0 0
790 1 19.14391903520219 41.39813348401857 5.104042685860189 0 0 0
823 1 20.758757708726186 39.652197579770856 3.469494017659609 0 0 0
822 1 22.646305246864706 38.469689260942516 5.1287257247115665 0 0 0
825 1 28.51831282325819 38.27735103917543 5.209559488389167 0 0 0
829 1 25.584309956620665 41.40913032027029 5.244781811467673 0 0 0
824 1 27.091726246525354 40.007721096776706 3.9931188008810503 0 0 0
827 1 34.66770472273608 38.54352400460375 5.225689319204753 0 0 0
826 1 33.178118251294286 39.888034826211 3.786523013228816 0 0 0
83 1 5.225778919342533 43.021974451085384 4.037059412766835 0 0 0
85 1 11.30918743614108 42.82756384402467 3.8450441471006753 0 0 0
86 1 13.112872149115645 41.654565252325426 5.715094378251388 0 0 0
87 1 17.752692697070504 43.085164192392426 3.6185484446206964 0 0 0
834 1 22.05721491252308 44.32548641679331 5.306237100765881 0 0 0
828 1 24.024467465960786 43.08355164579142 3.701540012239054 0 0 0
831 1 31.59814616171052 41.57556879422144 5.2035333217852635 0 0 0
830 1 29.919824140572945 43.50435677709605 3.5232623045847933 0 0 0
89 1 2.0435234169039624 46.39852644929046 3.737580394070404 0 0 0
402 1 0.6606952848565881 47.80044932448327 5.467102971118168 0 0 0
90 1 3.467895655587678 44.736716609492376 5.450399058628419 0 0 0
92 1 9.508470126159022 44.661952538799724 5.29882953370253 0 0 0
91 1 7.861892433183274 46.33692314187047 4.036499760571164 0 0 0
93 1 14.10366431532735 46.31869132752405 3.699945845433426 0 0 0
95 1 16.130936438895198 44.88312632607911 5.248201159872069 0 0 0
833 1 20.72603597659006 45.94751122563625 3.7247787871363096 0 0 0
803 1 19.54838162252913 47.76797955270514 5.226449938592581 0 0 0
836 1 28.421621438897883 44.77249134566473 5.179361898338714 0 0 0
835 1 26.662237858049448 46.424647360571 3.680665345745582 0 0 0
842 1 31.613568653275575 47.65977721619623 4.911171671531251 0 0 0
838 1 34.81561042614708 44.646341572652176 5.4328799868609945 0 0 0
837 1 33.40728799379271 46.52545320859457 3.438198793881553 0 0 0
98 1 5.367070194524048 49.67937330478355 3.6222021854051283 0 0 0
99 1 6.244351251185281 47.91551198614883 5.44237193024109 0 0 0
101 1 12.237480895092542 48.12705352265802 5.283710275232715 0 0 0
100 1 10.810702235736663 49.74125393170465 3.4667539764839868 0 0 0
102 1 17.293745395819005 49.09224072944477 3.78315778680766 0 0 0
840 1 25.198138260288747 47.982861765092906 5.221299374224285 0 0 0
839 1 23.608944422086413 49.49130030141325 3.5451952442710293 0 0 0
848 1 28.626009063469894 -0.1459965034411574 5.3440233062065845 0 1 0
841 1 29.65814790006542 49.259893510078655 3.609046248832003 0 0 0
850 1 34.80348563033128 50.608631243970635 5.645414334548936 0 0 0
741 1 0.8625925612595132 0.043858280241730996 8.58798352258788 0 1 0
208 1 5.196848148015387 1.7151899806233701 6.9580213399783215 0 1 0
207 1 6.521667621374059 0.07844978765257332 8.19726419425567 0 1 0
213 1 3.7950592532792835 3.0591015704127584 8.756833181889265 0 1 0
209 1 11.152991055740053 1.71493679240439 6.9298569206246885 0 1 0
210 1 13.095521720066786 0.3268813304265984 8.649451440975248 0 1 0
211 1 17.32862775759714 1.8719782627323904 7.03957192700793 0 1 0
745 1 19.09694006073839 0.39967051571224743 8.519341356145704 0 1 0
935 1 22.462696741522013 3.079634374398949 8.328039780365021 0 1 0
937 1 23.917167801369 1.3186970541289367 7.0213450521897425 0 1 0
939 1 28.547401345914295 3.132654980557942 8.568738592630575 0 1 0
938 1 30.21162055768321 1.6913529673845464 6.7597074555595595 0 1 0
214 1 2.005937351551108 4.570584423799353 7.285380370323376 0 1 0
216 1 8.131893679859509 4.94833287586322 7.02011991559979 0 1 0
215 1 9.490018601273674 3.547124687286999 8.817057777141775 0 1 0
218 1 15.800093788045304 3.3130232188881674 8.601699750633843 0 1 0
217 1 14.198245711380512 4.97589125813197 7.111817284459265 0 1 0
941 1 20.64842496418185 4.891662525031435 7.087846649549481 0 1 0
943 1 26.930758179106633 4.503612552163053 6.748102883937194 0 1 0
863 1 31.785742021437578 6.082075354260595 8.414491378744104 0 0 0
944 1 33.2181132893149 4.33329866163747 6.997199123296866 0 1 0
212 1 0.451656085610469 6.855216608359057 8.746431341869433 0 0 0
121 1 5.163140032065474 8.541712662395563 6.884394284097553 0 0 0
122 1 6.61092127481527 7.045554959738742 8.655362078147947 0 0 0
123 1 10.985400523525412 8.718089136275953 7.0989879522105355 0 0 0
125 1 12.722382483594972 7.260901999683527 8.591514058987789 0 0 0
126 1 17.406359981909436 8.491893730318962 7.040865103485188 0 0 0
757 1 19.099325604967532 7.26950277741029 8.767883039343477 0 0 0
860 1 23.81563371768162 8.472117750392087 6.99875922276809 0 0 0
942 1 25.702459067037253 7.403921515500903 8.360622295213128 0 0 0
862 1 30.553825746378013 8.40900690084034 7.0137444423334765 0 0 0
120 1 3.3854050195293093 10.192375176521901 8.386209879050542 0 0 0
128 1 1.48481917116123 11.880527700834987 6.973689663098827 0 0 0
130 1 8.47658105199031 11.734530615967211 6.924816724839574 0 0 0
131 1 14.226553343896299 11.576234261206197 7.072438454463756 0 0 0
127 1 15.610544854593487 10.275482667725989 8.758939385940245 0 0 0
867 1 20.59853324811495 11.53194632381373 6.915298206567877 0 0 0
859 1 22.376331024697944 10.167411822016515 8.668304397349532 0 0 0
861 1 28.570517024578706 10.077697333148967 8.374772548833846 0 0 0
870 1 27.01143728734468 11.669889396649522 6.802586033233882 0 0 0
865 1 34.631286946358415 10.1083866080422 8.4617438256885 0 0 0
871 1 33.35068850541352 11.442034333054595 6.886851089436108 0 0 0
136 1 5.095205383740358 14.628371490218209 6.727301349555259 0 0 0
129 1 6.792289083331212 13.191120340882103 8.357591269171166 0 0 0
138 1 11.19941088271379 14.742510434123183 7.102591872072351 0 0 0
132 1 12.96142624917297 13.219394895919372 8.725500012924256 0 0 0
758 1 19.018747918796432 13.181847512820426 8.464465570041215 0 0 0
139 1 17.21636231112205 14.756019698084069 7.0696161720643795 0 0 0
875 1 23.666563546392776 14.585155066441054 7.19461340901998 0 0 0
868 1 25.662315808034236 12.914823129840233 8.685456618288047 0 0 0
872 1 31.50502620782607 13.071416843888272 8.232373283281566 0 0 0
877 1 29.952058979068564 14.794098026237256 6.832423040120442 0 0 0
141 1 1.6834558939214759 17.597081425795643 6.7584743328436865 0 0 0
135 1 3.6155684837286177 16.121349009630748 8.250692447109822 0 0 0
143 1 8.015957556862741 17.71523480705865 7.094410225295727 0 0 0
137 1 9.786513150012444 16.28999307410254 8.709186599892657 0 0 0
145 1 12.561983572969758 19.095995358470013 8.741051285441406 0 0 0
140 1 15.7728891521445 16.266183711045226 8.471501145619193 0 0 0
144 1 14.419576097780372 18.002567355807418 6.961703140652608 0 0 0
879 1 20.69369310083489 17.532120426544974 7.3378467660610855 0 0 0
873 1 22.0873118695494 15.952889714276594 8.777650850943841 0 0 0
880 1 25.234821658777708 19.097058833027045 8.563619199936753 0 0 0
881 1 26.999141663597488 17.886969888205854 6.804062889537554 0 0 0
876 1 28.43882302961048 16.476139400945193 8.725289483001301 0 0 0
878 1 34.53575338609234 16.22441724567396 8.601163218368058 0 0 0
882 1 33.06864884777228 17.637474279117725 6.93994050152556 0 0 0
146 1 3.100549437269242 22.094789755492975 8.28628836890392 0 0 0
165 1 0.29961059353063857 19.101593507295963 8.175693527473776 0 0 0
147 1 4.758059171522233 20.627794997231966 6.875680393369839 0 0 0
142 1 6.53920898624629 19.362721894611788 8.672228212500986 0 0 0
148 1 9.607612183236196 22.212721708245667 8.406256833268502 0 0 0
149 1 11.528928386883171 20.946364415020227 7.107138242909663 0 0 0
150 1 17.300478258678957 20.734324483187134 7.262942619213999 0 0 0
753 1 19.032230295606784 19.30725860650919 8.780680418978834 0 0 0
885 1 22.313213131504895 22.240299240918382 8.778951772497358 0 0 0
886 1 23.730984657914785 20.828925553421122 6.95380515368788 0 0 0
887 1 28.407757171153108 22.127683511584866 8.895800149653844 0 0 0
888 1 30.285145681675008 20.609794100420984 7.260193394202596 0 0 0
883 1 31.952786552717356 19.3222192276281 8.734931988201026 0 0 0
152 1 1.4510414205593096 23.96826512671086 6.956252343129323 0 0 0
153 1 6.275438669747244 25.383701405064816 8.547857050550002 0 0 0
154 1 8.000002919487251 24.16572293912197 6.959749867207515 0 0 0
155 1 14.178641344172147 23.768547324693046 7.296174529615522 0 0 0