LAMMPS data file via write_data, version 29 Oct 2020, timestep = 0

9216 atoms
1 atom types

0.35002950242424546 104.3705937907476 xlo xhi
-0.33827690780776365 50.62312223682884 ylo yhi
-0.33827690780776365 50.62312223682884 zlo zhi

Masses

1 18.015

Atoms # atomic

5 1 1.8115945530782505 2.030022510490887 1.896205678016279 0 0 0
3 1 3.5015554779523046 0.5137825671367819 3.709684536999519 0 0 0
10 1 7.092970120992775 3.6927763722713234 3.440419336817352 0 0 0
13 1 8.467878105604472 2.013229418046002 1.9079585649875064 0 0 0
11 1 9.97837708855675 0.363097677955635 3.4734348675272737 0 0 0
21 1 14.105819263583331 2.15928565333698 1.811272958997052 0 0 0
18 1 12.536962765822837 3.789890260125521 3.432355322773546 0 0 0
722 1 0.4971375019451988 41.02718015601404 22.520497182066315 0 0 0
1705 1 19.12066686388801 44.28475401715018 0.35069770085835006 0 0 0
27 1 3.589731475468518 6.555537567376334 3.364203038467644 0 0 0
8 1 5.038102337696229 4.8678459153063445 1.6938339020327977 0 0 0
35 1 10.178969050668325 6.696081952815186 3.2158132004531663 0 0 0
16 1 11.436418303157748 5.274746720782866 1.3883258950003687 0 0 0
194 1 0.48197874626545945 3.498865034178784 9.706888269087969 0 0 0
674 1 0.40221931708807823 28.65366866560872 22.067519258935178 0 0 0
24 1 17.170420875508235 4.946101768195384 2.101230980213521 0 0 0
43 1 15.628680576427662 6.424053813955032 3.4617553165238943 0 0 0
29 1 1.8950181494279472 8.021886909428149 1.7840393943796553 0 0 0
89 1 12.811233751852981 19.163394484360495 0.45995293988693386 0 0 0
34 1 6.885035352770299 9.485739712328913 3.4484364979323554 0 0 0
37 1 8.356424699181053 8.122508499134266 1.739661775012923 0 0 0
45 1 14.499146696596528 8.643349213713623 1.872811538853202 0 0 0
42 1 12.857152635705102 10.083988547680935 3.347409341334679 0 0 0
116 1 16.279198117876568 28.82612772012097 0.6092691320192059 0 0 0
762 1 12.78402224565785 47.7027428201987 22.35663017078753 0 0 0
51 1 3.2572989216194843 12.7407470410017 3.2238747898441593 0 0 0
32 1 5.237486690758135 10.936210433227227 1.8367507213337255 0 0 0
40 1 11.28738183387116 11.28985047962105 1.7777605502200997 0 0 0
59 1 9.802702265137485 12.659147800995513 3.7497505436695486 0 0 0
81 1 6.787268460624975 19.283696510544868 0.5742471530223747 0 0 0
48 1 17.631077875473245 11.298367999324576 2.1110242491953075 0 0 0
67 1 16.287475291998913 12.896858485833969 3.4587875305225477 0 0 0
53 1 1.7603325887425183 14.57152794027385 1.7704648264990472 0 0 0
481 1 0.5918407457325974 25.27829049653321 12.975594999071403 0 0 0
58 1 6.385343323279477 16.458443627076118 3.7335156751756737 0 0 0
61 1 7.905718236849498 14.40286242116952 2.5070841289202273 0 0 0
69 1 14.460749929142903 14.425632482383545 1.873426319770504 0 0 0
66 1 12.955634607852357 16.029523064369698 3.5519669249204076 0 0 0
180 1 9.46546468351824 47.57317161275482 0.5945902307401854 0 0 0
75 1 3.375436210852432 19.288876799754515 3.358697754001571 0 0 0
868 1 3.437024455634863 28.551181407220376 24.978902323183856 0 0 0
56 1 4.750876950048515 17.802585732454485 1.9906084748127348 0 0 0
57 1 6.784837530952197 12.887554562456014 0.652328026512885 0 0 0
83 1 9.747087619686054 19.27789417915438 3.6209603646600597 0 0 0
64 1 11.35809331255881 17.48111396544399 2.1657084864761744 0 0 0
124 1 3.715452632657328 35.02418497104338 0.44139911988473557 0 0 0
91 1 15.710137850748456 19.18619038160795 3.8266935196258594 0 0 0
72 1 17.40052402510238 17.469185944655013 1.8985458517625513 0 0 0
601 1 0.377948611668387 6.684269115781643 19.590868440659193 0 0 0
77 1 1.6723835847248973 21.070941772284222 1.9453572526727516 0 0 0
673 1 0.3908626727001945 25.35594362849697 19.134205857402296 0 0 0
82 1 6.432852369986637 22.360651125807067 3.4990943536365116 0 0 0
80 1 4.925484402470883 24.34619834923585 2.0627342389756875 0 0 0
85 1 8.230432876955835 21.00427560155671 2.1557127588633804 0 0 0
88 1 11.637357198591532 23.769963289831917 1.7132614873718333 0 0 0
93 1 14.449426928455015 20.71603860008185 1.9274764359792809 0 0 0
90 1 12.779015546786892 22.259470291043833 3.596830771167167 0 0 0
96 1 17.67247468259727 23.666806033322214 1.9515297728174186 0 0 0
132 1 9.698930586719472 34.943039338204585 0.40399030281859893 0 0 0
99 1 3.264271250287365 25.493249879857547 3.66184134156897 0 0 0
109 1 8.450756950003736 27.075908155715826 1.7962525393204647 0 0 0
107 1 10.040713091991798 25.5820108448952 3.345149605573454 0 0 0
117 1 14.83917609975315 27.231693220806893 2.1589488422331975 0 0 0
115 1 15.964869377536 25.01316630592734 3.705107412412798 0 0 0
101 1 1.8636255883820583 27.48377558674135 2.347953189957345 0 0 0
185 1 12.715736489313908 44.688164789728276 0.317920465072568 0 0 0
65 1 12.639120286061493 13.11627209968746 0.5025709546723363 0 0 0
104 1 4.838555500991899 30.145158953483694 2.436673576483932 0 0 0
106 1 6.7448105367973135 28.189253922399462 3.8521665760687944 0 0 0
112 1 11.651006051522582 30.283163697678958 2.003673494881414 0 0 0
385 1 0.43327551592212155 50.42168322034034 12.931307412236036 0 -1 0
114 1 12.983759448625129 28.58663071511908 3.3566291162063395 0 0 0
120 1 17.94005702641148 30.348966041611696 2.349146606318788 0 0 0
9 1 6.641781049227766 0.5192596462287096 0.5140396509391463 0 0 0
125 1 2.092971279156072 33.31434815891087 1.9919953499178848 0 0 0
123 1 3.4266463658882214 32.18436756919195 3.8614567211983197 0 0 0
170 1 0.6527524568449486 47.32648204305387 3.8037772359767543 0 0 0
131 1 9.565203358869836 31.645013806948647 3.5712123591915756 0 0 0
133 1 8.186878526335562 33.30402899492493 1.81358013363436 0 0 0
141 1 14.619916087180625 33.5581914033446 1.90385790247103 0 0 0
92 1 15.95275145507649 22.27225413104268 0.4589108236556072 0 0 0
139 1 15.90928054357943 31.806366242338214 3.561611374934114 0 0 0
128 1 5.338147829490652 36.47982364942911 2.0866133216714413 0 0 0
130 1 6.633683156084761 34.72123825137544 3.4843901609974655 0 0 0
136 1 11.411989032582024 36.285718789920885 1.8949000364293402 0 0 0
138 1 13.212837109248229 35.11456496098288 3.7620092589070357 0 0 0
144 1 17.84536065937659 36.54291401287892 1.6687605414000704 0 0 0
122 1 0.5938534315535984 34.85647818174874 3.6118824294995804 0 0 0
149 1 2.1608970273945642 39.85106537919773 1.7876052905327684 0 0 0
147 1 3.583029170578427 38.191869050564954 3.497730222877823 0 0 0
157 1 7.970115554850378 39.789558954666404 2.086054549635281 0 0 0
155 1 9.61410369210401 38.11722256055375 3.3463990697770987 0 0 0
165 1 14.202071066859729 39.771355813304254 1.7500299293616832 0 0 0
766 1 14.61958147372453 48.98720290166419 23.739169427412293 0 0 0
163 1 16.226154920509227 38.338048510102475 3.2958503186665555 0 0 0
105 1 6.604900096991588 25.653164481854088 0.776492985812314 0 0 0
386 1 0.41393538714054046 3.0785062191692303 16.221734838600256 0 0 0
152 1 5.479216897344006 43.12675248074978 1.6724085359842376 0 0 0
154 1 6.355118263153401 41.36566516858252 3.4897157186722523 0 0 0
160 1 10.914287794700694 43.188535788646234 1.5172047988546293 0 0 0
162 1 12.338822574004315 41.576874015902916 3.331303589208915 0 0 0
168 1 17.38713513980224 42.54054328274274 1.8331110041756178 0 0 0
161 1 12.806493956152458 38.07652667647612 0.33922637873501316 0 0 0
173 1 2.2074088957115414 45.88922493086518 1.9136981785632363 0 0 0
171 1 3.7792131681286287 44.51906153330001 3.3507076007854906 0 0 0
181 1 7.847229292578872 46.19859333255456 1.8947235190851686 0 0 0
179 1 9.239561037041291 44.65613668504892 3.4414920431589504 0 0 0
189 1 14.322067505643052 46.16813981291418 1.9803042395699764 0 0 0
186 1 12.823169556399193 47.88786449398109 3.6823429915422365 0 0 0
187 1 15.70402352573215 44.77578279452054 3.4599086591918664 0 0 0
129 1 6.392794223304124 31.508260276025556 0.7163002828290258 0 0 0
178 1 6.863203256101485 48.0637125089184 3.415401801213143 0 0 0
176 1 5.080139900421252 49.45128648391907 1.9478215622928712 0 0 0
313 1 0.5897318822275699 31.67258581223278 6.859572182668805 0 0 0
184 1 11.506066562476835 49.060280837908365 1.8003646694435715 0 0 0
19 1 15.752885788421272 0.5930836400522495 3.448958888877889 0 0 0
192 1 17.51423410634021 49.50979565616912 1.72446600536317 0 0 0
758 1 7.720444422422145 48.87082074358341 23.6553089536381 0 0 0
754 1 6.403662915216796 47.131295592635844 22.091641143149428 0 0 0
196 1 3.500668266690682 3.7018551463769604 6.4289239239618095 0 0 0
7 1 5.275607453744359 2.0537886121282085 4.929470218875072 0 0 0
201 1 6.721111785895409 0.5599839012286303 6.6976528301773754 0 0 0
15 1 11.088711336298555 2.2298877005510898 5.143726397743823 0 0 0
204 1 9.595850514087724 3.859311608843791 7.0830682158415135 0 0 0
209 1 12.822961562789372 0.774992267109111 6.633905224136979 0 0 0
23 1 17.499572618096895 2.004048029771228 5.085694958221833 0 0 0
212 1 15.706581750673354 3.7848319352884654 6.801067243007684 0 0 0
6 1 1.603071450045376 5.387352730661242 5.018625163956387 0 0 0
225 1 6.902194359133061 6.695884215206789 6.4003503222742655 0 0 0
14 1 8.583837459219113 5.241585253899793 4.96982908766183 0 0 0
22 1 14.324766829122662 5.083537850179911 5.117218654117795 0 0 0
233 1 13.061629386707281 6.724114303143992 6.767680459748027 0 0 0
1825 1 19.19328252198136 25.36711792685933 6.589444754986568 0 0 0
433 1 0.38979551185173417 12.691742004832445 12.61498804278848 0 0 0
220 1 3.7304697551884654 9.621504543609394 6.293619618885138 0 0 0
31 1 5.207779645538678 8.130875014513508 4.772624342766689 0 0 0
228 1 9.891709440567697 9.789883383304153 6.751392702652259 0 0 0
39 1 11.302385123606186 8.244834453280625 5.147324649757871 0 0 0
47 1 17.309873754683437 8.258322471361996 5.114400810292427 0 0 0
236 1 15.868670731026011 9.766111464986027 6.5140810538364935 0 0 0
30 1 1.801395778884456 11.09491609065468 4.803748300627028 0 0 0
249 1 6.64951227850154 12.857779754951926 6.71449243933568 0 0 0
38 1 8.123938381901276 11.212883653315924 5.139155870172586 0 0 0
46 1 14.517486018116706 11.499764317134412 5.006657492589774 0 0 0
257 1 12.66281490987243 12.591472696876295 6.783207274939862 0 0 0
244 1 3.216260673861198 15.585550920940813 6.3291595593415995 0 0 0
55 1 4.871163659684261 14.120863290177113 4.920770032392745 0 0 0
252 1 9.713089829493267 15.703297403331431 6.448939350542308 0 0 0
63 1 11.63138439900189 14.438931697133869 5.1518638705647355 0 0 0
71 1 17.393857413960003 14.227225238309444 5.307423214936938 0 0 0
260 1 15.913192669350789 15.900691168866969 6.9904959942026705 0 0 0
54 1 1.5693468213627788 17.45607989680373 5.001215267479647 0 0 0
273 1 6.386156790853383 18.869290133150564 6.5903168746257625 0 0 0
62 1 8.108008836220026 17.6532271693533 5.004707291037652 0 0 0
70 1 14.276930180104939 17.256676188909175 5.340602861856408 0 0 0
281 1 12.826200230536845 19.52094759041493 6.249124975649299 0 0 0
156 1 9.196866974818866 41.35293449139465 0.39844475639871746 0 0 0
268 1 3.373379512529254 22.004575394338868 6.765092560588041 0 0 0
79 1 5.264886508374666 20.562582038316283 5.0030277635779 0 0 0
86 1 8.342487022700317 23.66755844311008 4.702418951558458 0 0 0
276 1 9.62670459761206 22.289547706351215 6.74483063973606 0 0 0
87 1 11.24934988603494 21.19046428578951 5.082512213938344 0 0 0
95 1 17.763402425610195 20.23467402913019 5.336305866068145 0 0 0
284 1 16.348399349802367 22.259632657451707 6.497812229663074 0 0 0
241 1 0.41972683770107655 12.597062041551794 6.218738649275671 0 0 0
78 1 1.8985778637149446 24.039434051835975 5.539021037520368 0 0 0
297 1 6.929173653663369 25.138510123011155 6.126114246406802 0 0 0
111 1 11.62722909579519 26.84364967457874 5.249719104497894 0 0 0
94 1 14.0050614003369 23.91676608864557 5.109678091285677 0 0 0
305 1 13.299471988305521 25.63581171209043 6.946301583668918 0 0 0
750 1 1.7468788547595262 49.25190763588503 23.693654015283347 0 0 0
292 1 3.829875449472812 28.303965374185903 6.894555451637446 0 0 0
102 1 2.1429597222907044 29.93403634136274 5.517995924744991 0 0 0
103 1 5.10896864221025 26.768160407929823 5.101317780660813 0 0 0
300 1 10.094096247012224 28.126736870748264 7.114943035933437 0 0 0
110 1 8.573151302017804 29.633639504358563 5.186668759011762 0 0 0
118 1 14.186271029271937 29.86398379107713 5.16356435761798 0 0 0
119 1 17.561277025391245 26.875392453069697 5.019201806757736 0 0 0
308 1 16.092010986911205 28.44511407090726 6.793876615153231 0 0 0
127 1 5.269921832052967 33.45896124766453 5.155874944098327 0 0 0
321 1 6.757562181763277 31.49290700753699 6.734472392740087 0 0 0
135 1 11.264986964254918 33.44228548452857 5.192113057113134 0 0 0
329 1 12.868738250774749 32.00345318763368 6.6612998479723675 0 0 0
143 1 17.857672582572796 33.19984812834153 5.022183928861099 0 0 0
188 1 16.0629152890397 47.825774475573695 0.3320557421436992 0 0 0
126 1 2.215770222626131 36.663165146154384 5.20198346228735 0 0 0
316 1 3.468946696611562 34.694481780643414 6.5528633922262935 0 0 0
134 1 8.334728271750521 36.36409120408671 5.155262739788359 0 0 0
324 1 9.774565840596296 34.843910898350735 6.4142411110840065 0 0 0
142 1 14.481805492587245 36.900726110962445 5.140244527960061 0 0 0
332 1 16.705499808910666 35.23137793268139 6.695944090539466 0 0 0
767 1 17.7712388861279 45.859288694931536 24.197704743545952 0 0 0
341 1 2.0795732689797175 39.779731530471715 7.9557293093917085 0 0 0
151 1 5.223024984288659 39.59155730125933 4.850863857069603 0 0 0
345 1 6.5886001008961905 37.509669129021894 7.028186582113357 0 0 0
159 1 11.603777633088496 39.58965760102164 5.043449335937804 0 0 0
353 1 12.978664560443391 38.25532806252029 6.914866953526811 0 0 0
167 1 17.816055760867048 40.119748518560925 4.743674432041588 0 0 0
763 1 15.953359653418609 44.34025699254274 22.70827454342667 0 0 0
340 1 3.90421688561114 41.06403732862475 6.268748196494559 0 0 0
150 1 2.2712918731985186 43.10594806868296 4.807375827342579 0 0 0
158 1 7.848776993367127 42.67189877614967 4.941625889511671 0 0 0
348 1 9.719935289082763 41.465503841021885 6.63249637204067 0 0 0
166 1 14.049126956929957 43.12299406733805 4.59492784715775 0 0 0
356 1 16.04319021002913 41.511640196096785 6.353471084734336 0 0 0
362 1 0.6692306679974539 47.45341503586991 9.837089426622942 0 0 0
369 1 6.631998500752369 44.565234968085626 6.240275392092693 0 0 0
175 1 5.309262557288446 46.19940107666807 5.002981482245683 0 0 0
183 1 11.256038300614719 46.19914828663373 4.974861356782962 0 0 0
377 1 13.195513967040014 44.8132758051378 6.691751488602866 0 0 0
191 1 17.42196264245163 46.35594277946418 5.084403815509352 0 0 0
193 1 0.5715332094023134 0.3699448930071677 6.788578870208788 0 0 0
364 1 3.909678241461062 47.54119911058712 6.798964351361963 0 0 0
174 1 2.123370073258174 49.05030487051225 5.3298256784263796 0 0 0
372 1 9.595681185741855 48.02845471854884 6.859094232015729 0 0 0
182 1 8.239692173356845 49.42745924148969 5.064982396079224 0 0 0
190 1 14.296503715728912 49.45497428297427 5.156535553434123 0 0 0
380 1 15.89583258247692 47.79472141910781 6.644074896850895 0 0 0
197 1 2.237290005589264 1.9322569864210957 8.3137567470421 0 0 0
195 1 3.8392905790540426 50.34445877249533 9.552666130643678 0 -1 0
202 1 6.882098257080069 3.6038090743687974 9.886257868161287 0 0 0
205 1 8.236379940408906 2.1564413949677554 8.455364748077429 0 0 0
213 1 14.714015216903036 2.238369585201063 8.339887298699061 0 0 0
210 1 13.331904364163885 3.657759280606029 9.884158782362775 0 0 0
881 1 13.168205123014221 25.11590473762915 25.01160052257503 0 0 0
211 1 16.274239289878288 0.43092363269349515 9.490062734274309 0 0 0
219 1 3.480600678415209 6.280261250141338 9.187967153597429 0 0 0
198 1 1.8464361101787905 4.837095077818906 11.303934070009912 0 0 0
200 1 5.475626309398195 5.079268236609227 7.734663721618596 0 0 0
208 1 11.412185718883292 5.367739096663731 8.502821550082276 0 0 0
227 1 9.64479781597692 6.695609247830374 9.931937508910934 0 0 0
216 1 18.00197036125909 5.105715163592533 7.95089210112828 0 0 0
235 1 16.081291283814913 6.450628880785619 9.376719553459147 0 0 0
221 1 2.033986258345529 8.068823451458572 7.957748157822431 0 0 0
226 1 6.08774310637514 9.55558335064134 9.681050431911586 0 0 0
229 1 8.095205112673998 8.18363199268709 8.242318441104864 0 0 0
237 1 14.52605461577219 8.292497266414077 8.186242804471956 0 0 0
234 1 12.788385642126508 9.633219476889998 9.898369665734206 0 0 0
505 1 0.5897849250933263 31.16225129255487 13.190358531501692 0 0 0
243 1 3.5702929400377013 12.543818968657648 9.693671577327674 0 0 0
224 1 4.8700452290956475 11.30202267368735 7.904430426223167 0 0 0
251 1 9.761116026108118 12.937869142196876 9.952151759357129 0 0 0
232 1 11.191171743268615 11.32166784610023 8.37333350589572 0 0 0
238 1 14.458649715171225 10.982754744046945 11.372738053454073 0 0 0
240 1 17.764756739888625 10.916977612472351 8.15276932617958 0 0 0
259 1 16.075026555977608 12.325169355354756 10.01102624229469 0 0 0
2257 1 19.010729249032636 37.918053060388516 19.278780956320784 0 0 0
245 1 1.4968843170542618 14.315063163670539 8.437601680528847 0 0 0
250 1 6.346525173904398 15.709641798333477 9.461515643578284 0 0 0
253 1 8.318026411695692 14.40359471706996 8.228399875283994 0 0 0
247 1 5.023295294353139 14.236179854897783 11.097467454353605 0 0 0
255 1 11.399607381548135 14.195728860796999 11.336915076433332 0 0 0
261 1 14.439816602742717 14.24392807391374 8.524081288711573 0 0 0
258 1 12.561814451392523 16.126116595865717 9.814080616557376 0 0 0
825 1 6.836463274274063 12.535906910104835 24.972206071638595 0 0 0
267 1 3.1475524387669886 18.712650592548176 9.577402201069788 0 0 0
248 1 4.883810285222993 17.270590510004006 8.02739235574668 0 0 0
275 1 9.316400774563947 18.974184688656628 9.636564964635582 0 0 0
256 1 11.093262792290533 17.29051679119676 7.893414200636033 0 0 0
283 1 16.339042912735074 19.2494142555619 9.397231803230108 0 0 0
264 1 17.65811694862339 17.207717661624578 8.431171090575832 0 0 0
269 1 1.701063777552644 20.588715280785827 8.124009476740934 0 0 0
274 1 6.50248768727252 21.836283148913452 9.837607941754989 0 0 0
272 1 5.356085174168436 23.74057207632298 8.291513626314684 0 0 0
277 1 7.935794674897379 20.33436400082414 8.007953552080915 0 0 0
285 1 14.886119461898545 20.755906401161894 7.794643434032893 0 0 0
282 1 13.314432118858026 22.33664984300795 9.326588057571287 0 0 0
288 1 17.424984366545118 23.929141214235834 8.194210241855135 0 0 0
291 1 3.8983887610160233 25.227404541791056 10.20273253078392 0 0 0
301 1 8.070533401377283 26.654851817279095 8.19064218324704 0 0 0
280 1 11.2571157465269 24.08373148758174 7.961802644303063 0 0 0
299 1 9.671361980242127 25.101338811452678 9.784268416080154 0 0 0
309 1 14.805203046170826 27.368457534698894 8.622802344265045 0 0 0
307 1 16.180848661026218 25.51374550499056 9.97309602734945 0 0 0
311 1 17.940390369487396 27.090762576596948 11.118462844112454 0 0 0
293 1 2.1485299494141055 26.91929325758734 8.410230056893113 0 0 0
298 1 6.738875897582479 28.338548163127292 9.810299624363466 0 0 0
296 1 5.0878528245309935 29.948542626693037 8.39093223076294 0 0 0
304 1 11.319106378296485 30.345677967046587 8.045964057237764 0 0 0
306 1 13.051087198907716 28.603798987600083 9.468000635195162 0 0 0
312 1 17.4018377504809 30.369152580957362 8.204071847990651 0 0 0
1706 1 19.04633186502585 47.79919595646569 3.6343911649240863 0 0 0
315 1 3.2228213151302416 31.212786975929227 10.04633647392146 0 0 0
317 1 1.883147977313832 33.361168162193906 8.255530408645416 0 0 0
325 1 8.535967914145038 32.90984124034128 8.160944514805212 0 0 0
323 1 10.186000696715453 31.940768446965528 10.010945329602857 0 0 0
333 1 14.85519134330801 33.51495030515159 7.954805083118121 0 0 0
331 1 15.936317404383397 32.0841823975547 9.805800402373986 0 0 0
320 1 4.998206661358834 35.92251461007617 8.300360309584034 0 0 0
322 1 6.787149930738114 34.249718413361535 9.564855716901349 0 0 0
328 1 11.658747719502964 36.41860125915868 8.174792966579307 0 0 0
330 1 13.58658652586208 34.79687370551668 9.669475586526664 0 0 0
336 1 17.644376295177743 36.97158639823618 8.379893923478143 0 0 0
339 1 3.5229948471476433 37.960779198667126 9.509237539215533 0 0 0
343 1 5.153924946226958 39.42229431848922 10.892148801157717 0 0 0
349 1 8.191343977380903 39.58007888507682 8.201721043209542 0 0 0
347 1 9.777138855730106 38.01535442537132 9.449985009399999 0 0 0
357 1 14.66528424317626 39.92906958586513 8.034859619286959 0 0 0
355 1 15.847990874541107 38.574520665582185 9.770234982969594 0 0 0
172 1 3.8011171387918017 47.6600226454746 0.350729405478616 0 0 0
342 1 2.1287567440648107 42.61543467285867 11.33810934646064 0 0 0
344 1 5.2740888988795485 42.850584548061306 8.010140851023007 0 0 0
346 1 6.8825302126182315 41.37697081094392 9.816796625037274 0 0 0
352 1 11.47440435898386 43.122449571005156 8.134137682694202 0 0 0
354 1 12.911556713010723 41.39722725667265 9.682079482202468 0 0 0
360 1 17.8450040367106 42.91889834966747 8.031445565261762 0 0 0
60 1 9.595338568528259 15.974792232302635 0.9657009880847841 0 0 0
363 1 3.963475915141371 44.27861724923385 9.98079920426695 0 0 0
365 1 2.2639776293315537 45.707741565168995 8.570128877495137 0 0 0
367 1 5.035034383634308 45.82939956900328 11.650337276175982 0 0 0
371 1 10.131117133674906 44.893900887022824 9.768049444128902 0 0 0
373 1 7.993128852645667 46.04466552294544 8.01178559761551 0 0 0
381 1 14.604849930156337 46.2924374632282 8.416261275546818 0 0 0
379 1 16.03754532748187 44.44527406287374 9.824305198168808 0 0 0
370 1 6.66790118168891 47.14728284874104 9.801545511456352 0 0 0
368 1 5.427824242769027 48.97104150121099 8.191807314934465 0 0 0
203 1 9.923413099907165 0.6525408997362636 10.019379221628261 0 0 0
376 1 11.398089509259725 49.366772713893184 8.389070768236683 0 0 0
374 1 8.32229308373535 48.885743151735056 11.230159704655163 0 0 0
378 1 13.055798340790366 47.72372090453879 9.856080171462922 0 0 0
384 1 17.684099991876145 49.1252570938398 7.8794486504320345 0 0 0
2209 1 18.8175042503805 25.70514978217541 18.63507035764285 0 0 0
389 1 1.8710103978586485 1.902677931598765 14.350019816968901 0 0 0
577 1 0.48607670154825655 50.437049320807716 19.26652657586759 0 -1 0
199 1 5.037128406434183 1.7179429700650808 11.294853554759804 0 0 0
397 1 8.015669744963102 2.1025814230049837 14.212831885752632 0 0 0
207 1 11.692729687229784 2.0908025045904814 11.750038973406898 0 0 0
396 1 10.015400790738108 3.9127904928675123 13.121451131637345 0 0 0
405 1 14.494189182201252 2.0457238861456206 14.480444796153183 0 0 0
215 1 17.393020913177484 2.0644884179179024 11.29326996126149 0 0 0
404 1 15.970245645505067 3.758628943048123 13.294005595224306 0 0 0
388 1 3.7412714933690654 3.3708648799801666 13.023640428042045 0 0 0
417 1 6.748424491292184 6.28277855266659 12.977714960260617 0 0 0
392 1 5.115176588331581 5.0725837052152505 14.45172872859024 0 0 0
206 1 8.27832256543811 4.9626804090422425 11.337877982082912 0 0 0
400 1 11.694693579104284 5.1985467885368095 14.912512330831966 0 0 0
214 1 14.57642541220062 5.3381541162397745 11.49310710015458 0 0 0
425 1 13.138933817901947 6.867574680570262 13.233759363897692 0 0 0
408 1 17.899581075277396 5.111307527445071 14.525787590092154 0 0 0
100 1 3.5136990848443714 28.583901734979648 0.5744919770855712 0 0 0
412 1 3.762714321726081 9.385337987770578 12.970534351299424 0 0 0
413 1 1.7162586879464439 8.278663217300032 14.363436564202509 0 0 0
223 1 4.897198914335252 7.700635612425781 11.134727427352816 0 0 0
231 1 11.229154730166412 8.094551050177797 11.577793981973874 0 0 0
420 1 9.630728039550391 9.711809076946594 13.008766140634584 0 0 0
429 1 14.97428145649739 8.35180866108011 14.706872506706292 0 0 0
239 1 17.571645965997973 7.668841913666269 10.920911084016826 0 0 0
428 1 16.310378940708617 9.382933841750384 12.718030860695956 0 0 0
222 1 2.087059657664917 10.882294310027486 11.190575767724855 0 0 0
441 1 6.6960247354473275 12.56472304248091 12.854437354103942 0 0 0
230 1 8.063201800126961 11.081960378822338 11.274255886372652 0 0 0
416 1 4.930520061750633 11.33875442619499 14.795749151220996 0 0 0
424 1 11.276707805783987 11.277167887626783 14.620499059729832 0 0 0
449 1 12.916334702574625 12.86168218029006 13.014379633998152 0 0 0
432 1 17.89578179336622 11.25640200295345 14.306180773270537 0 0 0
410 1 0.3872386282325664 9.913803520932086 15.912876305541893 0 0 0
436 1 3.558082881987565 15.726063457307154 12.727659791382754 0 0 0
437 1 1.4223210909001756 14.250947867223227 14.215019108469631 0 0 0
444 1 9.678120647016167 15.978192765445572 12.601738646836315 0 0 0
445 1 8.381598811470939 14.268556344579745 14.430619542606449 0 0 0
453 1 14.81590999483499 14.253886568470358 14.408408386875216 0 0 0
263 1 17.593141519433487 14.329044636724705 11.22658908137803 0 0 0
452 1 16.002694249114697 16.351315419537247 13.055879460643867 0 0 0
2282 1 19.026560001570587 47.47526540434424 22.629181071625087 0 0 0
246 1 1.4590201577664066 17.371969493429088 11.46550818896556 0 0 0
465 1 6.343733967786245 19.154496235577827 13.197097720099709 0 0 0
440 1 4.689304811686332 17.503681181554352 14.648204877705561 0 0 0
254 1 7.847137529529827 17.426697688443383 11.527564655709709 0 0 0
448 1 11.253733754416041 17.945389553274794 14.234956691622058 0 0 0
262 1 14.521836481727737 17.610048930547627 10.933167554052261 0 0 0
473 1 13.262860033887044 19.060995007090025 12.729859632882464 0 0 0
456 1 18.094706650472553 17.84786663018042 14.375104369998446 0 0 0
2041 1 19.005563450910838 31.83242316213515 12.854788752024772 0 0 0
460 1 3.6956879230347335 22.253216279081716 13.164567157425804 0 0 0
461 1 1.8059263189322103 21.040831185972014 14.457082228177002 0 0 0
271 1 4.720335899714991 20.30846868467277 11.364870217173989 0 0 0
279 1 11.714528555956804 20.682910356263484 11.089764436429602 0 0 0
468 1 10.113989375362136 21.88685315412249 12.891783550577838 0 0 0
469 1 8.100613123785582 20.658049302951444 14.612496048620994 0 0 0
286 1 14.793014552564605 23.9079696086527 11.251658259130878 0 0 0
477 1 14.677507497804113 20.60909327419419 14.556698972173361 0 0 0
287 1 17.874594600363768 20.993488459528987 10.962398857826468 0 0 0
476 1 16.039560819621073 22.272815945840726 12.518916300026756 0 0 0
270 1 2.0564648714649865 23.489411665486355 11.33984153346893 0 0 0
755 1 9.54509165082126 44.19926066506068 22.282306504885497 0 0 0
464 1 5.208518286451304 23.89979261092042 14.404104628711712 0 0 0
489 1 6.977041927982889 25.101964665206744 13.021981846448805 0 0 0
278 1 8.326954676766896 23.230219135195984 11.412125457152387 0 0 0
303 1 11.3313992995951 26.771680490009146 11.234507635035095 0 0 0
472 1 11.069357595441717 23.816936729209207 14.312903964430832 0 0 0
497 1 13.236351250121785 25.07281621218713 12.76246598625414 0 0 0
501 1 14.200029048904149 27.16333346318716 14.36441300865299 0 0 0
76 1 3.511105655891852 22.680330628092506 0.4607507429511377 0 0 0
294 1 1.9309702462611402 29.47629759606474 11.520839078169375 0 0 0
484 1 4.072310913373993 28.555125780567824 13.035299920236358 0 0 0
295 1 5.410883975066324 26.80345792676591 11.651398589370881 0 0 0
302 1 8.416565740095203 29.85784587892792 11.1871527493294 0 0 0
492 1 9.849597476223247 28.53600951614768 12.685279731513587 0 0 0
496 1 11.386470143722336 29.838650505175735 14.570347723872086 0 0 0
500 1 16.02130712864702 28.55568030262541 12.899817841638587 0 0 0
504 1 17.61204893935696 30.06961417099652 14.353158745062464 0 0 0
146 1 0.780243654859976 41.25078346477132 3.5144078652969255 0 0 0
509 1 1.8234519847364061 33.1405818904646 14.544955460936247 0 0 0
488 1 5.2307791629522296 30.349042005120154 14.523038208453528 0 0 0
319 1 5.1275576695952925 32.94826382175178 11.217447564872455 0 0 0
513 1 6.965568720933302 31.454198085837497 12.995042668437652 0 0 0
327 1 11.541512988886666 33.587404880786465 11.393432965691645 0 0 0
517 1 8.406440308608078 33.13026324183629 14.298664139542826 0 0 0
310 1 14.461564418824237 30.24434785208245 11.410431365489243 0 0 0
521 1 13.109109507123337 31.84037023563384 12.977006024244458 0 0 0
525 1 14.840809506204234 33.32568262274334 14.317995298052782 0 0 0
335 1 17.618459983195233 33.49596917355364 11.059040491734622 0 0 0
318 1 2.0069873487950214 36.59532021978447 11.288814903321851 0 0 0
508 1 3.829146357982634 34.689154889180024 12.923058720325239 0 0 0
512 1 5.369911843541422 36.18332696660549 14.509849141195057 0 0 0
326 1 8.465407341306014 36.03034965365201 10.96444907031455 0 0 0
516 1 9.980707315858911 34.873625973416814 12.823861818416988 0 0 0
520 1 11.763166836759206 36.24763207520409 14.154688873458433 0 0 0
334 1 14.690404425555354 36.396441399729625 10.96895016753242 0 0 0
524 1 16.045652445652664 34.930371181022366 12.590399958959988 0 0 0
528 1 17.314036275644717 36.510366385680015 14.460161625023334 0 0 0
2090 1 18.925335532897584 47.59105904138565 15.918711551732914 0 0 0
533 1 1.9926746859585385 39.48954772502914 14.353443410147484 0 0 0
537 1 6.759350830093363 37.66703827711751 12.560161563600749 0 0 0
351 1 11.249410491356205 39.518987122222875 11.064741055777786 0 0 0
541 1 8.556515082351755 39.48761490693237 14.289163913009476 0 0 0
545 1 13.090052576199595 38.061391442504814 12.349554897504376 0 0 0
549 1 14.171611583873686 39.43078763362927 14.348164649529059 0 0 0
359 1 17.72370469899409 39.95655886527438 11.616721690946854 0 0 0
108 1 9.852551294209524 28.713421935441684 0.3269910096421601 0 0 0
532 1 3.6509561414116924 40.93363321998088 12.813452024138341 0 0 0
536 1 5.445258240964783 42.615193765492755 14.622497137830566 0 0 0
350 1 8.284267153390743 43.37011971862246 11.28633906785525 0 0 0
540 1 9.835304826651807 41.30406320358337 12.680655689333175 0 0 0
358 1 14.536243485251587 42.66160311557703 11.182998962571814 0 0 0
548 1 15.876826097208562 41.428107174547264 13.279407157132432 0 0 0
26 1 0.3767374319223791 9.359909236862023 3.544572562308174 0 0 0
557 1 1.9984560280472967 45.55341847887848 14.258614125048037 0 0 0
561 1 6.873319473878489 44.47506992393433 13.241363399968224 0 0 0
375 1 11.337674554331555 46.34633909590965 11.795724490187318 0 0 0
565 1 8.395879855368575 46.17553953463834 14.868252505850252 0 0 0
569 1 12.8549864867001 44.507388404669484 13.142076097970298 0 0 0