

read_data data.ice_${TEMP}K_${PRES}atm_mW group ice
read_data data.ice_277K_${PRES}atm_mW group ice
read_data data.ice_277K_-1000atm_mW group ice
Reading data file ...
  orthogonal box = (0.3500295 0.31113734 0.31113734) to (56.920480 50.595983 50.595983)
  3 by 1 by 2 MPI processor grid
  reading atoms ...
  4608 atoms
  reading velocities ...
  4608 velocities
  read_data CPU = 0.009 seconds
read_data data.liq_${TEMP}K_${PRES}atm_mW add append shift ${X_HI} ${YZ_LO} ${YZ_LO} group water
read_data data.liq_277K_${PRES}atm_mW add append shift ${X_HI} ${YZ_LO} ${YZ_LO} group water
read_data data.liq_277K_-1000atm_mW add append shift ${X_HI} ${YZ_LO} ${YZ_LO} group water
read_data data.liq_277K_-1000atm_mW add append shift 50.5959826645102 ${YZ_LO} ${YZ_LO} group water
read_data data.liq_277K_-1000atm_mW add append shift 50.5959826645102 -0.311137335488219 ${YZ_LO} group water
read_data data.liq_277K_-1000atm_mW add append shift 50.5959826645102 -0.311137335488219 -0.311137335488219 group water
Reading data file ...
  orthogonal box = (0.3500295 -0.33827691 -0.33827691) to (104.37059 50.623122 50.623122)
  3 by 1 by 2 MPI processor grid
  reading atoms ...
  4608 atoms
  reading velocities ...
  4608 velocities
  read_data CPU = 0.027 seconds

write_data data.icewater_test
System init for write_data ...
WARNING: Communication cutoff is 0.0. No ghost atoms will be generated. Atoms may get lost. (../comm_brick.cpp:167)

# Define potential
#
pair_style sw
pair_coeff * * /data/emrosky-sim/Freezing_Simulations/Melting/mW_fancy/mW.sw mW
Reading sw potential file /data/emrosky-sim/Freezing_Simulations/Melting/mW_fancy/mW.sw with DATE: 2019-02-27

# Delete water and ice atoms that are overlapping
#
delete_atoms overlap 2.5 water ice
System init for delete_atoms ...
Neighbor list info ...
  update every 1 steps, delay 10 steps, check yes
  max neighbors/atom: 2000, page size: 100000
  master list distance cutoff = 6.3065
  ghost atom cutoff = 6.3065
  binsize = 3.15325, bins = 33 17 17
  2 neighbor lists, perpetual/occasional/extra = 1 1 0
  (1) command delete_atoms, occasional, copy from (2)
      attributes: full, newton on
      pair build: copy
      stencil: none
      bin: none
  (2) pair sw, perpetual
      attributes: full, newton on
      pair build: full/bin/atomonly
      stencil: full/bin/3d
      bin: standard
Deleted 716 atoms, new total = 8500

# set timestep
#
timestep 10.0

# Define output
#
compute 1 all msd
thermo 50
thermo_style custom step temp press vol etotal ke pe c_1[4]

# Neighbor lists
#
neigh_modify delay 0 every 1 check yes

# Set fixes
#
fix 1 all momentum 10 linear 1 1 1 rescale
fix 2 all nph iso ${PRES} ${PRES} ${PCOUPL}
fix 2 all nph iso -1000 ${PRES} ${PCOUPL}
fix 2 all nph iso -1000 -1000 ${PCOUPL}
fix 2 all nph iso -1000 -1000 10000.0
fix 3 all temp/csvr ${TEMP} ${TEMP} ${TCOUPL} 837492
fix 3 all temp/csvr 277 ${TEMP} ${TCOUPL} 837492
fix 3 all temp/csvr 277 277 ${TCOUPL} 837492
fix 3 all temp/csvr 277 277 5000.0 837492


# Fix ice atoms in place
#
velocity ice set 0.0 0.0 0.0
fix 4 ice setforce 0.0 0.0 0.0

# Run 1.0 ns equilibration of water
#
dump 1 all atom 1000 eq.all.${NAME}.dump
dump 1 all atom 1000 eq.all.coexist_277K_-1000atm_mW.dump
run 100000
Neighbor list info ...
  update every 1 steps, delay 0 steps, check yes
  max neighbors/atom: 2000, page size: 100000
  master list distance cutoff = 6.3065
  ghost atom cutoff = 6.3065
  binsize = 3.15325, bins = 33 17 17
  1 neighbor lists, perpetual/occasional/extra = 1 0 0
  (1) pair sw, perpetual
      attributes: full, newton on
      pair build: full/bin/atomonly
      stencil: full/bin/3d
      bin: standard
Per MPI rank memory allocation (min/avg/max) = 4.595 | 4.602 | 4.611 Mbytes
Step Temp Press Volume TotEng KinEng PotEng c_1[4] 
       0    125.26413   -2160.1382    270148.08   -85909.396    3173.4296   -89082.826            0 
      50    153.20118   -1830.4872    267927.06   -85620.883     3881.184   -89502.067   0.98767862 
     100    160.27383   -859.34994    264157.73   -85410.045     4060.362   -89470.407    2.1995206 
     150    172.09263   -769.81495    262409.36   -85132.767    4359.7783   -89492.545    3.4459881 
     200       173.91   -441.27615     262341.5   -84860.708    4405.8194   -89266.528    4.7508072 
     250    178.09066   -973.48453    263583.16   -84590.561    4511.7318   -89102.293    5.9753282 
     300    182.14839   -1153.9854    264695.77   -84306.308    4614.5298   -88920.838    7.2592471 
     350    186.05502   -1206.6642    265144.61   -84013.356    4713.5002   -88726.856    8.7026451 
     400    189.19253   -1056.3555    264993.57   -83840.932    4792.9856   -88633.918    10.490669 
     450    194.14409   -981.24454    264557.88    -83649.45    4918.4277   -88567.878    12.263298 
     500    196.53437   -778.88385    264553.09   -83458.497     4978.983    -88437.48    14.028276 
     550    198.49363    -814.6768    265226.42   -83278.679    5028.6188   -88307.298    15.926055 
     600    206.35902   -1190.4822    266134.54    -83079.39    5227.8798    -88307.27     18.02808 
     650     203.4232    -1000.377    266371.83   -82918.804    5153.5039   -88072.308    20.063315 
     700    211.21584   -1020.7186    266225.58   -82715.463     5350.922   -88066.385    22.045807 
     750    213.22588   -708.35177    266153.19   -82577.534    5401.8441   -87979.378    24.272454 
     800     216.8947   -856.11743    266278.28   -82424.532    5494.7896   -87919.322    26.606961 
     850    216.60626    -830.2167    266695.81   -82296.374    5487.4823   -87783.856    28.670004 
     900    218.81176   -950.60562    267324.53   -82158.087    5543.3563   -87701.444    31.333282 
     950    224.95278   -1167.8598    267769.68   -82023.358    5698.9323    -87722.29    34.017511 
    1000    223.78368   -913.01535    267786.89    -81853.69    5669.3145   -87523.005     36.54042 
    1050    232.22386   -1087.2912    267732.53   -81756.754    5883.1371   -87639.892    39.026833 
    1100    229.91776   -1244.5527    267793.88    -81608.34    5824.7147   -87433.055    41.578439 
    1150    234.37541   -779.55837    267728.24   -81466.057    5937.6444   -87403.701    44.120859 
    1200    234.45912   -1270.5013    268083.26   -81393.067     5939.765   -87332.832    46.882327 
    1250    237.19587   -758.99014    268075.53   -81297.998    6009.0976   -87307.096    49.715038 
    1300    234.65806   -806.15923    268286.24    -81239.16    5944.8049   -87183.965    52.473684 
    1350     241.3677    -1110.561    268541.71   -81087.478    6114.7863   -87202.264    55.125621 
    1400    240.28369   -940.85267    268522.95   -80992.932    6087.3242   -87080.256    57.981863 
    1450    244.81777   -1138.5366    268641.89   -80883.207    6202.1901   -87085.397    60.840815 
    1500    243.49761   -937.48904    268803.03   -80852.917    6168.7452   -87021.662    63.659201 
    1550    245.10719     -880.281    268894.17   -80745.351    6209.5222   -86954.873    66.540008 
    1600    248.83425   -950.55476    268953.64   -80674.419    6303.9433   -86978.362    69.479308 
    1650    248.45673   -888.20324    269011.82   -80619.954    6294.3792   -86914.333    72.594821 
    1700    249.63215   -1079.8057    269268.78    -80557.44    6324.1571   -86881.598    75.440494 
    1750    250.35507   -925.69557    269522.85   -80462.776    6342.4715   -86805.248    78.648752 
    1800    251.04495   -1208.4219    269875.64   -80422.548    6359.9489   -86782.497    81.937841 
    1850    256.27652   -1004.6114    269762.33   -80335.631    6492.4849   -86828.116    84.831747 
    1900    252.50487   -823.68691    269544.36   -80282.231    6396.9343   -86679.165     87.89101 
    1950    254.27682   -859.80848    269590.93   -80221.561    6441.8246   -86663.386    90.793835 
    2000     253.7575   -817.31935    269826.55   -80117.669    6428.6683   -86546.337    93.484582 
    2050    260.51777   -1017.9279    270192.19   -80078.824    6599.9322   -86678.756    96.721457 
    2100    261.89421   -1054.1633    270372.63   -80043.086     6634.803   -86677.889    99.961551 
    2150    263.40172   -1201.7686    270466.17   -79947.297     6672.994   -86620.291    103.15947 
    2200     262.8395   -1039.3064    270296.58   -79893.273    6658.7508   -86552.024    106.64408 
    2250    265.17662   -998.30506    270174.36   -79876.429    6717.9592   -86594.388    109.74788 
    2300    262.83071   -1008.4794    269904.92   -79859.694    6658.5281   -86518.222    112.53815 
    2350    270.51517   -775.54423    269622.33   -79808.924    6853.2056    -86662.13    115.20971 
    2400    264.96851   -794.45493    269852.02   -79814.906    6712.6869   -86527.593     118.5413 
    2450    260.94801    -1043.644    270717.92   -79818.458    6610.8321    -86429.29    122.68158 
    2500    262.70353   -1443.6887    271224.95   -79813.136    6655.3061   -86468.443    126.59185 
    2550    268.38185    -1242.298    270730.03   -79741.421    6799.1602   -86540.581    129.24225 
    2600    266.41688   -937.76237    269908.74   -79762.618    6749.3799   -86511.998    132.72638 
    2650     266.6808   -925.84425    269786.86   -79777.885    6756.0659   -86533.951    136.13894 
    2700    272.37555   -944.55084    270319.78   -79730.475    6900.3362   -86630.811    139.68708 
    2750    266.43395   -1070.7537    270967.37   -79684.537    6749.8124    -86434.35    143.36004 
    2800    268.22302   -1390.2195     271360.7   -79703.678    6795.1365   -86498.815    147.13553 
    2850    269.25574   -1061.0832    271098.42   -79668.017    6821.2992   -86489.316    150.62053 
    2900    268.90145   -914.81844    270633.64   -79637.137    6812.3237   -86449.461     153.7665 
    2950    269.53809   -784.99614    270477.02   -79631.601    6828.4524   -86460.053    157.45188 
    3000    265.56928   -1209.2721    270658.45   -79626.933    6727.9068    -86354.84    160.83619 
    3050    267.00109   -1039.0933    270772.15   -79605.576    6764.1802   -86369.756    164.24023 
    3100    267.56131     -985.495    271080.53   -79535.279    6778.3727   -86313.651    167.79483 
    3150    267.97064   -1073.9157    271350.86   -79482.602    6788.7425   -86271.344     170.9976 
    3200    271.25355   -993.51104    271276.47   -79446.514    6871.9116   -86318.426    174.48532 
    3250    274.81072   -1115.3321    270944.62     -79425.1    6962.0285   -86387.129    177.99523 
    3300    271.05144    -1003.629    270498.53   -79445.019    6866.7914    -86311.81    180.91584 
    3350    270.44095   -985.65644    270291.67   -79473.456    6851.3253   -86324.781     183.4477 
    3400    272.04617   -978.42431    270459.58   -79482.896    6891.9918   -86374.888    186.70184 
    3450    271.24487   -747.40746    270607.24   -79536.212    6871.6916   -86407.904    190.61682 
    3500    270.84031   -1064.3791    271060.69   -79534.858    6861.4426   -86396.301    194.11066 
    3550    270.73799   -1191.1347       271389   -79510.933    6858.8504   -86369.784    197.62225 
    3600    271.65996   -930.43647    271232.25   -79500.725    6882.2074   -86382.933    200.39543 
    3650    269.55171   -1115.2857    270771.13   -79481.688    6828.7973   -86310.486    203.01225 
    3700    269.75199   -1070.4531    270502.54   -79441.948    6833.8712   -86275.819    206.05871 
    3750    276.75507    -994.5774    270654.12    -79345.52    7011.2866   -86356.807     209.8954 
    3800    273.92683   -969.41864    271062.37   -79335.919    6939.6362   -86275.555    213.92552 
    3850    275.45772   -1162.4327    271411.64    -79283.66    6978.4197    -86262.08    217.71718 
    3900    278.11149   -1172.5469    271426.38   -79252.218    7045.6499   -86297.868    220.65353 
    3950    277.57824   -989.88473    271440.39   -79248.702    7032.1406   -86280.843    224.67729 
    4000    272.60822   -908.16933    271445.01   -79307.362    6906.2307   -86213.593    228.54038 
    4050    275.10947    -1089.853    271384.08   -79313.336    6969.5972   -86282.933    231.64171 
    4100    278.43992    -1074.303    271158.04   -79305.088    7053.9703   -86359.058    235.27523 
    4150    275.31134   -898.99525     270897.2   -79346.523    6974.7111   -86321.234    238.58648 
    4200    274.22969   -1139.4593    270711.48   -79317.753    6947.3089   -86265.062    241.13854 
    4250    279.42469   -635.74883    270735.54   -79299.982    7078.9185     -86378.9    244.72286 
    4300    277.48636   -960.53167    271359.51   -79275.872    7029.8131   -86305.685    247.63805 
    4350    273.35079   -1090.1378    271733.86   -79267.197    6925.0429    -86192.24    250.66637 
    4400     271.6758   -1142.8072    271515.45   -79286.681    6882.6089    -86169.29    254.04554 
    4450     277.7905   -710.20318    270980.78   -79281.439     7037.518   -86318.957    257.05309 
    4500    277.59632   -1192.8668    270929.89   -79265.547    7032.5987   -86298.146    260.62164 
    4550    273.30185   -954.14542    271103.57   -79255.545     6923.803   -86179.348    263.94009 
    4600    276.89743    -1245.386    271474.85    -79220.75    7014.8931   -86235.644    267.71382 
    4650    273.02205   -1190.8867    271566.68   -79230.342    6916.7146   -86147.056    271.56538 
    4700    279.42747    -1237.494     271311.6    -79226.13    7078.9889   -86305.119    274.63001 
    4750    275.65071   -818.59156    271025.09   -79257.974    6983.3088   -86241.282    277.46637 
    4800     277.6775   -1014.6626    271174.12   -79224.356    7034.6553   -86259.011    281.67472 
    4850    277.56262   -853.26639    271285.24   -79181.076    7031.7449   -86212.821     285.4098 
    4900    276.70876   -988.49354    271486.73   -79188.752    7010.1133   -86198.865    289.34124 
    4950    279.86375   -1199.3458    271533.03   -79200.647    7090.0416   -86290.689    293.10558 
    5000    275.18454   -875.61715    271477.24    -79196.78    6971.4989   -86168.279    297.35002 
    5050    274.73609   -959.64244    271454.46   -79206.185    6960.1379   -86166.323    300.05892 
    5100    276.72501   -847.11421    271367.31   -79188.705    7010.5251    -86199.23    302.52692 
    5150    273.63546   -944.53378    271378.63   -79207.504    6932.2546   -86139.759    304.43931 
    5200    274.86257    -1080.293    271309.04   -79161.181     6963.342   -86124.523    306.86115 
    5250    283.29046   -1026.3006    270958.39   -79148.849    7176.8535   -86325.702    309.65013 
    5300    278.61539   -821.12947    270891.43   -79100.681    7058.4156   -86159.096    312.25137 
    5350    279.61807    -642.7105    271217.25   -79093.691    7083.8174   -86177.508    315.79967 
    5400    278.07038   -970.92183    271914.48   -79095.561    7044.6085    -86140.17    319.83064 
    5450    279.19181   -1294.3946    272269.14   -79075.216    7073.0186   -86148.235    323.05252 
    5500    275.75456   -1168.9285    272135.29   -79073.241    6985.9397   -86059.181    325.97161 
    5550    275.54351   -1078.0853    271715.37   -79115.162    6980.5929   -86095.755    328.84698 
    5600    283.40942   -821.12743    271139.36   -79097.909    7179.8672   -86277.776    331.34835 
    5650    278.79054   -671.29295    270938.05     -79095.4    7062.8531   -86158.253    334.59174 
    5700    278.49545   -1045.9681    271366.98    -79038.84    7055.3771   -86094.217    338.70669 
    5750    281.51209   -1148.9957     271947.9    -79058.38    7131.8004    -86190.18    341.97342 
    5800    279.09554   -1032.3504    272141.92   -79072.109    7070.5797   -86142.689     345.0659 
    5850    276.93223   -1094.0075    272001.01   -79062.774    7015.7748   -86078.549    347.20291 
    5900    277.40583    -955.0277    271751.82   -79023.063    7027.7728   -86050.836    349.24342 
    5950    279.74053   -980.55323    271504.53   -79001.908      7086.92   -86088.828    351.03816 
    6000    281.31956    -855.5345    271322.72   -79048.476    7126.9229   -86175.399    353.97907 
    6050    276.90782   -855.46029     271366.5   -79089.369    7015.1564   -86104.526    356.07301 
    6100    280.34766   -862.32114    271526.26   -79092.674    7102.3008   -86194.975    359.48145 
    6150    280.85781   -1201.9771    271872.32   -79055.913     7115.225   -86171.138    362.83671 
    6200    278.94805   -849.01682    271886.23   -79050.801    7066.8434   -86117.645    365.88364 
    6250    279.15534   -995.54031    271829.03   -79007.472    7072.0946   -86079.567    368.55208 
    6300     279.2027   -883.30995    271719.99   -79008.774    7073.2947   -86082.068    371.75736 
    6350    279.38258   -933.30899    271785.99   -79044.283    7077.8517   -86122.135    375.66082 
    6400    282.42309   -955.58887    271788.35   -78979.441    7154.8795   -86134.321     378.9042 
    6450    282.80123   -937.75047    271757.56   -78976.825    7164.4595   -86141.285    381.17426 
    6500    282.37131   -1071.7266    271843.28    -78979.79    7153.5679   -86133.358    384.92011 
    6550    284.43719   -1009.9636    271843.15   -78986.587    7205.9046   -86192.492    388.52715 
    6600    280.94975   -967.98235    271475.99   -79075.842    7117.5543   -86193.396     391.1524 
    6650    277.48594   -1009.5482    271276.03   -79112.278    7029.8024    -86142.08    394.28874 
    6700    278.37461   -1017.6026    271331.31   -79127.324    7052.3158    -86179.64    398.13916 
    6750    275.12806   -1046.7641    271525.14   -79148.135    6970.0679   -86118.203    401.38233 
    6800    275.70116   -1005.9979    271784.94   -79148.666    6984.5868   -86133.253    404.45517 
    6850     273.9114   -1231.8517    271858.48   -79152.436    6939.2452   -86091.681    407.68394 
    6900    277.32642   -865.34906    271593.37   -79174.065    7025.7611   -86199.826    409.72584 
    6950    280.87974   -1363.9277    271455.29   -79155.987    7115.7805   -86271.767    412.48979 
    7000    281.07215   -1121.7077    270895.73   -79155.828    7120.6551   -86276.483    414.74373 
    7050    279.44386   -640.73149    270657.53   -79147.349    7079.4042   -86226.753    417.60471 
    7100    275.11712   -983.51795       271332   -79093.757    6969.7909   -86063.547    420.07236 
    7150    277.28368   -1164.2071    271988.95   -79091.259    7024.6784   -86115.938    424.06188 
    7200    273.95672   -1017.0686     271997.6   -79061.707    6940.3935     -86002.1    427.00112 
    7250    279.39237   -1032.3983    271573.21   -79029.664    7078.0995   -86107.763    429.76487 
    7300    282.06354   -960.03908    271216.44   -79028.059    7145.7709    -86173.83    431.70792 
    7350    278.61162   -918.94962     271055.1   -79053.831    7058.3201   -86112.151    434.15725 
    7400     279.5278   -932.28878    270939.48   -79061.957    7081.5307   -86143.488    436.99752 
    7450    280.11461   -795.71165    271038.04   -79039.637    7096.3968   -86136.033    439.15521 
    7500    283.64955    -1130.882    271559.83   -79063.703    7185.9507   -86249.654    442.64578 
    7550    276.04117   -1038.1343    271646.78   -79103.877    6993.2008   -86097.078       446.25 
    7600    279.55621    -992.4705    271597.64   -79110.213    7082.2502   -86192.463    448.19998 
    7650    282.01529   -1128.4754    271496.31   -79090.051    7144.5484   -86234.599    449.18125 
    7700    276.72945   -1000.6822    271509.83   -79085.313    7010.6376   -86095.951     451.3109 
    7750    277.96405   -1015.4416    271389.31   -79104.888    7041.9146   -86146.803    453.66431 
    7800    276.43179   -973.61666    271124.14   -79142.786    7003.0967   -86145.883    456.72568 
    7850    276.04488   -790.45635    270813.04   -79136.643    6993.2946   -86129.938    459.95497 
    7900     278.2115   -949.45481    271041.26   -79095.818    7048.1835   -86144.001    463.21162 
    7950    280.41989   -862.71359    271400.68   -79112.345    7104.1308   -86216.475    466.57769 
    8000    278.65876   -1025.8476    271731.84   -79100.191    7059.5144   -86159.705     469.5959 
    8050    281.09738   -1047.4632    271732.22   -79119.355    7121.2942   -86240.649    473.12794 
    8100    275.89797   -994.06946    271557.23   -79151.558    6989.5729   -86141.131    475.65275 
    8150    274.83959   -894.87244    271134.48   -79195.855    6962.7599   -86158.614    476.57516 
    8200    277.80528   -927.25646    270937.07    -79165.39    7037.8925   -86203.282     478.1627 
    8250    273.99311   -947.86748     271011.3   -79166.977    6941.3153   -86108.292    480.74833 
    8300    273.18476   -833.54771    271298.72   -79143.532    6920.8367   -86064.369     483.7236 
    8350     276.1377   -1319.7801    271572.49   -79202.168    6995.6462   -86197.814    486.44767 
    8400    275.04012   -962.32104    271416.93   -79218.527    6967.8402   -86186.367    489.84758 
    8450    273.13338   -905.27684    271038.55   -79216.942    6919.5351   -86136.477    492.29224 
    8500    278.33024   -863.84646    270852.83   -79175.282    7051.1918   -86226.474    495.70745 
    8550    278.40279   -694.94826    271020.65   -79133.581    7053.0296    -86186.61    498.14219 
    8600      277.844   -977.75417    271441.96   -79131.642    7038.8735   -86170.516    502.35329 
    8650    278.39053   -1142.4919    271963.21   -79077.981    7052.7192     -86130.7    507.08001 
    8700    276.16443   -901.30653    271982.14    -79050.87    6996.3233   -86047.194    510.03713 
    8750    281.48179   -1063.9224     271704.8   -79038.349    7131.0328   -86169.381    512.35678 
    8800    282.41716   -1128.5243    271400.34   -79031.647    7154.7295   -86186.376    515.86418 
    8850    280.06583   -747.65633    271131.31   -79014.944    7095.1611   -86110.105    518.28933 
    8900    276.65206   -1138.8979    271280.51    -79015.91    7008.6769   -86024.587    522.21672 
    8950    282.03342   -1037.8556    271646.15   -78992.266    7145.0077   -86137.273    526.22735 
    9000    277.51047   -1035.4573    272226.12   -78994.276    7030.4237     -86024.7      530.175 
    9050     281.4787   -1078.1064    272134.49   -78971.699    7130.9544   -86102.654    534.18875 
    9100    281.49528   -1174.7801    271520.45   -78993.539    7131.3747   -86124.914    536.09261 
    9150    283.11644    -895.9217    270786.81   -79031.595    7172.4449    -86204.04    537.68344 
    9200    289.38189   -1107.0372    270606.59   -79001.305    7331.1731   -86332.478    540.84749 
    9250    282.28071   -891.40228    271010.72    -78987.74    7151.2726   -86139.013    544.06522 
    9300    280.76387   -1123.2627    271680.82   -79034.263    7112.8451   -86147.108    548.10544 
    9350    281.32406   -1179.0156    271894.28   -79033.907    7127.0368   -86160.944    551.20191 
    9400    278.94766   -1136.6552    271586.16   -79076.027    7066.8335   -86142.861    553.04177 
    9450    279.88012   -780.94732    271066.59    -79089.26    7090.4563   -86179.716    554.64079 
    9500     284.4974    -965.3451    270916.39   -79084.523    7207.4301   -86291.953    556.37659 
    9550     275.6163   -864.02461    270881.65   -79091.028     6982.437   -86073.465    558.65952 
    9600    277.32764   -996.17908    271174.56   -79081.069     7025.792   -86106.861    561.96192 
    9650    280.02783   -938.69114    271577.28   -79038.489    7094.1984   -86132.688    564.92266 
    9700     276.6779   -1015.5054    272036.67   -79031.614    7009.3315   -86040.946     568.0497 
    9750    273.14141   -1074.9329    272118.97   -79106.503    6919.7384   -86026.241    570.58966 
    9800      277.428   -1006.2848    271739.25   -79094.867    7028.3344   -86123.202    572.92627 
    9850    277.85746   -982.36418    271184.69    -79098.72    7039.2145   -86137.935     574.4468 
    9900    282.99912   -773.14027    270965.96   -79055.723    7169.4728   -86225.195    576.78711 
    9950     277.4606   -750.24822    271298.28   -79061.967    7029.1603   -86091.127     581.0966 
   10000    280.30138   -961.22164    271789.46   -79074.798    7101.1285   -86175.927    584.27804 
   10050    281.86825   -1116.2303    271898.97   -79071.138    7140.8235   -86211.961    587.34682 
   10100    278.04898   -1056.8307    271886.89   -79062.058    7044.0664   -86106.125    589.57534 
   10150    282.52048    -1235.727    271824.56   -79061.173    7157.3468    -86218.52    591.42494 
   10200     280.7905   -996.12955    271383.79    -79102.27    7113.5198    -86215.79     593.6517 
   10250    277.53282   -789.88845    270973.72   -79058.501      7030.99   -86089.491    595.78104 
   10300    282.83854   -915.76059    271082.84   -79032.311    7165.4045   -86197.716     600.6301 
   10350    276.02907   -789.60287    271348.95   -79051.218    6992.8942   -86044.112    604.77289 
   10400    281.14271   -1224.3698     271380.8    -79074.85    7122.4426   -86197.293    608.48604 
   10450    279.23072   -991.07369    271211.92   -79056.871    7074.0044   -86130.875    610.71959 
   10500    279.28278    -819.0448    270949.52   -79040.084    7075.3233   -86115.408    612.45988 
   10550    278.84302   -781.62065    271290.26   -79013.899    7064.1825   -86078.082    616.17688 
   10600    279.63325   -1167.3776    272114.58   -78996.243     7084.202   -86080.445    619.42698 
   10650    278.22294   -1274.3369     272535.6   -79016.127    7048.4735     -86064.6    623.42859 
   10700    278.67394   -1078.1407     272192.8   -79067.611    7059.8989   -86127.509    625.39279 
   10750    274.98527   -884.40284     271527.4    -79070.92    6966.4505   -86037.371    627.72658 
   10800    279.59105   -916.85889    271091.69   -79083.585    7083.1329   -86166.718    630.40689 
   10850    279.58262   -828.35815    271141.31   -79087.696    7082.9195   -86170.615    633.37524 
   10900     278.0954   -1180.0794     271660.8   -79081.044    7045.2424   -86126.286     635.5096 
   10950    279.96769   -1328.3847     271796.3   -79113.494    7092.6748   -86206.168    637.09789 
   11000    279.89913   -965.45256    271202.81   -79146.272     7090.938    -86237.21    638.76985 
   11050    273.03029    -907.2888    270786.48   -79138.814    6916.9233   -86055.737    640.25903 
   11100     279.0279   -580.97697    270588.54   -79181.901    7068.8662   -86250.767    642.40533 
   11150    276.31149   -1172.6473    270997.41    -79171.89    7000.0488   -86171.939    645.37955 
   11200    277.30885   -1051.2814    271237.82   -79187.658    7025.3159   -86212.974    648.81192 
   11250     278.9232   -1039.9326    271518.73   -79175.932    7066.2137   -86242.145    652.00056 
   11300    277.49438   -1135.9271     271671.6   -79196.778    7030.0161   -86226.794    656.04889 
   11350     277.0897   -953.26729    271473.83   -79210.178    7019.7639   -86229.942    658.56445 
   11400    274.92913   -888.70684    271168.88   -79234.266    6965.0284   -86199.294    661.27465 
   11450    276.10838    -872.8957    271098.87    -79191.88    6994.9034   -86186.784    663.13471 
   11500    277.37885   -969.37383    271426.36   -79118.792    7027.0893   -86145.881     666.3685 
   11550    278.58351   -1203.3858    271766.75   -79098.966     7057.608   -86156.574    669.71799 
   11600    279.51624   -1225.1154    271605.29   -79139.249    7081.2378   -86220.487    672.58016 
   11650    276.06184    -1065.751    271195.45   -79219.315    6993.7243   -86213.039    673.25777 
   11700    274.31199   -915.48593    270854.63   -79193.058    6949.3938   -86142.451    675.18408 
   11750    274.02462   -857.19347    270966.69   -79230.952    6942.1136   -86173.065    676.55627 
   11800     273.5844   -1287.5162     271527.3   -79256.673    6930.9612   -86187.634    680.13589 
   11850    274.66473    -1126.599    271697.32    -79264.81      6958.33    -86223.14    682.76527 
   11900    275.24065    -977.4679    271446.98   -79252.835    6972.9203   -86225.756    684.59615 
   11950    276.47441    -1035.333    271262.47   -79239.272    7004.1763   -86243.448    687.33734 
   12000    272.97617   -847.14067    271276.94   -79256.552    6915.5522   -86172.104    691.46809 
   12050    274.57759   -1007.0443    271628.05   -79278.217    6956.1226   -86234.339    695.45575 
   12100    268.30112   -1103.1938    271866.59   -79240.979    6797.1149   -86038.093     698.1045 
   12150    272.93888    -1056.918    271713.47   -79200.019    6914.6075   -86114.626    700.19444 
   12200    274.92539   -884.98338    271209.25   -79168.209    6964.9336   -86133.143    701.51568 
   12250     278.8857   -800.92526     270925.8   -79200.296    7065.2638    -86265.56    704.19153 
   12300    280.63071   -1200.7284    271073.27   -79113.219    7109.4715   -86222.691    707.98774 
   12350    278.58701   -882.82845    271155.11   -79155.069    7057.6967   -86212.765    711.25298 
   12400    275.32732   -891.36576    271346.03   -79118.759    6975.1161   -86093.875    713.92977 
   12450    274.93732   -984.65914    271750.35   -79085.275    6965.2358   -86050.511    717.96348 
   12500    278.11649   -1014.0435    271937.79   -79106.152    7045.7766   -86151.929    720.53823 
   12550     278.2845   -1005.7599     271652.4   -79101.016     7050.033   -86151.049    721.60753 
   12600    277.56658   -988.05972    271146.75    -79130.87    7031.8453   -86162.715     723.2875 
   12650    280.61323   -828.29838    270703.74   -79152.876    7109.0289   -86261.905    725.65068 
   12700    278.84495   -761.38099    270830.06   -79165.964    7064.2313   -86230.195    728.32503 
   12750    275.13156   -986.55978     271421.3   -79146.213    6970.1567   -86116.369    731.53138 
   12800    277.34609   -1061.3339    271931.03   -79162.085    7026.2595   -86188.345    734.71303 
   12850    275.62636   -1114.5571    271888.13   -79193.983    6982.6919   -86176.674    738.58031 
   12900    278.74461   -1039.3047    271432.41   -79175.455    7061.6893   -86237.144    740.96611 
   12950    276.74909   -896.84888    270903.37   -79181.336    7011.1349   -86192.471    741.95711 
   13000    277.89831   -824.61839    270683.83   -79160.067    7040.2493   -86200.316    744.71234 
   13050    276.52734   -897.06864    270888.48   -79134.485    7005.5174   -86140.003    749.00727 
   13100    279.42853    -1061.609    271435.68   -79089.224    7079.0158    -86168.24    753.60548 
   13150      275.812   -1072.4456    271978.51   -79103.004    6987.3948   -86090.399    756.66997 
   13200    273.66486    -1240.221    272143.06   -79113.115    6932.9994   -86046.114    760.23327 
   13250    280.78907   -1204.4521    271947.67   -79103.237    7113.4836    -86216.72    762.80521 
   13300     277.5869    -968.3602     271451.3   -79113.107      7032.36   -86145.467    765.69901 
   13350    278.81469   -808.57433    270958.43   -79117.788    7063.4648   -86181.253    767.00827 
   13400    275.95354   -653.82351    270884.68    -79161.74    6990.9807    -86152.72    768.60509 
   13450    279.52129   -1010.2857    271220.95   -79119.883    7081.3656   -86201.248    770.55954 
   13500    279.79288   -1164.9646    271654.67   -79104.953    7088.2461   -86193.199    774.37974 
   13550    277.85053   -1156.5177    271655.87   -79093.697    7039.0387   -86132.735    776.52086 
   13600    280.05932   -1132.5842    271374.09   -79115.444     7094.996    -86210.44    779.30314 
   13650     280.2487   -848.11197    271252.12   -79143.094    7099.7938   -86242.888    781.05168 
   13700     281.9107   -1196.8991    271266.12   -79151.686    7141.8987   -86293.585    783.35184 
   13750    279.45463    -1097.747    271253.17   -79144.688    7079.6768   -86224.365    787.48955 
   13800    276.25763   -1002.1665    271294.73    -79123.91    6998.6844   -86122.595     791.4448 
   13850    278.73416   -878.03207    271151.58   -79125.504    7061.4245   -86186.929    794.37402 
   13900    279.52942   -980.98062    271135.15   -79148.352    7081.5716   -86229.924    796.23754 
   13950     278.8289   -1075.8709    271131.12   -79162.015    7063.8247    -86225.84    798.18211 
   14000    275.50543     -1141.87    271267.48   -79169.644    6979.6283   -86149.272    801.93579 
   14050     272.6052   -784.56085    271427.57   -79175.668    6906.1541   -86081.822    804.94244 
   14100    277.22138   -931.55873    271648.49   -79143.256    7023.1001   -86166.356    808.33707 
   14150    281.50088   -1060.1803    271911.42   -79149.488    7131.5163   -86281.004    812.09493 
   14200    278.81096   -1165.2032    271877.94    -79181.99    7063.3703    -86245.36    815.22927 
   14250    271.81437    -974.1203    271232.45   -79225.002    6886.1194   -86111.121    818.53906 
   14300    278.52043   -674.07468    270597.01   -79236.896    7056.0099   -86292.905    819.29006 
   14350    279.02056   -906.96592    270646.35   -79264.687    7068.6802   -86333.367    820.85322 
   14400    275.24504   -973.40891    271035.69   -79251.309    6973.0316   -86224.341    824.83111 
   14450    277.39906    -1223.367    271573.56   -79234.124    7027.6013   -86261.725    829.06134 
   14500    275.67805   -1085.5818     271674.4   -79189.603    6984.0015   -86173.605    832.72002 
   14550    278.21785   -930.20001    271397.03   -79207.369    7048.3446   -86255.714    837.21744 
   14600    277.99571   -1274.1197    271248.23    -79225.25    7042.7169   -86267.967    839.73638 
   14650    276.99171   -844.06179     271037.9   -79211.864    7017.2816   -86229.146    843.07022 
   14700    277.68275   -1008.0376    271262.34   -79163.659    7034.7883   -86198.447    847.09234 
   14750    276.48715    -1050.017    271600.81   -79176.777    7004.4992   -86181.276    851.02347 
   14800    280.01434   -1176.3977    271589.27   -79172.016    7093.8566   -86265.873    853.47282 
   14850    279.80165   -977.83552    271005.47   -79186.001    7088.4684    -86274.47    854.60391 
   14900     275.9923   -955.61443    270841.46   -79181.799    6991.9625   -86173.761    857.83451 
   14950    278.62054   -955.33121    271094.73   -79235.296    7058.5463   -86293.842     861.7301 
   15000    279.74395   -1219.9805    271404.99   -79237.228    7087.0065   -86324.235    865.34394 
   15050    275.68463   -1212.8453    271341.91   -79273.789    6984.1682   -86257.957    867.30732 
   15100    273.33898   -1055.8482    271051.23   -79279.337    6924.7437   -86204.081    868.94899 
   15150    277.75542   -1056.1513    271128.92    -79294.62    7036.6293   -86331.249    872.00895 
   15200    275.33833   -976.30276    271216.55   -79328.785    6975.3951    -86304.18    874.72878 
   15250    273.38612   -842.02128    271260.89   -79312.804     6925.938   -86238.742    877.31439 
   15300    273.05268   -1207.2338    271508.59   -79308.839    6917.4905    -86226.33     880.0774 
   15350    272.84076   -976.24675    271304.65    -79311.96    6912.1217   -86224.081    882.55095 
   15400    278.91648   -1068.5474    270788.84   -79342.986    7066.0436   -86409.029    883.76755 
   15450    272.74482    -610.6255    270302.43   -79442.935    6909.6913   -86352.626    885.54444 
   15500    273.60438   -961.44154    270596.63   -79454.616    6931.4672   -86386.083    888.73062 
   15550    267.58015   -969.73109    271200.46   -79457.587    6778.8499   -86236.437    893.13874 
   15600    275.50776   -1104.0179    271491.78   -79403.891    6979.6873   -86383.578    895.71157 
   15650    272.98341   -1028.0782    271364.97   -79356.855    6915.7358   -86272.591    896.93702 
   15700    274.19274   -797.27256    271335.55   -79315.572    6946.3727   -86261.945    898.14877 
   15750    275.48934   -1155.5101    271514.24   -79272.007    6979.2207   -86251.227    901.07502 
   15800    278.94684   -1081.8287    271414.18   -79288.787    7066.8127   -86355.599    904.80093 
   15850    271.58789   -1364.8132     271001.6   -79299.628    6880.3817    -86180.01     907.9493 
   15900    275.23222   -642.54879    270259.84   -79317.697    6972.7068   -86290.404    910.04917 
   15950    275.82899    -717.3284    270124.03   -79335.995    6987.8254   -86323.821    914.04278 
   16000    275.75617    -1010.116    270697.58   -79297.178    6985.9805   -86283.159    919.39181 
   16050    272.90804   -1162.6888    271392.62   -79302.909    6913.8263   -86216.735    922.87758 
   16100    275.92605   -1041.1763    271620.59   -79298.414    6990.2842   -86288.698    925.12492 
   16150    277.04846    -1383.829    271625.19   -79281.113    7018.7192   -86299.832    928.58345 
   16200    277.22971   -805.00507    271252.04   -79207.234    7023.3111   -86230.545    929.25245 
   16250    279.91874   -1116.0271    271248.28   -79201.177    7091.4347   -86292.611    932.06362 
   16300    276.06933   -1010.8614       271293   -79177.515    6993.9141   -86171.429    935.11252 
   16350    277.61142    -1010.867    271365.16   -79139.625    7032.9812   -86172.606    940.07854 
   16400     278.1127   -1043.7127    271457.89   -79179.799    7045.6805    -86225.48    943.27683 
   16450    276.61925   -924.55896    271454.56   -79162.786    7007.8458   -86170.631    945.59516 
   16500    279.96045   -1204.1021    271494.92   -79170.853    7092.4914   -86263.344    949.52417 
   16550    279.39229   -978.57151    271183.32   -79245.243    7078.0976    -86323.34    952.33384 
   16600    275.65226   -928.57887    271122.08   -79225.328    6983.3482   -86208.676    955.24932 
   16650    272.95978   -974.50805    271303.43   -79260.625    6915.1371   -86175.762    958.23935 
   16700    274.73758   -786.89799    271317.38   -79237.632    6960.1756   -86197.807    961.21991 
   16750    275.00815   -1024.5203    271343.98   -79202.517    6967.0303   -86169.548    963.34898 
   16800    275.95053   -1015.7217    271306.06   -79168.254    6990.9044   -86159.158    964.57601 
   16850    277.48491   -964.36143    271273.59   -79150.171    7029.7763   -86179.948    967.63935 
   16900    277.01752   -990.12645     271172.1   -79169.913    7017.9353   -86187.848    970.78354 
   16950    277.69137   -976.15758    271152.81   -79164.369    7035.0068   -86199.376    975.09414 
   17000    280.72596   -1066.4147     271217.3    -79178.86    7111.8846   -86290.745     978.0308 
   17050    277.74183   -782.81842    271340.04   -79152.811    7036.2851   -86189.096    980.23724 
   17100    277.71628   -970.09524    271766.11   -79140.413    7035.6378   -86176.051    984.08965 
   17150     272.2065   -1137.5832    272054.72   -79152.889    6896.0535   -86048.942    988.18027 
   17200    276.18833   -1006.3858     271791.1   -79174.743    6996.9287   -86171.672    989.95436 
   17250    274.50936   -962.58906    271302.88   -79197.176    6954.3939   -86151.569     989.3969 
   17300     276.6199   -835.45924    270769.81   -79222.117    7007.8623    -86229.98    991.79746 
   17350       274.61    -934.9833    270673.03   -79246.451    6956.9436   -86203.395    994.84821 
   17400    271.26205   -581.76475    270943.32   -79256.899     6872.127   -86129.026    996.66987 
   17450    276.96322   -1184.7449    271706.29    -79239.55    7016.5598    -86256.11    1001.8474 
   17500    273.05032   -1183.6511     271963.3   -79294.655    6917.4307   -86212.085    1006.0932 
   17550    273.05636   -961.11028    271540.64   -79300.298    6917.5837   -86217.882    1009.0043 
   17600    272.42042   -768.67855    270943.05   -79310.253    6901.4728   -86211.725    1009.6072 
   17650    276.06412   -919.03558     270583.1   -79294.568    6993.7822    -86288.35    1011.8943 
   17700    277.69688    -891.0287    270794.05   -79322.045    7035.1464   -86357.191    1016.5525 
   17750    273.08787   -1011.2408    271373.73   -79322.802    6918.3819   -86241.184    1020.3507 
   17800    274.19782   -1152.5663    271736.63   -79331.778    6946.5015    -86278.28    1026.0855 
   17850    267.65794   -955.93083    271435.75   -79370.742    6780.8208   -86151.563    1027.8623 
   17900    275.00865   -934.52153    270946.43   -79328.766    6967.0429   -86295.809    1030.9295 
   17950    272.43471   -926.30919     270492.4   -79365.701    6901.8349   -86267.536    1032.8098 
   18000    272.71988   -630.34451    270256.87   -79366.473    6909.0594   -86275.533    1035.6321 
   18050    272.78896   -1038.8581    270793.56   -79393.849    6910.8094   -86304.659    1039.2777 
   18100    274.46234   -1122.5462    271247.55   -79392.432    6953.2028   -86345.635    1044.2415 
   18150     271.5123    -891.8167    271259.93   -79399.374    6878.4667   -86277.841    1046.6559 
   18200    275.37013   -921.77211    271382.21   -79400.667    6976.2006   -86376.868    1048.9056 
   18250    270.36233   -1110.7104     271429.4   -79433.335    6849.3334   -86282.669    1051.2276 
   18300    270.79378   -948.64098    271226.09   -79409.882    6860.2638   -86270.146    1053.3112 
   18350    271.76375   -942.44266    271080.65   -79383.182    6884.8368   -86268.018    1056.7349 
   18400    267.19973   -903.10878    271082.76   -79408.679    6769.2125   -86177.892    1060.0415 
   18450    272.96102   -773.42604    271162.57   -79385.591    6915.1684    -86300.76    1062.9412 
   18500    270.05624    -997.5238    271377.73   -79343.995    6841.5791   -86185.574    1066.4294 
   18550    272.47829   -1088.5424    271400.74    -79319.34    6902.9391   -86222.279     1067.822 
   18600    272.94283   -1220.0601    271214.31   -79319.545    6914.7075   -86234.253    1069.5272 
   18650    274.13924   -928.96294    270766.32   -79297.209    6945.0174   -86242.227    1072.8611 
   18700    276.50909   -840.54235    270644.76   -79242.456    7005.0548   -86247.511    1076.2451 
   18750    276.95065   -935.65081     271101.3    -79229.04    7016.2413   -86245.282    1081.9158 
   18800    280.67409   -893.87504    271606.81   -79168.372    7110.5706   -86278.942    1087.6873 
   18850    277.59618   -1173.6905    271826.55   -79170.442    7032.5953   -86203.037    1089.5234 
   18900    278.99291   -1172.6667    271510.67   -79216.545    7067.9797   -86284.525    1091.8244 
   18950    276.59889   -831.30602     271124.5   -79274.506      7007.33   -86281.836    1093.9731 
   19000    274.15838   -1243.2502    271028.88   -79247.159    6945.5024   -86192.662    1096.2483 
   19050    276.32504   -1007.2666    270958.58    -79277.27    7000.3923   -86277.662    1100.0042 
   19100    278.69366   -1045.2469    271104.24   -79259.824    7060.3987   -86320.223    1103.6046 
   19150    277.52227   -831.03377    271210.71   -79244.434    7030.7228   -86275.157    1108.5084 
   19200    278.75834   -1217.6032     271671.9   -79225.446    7062.0372   -86287.483    1112.9796 
   19250    273.93613   -1243.8915    271870.19   -79208.708    6939.8718   -86148.579    1115.7472 
   19300    276.42706   -901.51399    271460.09   -79215.286    7002.9768   -86218.263    1118.7922 
   19350    279.30258   -945.02708    271080.49   -79215.278    7075.8248   -86291.103    1120.7076 
   19400     279.7698   -783.29433    270883.79   -79200.978    7087.6614   -86288.639    1124.4827 
   19450    280.45142   -1088.6404    271223.26   -79173.906    7104.9296   -86278.836    1128.7147 
   19500    278.63773   -1399.4652    271542.95   -79162.626    7058.9818   -86221.608    1134.4424 
   19550    278.44258   -979.07396    271337.04   -79212.085    7054.0378   -86266.123    1138.2192 
   19600    275.47203   -831.16003    271112.96   -79227.185     6978.782   -86205.967    1141.5296 
   19650      276.661   -979.09196    271080.44   -79214.252    7008.9035   -86223.156    1143.9497 
   19700    277.55598   -1278.5286    271139.57   -79218.029    7031.5768   -86249.606    1148.1761 
   19750    277.91761   -1024.2415    271240.43   -79201.533    7040.7383   -86242.271    1151.4909 
   19800    273.82279   -1040.6581    271522.47   -79192.111    6937.0005   -86129.112     1158.238 
   19850    275.74022   -949.61997    271484.31   -79192.282    6985.5765   -86177.858     1160.328 
   19900    274.25127    -1070.115    271339.41   -79176.045    6947.8556   -86123.901    1159.8014 
   19950    281.69133   -1181.3966    271124.06   -79185.108    7136.3414   -86321.449    1160.8331 
   20000    278.66335   -907.03685    270951.04   -79201.011    7059.6306   -86260.642    1163.3835 
   20050    274.09404   -868.68924     271049.8   -79215.468    6943.8723    -86159.34    1166.6405 
   20100    276.98409   -1030.2211    271205.87   -79228.976    7017.0886   -86246.064    1170.1889 
   20150    274.10431   -796.71235    271193.53   -79280.556    6944.1323   -86224.689    1172.8992 
   20200    274.41214   -1075.0214    271260.68   -79258.677     6951.931   -86210.608    1174.3465 
   20250    278.34013   -1142.5177    271241.85   -79258.845    7051.4423   -86310.287      1175.24 
   20300    274.49587   -820.87908    271178.06   -79255.992    6954.0522   -86210.044    1177.1603 
   20350    274.99347   -758.96305    271178.11   -79218.074    6966.6582   -86184.733    1179.7496 
   20400    277.51767   -1150.2316    271214.91    -79212.71    7030.6062   -86243.316    1182.7445 
   20450     279.6286   -1053.8804    270918.71   -79235.853    7084.0842   -86319.937     1183.412 
   20500    278.28545   -816.35942    270632.25   -79261.983     7050.057    -86312.04     1183.991 
   20550    273.52172   -847.88716    270969.76   -79233.091    6929.3732   -86162.464    1187.7763 
   20600    274.66075   -821.46256    271575.07   -79217.557    6958.2293   -86175.786    1193.4133 
   20650    272.73019   -1110.6888    271905.89   -79235.277    6909.3207   -86144.598    1197.7763 
   20700    268.56422   -1216.6344    271681.24   -79250.438    6803.7802   -86054.218    1199.3222 
   20750    278.78884   -1037.0767    270733.45   -79221.372      7062.81   -86284.182    1198.8718 
   20800    278.16985   -627.29358    270135.13   -79259.853    7047.1285   -86306.982    1200.1657 
   20850    278.89877   -872.59519    270756.02    -79232.91    7065.5948   -86298.505    1202.4639 
   20900    271.90278   -1123.6427    271845.65   -79212.138    6888.3591   -86100.497    1209.0343 
   20950    280.01044   -1408.2656     272302.8   -79234.395    7093.7577   -86328.153    1212.0725 
   21000    280.76013   -1349.8878    271969.51   -79218.402    7112.7504   -86331.152    1214.0371 
   21050    278.91615   -1029.9603     271124.2    -79252.01    7066.0352   -86318.045    1214.4699 
   21100    279.80598   -1044.4599    270546.45   -79258.949    7088.5781   -86347.527    1215.2724 
   21150    276.79801    -794.8356    270487.88   -79258.707    7012.3743   -86271.082    1216.7884 
   21200    275.79965    -918.6255    271215.52   -79225.492     6987.082   -86212.574    1219.7389 
   21250    274.53958   -1041.4371    271897.37   -79222.355    6955.1596   -86177.514    1224.8102 
   21300    277.36418    -1148.937    271916.04   -79205.529    7026.7178   -86232.246     1227.546 
   21350    275.18269   -1156.1313    271660.44   -79208.763    6971.4521   -86180.215    1228.7635 
   21400    278.88973   -880.95647    271103.31    -79213.76    7065.3657   -86279.126    1232.1301 
   21450    279.47787   -983.76256    270942.58   -79179.172    7080.2658   -86259.438    1235.2808 
   21500    277.67019   -924.70345    271267.88   -79174.351    7034.4701   -86208.821    1239.1442 
   21550    275.04751   -1039.9794    271408.79   -79154.896    6968.0275   -86122.923    1243.3743 
   21600    277.75245   -861.45853    271159.13   -79146.229     7036.554   -86182.783    1243.8047 
   21650    279.66673   -944.27114    271128.48   -79113.005    7085.0502   -86198.055    1244.5959 
   21700    280.01689   -1132.3434    271259.99   -79076.325    7093.9211   -86170.246     1246.565 
   21750    276.89842   -848.78159     271297.7   -79102.016    7014.9181   -86116.934    1249.9971 
   21800    280.29467   -1027.3893    271666.77   -79072.214    7100.9584   -86173.172    1253.6953 
   21850    279.29256   -988.70157    272014.81   -79049.243     7075.571   -86124.814    1257.1476 
   21900    280.27357   -1299.5408    272035.31   -79065.917     7100.424   -86166.341    1259.7083 
   21950    281.20828   -914.74568     271346.6   -79082.095    7124.1038   -86206.199    1260.6935 
   22000    277.54491    -917.0029    270956.51   -79087.647    7031.2964   -86118.944     1262.452 
   22050    281.41878   -920.09591    270771.49   -79069.997    7129.4364   -86199.433    1263.1968 
   22100    282.89154   -778.96947    270761.92   -79061.016    7166.7473   -86227.764    1265.3983 
   22150    278.54867   -890.35117    271399.33   -79078.089    7056.7255   -86134.814    1271.2035 
   22200    276.34261   -1313.7684    272343.86   -79011.047    7000.8374   -86011.885    1276.3173 
   22250    278.19501   -1250.6401    272307.04   -79005.463     7047.766   -86053.229    1279.2982 
   22300    279.24321   -783.54039     271684.6   -78956.292    7074.3207   -86030.612    1281.1231 
   22350    281.44658   -946.86097    271162.56   -78977.643    7130.1408   -86107.784    1282.6795 
   22400    281.53805   -915.62711    270984.91   -79008.813     7132.458   -86141.271    1287.2175 
   22450    282.75379   -679.96286    271282.19   -79009.336    7163.2575   -86172.593    1292.0929 
   22500    286.83512   -1099.7251    271856.94   -78978.035    7266.6536   -86244.688    1297.8853 
   22550    279.12785   -1075.4551       272121   -78979.806    7071.3982   -86051.205    1301.4797 
   22600    277.16663   -1130.7662    272077.98   -79030.637     7021.713    -86052.35    1303.3729 
   22650    284.00618   -1108.9506    271714.75   -79002.539    7194.9854   -86197.524    1303.1242 
   22700    279.98625     -754.315    271598.87   -79019.204     7093.145   -86112.349    1306.2468 
   22750    281.50518   -1087.8262    271920.28   -79009.992    7131.6254   -86141.617    1309.4132 
   22800     282.4357   -1049.5967    272194.32   -79023.854    7155.1992   -86179.053    1312.9669 
   22850    279.80961   -1242.9454     272130.5   -79026.047      7088.67   -86114.717    1315.8411 
   22900    279.64188   -1177.0971    271693.08   -79063.799    7084.4207   -86148.219    1317.9496 
   22950    281.44912   -955.03238     271027.2   -79086.033    7130.2051   -86216.238    1318.6059 
   23000    277.72278   -781.29205    270780.63   -79124.624    7035.8024   -86160.426    1319.3801 
   23050     282.8011   -1017.7446    271041.88   -79077.283    7164.4562   -86241.739    1322.9095 
   23100     275.6498   -862.08017    271490.05   -79051.645    6983.2858    -86034.93    1326.4844 
   23150     275.9343   -1104.3036    272007.92   -79047.192    6990.4932   -86037.685    1330.3206 
   23200    278.87451   -1077.9459     271945.2   -79056.703    7064.9801   -86121.684    1330.5335 
   23250    284.57906   -930.19166    271392.34   -79081.965    7209.4989   -86291.464    1329.8201 
   23300     279.6341   -895.44612    271103.31   -79100.223    7084.2237   -86184.447    1330.1176 
   23350    273.45882   -970.29649    271138.47   -79109.186    6927.7797   -86036.966    1332.2734 
   23400    275.58327   -1009.3224    271102.95   -79128.385    6981.6004   -86109.985    1333.9353 
   23450    279.46917   -902.88231    270980.04   -79137.397    7080.0454   -86217.443    1334.1483 
   23500    274.73821   -1155.2379    271230.41   -79170.701    6960.1917   -86130.893    1338.0778 
   23550    276.22983   -1034.1255     271114.5   -79166.628    6997.9801   -86164.608    1338.9249 
   23600    278.79541   -1001.6699    270848.71    -79143.56    7062.9763   -86206.536    1340.2545 
   23650    280.80712   -835.65893    270794.42   -79113.665    7113.9407   -86227.606    1342.2749 
   23700    277.61962    -987.5048    271265.07   -79067.678    7033.1889   -86100.866    1345.6086 
   23750    275.26465   -1121.0023    272050.64    -79055.91    6973.5284   -86029.438    1350.1823 
   23800    278.61598   -1018.8308    272092.53   -79023.725    7058.4307   -86082.156    1352.7177 
   23850    282.07323   -1186.4645    271817.61    -79047.85    7146.0163   -86193.866    1354.8251 
   23900    280.20886   -757.18676    271144.12   -79075.707    7098.7846   -86174.492    1357.2378 
   23950     280.9476   -728.87835    270921.98   -79133.642    7117.4998   -86251.142    1359.2199 
   24000    277.59414   -1068.2881    271197.01   -79143.617    7032.5435    -86176.16    1361.0948 
   24050    276.72134   -1397.6651    271452.87   -79098.782     7010.432   -86109.214    1364.3798 
   24100    280.10816    -839.1389    271184.26   -79064.572    7096.2334   -86160.805    1364.2557 
   24150    279.47192   -1065.7607    271094.09   -79084.669    7080.1149   -86164.784    1367.2784 
   24200    280.45242   -870.14867    271118.32   -79103.957    7104.9548   -86208.912    1370.9767 
   24250    276.61543   -812.82615    271567.35   -79125.193     7007.749   -86132.942    1375.2172 
   24300    274.07763   -1125.0535    272100.04   -79092.768    6943.4565   -86036.224    1378.3957 
   24350    276.74916   -1277.3674    272121.45   -79106.491    7011.1369   -86117.628    1380.5268 
   24400    278.21301   -918.44007    271616.74   -79076.225    7048.2219   -86124.447    1380.0688 
   24450    279.71341   -1025.2457    271156.56   -79144.071    7086.2329   -86230.304    1379.8698 
   24500     275.8723   -869.57394    270787.07   -79157.202    6988.9225   -86146.124    1380.5538 
   24550    280.94965   -936.38623    270843.16   -79137.283    7117.5516   -86254.835     1381.538 
   24600    278.36968   -892.97367    271169.78   -79121.154    7052.1909   -86173.345    1386.3622 
   24650     280.2741   -966.49977    271658.78   -79109.824    7100.4374   -86210.261    1391.0967 
   24700    279.47106   -1175.9516    272024.55   -79052.599    7080.0931   -86132.692    1394.2794 
   24750    278.93158    -942.7465    271808.77   -79045.095    7066.4259    -86111.52    1398.1063 
   24800    286.77673   -910.98437       271587   -78985.426    7265.1743     -86250.6    1398.1326 
   24850    284.13486   -928.63638    271566.74   -78968.443    7198.2453   -86166.689    1399.3651 
   24900    276.93684   -884.38874    271454.81   -78947.175    7015.8916   -85963.067    1402.5442 
   24950    280.95104   -940.46468    271349.47   -78989.859    7117.5869   -86107.446    1403.7172 
   25000     278.7442   -1191.5412    271516.28   -79022.024    7061.6789   -86083.703    1406.1357 
   25050    280.70753   -921.79818    271553.01   -79047.085    7111.4177   -86158.503    1409.0396 
   25100    282.80165   -1142.4309     271625.8   -78997.954      7164.47   -86162.424    1412.3775 
   25150    280.48997   -1053.6197    271633.74    -79027.92    7105.9063   -86133.826     1415.198 
   25200    279.83855   -858.28816    271650.29   -79049.627    7089.4032   -86139.031     1419.195 
   25250    273.71579   -859.02891    271689.65   -79092.023    6934.2896   -86026.313    1420.0956 
   25300     273.0065    -929.6126    271735.48   -79133.345    6916.3206   -86049.665    1422.9555 
   25350    274.45913   -1087.7716    271770.72   -79177.382    6953.1215   -86130.504    1424.5908 
   25400    273.59925   -1143.7302    271691.54   -79192.243    6931.3372    -86123.58    1427.8485 
   25450    279.91098   -874.87831    271198.17   -79153.161    7091.2382   -86244.399    1429.0464 
   25500    275.87665   -677.65358    270824.33   -79156.247    6989.0328    -86145.28    1431.1375 
   25550    276.62507   -1154.3729    271088.97   -79186.635    7007.9932   -86194.628    1435.5472 
   25600    274.65303   -910.97883    271421.38   -79197.705    6958.0337   -86155.739    1439.1006 
   25650    277.70409   -1189.1247    271597.63   -79203.469    7035.3289   -86238.798     1442.237 
   25700    281.14637   -954.79941    271348.99   -79187.239    7122.5352   -86309.774    1443.4936 
   25750     277.8163   -772.55735    271165.92   -79185.707    7038.1716   -86223.879    1448.3273 
   25800    275.94598   -935.61105    271265.92   -79186.915    6990.7892   -86177.705    1452.1812 
   25850    276.64182   -794.88388    271253.04   -79174.848    7008.4174   -86183.266    1453.3524 
   25900     281.6001   -1071.5212    271268.88   -79129.654      7134.03   -86263.684    1456.0692 
   25950    277.33338    -1111.823    271219.25   -79161.652    7025.9373   -86187.589    1459.8313 
   26000    277.49802   -1046.8373    271109.46   -79148.133    7030.1083   -86178.241    1460.5247 
   26050    276.92798   -1110.1917    271132.79   -79231.564     7015.667   -86247.231    1463.2806 
   26100    276.72001   -1001.8574    271124.55   -79257.159    7010.3984   -86267.557    1466.0375 
   26150    273.57041   -757.50184    271121.14   -79258.165    6930.6066   -86188.771    1466.2965 
   26200    276.29715   -996.76232    271251.11   -79252.246    6999.6857   -86251.932    1468.9277 
   26250    272.33487   -944.18904    271403.24    -79236.51    6899.3056   -86135.815    1471.4489 
   26300    275.71337   -1114.1715    271417.34   -79260.443    6984.8963   -86245.339    1470.6411 
   26350    276.28892   -1043.1458    271083.88   -79279.569     6999.477   -86279.046    1474.0327 
   26400    272.17225   -595.44346     270850.3   -79278.295    6895.1858   -86173.481    1476.7562 
   26450    275.93478   -1083.4607    271458.05   -79226.339    6990.5054   -86216.845    1482.1996 
   26500    273.17283    -1034.929    272005.88    -79220.76    6920.5344   -86141.294    1487.2365 
   26550    276.41279   -1216.6871     272072.9    -79215.55    7002.6152   -86218.165    1490.0069 
   26600     275.8618   -1237.7863    271539.07   -79224.858    6988.6564   -86213.514    1491.3408 
   26650    274.91127   -850.59767    270633.28   -79229.406     6964.576   -86193.982    1492.3948 
   26700    274.45602   -566.50321    270342.29   -79198.349    6953.0427   -86151.391    1493.4774 
   26750    280.88604   -1085.0957    270786.34   -79202.365    7115.9402   -86318.305    1497.2589 
   26800    270.82276   -920.28052    271227.28   -79233.456    6860.9979   -86094.454    1501.7787 
   26850    272.06739   -901.30788    271666.99   -79219.196    6892.5294   -86111.725    1506.8811 
   26900    275.30331   -1056.0908    271998.13   -79164.769    6974.5078   -86139.277     1509.971 
   26950    274.99328   -884.44403    271752.63   -79199.072    6966.6534   -86165.725    1510.7253 
   27000     274.5572   -1028.3506    271101.28    -79210.41    6955.6059   -86166.016    1510.1558 
   27050    277.54555    -814.2338    270498.45   -79234.515    7031.3124   -86265.828    1513.0708 
   27100    274.66881   -990.64161    270576.06    -79200.15    6958.4334   -86158.584     1515.519 
   27150     276.7592   -1078.5441     271133.9   -79223.319    7011.3911    -86234.71    1521.7278 
   27200    278.27467   -977.33715    271657.83   -79203.194     7049.784   -86252.978    1528.3403 
   27250    275.70687   -971.18896     271860.7   -79186.239    6984.7316   -86170.971    1531.8795 
   27300    278.89443   -1111.3024    271748.72    -79191.66    7065.4849   -86257.145     1532.755 
   27350    280.13149   -994.12619    271342.65   -79171.193    7096.8245   -86268.017    1533.9937 
   27400    279.68812    -871.3301       270947   -79139.219    7085.5923   -86224.811    1536.3256 
   27450    280.57973   -1152.5722    270958.62   -79170.296    7108.1801   -86278.476    1539.6545 
   27500    277.49992   -1019.6513    271152.06   -79151.112    7030.1565   -86181.268    1543.9144 
   27550    278.18971   -1076.6956    271530.18   -79149.107    7047.6316   -86196.739    1546.1559 
   27600    274.93301    -982.1436    271899.16    -79142.57    6965.1267   -86107.697    1551.7997 
   27650    274.20556    -1100.068    271831.12   -79161.833    6946.6975    -86108.53    1554.2024 
   27700    278.15617   -897.27386    271086.96   -79190.009    7046.7818   -86236.791    1555.5679 
   27750     275.8565   -709.07463    270427.18   -79169.513    6988.5222   -86158.035    1555.4446 
   27800    276.48906   -917.35046    270580.22   -79177.793    7004.5476    -86182.34    1559.2085 
   27850    275.70423    -1207.648    271185.34   -79133.928    6984.6647   -86118.593    1563.9055 
   27900     276.2509   -1171.0735    271715.72   -79141.932     6998.514   -86140.446    1566.4786 
   27950    272.29222   -1154.5632    271929.97   -79152.125    6898.2251    -86050.35    1569.4224 
   28000    272.99794   -1028.6974    271488.53   -79153.095    6916.1038   -86069.199    1570.3976 
   28050    278.04582   -1200.9349    270900.37   -79152.164    7043.9863    -86196.15    1569.8566 
   28100    284.81487    -871.7274     270639.7   -79187.306    7215.4729   -86402.779    1569.6479 
   28150    277.35905   -722.48097     270934.4   -79167.155    7026.5878   -86193.743    1573.5794 
   28200    275.59162    -1126.669    271742.28   -79164.668    6981.8119    -86146.48    1582.1319 
   28250    272.67038   -1136.9442    272116.73   -79213.954    6907.8054   -86121.759    1587.0142 
   28300    277.32815   -1150.2756    271697.04   -79211.045    7025.8049    -86236.85     1587.573 
   28350    273.83015   -804.98338    270996.46   -79209.605    6937.1868   -86146.791     1587.942 
   28400    280.58768    -770.4357     270720.1   -79174.685    7108.3816   -86283.066    1590.6089 
   28450    279.51176   -1035.2067     270979.4   -79171.036    7081.1243    -86252.16     1597.745 
   28500     275.0041   -697.61395    271249.12   -79172.878    6966.9275   -86139.805    1601.2569 
   28550    275.38381   -1214.5507    271793.01   -79186.306    6976.5472   -86162.853    1606.3994 
   28600    279.67123   -1287.3168     272104.9   -79168.895    7085.1642    -86254.06    1611.0811 
   28650      274.546   -1082.7251    271631.55   -79191.889    6955.3221   -86147.211    1610.5829 
   28700    278.16898   -791.05806    270945.66   -79209.115    7047.1063   -86256.221    1611.1241 
   28750    274.69129   -736.81605    270781.49   -79212.874    6959.0028   -86171.877    1615.2133 
   28800    279.41396   -803.87548    271186.39   -79223.244    7078.6467   -86301.891    1618.3178 
   28850    274.74267   -1127.9247    271654.06   -79191.288    6960.3046   -86151.592     1624.934 
   28900     273.1054   -908.39586    271831.16   -79228.743    6918.8262   -86147.569    1629.3185 
   28950    277.07561   -1145.0231    271699.31    -79248.51    7019.4071   -86267.917    1630.5572 
   29000    271.10648   -1053.9506    271141.88   -79274.727    6868.1857   -86142.912    1630.2469 
   29050     276.0389   -850.61622    270335.92       -79276    6993.1432   -86269.143    1629.7144 
   29100    277.66177   -934.44178    270227.71   -79307.362    7034.2568   -86341.619    1632.0139 
   29150     274.6975   -1017.3999    270770.81   -79297.652    6959.1603   -86256.813    1636.8448 
   29200    274.78125   -1228.5563    271587.34   -79294.216     6961.282   -86255.498    1642.9769 
   29250    274.38114    -1123.178    272021.49   -79293.773    6951.1455   -86244.919    1646.8498 
   29300    273.66547   -1147.7276    272023.16   -79313.709    6933.0149   -86246.724    1649.4758 
   29350      274.535   -1150.8654    271586.33   -79313.211    6955.0436   -86268.255    1649.1509 
   29400    275.25749   -717.56183    270746.23   -79308.543    6973.3471    -86281.89    1648.9332 
   29450    274.94126   -772.26839    270518.38   -79284.475    6965.3355   -86249.811    1651.8926 
   29500    280.56663   -932.82636    270826.42   -79266.951    7107.8482     -86374.8    1653.2077 
   29550    279.98011   -1300.2706    271385.87   -79213.367    7092.9894   -86306.356    1659.5009 
   29600    271.69818   -1050.2751    271685.65    -79200.37    6883.1759   -86083.545    1663.7567 
   29650    277.62595   -1095.0326    271688.01   -79180.512    7033.3494   -86213.862    1666.7844 
   29700    274.53743    -789.5539    271327.39   -79187.917    6955.1049   -86143.022    1668.0678 
   29750    272.09824   -1128.0139    271216.68   -79141.427    6893.3109   -86034.737    1670.9437 
   29800    278.67953   -892.16501    271061.48   -79121.548    7060.0407   -86181.589    1672.8799 
   29850    281.39236   -1037.0303    271300.93   -79088.623    7128.7672    -86217.39    1676.2192 
   29900    278.08079   -990.85957    271432.41   -79094.975    7044.8722   -86139.848    1677.0283 
   29950    275.23792    -818.5037    271698.91   -79090.359    6972.8513    -86063.21    1681.5234 
   30000    276.87002   -1219.1794    271959.24   -79069.706    7014.1988   -86083.905     1686.124 
   30050    277.22134   -1034.9984    271884.97   -79057.094    7023.0989   -86080.193    1688.4637 
   30100    276.13572   -1014.8088    271647.87   -79068.678     6995.596   -86064.274    1692.3264 
   30150    273.44983   -792.98448    271348.94   -79058.876    6927.5518   -85986.428    1694.2309 
   30200    281.62853   -1171.3239    271527.35   -79092.143    7134.7502   -86226.893     1698.268 
   30250    276.88678    -1046.942    271727.69   -79107.357    7014.6234    -86121.98    1702.0878 
   30300    279.14134    -924.4975    271432.06   -79162.685      7071.74   -86234.425    1705.3768 
   30350    274.88113    -887.5189    271066.22   -79188.712    6963.8122   -86152.525    1704.9585 
   30400    271.20906    -797.2724    270897.24   -79218.411    6870.7845   -86089.195    1706.7381 
   30450    278.59386   -855.57345    270996.88   -79245.349    7057.8703   -86303.219    1709.6826 
   30500    274.38657   -887.67773    271366.09   -79231.643    6951.2832   -86182.926    1714.6666 
   30550    275.96555   -1135.5481    271888.16   -79162.375    6991.2848    -86153.66    1718.6379 
   30600    280.63833   -1118.6581    272050.16    -79131.96    7109.6646   -86241.625    1722.4318 
   30650    283.32074   -1235.5423    271774.96   -79096.216    7177.6206   -86273.837     1723.236 
   30700    282.34546   -841.88321    271034.13   -79106.193    7152.9129   -86259.106    1718.4673 
   30750     280.2187   -730.65031    270737.77   -79101.959    7099.0337   -86200.992    1721.0645 
   30800    278.64917    -926.2581    270901.48   -79107.481    7059.2716   -86166.752     1724.343 
   30850    279.88022   -816.56311    271188.69   -79071.966    7090.4589   -86162.425    1730.4645 
   30900    283.54393   -1073.6852     271693.5   -79049.816    7183.2749   -86233.091    1734.8615 
   30950    280.91853   -1156.5619     272027.4    -79075.65    7116.7633   -86192.413    1740.0657 
   31000    277.99687   -1214.7633    272102.38   -79078.903    7042.7462   -86121.649    1742.3111 
   31050     276.7253   -1017.9324    271584.43   -79109.172    7010.5325   -86119.704    1743.9327 
   31100     281.8173    -1240.431    270943.96   -79094.293    7139.5327   -86233.826    1743.4217 
   31150    279.70363   -656.29231    270387.02    -79076.95     7085.985   -86162.935    1743.3457 
   31200    275.86414   -833.70556    270786.84   -79097.829    6988.7157   -86086.544    1746.7182 
   31250    280.86595   -1140.0252    271609.65   -79108.631    7115.4312   -86224.062    1752.5842 
   31300    279.39786    -1367.474    272342.84   -79085.856    7078.2387   -86164.094    1760.3932 
   31350    273.89763   -1081.1278     272229.6   -79095.681    6938.8966   -86034.578    1764.1172 
   31400    273.24787   -982.96569    271683.59    -79106.96    6922.4355   -86029.395    1764.2164 
   31450     274.4188    -1001.806    271199.11   -79110.308    6952.0996   -86062.408    1764.9823 
   31500    281.68533   -934.96702    271062.02   -79162.284    7136.1894   -86298.474    1768.3937 
   31550     274.5915   -877.47717    271089.25   -79227.675    6956.4749    -86184.15    1771.8237 
   31600    276.05414   -863.51519    271287.36   -79178.162    6993.5292   -86171.691    1776.0697 
   31650    281.74954   -1196.6441     271498.1   -79155.212    7137.8159   -86293.028    1779.8935 
   31700    279.69621   -1037.4026    271471.06   -79122.938     7085.797   -86208.735    1784.2904 
   31750    278.78116   -788.83285    271242.24   -79100.561    7062.6152   -86163.176    1786.8185 
   31800    278.16098   -1015.2101    271250.62   -79155.551    7046.9037   -86202.455    1789.2362 
   31850    275.52508   -908.63548    271223.25   -79136.273    6980.1261   -86116.399     1791.035 
   31900    276.25282   -921.05784    271609.53   -79114.001    6998.5625   -86112.564    1792.7521 
   31950    272.39605   -1125.8256    272078.05   -79094.032    6900.8556   -85994.887    1796.4647 
   32000    279.50066   -1221.3563    271785.75   -79086.761    7080.8429   -86167.604    1796.6711 
   32050    283.53801   -853.15203    271055.11   -79120.638    7183.1248   -86303.763    1795.5308 
   32100     279.9389   -638.94647    270814.64   -79143.826    7091.9454   -86235.772    1798.8551 
   32150    276.81333   -816.69072    271337.07   -79174.713    7012.7624   -86187.475    1805.8772 
   32200    274.30747   -1304.5687    272214.87    -79166.01    6949.2793   -86115.289    1810.8439 
   32250    276.71689   -1119.1829    272327.38    -79092.44    7010.3193   -86102.759    1816.4849 
   32300    277.91924   -1146.7322    271884.49   -79099.996    7040.7794   -86140.776    1819.9979 
   32350      275.953   -1072.5109    271101.94   -79150.471     6990.967   -86141.438    1820.5652 
   32400    276.56289   -748.37676    270374.29   -79197.616     7006.418   -86204.034    1821.1975 
   32450    281.91007   -851.89167    270475.91   -79150.946    7141.8829   -86292.829    1825.3821 
   32500    281.45918   -1055.0936    270975.01    -79130.66    7130.4601    -86261.12    1829.9945 
   32550    281.31441   -1047.6236    271577.29   -79112.811    7126.7925   -86239.604    1838.8251 
   32600    275.21357   -1002.6339    271993.12   -79120.164    6972.2343   -86092.398     1842.182 
   32650     279.3698   -1128.6185     271946.2    -79109.31     7077.528   -86186.838    1844.7559 
   32700    274.32924   -847.32022    271701.05   -79114.238    6949.8307   -86064.068    1847.8381 
   32750    275.98836   -1222.7679    271485.27   -79130.579    6991.8627   -86122.441    1850.3318 
   32800     278.3534    -883.8667    271216.42   -79106.104    7051.7784   -86157.882    1854.9827 
   32850    274.21574   -815.32119    271348.85   -79095.783    6946.9554   -86042.738    1860.2459 
   32900    281.14032   -1231.6843       271919   -79069.504    7122.3821   -86191.886     1866.398 
   32950    276.60013   -1163.5757     272077.3    -79083.17    7007.3612   -86090.531    1869.8746 
   33000    278.25156   -1006.8273    271750.69   -79090.929    7049.1984   -86140.127    1873.4573 
   33050    281.24124   -984.42186    271130.97   -79090.665    7124.9388   -86215.604    1874.0721 
   33100    281.41587   -840.32669     270839.5   -79099.332    7129.3627   -86228.695    1875.9414 
   33150    280.95326   -919.59257    271007.12   -79084.962     7117.643   -86202.605    1880.1562 
   33200    279.09515   -1117.7006    271398.54   -79109.349      7070.57   -86179.919    1888.1122 
   33250    284.85239   -1106.6725    271643.97   -79066.594    7216.4232   -86283.017    1892.9115 
   33300    277.59403   -1021.0758    271767.75   -79045.069    7032.5407    -86077.61    1897.0818 
   33350    279.02972    -1135.711    271840.56   -79043.327    7068.9124    -86112.24    1898.9431 
   33400    279.29745   -988.01095     271437.7   -79058.425     7075.695    -86134.12     1899.575 
   33450    279.11319   -981.57841    270913.35   -79039.079    7071.0271   -86110.106    1898.8939 
   33500    284.17361   -1000.6458    270697.29   -79009.117    7199.2271   -86208.345    1899.2815 
   33550    281.51161    -703.1224    271135.87   -78951.542    7131.7883    -86083.33    1905.0331 
   33600    278.04735   -1050.7022    272224.29   -78951.694    7044.0251   -85995.719    1913.2023 
   33650    275.99169   -1227.6612    272761.88   -78933.446    6991.9471   -85925.393    1918.5481 
   33700    282.66249    -1403.374    272340.01    -78953.44    7160.9447   -86114.384    1919.3509 
   33750    284.51189   -913.57109    271619.32   -79003.998    7207.7971   -86211.795    1917.9022 
   33800    280.71589    -916.3112    271192.57   -79034.811    7111.6295   -86146.441    1917.9846 
   33850    277.47504   -871.91549    271353.28   -79072.932    7029.5263   -86102.458    1920.7492 
   33900    275.78678   -1204.4738    271911.86   -79051.503    6986.7559   -86038.259    1925.2058 
   33950    280.01456   -1270.8917    271985.86    -79049.05     7093.862   -86142.912    1926.5325 
   34000    278.82242   -972.35891    271538.18   -79052.482    7063.6605   -86116.142    1926.4855 
   34050    277.55599     -950.615    271339.29   -79098.061     7031.577   -86129.638    1925.8889 
   34100    279.58678   -1034.5184    271457.02    -79105.34    7083.0249   -86188.365    1929.5214 
   34150    279.53834   -1200.9814    271671.59   -79131.584    7081.7976   -86213.382    1934.6992 
   34200    276.99379    -933.8886    271638.74   -79114.314    7017.3342   -86131.648    1938.1654 
   34250    276.18998   -1025.9321    271490.16   -79192.835    6996.9707   -86189.806    1938.9488 
   34300    279.15077   -1079.8295    271116.72   -79223.219     7071.979   -86295.198    1940.9616 
   34350    274.33859   -649.48582    270684.33   -79209.393    6950.0677   -86159.461    1942.1324 
   34400     280.9777   -1021.1278    270932.93   -79260.265    7118.2623   -86378.527    1944.1053 
   34450    276.60878   -1226.7573    271310.03    -79220.84    7007.5805   -86228.421    1947.0459 
   34500    274.94831   -1094.7565    271201.05   -79258.541    6965.5142   -86224.055    1948.7767 
   34550    275.46164   -852.75686     270953.7   -79218.059    6978.5188   -86196.578    1949.0786 
   34600    273.46304   -983.51022    271267.02   -79193.184    6927.8867   -86121.071    1951.3183 
   34650    277.44146   -1138.4446    271595.47   -79188.975    7028.6755   -86217.651    1953.9959 
   34700    276.16527   -1153.9721    271807.15   -79162.636    6996.3445   -86158.981    1959.3913 
   34750    276.54785   -1075.0149    271538.55   -79260.937    7006.0368   -86266.973      1962.47 
   34800    278.36945   -862.22637    270822.33   -79254.706     7052.185   -86306.891    1962.4395 
   34850    275.69273   -896.07913    270379.01   -79287.074    6984.3732   -86271.448    1962.5669 
   34900    273.50058   -781.67855    270518.66   -79261.197    6928.8375   -86190.034    1963.1724 
   34950    274.01695   -1005.6689    271346.84   -79279.213    6941.9192   -86221.132    1969.9038 
   35000    278.31626    -1403.539    272033.87   -79248.165    7050.8376   -86299.002    1975.1631 
   35050    277.67745   -1232.9791     271909.8   -79287.326     7034.654    -86321.98    1977.6733 
   35100    276.61089   -1036.4676    271173.48   -79287.777    7007.6338   -86295.411    1974.5071 
   35150    276.72518   -956.58256    270547.92   -79285.848    7010.5294   -86296.377    1974.2713 
   35200    276.80884    -813.9205    270469.98   -79266.115    7012.6488   -86278.763     1976.851 
   35250    276.07229   -928.51652    270898.57   -79272.728    6993.9891   -86266.717    1981.7468 
   35300    282.77187   -1193.2132    271500.26   -79204.571    7163.7156   -86368.287    1985.3758 
   35350    274.29236   -1252.8792    272008.15   -79191.713    6948.8966    -86140.61    1991.1951 
   35400    277.28732   -1064.3246    271924.51   -79166.571    7024.7706   -86191.342    1993.6053 
   35450    275.47274   -1015.6125    271457.22   -79200.236    6978.8002   -86179.037    1994.4258 
   35500    276.60491   -922.46339    271051.52   -79207.716    7007.4825   -86215.198    1994.9089 
   35550    277.35534   -745.77866    270786.07   -79210.174    7026.4936   -86236.668    1995.8439 
   35600     276.3835   -898.25372    270967.26   -79161.177    7001.8732    -86163.05    1998.2952 
   35650    279.35722   -991.01461    271511.64   -79157.347    7077.2091   -86234.556    2000.6902 
   35700    279.84758    -996.5542    271890.12   -79166.783    7089.6319   -86256.415      2004.47 
   35750    280.26721   -1066.0347    272010.04   -79147.776    7100.2629   -86248.039    2007.2836 
   35800    276.73953   -1018.7483    271756.84   -79147.589    7010.8928   -86158.482    2010.8302 
   35850    275.41455   -1049.8303     271392.6   -79160.123    6977.3259   -86137.449    2012.6185 
   35900    277.72168    -923.9152    270984.92   -79123.278    7035.7746   -86159.053    2013.8781 
   35950    275.47744   -910.13613    271072.58   -79143.377    6978.9191   -86122.296    2015.1512 
   36000    280.25218   -1016.6831    271666.42   -79135.802     7099.882   -86235.684     2019.706 
   36050    276.27091   -1079.4759    272072.27   -79183.045    6999.0208   -86182.066    2023.5229 
   36100    275.10203   -1273.9385    272190.83    -79130.35    6969.4086   -86099.759    2027.0402 
   36150    279.02849   -1259.8104    271572.38   -79153.988    7068.8812   -86222.869    2027.4022 
   36200    278.64195   -776.03369    270769.65   -79196.597    7059.0887   -86255.685     2024.554 
   36250    279.30655   -878.12781    270387.19   -79225.132    7075.9254   -86301.057    2024.4261 
   36300    274.99007   -737.50701    270638.42   -79228.506    6966.5722   -86195.078    2030.1514 
   36350    276.56871   -886.68692    271396.33   -79241.079    7006.5653   -86247.644     2034.562 
   36400    272.13935   -1320.9336    272017.88   -79219.296    6894.3523   -86113.648    2038.9836 
   36450    278.48421   -1350.6533    271869.92   -79169.619    7055.0924   -86224.712    2041.3322 
   36500    280.07458   -895.57853    271167.77   -79129.521    7095.3826   -86224.903    2040.8778 
   36550    282.73467   -701.78231    270676.97   -79149.721    7162.7732   -86312.495    2042.6241 
   36600    277.42933   -1075.8941    270780.05   -79205.894    7028.3681   -86234.262    2045.1824 
   36650    275.35695    -914.7929    270990.98   -79214.782    6975.8667   -86190.649    2047.7863 
   36700    275.35506   -787.83672    271246.47   -79245.308    6975.8189   -86221.126     2049.465 
   36750    273.73806   -1090.0061    271805.06   -79223.001    6934.8539   -86157.855    2052.2459 
   36800    275.88851   -1184.8057    271993.92   -79224.801    6989.3331   -86214.134    2056.2511 
   36850     280.4777   -939.88336    271506.79   -79223.855    7105.5954   -86329.451    2056.9156 
   36900    275.34472   -988.01796    271086.33    -79214.57    6975.5569   -86190.127    2056.1944 
   36950     276.3931   -848.70693    270747.32   -79230.857    7002.1165   -86232.973    2058.5326 
   37000    277.50474   -925.18056    270671.09   -79244.252    7030.2785   -86274.531    2059.3187 
   37050    276.77704   -974.93785    270930.48   -79233.608     7011.843   -86245.451     2063.018 
   37100    275.70901   -898.59022    271298.77   -79172.065    6984.7857   -86156.851    2068.5339 
   37150    278.33592   -1074.6426    271987.45   -79150.213    7051.3356   -86201.549    2074.5006 
   37200    277.48862   -1264.2152     272337.1   -79153.812    7029.8704   -86183.682    2080.8775 
   37250    275.27895   -810.91012    271889.79   -79182.841    6973.8907   -86156.732    2078.7096 
   37300    276.44066   -774.24813    271339.24   -79217.738    7003.3213   -86221.059    2077.4673 
   37350    280.22596   -1113.8013    271128.62   -79201.712    7099.2177   -86300.929    2078.7401 
   37400     279.6537   -800.38275       271087   -79174.437    7084.7202   -86259.158    2080.6588 
   37450    278.43312    -1011.693     271150.4   -79161.637    7053.7982   -86215.435    2081.9794 
   37500     276.3582   -1191.9696     271325.8   -79120.119    7001.2322   -86121.351    2085.4456 
   37550    278.07069   -1158.5724    271410.63   -79181.875    7044.6164   -86226.492    2086.6331 
   37600    270.38202   -991.42447    271339.54   -79197.573    6849.8323   -86047.405    2090.7927 
   37650    273.75881   -1086.0118    271443.54   -79199.445    6935.3797   -86134.824    2096.3668 
[...]
   90850    280.85068   -993.80151    270948.48   -79285.998    7115.0443   -86401.042    4880.8309 
   90900    276.61561    -961.2382    270944.25   -79276.441    7007.7534   -86284.194     4888.821 
   90950    274.10367   -1107.1716     271248.3   -79274.618    6944.1162   -86218.734    4895.1906 
   91000    274.30915   -759.71003    271373.78   -79288.811    6949.3219   -86238.133    4900.1368 
   91050    278.69739   -1102.0393    271672.15   -79321.989    7060.4931   -86382.482    4904.9803 
   91100    272.59371   -1113.8767    271593.75   -79270.611     6905.863   -86176.474    4905.7977 
   91150    274.31732    -938.9261     271083.8   -79245.805    6949.5287   -86195.333    4904.6351 
   91200    280.87975   -955.74885    270674.14   -79273.704    7115.7808   -86389.485    4906.2181 
   91250    278.53139    -875.2719    270666.03   -79243.815    7056.2876   -86300.102    4912.4517 
   91300     276.4282   -1119.9353    271257.64   -79252.257    7003.0056   -86255.263    4924.1205 
   91350    271.26356    -1089.736     271720.8   -79247.956     6872.165   -86120.121    4931.9324 
   91400    272.78103   -1198.9703    271815.81   -79273.171    6910.6087    -86183.78    4939.8771 
   91450    273.11356   -1160.9011    271506.13   -79224.776    6919.0329   -86143.809    4937.7809 
   91500    274.58434   -959.03658    270961.33   -79279.402    6956.2935   -86235.695    4932.5733 
   91550    276.45549   -775.84231    270755.64   -79248.263    7003.6971    -86251.96    4933.5236 
   91600    272.81355   -1036.3689    271022.04   -79256.211    6911.4324   -86167.643    4940.7649 
   91650    275.78447   -1043.7409    271246.62   -79226.668    6986.6975   -86213.366    4947.4644 
   91700    275.55823   -1070.8821    271344.86     -79236.7     6980.966   -86217.666    4950.7273 
   91750    274.05333   -950.04297    271039.82   -79220.145    6942.8409   -86162.986    4947.5316 
   91800     274.0136   -909.27882    270923.22   -79239.162    6941.8344   -86180.997    4947.3496 
   91850    276.09727   -948.40207    271147.68   -79242.616    6994.6218   -86237.238    4953.3577 
   91900    279.49159   -884.37855    271285.78   -79218.269    7080.6132   -86298.882    4954.1145 
   91950    271.07488   -914.11061    271417.79   -79201.601    6867.3851   -86068.986      4956.66 
   92000     276.9302   -1051.6595    271440.85   -79263.363    7015.7233   -86279.086     4956.679 
   92050    274.64552   -1150.7334    271211.97   -79279.844    6957.8433   -86237.688    4955.2079 
   92100    279.40047   -967.75219    270663.21   -79259.905    7078.3048    -86338.21    4950.7498 
   92150    276.11928    -990.0456    270554.16   -79295.689    6995.1795   -86290.868    4954.6152 
   92200    276.96129   -1000.7929    271124.44   -79260.857    7016.5109   -86277.368    4966.7981 
   92250    278.43043   -893.16471    271688.39   -79222.636      7053.73   -86276.366    4978.3832 
   92300    274.16646   -797.05975     271859.2   -79208.703    6945.7069    -86154.41    4985.9567 
   92350    274.02506   -1156.5727    271939.37   -79171.107    6942.1248   -86113.232    4990.1092 
   92400    275.81723   -1087.2075    271443.89   -79202.789    6987.5273   -86190.316    4985.5589 
   92450    283.32607   -699.32239    270797.22   -79223.397    7177.7557   -86401.152    4981.6498 
   92500    273.26202   -707.55805    270798.84   -79271.011    6922.7938   -86193.805    4983.5394 
   92550    272.96338   -1035.2714    271191.25   -79293.614    6915.2283   -86208.842    4992.0229 
   92600    273.17748   -1018.0982    271357.85   -79262.212    6920.6521   -86182.864    4998.8459 
   92650    270.98705   -814.80651    271181.65   -79234.292    6865.1601   -86099.452    4998.0639 
   92700    276.58472    -1051.254    271077.53   -79243.288    7006.9709   -86250.259    5000.0424 
   92750     276.7048   -762.32184    270985.34   -79221.969    7010.0129   -86231.982    4999.5164 
   92800    277.12663   -1023.6804    271229.55   -79218.306    7020.6997   -86239.006    5004.1772 
   92850     273.3979   -930.33134    271572.49    -79168.32    6926.2364   -86094.556    5014.2878 
   92900    270.85436   -1123.5316    271789.97   -79152.623    6861.7984   -86014.422    5019.4959 
   92950     277.1611   -1157.1281    271624.53    -79133.81    7021.5729   -86155.383    5020.1776 
   93000    279.46053   -893.98454    271341.07   -79074.853    7079.8264    -86154.68    5021.1793 
   93050    280.76562   -873.65811    271263.74    -79054.29    7112.8895   -86167.179    5022.9749 
   93100    283.36911   -1071.5006    271483.97    -79090.12    7178.8461   -86268.966    5025.8353 
   93150    275.24706   -894.73863     271920.2   -79107.832    6973.0829   -86080.915    5035.7313 
   93200     274.0368   -1071.6906    272046.67   -79148.704    6942.4221   -86091.126    5045.1649 
   93250    276.97463   -1073.8566    271693.32   -79145.182     7016.849   -86162.031    5043.6532 
   93300    281.80356   -1002.7198    271060.04   -79153.805    7139.1844   -86292.989    5037.0183 
   93350    281.88274    -884.2798    270538.97   -79177.455    7141.1904   -86318.645    5034.6792 
   93400    275.52501   -628.53455    270549.72   -79131.941    6980.1243   -86112.065    5037.1265 
   93450    276.83934    -808.0174    271138.56    -79138.18    7013.4215   -86151.602    5044.8525 
   93500    274.03395   -976.32467    271914.59   -79148.239    6942.3499   -86090.589    5058.6827 
   93550    279.02532   -1220.2444    272180.44   -79103.164    7068.8009   -86171.965    5061.2643 
   93600    278.47746   -1019.4606    271711.75   -79097.664    7054.9215   -86152.586    5059.2475 
   93650    279.00205     -839.594    271067.55   -79094.368    7068.2113   -86162.579    5053.4393 
   93700    278.50402   -893.60527    270797.17   -79062.231    7055.5943   -86117.825    5052.8471 
   93750    277.15622     -824.364    270866.16   -79109.976    7021.4492   -86131.425    5055.5085 
   93800    275.95466   -952.26032    271250.12   -79126.522     6991.009   -86117.531    5062.8322 
   93850    276.58534   -995.54316    271427.81   -79130.203    7006.9867    -86137.19    5065.6393 
   93900    274.30686   -1001.5778    271526.15    -79114.33    6949.2638   -86063.594    5065.9241 
   93950    276.50336    -914.0273    271487.16   -79116.739    7004.9098   -86121.649    5069.2199 
   94000    279.90837   -1068.8038    271338.99   -79165.068    7091.1719    -86256.24    5067.7876 
   94050    271.90082   -867.54288    271092.11   -79229.498    6888.3094   -86117.807    5065.0768 
   94100    276.29748   -783.90609    271065.71   -79239.994    6999.6939   -86239.688      5064.28 
   94150    274.88147   -1055.1556    271342.21   -79266.136    6963.8208   -86229.957    5069.7654 
   94200    273.63297   -950.79787    271466.91   -79233.514    6932.1916   -86165.706    5073.6056 
   94250    277.99297   -1177.8988    271729.86   -79187.375    7042.6475   -86230.023    5079.0413 
   94300    275.58572   -1024.5575    271560.45   -79185.855    6981.6624   -86167.518    5080.6273 
   94350    273.92095   -941.39958    271224.62   -79205.185    6939.4873   -86144.672    5076.5648 
   94400    277.87258    -966.4965    270961.25   -79212.258    7039.5974   -86251.855    5078.7045 
   94450    278.27453    -867.3347    270682.11   -79213.617    7049.7803   -86263.398    5077.5084 
   94500    275.67831   -798.12359    270667.51   -79237.209    6984.0079   -86221.217     5079.079 
   94550    278.66111   -1215.4053    271310.77    -79214.37    7059.5739   -86273.944     5097.089 
   94600    271.81539   -885.09068     271625.3   -79194.717    6886.1453   -86080.862    5109.0834 
   94650    281.60673   -1109.6387    271452.01   -79219.009    7134.1981   -86353.207    5110.4894 
   94700    275.41591   -919.91785       271067   -79207.142    6977.3605   -86184.502    5108.8604 
   94750    277.12455   -818.90659    270895.38    -79258.09    7020.6469   -86278.736    5113.1164 
   94800    276.34823   -1017.5189    270790.11   -79302.379    7000.9798   -86303.359    5112.5817 
   94850    271.63251   -727.86236    270673.78   -79339.091     6881.512   -86220.603    5111.0093 
   94900    277.20148   -999.35594    270766.35   -79339.577    7022.5958   -86362.173    5111.9426 
   94950    273.71868   -863.24661    270927.09   -79291.166    6934.3629   -86225.529    5117.6123 
   95000    271.77291   -1169.1141    271464.15   -79338.015    6885.0689   -86223.084    5125.0563 
   95050    270.09081     -1308.53    271615.96   -79345.623    6842.4548   -86188.078    5126.5362 
   95100    274.79667    -1019.969    271311.09   -79312.689    6961.6725   -86274.362    5124.0533 
   95150    274.67781   -822.89948    270874.65   -79287.169    6958.6614    -86245.83    5125.6245 
   95200    275.13485   -1084.3302     270465.2   -79314.457    6970.2402   -86284.698    5124.3211 
   95250    273.08875    -768.6735    270202.02   -79341.751    6918.4044   -86260.155    5124.0879 
   95300    271.14682   -1014.7871    270481.77    -79364.25    6869.2076   -86233.458    5131.4074 
   95350    272.63351   -904.34932    271154.55   -79349.894    6906.8714   -86256.765    5143.4569 
   95400    277.72804   -1127.3809    271792.36   -79292.094    7035.9358   -86328.029    5151.9372 
   95450    272.17968   -1160.2778    271790.59   -79279.116    6895.3741    -86174.49     5153.557 
   95500    274.51947   -951.00952    270977.62    -79275.42      6954.65    -86230.07    5149.3521 
   95550    280.81364   -781.02685     270308.8   -79231.168    7114.1059   -86345.274    5143.1609 
   95600    279.36833   -822.35897    270502.77   -79247.494    7077.4907   -86324.985     5151.019 
   95650    277.80377   -839.73213    271184.04   -79206.309    7037.8543   -86244.163    5159.9084 
   95700     273.9071   -1053.1339    271976.27   -79183.311    6939.1363   -86122.447    5173.4048 
   95750      273.349   -1224.5862    272364.86   -79168.944    6924.9974   -86093.941    5182.4067 
   95800    274.16536   -1086.2521    272188.15     -79157.3    6945.6791   -86102.979    5183.1543 
   95850    279.19994   -1143.0767    271568.99   -79162.786    7073.2247   -86236.011    5176.3924 
   95900    281.80822    -797.9069    270621.96   -79181.007    7139.3026   -86320.309    5165.1671 
   95950    277.63172   -532.02783    270151.96   -79175.255    7033.4954    -86208.75    5162.0788 
   96000    275.59484   -852.29822    270684.62    -79167.06    6981.8933   -86148.954    5170.4396 
   96050    278.55575   -1358.4712    271845.25   -79137.568    7056.9049   -86194.472    5186.4872 
   96100    271.36313   -1327.4903    272435.99   -79181.703    6874.6877    -86056.39    5198.1655 
   96150    275.99143   -1127.6392    271998.64   -79200.039    6991.9406   -86191.979    5196.6076 
   96200    277.32057   -899.68841    271073.44   -79196.485    7025.6129   -86222.098    5188.4296 
   96250    280.67632    -860.0924    270566.65   -79230.125    7110.6271   -86340.753    5182.5787 
   96300    280.11146   -868.08098    270765.63   -79198.016    7096.3169   -86294.333     5190.353 
   96350    275.10839   -931.89491    271406.91   -79209.892    6969.5697   -86179.462    5205.9206 
   96400    277.88606   -1265.1336    272083.57    -79221.85    7039.9389   -86261.789    5217.8002 
   96450    275.02824   -1253.9496    272245.53   -79180.284    6967.5392   -86147.823    5223.0554 
   96500    274.33588   -997.40174    271613.13   -79172.276    6949.9989   -86122.275    5220.7326 
   96550     278.7756   -945.56747    270823.82   -79212.228    7062.4744   -86274.702    5209.2761 
   96600    274.48902    -687.7276    270501.92   -79273.884    6953.8786   -86227.763     5206.132 
   96650    276.70619   -1061.8687    271171.48   -79290.778    7010.0482   -86300.826    5218.8239 
   96700    273.35199   -1252.2987    271778.73   -79286.765    6925.0732   -86211.838    5228.8056 
   96750    274.15008   -1136.6608     271832.4   -79316.327     6945.292   -86261.619    5231.3359 
   96800    275.25563   -1211.1131    271453.71   -79340.927    6973.2998   -86314.227    5230.4299 
   96850    275.34707   -951.52475    270898.33   -79336.565    6975.6163   -86312.181    5227.4861 
   96900    274.68028   -821.30817    270433.01   -79319.015    6958.7241   -86277.739    5223.6004 
   96950    274.82496   -892.73197    270526.94    -79319.98    6962.3893   -86282.369    5227.2365 
   97000    276.62923   -1137.5527    271195.27   -79235.394    7008.0984   -86243.493    5240.5107 
   97050    275.72707   -1024.6248    271846.78   -79225.563    6985.2432   -86210.806    5253.4645 
   97100    273.89184   -1151.0268     272220.5   -79223.457    6938.7497   -86162.206     5261.107 
   97150    272.25589    -1004.863    272041.37   -79249.865    6897.3047    -86147.17    5263.4816 
   97200    275.99224   -1078.4583    271443.29   -79245.246     6991.961   -86237.208    5258.4827 
   97250    276.57321   -744.32079    270696.04   -79251.007    7006.6794   -86257.686    5247.3219 
   97300    274.22369   -1040.0039    270619.18   -79203.515    6947.1567   -86150.672     5247.591 
   97350    277.95224   -836.69874    270866.32   -79169.554    7041.6156   -86211.169    5251.9498 
   97400    278.30184   -911.12797    271348.44   -79142.833    7050.4722   -86193.305    5261.4152 
   97450    275.70747   -1162.3048    271789.56   -79126.581    6984.7468   -86111.327    5268.7321 
   97500    277.11489   -1019.9918     271869.2   -79138.082    7020.4021   -86158.484    5273.5108 
   97550    275.04895   -1133.2624    271787.58   -79136.403    6968.0638   -86104.467    5276.4524 
   97600    276.29795   -901.32721     271388.2   -79122.156     6999.706   -86121.862    5273.0219 
   97650     279.3032   -833.21469    271347.81   -79108.956    7075.8405   -86184.796    5276.0117 
   97700    280.34142   -1126.8677     271692.3   -79110.323    7102.1429   -86212.465    5284.6451 
   97750    275.99098   -1025.6577    271892.49   -79099.216    6991.9291   -86091.145    5287.7126 
   97800     277.6024   -1264.7713    271932.84   -79117.669    7032.7526   -86150.422    5292.4523 
   97850     275.3402   -926.22472    271787.03    -79139.72    6975.4424   -86115.162    5291.9874 
   97900    280.82833   -1036.8353    271333.25   -79142.118    7114.4781   -86256.596    5291.8621 
   97950    277.80166   -1007.6359    270780.76   -79141.481    7037.8008   -86179.281    5287.9593 
   98000    277.61381   -802.42978    270731.49   -79125.729    7033.0418   -86158.771    5287.4512 
   98050    278.16721   -1032.6582    270989.27   -79138.775    7047.0617   -86185.836      5293.12 
   98100    280.69347   -984.43945    271326.53   -79142.182    7111.0615   -86253.244    5302.1083 
   98150    278.13331   -1135.8671    271677.17   -79163.508    7046.2027   -86209.711    5309.9548 
   98200    277.46721   -1049.5311    271795.85   -79132.142    7029.3278   -86161.469    5315.3416 
   98250    278.92751   -999.85838    271890.22   -79076.654    7066.3228   -86142.976    5319.6782 
   98300    276.31828   -927.88958    271910.18   -79066.835     7000.221   -86067.056      5320.72 
   98350    279.58659   -1153.4505    271933.95   -79022.592    7083.0201   -86105.612    5323.0055 
   98400    278.19334   -973.31784    271703.82   -79060.904    7047.7235   -86108.628    5321.3492 
   98450    281.33896   -925.71654    271375.08   -79099.221    7127.4143   -86226.635    5314.6282 
   98500    281.65544   -1008.3683    270918.24    -79153.55    7135.4319   -86288.982    5309.2211 
   98550    278.24158   -777.09898    270448.37   -79159.424    7048.9456   -86208.369    5307.1898 
   98600    277.22953   -892.44921    270859.14   -79148.501    7023.3064   -86171.807    5314.3501 
   98650    280.95477   -1092.0986    271614.94   -79089.109    7117.6813   -86206.791     5328.192 
   98700    275.30556   -1084.2946    272251.88   -79083.985    6974.5647   -86058.549    5338.3593 
   98750    274.85672   -1067.4946    272163.03   -79053.257    6963.1938   -86016.451    5341.3111 
   98800    280.03314    -1008.916    271426.84   -79077.226    7094.3329   -86171.559    5337.1246 
   98850    278.91264   -695.52793     270887.9   -79104.273    7065.9463   -86170.219    5334.6662 
   98900    278.63567   -947.05848    271181.49   -79099.753    7058.9295   -86158.683    5340.2966 
   98950    277.12263    -1084.934    271769.26   -79076.663    7020.5983   -86097.262    5350.2943 
   99000    276.36601   -1128.1738    272082.61   -79078.024    7001.4301   -86079.454    5358.7622 
   99050    279.62933   -1278.2756    272002.96   -79121.838    7084.1029    -86205.94    5362.2539 
   99100    280.14713   -1252.7027    271583.21   -79081.485    7097.2206   -86178.705    5358.0041 
   99150    281.65167   -1026.2216    270830.94    -79153.22    7135.3364   -86288.556    5348.7804 
   99200    277.62453   -613.65901    270464.08   -79221.244    7033.3133   -86254.557    5348.5867 
   99250    276.66915   -1053.9753    270997.77   -79243.165      7009.11   -86252.275    5353.8732 
   99300    274.42214   -1058.0077     271561.7   -79252.086    6952.1842    -86204.27    5362.2817 
   99350    274.36349   -1209.1073    271847.29   -79285.801    6950.6984   -86236.499    5366.3074 
   99400    276.79321   -1314.4823    271782.04   -79315.099    7012.2528   -86327.351    5369.1836 
   99450    272.37623   -1020.1393    271057.59   -79310.002    6900.3535   -86210.355    5364.4296 
   99500    274.42197   -876.60874    270407.13   -79317.314    6952.1799   -86269.494    5353.8226 
   99550    275.42052   -949.46126    270365.42   -79347.138    6977.4773   -86324.616    5356.0595 
   99600    271.69625   -799.23909    270835.87   -79352.105    6883.1269   -86235.232    5365.9691 
   99650    272.53028   -1107.4215    271599.57   -79290.234     6904.256    -86194.49    5379.8808 
   99700    275.09027   -1059.1665    272023.36   -79268.714    6969.1106   -86237.825    5389.9658 
   99750    278.76183   -1229.0296    271872.31   -79247.143    7062.1257   -86309.268    5392.6048 
   99800    276.44887    -974.0852    271195.27   -79277.565    7003.5293   -86281.094    5385.7308 
   99850    273.06304   -948.74176    270698.11   -79321.419    6917.7529   -86239.171    5383.0786 
   99900    274.43554    -894.0708    270367.08   -79305.352    6952.5239   -86257.876    5380.7376 
   99950    275.16289   -960.14647    270749.32   -79295.041    6970.9505   -86265.992    5388.8946 
  100000    274.02789   -1032.5997    271426.68   -79288.575    6942.1963   -86230.772     5398.433 
Loop time of 344.748 on 6 procs for 100000 steps with 8500 atoms

Performance: 250.618 ns/day, 0.096 hours/ns, 290.067 timesteps/s
99.6% CPU use with 6 MPI tasks x no OpenMP threads

MPI task timing breakdown:
Section |  min time  |  avg time  |  max time  |%varavg| %total
---------------------------------------------------------------
Pair    | 162.36     | 222.81     | 289.48     | 341.6 | 64.63
Neigh   | 34.993     | 38.066     | 41.21      |  39.3 | 11.04
Comm    | 7.9665     | 77.66      | 141.19     | 606.1 | 22.53
Output  | 0.13307    | 0.13533    | 0.14282    |   0.9 |  0.04
Modify  | 4.933      | 4.9863     | 5.0304     |   1.3 |  1.45
Other   |            | 1.088      |            |       |  0.32

Nlocal:        1416.67 ave        1427 max        1401 min
Histogram: 1 0 1 0 0 0 1 0 2 1
Nghost:        2184.17 ave        2223 max        2170 min
Histogram: 2 1 2 0 0 0 0 0 0 1
Neighs:        0.00000 ave           0 max           0 min
Histogram: 6 0 0 0 0 0 0 0 0 0
FullNghs:      44379.7 ave       44896 max       43636 min
Histogram: 1 0 1 1 0 0 0 0 0 3

Total # of neighbors = 266278
Ave neighs/atom = 31.326824
Neighbor list builds = 20544
Dangerous builds = 0

# Create data file for import to other simulations
#
write_data data.${NAME}
write_data data.coexist_277K_-1000atm_mW
System init for write_data ...

Total wall time: 0:05:44
