
# Define the lattice
#
variable	    lattice_constant equal 6.36339
lattice		    diamond ${lattice_constant}
lattice		    diamond 6.36339
Lattice spacing in x,y,z = 6.3633900 6.3633900 6.3633900

# Define region
# multiples of lattice spacing
#
region 		    simbox block 0 9 0 8 0 8

# Create Atoms
#
create_box          1 simbox
Created orthogonal box = (0.0000000 0.0000000 0.0000000) to (57.270510 50.907120 50.907120)
  3 by 1 by 2 MPI processor grid
create_atoms        1 box
Created 4608 atoms
  create_atoms CPU = 0.001 seconds
mass                1 18.015

# Define potential
#
pair_style          sw
pair_coeff          * * /data/emrosky-sim/Freezing_Simulations/Melting/mW_fancy/mW.sw mW
Reading sw potential file /data/emrosky-sim/Freezing_Simulations/Melting/mW_fancy/mW.sw with DATE: 2019-02-27

# Add velocity/set timestep
#
velocity            all create ${TEMP} 120598 rot yes dist gaussian
velocity            all create 277 120598 rot yes dist gaussian
timestep            5.0

# Define output
#
compute	            1 all msd
thermo              100
thermo_style        custom step temp press vol etotal ke pe c_1[4]

# Neighbor lists
#
neigh_modify        delay 0 every 1 check yes

# Set fixes
#
fix                 1 all momentum 10 linear 1 1 1 rescale
fix                 2 all nve
fix                 3 all temp/csvr ${TEMP} ${TEMP} 500.0 928347
fix                 3 all temp/csvr 277 ${TEMP} 500.0 928347
fix                 3 all temp/csvr 277 277 500.0 928347
fix                 4 all press/berendsen iso ${PRES} ${PRES} 1000.0 modulus 20000
fix                 4 all press/berendsen iso -1000 ${PRES} 1000.0 modulus 20000
fix                 4 all press/berendsen iso -1000 -1000 1000.0 modulus 20000

# Run 0.5 ns equilibration
#
dump		    1 all custom 1000 eq.${NAME}.dump id type x y z vx vy vz
dump		    1 all custom 1000 eq.ice_277K_-1000atm_mW.dump id type x y z vx vy vz
run                 100000
Neighbor list info ...
  update every 1 steps, delay 0 steps, check yes
  max neighbors/atom: 2000, page size: 100000
  master list distance cutoff = 6.3065
  ghost atom cutoff = 6.3065
  binsize = 3.15325, bins = 19 17 17
  1 neighbor lists, perpetual/occasional/extra = 1 0 0
  (1) pair sw, perpetual
      attributes: full, newton on
      pair build: full/bin/atomonly
      stencil: full/bin/3d
      bin: standard
Per MPI rank memory allocation (min/avg/max) = 4.778 | 4.778 | 4.778 Mbytes
Step Temp Press Volume TotEng KinEng PotEng c_1[4] 
       0          277   -4562.0669    148418.52   -52749.594     3803.928   -56553.522            0 
     100    218.66919   -1509.7339    142575.91   -51531.755    3002.8947   -54534.649   0.21106445 
     200    214.93228   -1002.2589    142099.96    -50637.68    2951.5772   -53589.257   0.27544777 
     300    229.15304   -966.07855    142273.77   -50059.635    3146.8651     -53206.5   0.28995087 
     400    248.21225   -1011.6778    142475.95   -49663.818    3408.5976   -53072.416   0.26408737 
     500    264.55383   -1022.6481    142623.97   -49382.214    3633.0098   -53015.224   0.27287142 
     600    266.47859   -960.00469    142742.38   -49116.929    3659.4418   -52776.371   0.29744869 
     700    273.81753   -957.42693    142780.59   -49043.247    3760.2244   -52803.471   0.25088333 
     800    271.01864   -999.95103    142826.42   -48958.031    3721.7883   -52679.819   0.27951036 
     900    274.97004   -1002.8813    142891.65   -48946.972    3776.0513   -52723.023   0.27221178 
    1000    281.04846   -991.67024    142844.96   -48987.552    3859.5238   -52847.076   0.26428309 
    1100    280.31762   -984.82083    142890.46   -48927.681    3849.4874   -52777.169   0.25529425 
    1200    283.80545   -982.72418    142871.57   -48925.544    3897.3845   -52822.929   0.26574674 
    1300    278.79477   -1010.8947    142899.74   -48837.818    3828.5748   -52666.393   0.28842529 
    1400     273.8112   -972.39953    142899.56   -48934.052    3760.1375    -52694.19   0.25346551 
    1500    275.07834   -1013.3692    142863.18   -48967.952    3777.5386   -52745.491   0.27121502 
    1600     275.9046   -985.66962    142866.84   -48906.182    3788.8853   -52695.067    0.2824451 
    1700     275.6433   -1012.5109    142851.95   -48925.668    3785.2969   -52710.965    0.2634795 
    1800    274.79677   -988.54184    142849.68   -48923.639    3773.6719   -52697.311   0.26021294 
    1900    282.32651   -995.04126    142875.18   -48832.221    3877.0747   -52709.296   0.27715504 
    2000     280.7802   -1008.7547    142896.56   -48779.195    3855.8399   -52635.035   0.28961111 
    2100    275.08241   -1032.8461    142884.12   -48946.589    3777.5944   -52724.183   0.25203463 
    2200    277.27817    -1029.021    142894.12   -48882.563     3807.748   -52690.311    0.2742117 
    2300    277.31534   -987.79582    142879.58   -48813.659    3808.2584   -52621.917   0.29104786 
    2400    274.36406   -1011.6193     142893.7   -48839.383    3767.7297   -52607.113   0.25909565 
    2500    276.35977   -1004.3525    142894.98   -48881.364    3795.1359     -52676.5   0.26496044 
    2600    277.32581   -1013.8111    142910.46   -48920.598    3808.4022       -52729   0.28262442 
    2700    282.30929    -979.0568    142894.17   -48893.138    3876.8383   -52769.976   0.26420383 
    2800    278.69594   -961.12876    142918.36   -48801.343    3827.2176    -52628.56    0.2493197 
    2900    278.97546   -1050.8281    142936.47   -48820.749    3831.0562   -52651.805   0.29045279 
    3000     279.2874   -1004.4294     142923.2   -48876.947      3835.34   -52712.287   0.27796978 
    3100    280.69454   -984.53483    142930.18   -48852.952    3854.6635   -52707.615   0.24641604 
    3200    277.17738   -982.54799    142901.04   -48956.397    3806.3638   -52762.761   0.27199347 
    3300    271.07096   -1015.1901    142852.47   -49016.799    3722.5069   -52739.306   0.27942923 
    3400    278.18642   -1013.8066    142875.14   -48954.902    3820.2206   -52775.123   0.25682863 
    3500    276.32817   -1003.5198    142872.04   -48913.238    3794.7021    -52707.94   0.26988057 
    3600    275.27667   -1032.0634    142879.64   -48929.039    3780.2622   -52709.302   0.28284125 
    3700    277.65192   -1030.3965     142876.8   -48887.783    3812.8805   -52700.663   0.27433124 
    3800    277.40497   -995.83451    142921.86   -48874.408    3809.4892   -52683.898   0.25273875 
    3900    282.78913   -994.53575    142904.34   -48877.321    3883.4277   -52760.749    0.2763613 
    4000    271.43302    -1006.458    142881.06   -48922.891    3727.4789    -52650.37   0.27769843 
    4100    276.74159   -968.22246    142863.61   -48941.415    3800.3793   -52741.795   0.25591041 
    4200     276.7148   -1001.3193    142853.54   -48892.673    3800.0114   -52692.684   0.27205609 
    4300    276.05258   -1027.4879    142830.91   -49028.018    3790.9175   -52818.936   0.27570264 
    4400    276.95914   -993.71276    142827.43   -48916.474    3803.3668   -52719.841   0.27429596 
    4500    276.96416   -973.60082    142844.23   -48971.408    3803.4358   -52774.844    0.2558826 
    4600    276.95744     -1012.76    142825.31   -49003.481    3803.3434   -52806.824   0.28298096 
    4700    279.49254   -991.65718    142836.78   -48910.701     3838.157   -52748.858      0.27558 
    4800    281.46185   -982.61202    142861.28   -48813.786    3865.2007   -52678.986   0.25769068 
    4900    282.97372    -989.2734     142894.7   -48778.993    3885.9626   -52664.956   0.27337362 
    5000    277.62096   -968.76636    142858.01   -48901.853    3812.4553   -52714.309   0.28490472 
    5100    274.69761   -998.37479    142843.77   -48828.663    3772.3102   -52600.973   0.26261596 
    5200    281.07522   -1015.1131    142866.87   -48900.738    3859.8914   -52760.629   0.26288215 
    5300    272.21097   -1016.9243    142794.19   -48999.586    3738.1621   -52737.748   0.29607885 
    5400    275.82007   -969.78506    142803.81   -48972.922    3787.7245   -52760.646   0.26294033 
    5500    277.03692   -995.34259    142826.94   -48942.138     3804.435   -52746.573   0.26259088 
    5600    276.46222   -992.99282    142793.03   -48973.519    3796.5429   -52770.062    0.2835635 
    5700    273.79774    -1006.865    142791.39   -48962.793    3759.9526   -52722.746    0.2809271 
    5800     274.3147   -974.33739    142809.93   -48904.474    3767.0518   -52671.525   0.25977196 
    5900    271.38829    -1036.004    142812.67   -48986.572    3726.8646   -52713.437   0.27626585 
    6000    276.73637   -1002.6061    142783.15   -48959.203    3800.3077   -52759.511   0.28601855 
    6100    271.90867   -979.29875    142782.06   -49033.933    3734.0107   -52767.943   0.25859274 
    6200    272.83213   -987.00776    142781.11   -49017.806    3746.6922   -52764.498   0.27038044 
    6300    279.83693   -989.67889     142804.2   -48897.614    3842.8864     -52740.5   0.28310332 
    6400    277.20417    -964.0509    142839.99   -48946.661    3806.7317   -52753.393    0.2710643 
    6500    274.06541   -1001.7981    142784.29   -48961.035    3763.6285   -52724.664   0.26588056 
    6600    278.24043   -964.31637    142805.47   -48970.197    3820.9622   -52791.159   0.26881368 
    6700    273.26124    -1032.313       142786   -49022.326    3752.5851   -52774.912   0.29270552 
    6800    270.44487   -1044.7339    142792.04   -48971.186     3713.909   -52685.095   0.26496285 
    6900    280.16859   -992.28869    142849.85   -48897.638     3847.441   -52745.079   0.26114914 
    7000    276.21082    -1002.988    142853.14   -48893.415    3793.0905   -52686.506   0.29121929 
    7100    275.76474   -1004.2204    142857.26   -48907.604    3786.9647   -52694.569     0.260288 
    7200    277.25897   -1000.5238    142827.53   -49021.439    3807.4843   -52828.923    0.2572041 
    7300    274.93276   -994.36432    142766.69   -49068.394    3775.5394   -52843.934   0.27789333 
    7400    274.43213   -958.31742    142776.66   -48963.193    3768.6644   -52731.857   0.27972116 
    7500    278.98013   -985.16408    142819.46    -48897.97    3831.1203   -52729.091   0.25631716 
    7600    276.24441    -1004.748    142862.56   -48873.724    3793.5517   -52667.276   0.27279774 
    7700    276.06363   -1023.3851    142864.67   -48969.207    3791.0692   -52760.276     0.284334 
    7800      272.993   -967.10795    142841.79   -49025.983    3748.9015   -52774.885    0.2462721 
    7900    270.47562   -1029.8422    142832.94   -48978.142    3714.3313   -52692.473   0.26998338 
    8000     278.0639   -1005.9656    142864.51   -48875.574    3818.5381   -52694.112   0.28743754 
    8100    277.09186   -1045.6084     142880.5    -48839.97    3805.1894   -52645.159   0.26320252 
    8200    275.29554   -1009.9146    142838.88     -48855.7    3780.5213   -52636.221   0.26696891 
    8300    277.41308   -997.96557    142843.28   -48817.232    3809.6006   -52626.833   0.28411626 
    8400     278.4747   -1008.2305    142854.21   -48797.679    3824.1794   -52621.859   0.28388151 
    8500    278.17022   -1016.6338    142841.55   -48879.681    3819.9981   -52699.679   0.25064324 
    8600    276.08946   -1000.0629    142821.38   -48892.591    3791.4239   -52684.015    0.2819797 
    8700    279.03204     -999.197    142790.36   -48861.121    3831.8332   -52692.954    0.2857253 
    8800     282.8483   -984.06501     142787.6   -48900.877    3884.2403   -52785.117    0.2616764 
    8900    277.00055   -995.97086     142791.2   -48961.489    3803.9356   -52765.424   0.27419717 
    9000    278.76796   -962.81187     142798.5   -48891.012    3828.2067   -52719.218   0.28543453 
    9100    275.39097   -1025.9743    142791.99   -48940.121    3781.8318   -52721.952   0.27701291 
    9200    279.06885   -989.34353    142817.26   -48839.108    3832.3387   -52671.447   0.25941905 
    9300    277.68883   -1006.9468    142791.24   -48982.591    3813.3874   -52795.978   0.28715814 
    9400    275.83313   -988.78268    142771.89    -48948.27    3787.9038   -52736.174   0.27306205 
    9500    276.10405   -992.33532    142786.21   -48991.533    3791.6243   -52783.157   0.26335116 
    9600    276.99115   -993.63008    142763.55    -48978.86    3803.8064   -52782.666   0.27811685 
    9700     281.5241    -994.3081    142808.04   -48870.892    3866.0556   -52736.948   0.27926318 
    9800    279.64939   -1003.5655    142791.08   -48816.426    3840.3109   -52656.737   0.28041784 
    9900    279.29893    -983.7642     142767.1   -48841.258    3835.4983   -52676.756   0.26860596 
   10000    278.91931   -1005.2813    142785.11   -48897.639    3830.2851   -52727.924    0.2948282 
   10100    280.03677   -998.38651    142788.56   -48846.375    3845.6307   -52692.005   0.28410537 
   10200    279.75915   -1000.3121    142826.97   -48824.655    3841.8183   -52666.473   0.26019735 
   10300     282.3472   -1036.8081    142802.73   -48815.996    3877.3589   -52693.355   0.29635396 
   10400    281.25674   -995.07363    142806.21   -48817.471     3862.384   -52679.855   0.28266308 
   10500    278.39357   -974.92384    142778.71   -48867.802    3823.0652   -52690.867   0.27618423 
   10600    277.17139   -982.31636    142783.84   -48890.984    3806.2815   -52697.266    0.2746295 
   10700     279.8713   -984.02445    142728.57   -48910.863    3843.3584   -52754.221   0.29780493 
   10800    273.70591   -1038.9128     142721.3   -49034.797    3758.6915   -52793.488   0.28439252 
   10900    272.38043   -1001.2281    142706.32   -49022.878    3740.4892   -52763.367   0.26142222 
   11000     269.3792   -1016.8396    142689.38   -49037.751    3699.2747   -52737.026    0.3036365 
   11100    276.35894   -969.46564    142736.12   -48944.225    3795.1246   -52739.349   0.28549536 
   11200    267.59636    -1041.165    142725.82   -49054.379    3674.7917   -52729.171   0.26814741 
   11300    272.95706   -1024.5651    142736.05   -48968.828    3748.4079   -52717.236   0.28645897 
   11400    273.83172   -990.54559    142764.95   -48950.992    3760.4192   -52711.411   0.29134941 
   11500    278.67767   -1008.9922    142793.91   -48855.364    3826.9667    -52682.33   0.27135972 
   11600    280.10604   -982.00552    142835.51   -48849.724     3846.582   -52696.306   0.26929251 
   11700     280.1632   -979.38489    142881.78   -48730.405    3847.3669   -52577.772   0.29346868 
   11800    279.41693   -988.12385       142890   -48794.552    3837.1187   -52631.671   0.27364292 
   11900    279.51908   -984.53539    142877.97   -48849.499    3838.5215   -52688.021   0.26298352 
   12000    283.34688   -958.62462    142852.58   -48810.326     3891.087   -52701.413   0.28316353 
   12100    281.59796   -1042.4333       142849   -48869.165    3867.0699   -52736.235   0.28621397 
   12200    283.54961   -992.58372     142844.1   -48872.863    3893.8711   -52766.734   0.26455979 
   12300    279.50581   -1006.1857    142806.64   -48932.124    3838.3392   -52770.463    0.2720071 
   12400    277.95994   -1011.7318    142815.88   -48921.536    3817.1104   -52738.646   0.28824383 
   12500    281.73825   -946.96066    142831.46   -48847.047    3868.9964   -52716.043   0.26980703 
   12600    279.06922   -955.66637    142873.77   -48813.157    3832.3437   -52645.501   0.26238015 
   12700    270.37227   -1031.2401    142886.38   -48884.666    3712.9121   -52597.578   0.28463015 
   12800    280.01117   -997.80807    142882.18    -48876.49    3845.2792   -52721.769   0.27813671 
   12900    272.17838   -1015.2178    142845.42   -48934.225    3737.7146   -52671.939   0.26162102 
   13000    277.10547   -1006.5367    142847.97    -48905.42    3805.3763   -52710.796   0.26816287 
   13100    273.52777   -1022.2597     142820.3   -48979.642    3756.2452   -52735.887   0.30048857 
   13200    275.50851   -1013.8343    142789.41   -49004.877    3783.4459   -52788.323   0.25797315 
   13300    270.50375   -1013.1386    142765.15   -49085.023    3714.7176    -52799.74   0.26839003 
   13400    270.99854   -1011.9449    142742.67   -49074.281    3721.5123   -52795.793    0.2952535 
   13500    278.87977   -963.57582     142776.3   -48987.259    3829.7421   -52817.001   0.26648836 
   13600     280.2491   -993.01913    142779.52   -48929.071    3848.5465   -52777.617    0.2643966 
   13700    272.85937   -1036.9574    142756.29   -48960.754    3747.0664   -52707.821   0.29426701 
   13800    274.95425   -1022.3048    142781.01    -48917.68    3775.8345   -52693.515   0.29364918 
   13900    281.20879   -991.26012     142780.2   -48902.701    3861.7256   -52764.427   0.26203661 
   14000    281.32797   -975.63558     142857.4   -48798.805    3863.3622   -52662.167   0.28443903 
   14100    280.47353   -1007.3816    142833.71   -48878.767    3851.6285   -52730.395   0.28644711 
   14200    278.61852   -1003.9775    142829.27   -48883.359    3826.1544   -52709.514   0.26379817 
   14300    277.19305   -996.82319    142830.04   -48922.359    3806.5791   -52728.938   0.28094236 
   14400     271.4518   -985.73463    142792.45   -48973.125    3727.7368   -52700.861   0.28371599 
   14500    273.96724   -1042.6573    142786.74   -48995.672    3762.2803   -52757.952   0.27521367 
   14600    275.51679   -966.13534    142789.63   -48943.561    3783.5597    -52727.12   0.27042035 
   14700    279.32899   -984.79855       142796   -48900.904    3835.9111   -52736.815   0.28176227 
   14800    275.71467   -1002.0815    142835.16   -48879.746     3786.277   -52666.023   0.28565536 
   14900    276.06854   -986.04978    142836.61    -48892.37    3791.1365   -52683.506   0.27144398 
   15000     278.5864   -1002.6367    142800.21   -48958.806    3825.7134    -52784.52   0.27313725 
   15100    274.17218   -972.03663    142803.62   -48969.554    3765.0947   -52734.649    0.2783758 
   15200    275.20838   -1023.9763    142835.27   -48901.853    3779.3244   -52681.178   0.27973967 
   15300    275.57038   -987.64139    142821.07   -48983.233    3784.2956   -52767.529   0.26551729 
   15400    274.77444   -1014.8695    142826.04   -48975.135    3773.3652     -52748.5   0.28265802 
   15500    277.43856   -987.87587    142840.09   -48910.729    3809.9506   -52720.679   0.28840628 
   15600    283.95922   -995.58719    142899.52    -48799.41    3899.4961   -52698.906     0.259357 
   15700    281.32643   -1020.2004    142902.99   -48817.776    3863.3411   -52681.117    0.2821898 
   15800    276.95016     -1032.14    142894.93   -48811.564    3803.2435   -52614.807   0.28774253 
   15900    281.81565   -1013.4761    142894.82   -48835.161    3870.0594    -52705.22    0.2643036 
   16000    274.09617   -997.48391    142892.32    -48882.63    3764.0509   -52646.681   0.27375199 
   16100    279.26979   -966.29014    142846.35   -48916.188    3835.0981   -52751.286   0.28458271 
   16200    279.04208   -1032.2365    142842.68   -48925.568     3831.971   -52757.539   0.27385518 
   16300    275.91736   -985.42142     142838.4   -48938.697    3789.0605   -52727.757   0.25471052 
   16400    274.77174   -1024.8432    142832.84   -48953.321    3773.3281   -52726.649   0.30054195 
   16500    277.92234   -988.08216     142858.9   -48875.427    3816.5941   -52692.021   0.28057691 
   16600    280.80903   -993.94252    142883.08   -48798.146    3856.2358   -52654.382   0.26013599 
   16700    280.37021   -979.33726    142857.01   -48830.452    3850.2096   -52680.661   0.29506701 
   16800    279.20797   -980.64976    142832.75   -48885.052    3834.2491   -52719.301   0.27572981 
   16900    274.97055   -994.23485    142816.43   -48909.786    3776.0583   -52685.844   0.27794194 
   17000    275.07245   -1006.7717     142796.9   -48956.424    3777.4577   -52733.882   0.27918493 
   17100    281.88937     -959.639    142833.53   -48913.274    3871.0717   -52784.346   0.28632447 
   17200    275.13893   -1047.4807    142802.71    -48978.46    3778.3706   -52756.831   0.27866137 
   17300    275.38713    -987.1992    142776.27   -49060.961     3781.779    -52842.74   0.25865055 
   17400    272.22648   -975.65897    142786.88   -49053.999    3738.3752   -52792.375   0.28994249 
   17500    275.43497    -996.6154     142789.7   -48957.365     3782.436   -52739.801    0.2743251 
   17600    277.99399   -1000.2613     142783.3   -48967.576     3817.578   -52785.154   0.27269048 
   17700    276.19906   -981.59768    142782.32   -49017.708    3792.9289   -52810.636   0.27648385 
   17800    272.52004   -1033.9162    142755.52   -48972.879    3742.4066   -52715.285   0.28705304 
   17900     273.6269    -981.4407    142804.03    -48916.88    3757.6066   -52674.487   0.27713293 
   18000    276.26504   -978.76273    142839.42   -48829.088    3793.8351   -52622.924   0.26828621 
   18100     276.1504   -1016.0385    142885.07   -48842.818    3792.2607   -52635.079   0.29209906 
   18200    280.27563   -982.08146    142862.55   -48890.543    3848.9109   -52739.454   0.26870716 
   18300    277.03998   -1011.1557    142867.65   -48892.402     3804.477   -52696.879   0.26258015 
   18400    276.10841   -991.41143    142844.43   -48991.156    3791.6841    -52782.84   0.27844246 
   18500    280.25028   -970.51361    142822.53    -48929.37    3848.5627   -52777.933   0.28064475 
   18600    276.76705   -1005.9085    142843.54   -48876.354     3800.729   -52677.083   0.26805317 
   18700    280.53289   -998.41801    142878.29   -48899.502    3852.4436   -52751.946   0.27407427 
   18800    277.38196   -1018.2837    142844.41    -48916.24    3809.1732   -52725.413   0.28886815 
   18900    275.58316   -1029.7195    142842.52   -48875.143     3784.471   -52659.614   0.26783467 
   19000    270.47577   -1017.1396     142845.5   -48908.994    3714.3334   -52623.327   0.26553519 
   19100    277.63442   -1010.7323    142842.02   -48819.459    3812.6401   -52632.099   0.29534802 
   19200    280.83122   -1000.6423    142824.85   -48843.079    3856.5405   -52699.619   0.27682354 
   19300    281.69231   -998.34348    142832.29   -48737.433    3868.3655   -52605.799   0.27203156 
   19400    280.55383   -940.28341    142827.64   -48798.534    3852.7313   -52651.265   0.28442067 
   19500    276.57569   -984.46509     142841.7   -48797.088    3798.1011   -52595.189   0.28965598 
   19600    280.91929   -979.38043     142839.5   -48788.367    3857.7499   -52646.117   0.26730901 
   19700    281.11249   -1003.0316    142852.47   -48837.997    3860.4031     -52698.4   0.27198035 
   19800    282.34296   -995.16162    142818.62   -48791.499    3877.3006     -52668.8    0.2951869 
   19900    277.99898   -1039.8936       142795   -48873.007    3817.6465   -52690.653   0.27629438 
   20000    279.15681   -1010.4354    142767.52   -48897.151    3833.5465   -52730.697   0.27370397 
   20100    275.34877    -1019.581    142765.05   -48937.245    3781.2523   -52718.497   0.29253171 
   20200     274.1152   -1028.8496    142775.65   -48916.203    3764.3121   -52680.515   0.28116127 
   20300    282.36919   -974.75518    142824.54   -48884.626    3877.6608   -52762.287   0.26815167 
   20400    279.32441   -1024.0488    142805.89    -48943.52    3835.8481   -52779.368    0.2771414 
   20500    274.38781   -1006.5739    142777.81   -48979.441    3768.0559   -52747.497   0.28911842 
   20600     270.1778   -1031.1515    142786.42   -48994.783    3710.2414   -52705.024   0.26908734 
   20700    271.84281   -1031.3914    142798.09   -48943.781    3733.1063   -52676.888   0.28007611 
   20800    279.57233    -995.3845    142840.66   -48811.462    3839.2527   -52650.714   0.29138811 
   20900    273.88567   -1010.0907    142830.27   -48914.944    3761.1602   -52676.104   0.27471608 
   21000    278.82608    -1030.298    142806.67   -48919.952    3829.0048   -52748.957    0.2733396 
   21100    280.52038   -983.16958    142826.69   -48804.935    3852.2719   -52657.207   0.28810851 
   21200    280.77114   -984.99762    142861.48   -48824.414    3855.7155    -52680.13   0.28856164 
   21300    275.10824   -1001.9251    142869.72    -48815.86    3777.9492   -52593.809   0.26669668 
   21400    280.20046   -998.06511    142845.02   -48866.388    3847.8785   -52714.267   0.27637418 
   21500    281.19852    -971.3178    142853.79    -48767.42    3861.5845   -52629.004   0.29401086 
   21600    281.31439    -984.8857    142852.59   -48771.631    3863.1758   -52634.806   0.26723822 
   21700    278.07426   -977.17416    142839.25   -48901.217    3818.6803   -52719.897   0.26885949 
   21800    277.22077   -1024.6757    142787.01   -48932.975    3806.9597   -52739.935   0.29123914 
   21900    276.65121   -983.18568    142819.82   -48908.794    3799.1381   -52707.932   0.28031358 
   22000    275.45732   -957.58137    142782.57   -48937.349    3782.7429   -52720.091   0.26097908 
   22100    277.24783   -990.25372    142795.66   -48983.642    3807.3313   -52790.973   0.27822631 
   22200    272.90372   -1010.7869    142782.81   -49066.845    3747.6754    -52814.52   0.28477749 
   22300      275.479   -1003.2209     142766.9   -48956.196    3783.0407   -52739.237   0.26508583 
   22400     277.8441   -1032.9932    142829.74   -48908.352    3815.5196   -52723.872   0.27719966 
   22500    277.23488   -962.63217    142856.22   -48862.677    3807.1534   -52669.831   0.28781425 
   22600    276.03639   -1011.0844    142842.57   -48902.285    3790.6951    -52692.98   0.26846564 
   22700    276.19673   -1011.7671    142791.36   -48953.399    3792.8969   -52746.296   0.26396025 
   22800    276.92415   -1005.9243    142818.59   -48884.469    3802.8864   -52687.355   0.29583553 
   22900    281.15575   -984.79654    142797.94   -48920.216    3860.9972   -52781.213   0.27087137 
   23000    274.23865   -1050.7141    142768.56   -48991.822    3766.0075    -52757.83   0.27222185 
   23100    273.81763   -1001.9178    142791.66   -48934.292    3760.2258   -52694.517   0.28880485 
   23200    276.41413   -984.00354    142797.18   -48879.136    3795.8824   -52675.018   0.27589522 
   23300    278.13327    -968.4083    142800.19   -48874.506    3819.4907   -52693.997   0.27967102 
   23400    274.35628   -1014.1257    142793.67   -48922.041    3767.6228   -52689.663   0.27561602 
   23500    278.67829   -1009.7684    142832.49   -48809.013    3826.9753   -52635.988   0.28564615 
   23600    284.66122    -1002.928       142876   -48831.617    3909.1363   -52740.753   0.27392329 
   23700    281.01361   -1015.0577    142869.15   -48822.905    3859.0453   -52681.951   0.26976428 
   23800    283.12847   -968.77046    142873.88   -48828.825    3888.0878   -52716.913   0.27382559 
   23900    273.09818   -1033.6342    142860.89   -48920.419    3750.3458   -52670.765   0.28333879 
   24000    277.89876   -980.87913    142867.56   -48871.923    3816.2703   -52688.193   0.26872271 
   24100    280.86301   -989.16602     142862.6   -48800.591    3856.9772   -52657.568   0.26674642 
   24200    275.96606   -1030.0408    142817.31   -48921.304    3789.7293   -52711.033    0.2948926 
   24300    276.36682   -981.05882    142804.75   -48963.007    3795.2328    -52758.24   0.27469514 
   24400    279.47489   -980.82255     142786.1   -48985.719    3837.9146   -52823.633   0.25834943 
   24500      278.474   -994.10916    142793.15   -48941.261    3824.1698   -52765.431   0.29548676 
   24600    273.43502   -1012.7433    142787.39   -48988.514    3754.9715   -52743.486   0.28161936 
   24700    272.27935     -991.355    142789.19   -48990.221    3739.1012   -52729.322    0.2601908 
   24800    275.90774   -933.92973    142811.91    -48926.51    3788.9284   -52715.438   0.28107956 
   24900    276.86364   -990.29647    142813.45   -48986.375    3802.0553    -52788.43   0.28195476 
   25000    275.23227   -995.80862    142816.05   -48974.979    3779.6525   -52754.631   0.26400102 
   25100     268.4131   -999.90187    142789.88   -49023.703    3686.0075    -52709.71   0.27966587 
   25200    264.33553   -1002.4585    142754.82    -49155.35     3630.012   -52785.362   0.29617802 
   25300    276.71671   -958.75033    142770.85   -48994.778    3800.0377   -52794.815   0.26102294 
   25400     272.4751   -982.55762     142816.8   -49039.392    3741.7894   -52781.181   0.27008105 
   25500    272.77573   -977.20447    142832.13   -48921.859    3745.9178   -52667.777   0.29272986 
   25600    277.95801   -989.01018    142886.23   -48853.148    3817.0839   -52670.232   0.27637234 
   25700    275.09478   -987.12159     142828.9   -48934.895    3777.7643   -52712.659   0.27210263 
   25800    278.07781   -970.01122    142851.27   -48797.053     3818.729   -52615.782   0.28551809 
   25900    278.84389   -1010.9779    142883.37   -48825.083    3829.2494   -52654.333   0.28848504 
   26000    278.12639   -993.09258    142865.24   -48868.447    3819.3962   -52687.843   0.26884921 
   26100    280.09233   -992.03214    142876.35   -48854.244    3846.3937   -52700.638   0.27028272 
   26200    273.31484   -1038.1464    142833.74   -48954.109    3753.3212    -52707.43   0.29060016 
   26300    278.53002   -958.92473    142810.19    -48920.82    3824.9391   -52745.759   0.27478045 
   26400    272.98224   -991.51906    142774.44     -48966.7    3748.7537   -52715.454     0.278195 
   26500    277.79936   -1013.2045     142813.9   -48887.947    3814.9053   -52702.852   0.28155991 
   26600    278.76333   -995.43559    142834.86   -48830.026     3828.143   -52658.169   0.29645751 
   26700    278.47538    -992.0784    142855.98   -48828.972    3824.1887   -52653.161   0.27066171 
   26800    278.66554   -985.86386    142860.22   -48879.631    3826.8001   -52706.431    0.2683413 
   26900    277.71622   -983.80276    142872.38    -48818.11    3813.7635   -52631.873   0.30070817 
   27000    281.93132   -1040.4699    142885.88   -48856.565    3871.6477   -52728.213   0.26546375 
   27100    282.50331   -954.68528    142869.87   -48801.362    3879.5027   -52680.865    0.2676279 
   27200    274.85171   -993.15661    142879.96   -48868.888    3774.4264   -52643.314   0.28355552 
   27300    280.17528   -967.13157    142874.96   -48705.003    3847.5328   -52552.536   0.28108906 
   27400    279.90624    -964.4086    142889.59   -48827.302    3843.8382    -52671.14   0.26011781 
   27500    273.88959   -1016.8472    142848.07   -48931.613    3761.2139   -52692.827   0.28889915 
   27600    275.64365   -979.36918    142842.03   -48983.771    3785.3017   -52769.073   0.28949605 
   27700    275.08133   -973.06302    142862.99   -48883.422    3777.5796   -52661.002   0.25671331 
   27800    276.56935   -998.38149    142902.48   -48861.273     3798.014   -52659.287   0.27913768 
   27900    279.73098   -1007.2592       142884   -48916.673    3841.4315   -52758.104    0.2846062 
   28000    277.83436   -1028.3287    142853.25   -48982.984    3815.3859    -52798.37   0.25533155 
   28100    274.74906   -989.54315    142821.64   -48961.557    3773.0168   -52734.574   0.27240747 
   28200    279.46385   -987.56389    142809.81   -48930.514    3837.7631   -52768.277   0.28276061 
   28300    278.25583   -1009.3163    142837.24   -48955.188    3821.1738   -52776.362   0.27320192 
   28400    280.07601    -952.9135    142848.28   -48890.007    3846.1695   -52736.176   0.26639255 
   28500    276.18706   -974.52023    142851.87   -48920.252    3792.7642   -52713.016   0.28031131 
   28600    277.65999   -1006.3261    142835.43   -48927.037    3812.9913   -52740.029    0.2734155 
   28700    276.66092   -993.71653    142846.91   -48926.273    3799.2716   -52725.545   0.27173426 
   28800    277.16408   -977.15333    142833.12   -48966.571    3806.1812   -52772.753   0.28177972 
   28900    274.49857   -962.32384    142817.72   -48937.376    3769.5769   -52706.953   0.27469155 
   29000    277.40787   -987.54469    142858.91   -48886.208     3809.529   -52695.737   0.27844562 
   29100    280.24917    -995.7141    142845.97   -48878.267    3848.5475   -52726.814   0.26529866 
   29200    282.39776   -999.99464    142888.64   -48817.341    3878.0532   -52695.394   0.26943272 
   29300    282.55865   -986.68888     142861.4   -48818.244    3880.2626   -52698.506   0.29141241 
   29400    278.15453   -1000.9719    142865.62   -48833.583    3819.7826   -52653.366   0.27164352 
   29500    274.97348   -1021.4971    142869.63   -48871.941    3776.0986   -52648.039   0.26921222 
   29600    276.97127   -1003.6814    142875.51   -48843.306    3803.5335   -52646.839    0.2903835 
   29700      275.652   -1055.0147    142836.42   -48920.801    3785.4164   -52706.217   0.27699704 
   29800    275.63703   -946.11949    142798.65   -49008.469    3785.2109    -52793.68   0.25578295 
   29900    271.89857   -994.64586    142808.77   -48988.868    3733.8721    -52722.74   0.28939636 
   30000    278.50321   -950.88656    142787.42   -48953.467     3824.571   -52778.038   0.28078946 
   30100    274.40119   -1006.0848    142835.79   -48929.693    3768.2396   -52697.932   0.25393958 
   30200    278.42598    -963.0603    142825.96   -48932.887    3823.5104   -52756.397   0.28853802 
   30300     276.9827   -990.44832     142807.1   -48927.338    3803.6904   -52731.028   0.28793898 
   30400    278.20521   -963.68377    142811.22   -48952.559    3820.4786   -52773.038   0.25055625 
   30500    268.42903    -1032.083     142766.1   -49051.707    3686.2263   -52737.933   0.28343957 
   30600     276.8559   -976.16531    142776.65   -48929.868    3801.9491   -52731.817   0.29129872 
   30700    274.16518   -988.51604    142781.91   -48958.731    3764.9986    -52723.73   0.25935656 
   30800    276.36844   -918.69792    142809.69   -48892.446    3795.2551   -52687.701   0.27099537 
   30900    275.08419   -1002.4953    142847.56   -48875.673    3777.6189   -52653.292   0.29591074 
   31000    277.15855   -1032.2534    142869.04   -48912.772    3806.1053   -52718.877    0.2665011 
   31100    278.09551    -1020.109    142848.22   -48927.085    3818.9721   -52746.057   0.27316476 
   31200    278.97221   -1012.2823    142855.72   -48867.691    3831.0114   -52698.702   0.27876124 
   31300    285.51757   -988.63677     142883.9   -48809.265    3920.8962   -52730.161    0.2620804 
   31400    273.85302   -1036.6408    142863.14   -48923.267    3760.7117   -52683.978    0.2792821 
   31500    273.17681   -1015.5866    142831.31   -48873.136    3751.4256   -52624.562   0.27631906 
   31600    278.89883   -1002.0592    142832.64   -48892.108    3830.0037   -52722.112   0.27401274 
   31700    278.02144   -1020.5734    142825.53   -48863.016     3817.955   -52680.971   0.28476317 
   31800    280.92415   -1029.2109    142833.94   -48926.848    3857.8166   -52784.665   0.27287115 
   31900    276.29475   -1003.2286    142823.19   -48914.646    3794.2431   -52708.889   0.27265925 
   32000    279.14647   -973.44887    142840.97   -48867.894    3833.4046   -52701.299   0.28394062 
   32100    277.91172   -975.39732     142830.6   -48904.734    3816.4482   -52721.182   0.26814007 
   32200    272.59782   -1005.3973    142816.09   -49023.831    3743.4747   -52767.305   0.25599182 
   32300    270.29286   -998.02501    142796.03   -48970.063    3711.8216   -52681.885    0.2893445 
   32400    271.20487   -1016.0295    142785.93   -49059.231    3724.3458   -52783.577   0.26641962 
   32500    276.83483   -952.07715     142821.8   -48925.184    3801.6598   -52726.843   0.25608888 
   32600    273.90607   -967.74213    142858.45   -48880.981    3761.4403   -52642.421   0.29453133 
   32700    274.29963   -1040.6459     142846.6   -48971.126    3766.8449   -52737.971   0.27892762 
   32800    276.58496   -1006.8138    142846.33   -48834.863    3798.2283   -52633.091   0.26300408 
   32900    280.65846   -1006.1577    142864.51   -48907.996    3854.1681   -52762.165   0.27643223 
   33000    279.57797   -1021.2348       142862   -48896.845    3839.3301   -52736.175   0.27698683 
   33100    272.16111   -1029.9049    142883.45   -48926.582    3737.4774   -52664.059   0.25278225 
   33200    275.27387   -1005.2126    142869.88   -48904.667    3780.2236   -52684.891   0.27477972 
   33300    272.50182   -1017.3058     142865.7   -48903.329    3742.1563   -52645.486   0.28958842 
   33400    277.05886   -988.29464    142851.91   -48918.585    3804.7363   -52723.321   0.25738799 
   33500     274.4854   -1001.1454    142839.31   -48944.146     3769.396   -52713.542   0.28006849 
   33600      273.795   -993.71605    142829.94    -48959.05     3759.915   -52718.965   0.27860453 
   33700    275.47637   -1009.4622    142827.25   -48860.868    3783.0046   -52643.872   0.27045812 
   33800    280.75051    -998.3024    142889.93   -48761.811    3855.4322   -52617.243   0.27932357 
   33900     281.6913   -1004.8291    142921.67   -48790.439    3868.3517   -52658.791   0.27305519 
   34000      281.284   -991.23598    142886.58    -48928.43    3862.7583   -52791.189   0.26146245 
   34100    277.52598   -1003.9087     142872.8    -48945.65     3811.151   -52756.801   0.27262658 
   34200    276.74443   -955.99035    142888.11   -48942.585    3800.4183   -52743.003   0.26549813 
   34300    274.09254   -986.52943    142879.75   -48972.943     3764.001   -52736.944   0.25875061 
   34400    274.09433   -957.27944    142884.15   -48905.904    3764.0256    -52669.93   0.27740799 
   34500    279.75803   -973.95023    142892.94   -48834.391    3841.8028   -52676.194   0.26630221 
   34600    274.69666    -1021.916    142926.18   -48826.217    3772.2972   -52598.514    0.2649767 
   34700    280.89198   -1014.9421    142901.08    -48946.63    3857.3749   -52804.005   0.28332973 
   34800     274.2782   -1030.8927    142859.32   -48938.737    3766.5506   -52705.288   0.27167597 
   34900    276.88711   -977.53875    142866.17   -48920.569    3802.3777   -52722.947   0.25900615 
   35000    276.41798   -990.10042    142859.98   -48895.504    3795.9353   -52691.439   0.28936232 
   35100    274.34298    -996.5481    142853.21    -48904.96    3767.4401     -52672.4   0.27495143 
   35200    277.11409   -984.50221    142894.41   -48846.831    3805.4947   -52652.325   0.25992025 
   35300    278.32597   -975.32674    142847.74   -48920.833     3822.137   -52742.969   0.28780542 
   35400    274.47812   -996.09891    142817.47   -48921.028    3769.2959   -52690.324   0.28451874 
   35500    275.74197   -953.42608     142816.6   -48904.208    3786.6519    -52690.86   0.25706665 
   35600    279.17951   -1004.3731    142833.26    -48879.41    3833.8583   -52713.269   0.28834726 
   35700    279.52246   -1014.4706     142829.6   -48892.673    3838.5678   -52731.241   0.27856246 
   35800    281.54776   -983.35222    142905.44   -48741.688    3866.3806   -52608.069   0.25874819 
   35900    275.70663   -1027.7762    142883.56   -48853.198    3786.1666   -52639.365   0.28108899 
   36000     273.1296   -1044.3051    142821.76   -48903.915    3750.7774   -52654.692    0.2822032 
   36100    277.17292    -1002.203    142829.32   -48945.548    3806.3026   -52751.851   0.26183472 
   36200    271.94889   -1004.7979     142821.5    -48975.76    3734.5631   -52710.323    0.2764738 
   36300    279.34133   -986.75603    142837.88   -48921.653    3836.0805   -52757.733   0.27487979 
   36400     272.8471    -1003.697    142829.92   -48972.881    3746.8979   -52719.779   0.26577393 
   36500    274.84311   -1029.9083    142807.54   -48946.602    3774.3083    -52720.91   0.27396379 
   36600    281.28501    -993.9003    142806.48   -48945.562    3862.7722   -52808.334   0.27431639 
   36700    273.25255    -992.8806    142812.38   -48982.311    3752.4658   -52734.777   0.26973683 
   36800    267.30805   -995.61821    142778.43   -49050.001    3670.8323   -52720.833     0.284558 
   36900    273.38538   -1007.4912    142793.55   -48979.239    3754.2898   -52733.529    0.2749242 
   37000    274.45984   -1016.8943    142795.59    -48960.99     3769.045   -52730.035    0.2695021 
   37100    271.00853   -992.68479    142795.59   -49001.194    3721.6496   -52722.843   0.28099877 
   37200    277.46079   -1000.2135    142792.68   -49003.805    3810.2559   -52814.061   0.26543158 
   37300    271.07918   -1000.7154     142775.2   -48997.521    3722.6198   -52720.141    0.2727276 
   37400    270.38588   -1014.4757     142787.2   -49009.385     3713.099   -52722.484   0.28940404 
   37500    275.47415   -992.28922    142771.97   -48983.084     3782.974   -52766.058   0.27326875 
   37600    271.71813   -999.19021    142779.06   -49032.173    3731.3943   -52763.568   0.26127586 
   37700    275.55164     -980.109    142757.48   -49110.485    3784.0382   -52894.523   0.27936336 
   37800    274.26543   -1001.1825    142751.15   -49130.515    3766.3753    -52896.89   0.27254991 
   37900    270.61614   -1022.7821    142753.54   -49035.566    3716.2611   -52751.827   0.26241084 
   38000    273.66731   -997.08201    142785.04    -48973.91    3758.1615   -52732.072   0.28690817 
   38100     279.1856   -952.81587    142824.95   -48917.417     3833.942   -52751.358   0.27456142 
   38200     277.4438   -1002.0149     142823.8   -48877.902    3810.0224   -52687.924   0.26467066 
   38300    275.37506    -1025.276    142844.64   -48934.481    3781.6133   -52716.094   0.27799529 
   38400    278.20388   -996.61183    142843.63    -48870.56    3820.4604   -52691.021   0.28816722 
   38500     275.2681   -1016.6321    142825.16     -48928.3    3780.1445   -52708.444   0.26674909 
   38600    280.70367   -959.65402    142821.23   -48886.973    3854.7889   -52741.762   0.27251308 
   38700    280.01458   -1028.5555    142838.99   -48854.009    3845.3259   -52699.335   0.28790649 
   38800    279.00535   -968.10614    142819.72    -48891.82    3831.4666   -52723.287   0.26096166 
   38900    277.58343   -1006.2801    142833.68   -48828.971    3811.9399   -52640.911   0.28166935 
   39000    278.28726   -986.08973    142842.86   -48886.088    3821.6054   -52707.693   0.28704225 
   39100    273.88977   -1008.0195    142812.98   -48907.865    3761.2165   -52669.081   0.27537641 
   39200    271.25164   -1040.6642    142782.45   -49029.683    3724.9881   -52754.671   0.27855685 
   39300    270.96616    -1006.755    142755.23   -49042.876    3721.0677   -52763.944   0.28090857 
   39400    277.19432   -969.85666    142822.32   -48917.278    3806.5965   -52723.874    0.2698715 
   39500    274.95683   -974.67451    142857.56   -48900.528    3775.8699   -52676.398    0.2658745 
   39600    272.22182   -1026.9591    142882.77   -48900.286    3738.3112   -52638.597   0.28400308 
   39700    283.02459   -1002.3545    142874.59   -48885.741    3886.6612   -52772.403   0.27140408 
   39800      275.257   -973.79139     142832.5   -48906.127     3779.992   -52686.119   0.27236872 
   39900    277.20309   -1005.5182    142839.27    -48874.46     3806.717   -52681.177   0.28442878 
   40000    276.99356   -992.73014    142837.15   -48945.156    3803.8395   -52748.996   0.27230173 
   40100    275.87621   -1045.0604    142815.41   -48955.641    3788.4954   -52744.137   0.29045292 
   40200    275.60681   -1012.5908    142811.81   -48927.668    3784.7959   -52712.464   0.28058255 
   40300    275.14917   -1003.4611    142803.75   -48939.348    3778.5113   -52717.859   0.26998282 
   40400    275.94238   -978.06042    142791.55   -49015.988    3789.4041   -52805.392   0.28044835 
   40500    276.92904   -975.88875    142835.65   -48886.523    3802.9535   -52689.476   0.27951784 
   40600    275.15462    -1050.356    142824.48   -48957.021    3778.5861   -52735.607   0.26413073 
   40700    276.62103   -1002.9571    142810.01   -48961.942    3798.7237   -52760.666   0.28103996 
   40800    279.71751   -984.80176    142833.53   -48938.177    3841.2464   -52779.423   0.28136627 
   40900    280.91823   -984.27226    142825.36   -48929.196    3857.7354   -52786.931   0.26012488 
   41000    272.39759     -989.149    142839.12   -48991.585    3740.7249    -52732.31   0.27648195 
   41100    275.13223   -954.50203    142815.53   -48957.924    3778.2787   -52736.203   0.28304905 
   41200    279.11523   -992.97149    142856.79   -48849.643    3832.9756   -52682.618   0.26263562 
   41300    278.31539   -1016.4287    142832.73   -48929.636    3821.9917   -52751.628   0.27926443 
   41400    277.94909   -970.84252    142850.25   -48874.951    3816.9614   -52691.913   0.28812351 
   41500    275.08628   -991.43932    142847.71   -48889.219    3777.6476   -52666.867   0.27056956 
   41600    274.09144   -1035.5088    142830.62    -48895.07    3763.9859   -52659.056   0.27823426 
   41700    272.79663   -1027.1288    142806.93   -49006.306    3746.2047   -52752.511   0.28839184 
   41800    272.95842   -1047.6056    142819.36    -48922.05    3748.4266   -52670.477   0.27493223 
   41900    276.75549   -995.21211     142781.8   -48998.521    3800.5702   -52799.092   0.26660664 
   42000    280.13268   -968.70256    142789.28   -48969.863    3846.9478   -52816.811   0.28274881 
   42100    275.71533   -1024.4702    142779.52   -49040.587    3786.2861   -52826.873   0.26378178 
   42200    272.19484   -1024.7034    142768.74   -48999.651    3737.9406   -52737.592   0.27777653 
   42300    273.79543    -973.2199    142795.66   -48962.643    3759.9209   -52722.564   0.27916224 
   42400    273.69482   -1023.0627    142809.53   -48986.786    3758.5393   -52745.325   0.27219171 
   42500     275.3229   -1006.7866    142803.23   -48946.479     3780.897   -52727.376   0.28146631 
   42600    280.21494   -994.21355    142818.26   -48984.862    3848.0773   -52832.939   0.27269511 
   42700     272.4778   -1054.6512    142806.71   -49050.934    3741.8264    -52792.76    0.2716893 
   42800    280.11745   -1011.9161    142790.48   -48969.376    3846.7387   -52816.115   0.27480791 
   42900     275.3381   -960.62772    142788.65   -48980.538    3781.1057   -52761.643   0.28310876 
   43000    268.52169   -1003.1047    142797.54   -48996.529    3687.4988   -52684.028   0.27227685 
   43100    274.02832   -1003.5588    142826.44   -48923.912    3763.1191   -52687.031   0.27273833 
   43200    276.36237   -1023.0392     142834.7   -48933.078    3795.1716    -52728.25   0.29243337 
   43300    276.43855   -992.25468    142811.52   -48924.317    3796.2178   -52720.535   0.26358358 
   43400     275.3618    -991.6223    142838.28   -48857.969    3781.4313     -52639.4   0.28033973 
   43500    278.67236   -1017.6352    142832.31   -48913.133    3826.8938   -52740.027   0.28067863 
   43600    274.94448   -1037.1209     142813.1   -48962.172    3775.7004   -52737.872   0.26303971 
   43700     272.8879   -1006.2469    142771.76   -49003.778    3747.4582   -52751.237   0.28696583 
   43800    275.18389   -1029.3846    142803.92   -49039.534    3778.9881   -52818.522   0.27543765 
   43900    275.40311   -965.22226    142803.53   -48957.787    3781.9985   -52739.785   0.27043967 
   44000    274.56857   -979.82567    142785.05    -49039.86    3770.5381   -52810.398   0.27085726 
   44100    272.45119   -1003.6782    142796.37   -48998.176     3741.461   -52739.637   0.28658919 
   44200    270.80022   -1017.7307    142814.86   -48964.076     3718.789   -52682.865   0.26861874 
   44300    274.98314   -1003.6019    142817.52   -48964.335    3776.2312   -52740.566   0.27024422 
   44400    274.93322    -973.0498    142796.73   -48976.075    3775.5458    -52751.62   0.28576313 
   44500    270.78027   -1007.1568    142801.39   -48982.512    3718.5149   -52701.026   0.26883556 
   44600    278.75291   -1001.5223    142801.05   -48987.418    3827.9999   -52815.417   0.27569974 
   44700    276.72327   -982.24368    142785.79   -48968.925    3800.1277   -52769.053   0.29439058 
   44800    274.65768   -976.08325    142818.76   -48923.097    3771.7619   -52694.859   0.26967883 
   44900    277.22675   -1008.5324    142815.03   -48912.354    3807.0418   -52719.396   0.27250133 
   45000    276.01243   -1002.7208     142821.4   -48955.975    3790.3661   -52746.341   0.28260129 
   45100    278.67271   -990.55431    142868.73   -48845.564    3826.8986   -52672.462    0.2664695 
   45200    277.74534    -1024.916    142886.88   -48883.804    3814.1633   -52697.967   0.27268178 
   45300    276.00982   -1029.0601    142900.66   -48905.978    3790.3303   -52696.309   0.28084867 
   45400    275.07887   -1002.8257    142864.15   -48973.253    3777.5458   -52750.798   0.26974454 
   45500    274.73178   -1008.5046    142860.25   -48913.039    3772.7794   -52685.818   0.27393806 
   45600    276.02865   -1036.6393    142876.28    -48904.43    3790.5889   -52695.018   0.27885429 
   45700    284.86546   -1003.1485    142881.17   -48863.301    3911.9411   -52775.242   0.26260999 
   45800    274.84821    -1017.721     142848.2   -48930.451    3774.3782   -52704.829   0.27237128 
   45900    278.41256   -1001.5584     142876.5   -48803.014    3823.3261   -52626.341   0.28177812 
   46000    278.41839   -1021.4036     142902.4   -48865.263    3823.4061   -52688.669   0.26842607 
   46100    277.74489   -1005.2536    142901.94   -48774.793    3814.1573    -52588.95   0.27616793 
   46200    281.17345   -1023.8296    142901.96   -48829.318    3861.2402   -52690.558    0.2843695 
   46300    279.11059   -1023.5981    142893.64   -48819.208    3832.9118    -52652.12   0.27252974 
   46400    282.24133   -973.35231     142870.3    -48864.84     3875.905   -52740.745   0.26511344 
   46500     277.9468   -997.77334    142861.71   -48827.185    3816.9299   -52644.114    0.2863575 
   46600    282.97508   -1008.2144    142854.73   -48883.534    3885.9813   -52769.515   0.26138516 
   46700    281.56883    -995.8106    142839.15   -48816.948    3866.6698   -52683.617   0.27725666 
   46800    279.07559   -1010.0125     142895.9   -48834.548    3832.4312   -52666.979   0.27959875 
   46900     277.5074   -1002.1623    142874.23   -48883.707    3810.8958   -52694.603   0.26371977 
   47000    275.60807   -1020.6738    142871.58   -48918.403    3784.8131   -52703.216   0.27584586 
   47100    280.65462   -1013.4141    142852.32   -48928.843    3854.1154   -52782.958   0.27693707 
   47200    273.52492   -1031.2058    142830.72   -48903.115    3756.2061   -52659.321    0.2808869 
   47300    273.28358    -972.3779     142818.6   -49016.529    3752.8919   -52769.421   0.26877044 
   47400    277.37843   -1024.2136    142817.12    -48954.82    3809.1248   -52763.944   0.28283518 
   47500    278.00365   -996.74129    142818.47   -48958.584    3817.7107   -52776.295   0.27430208 
   47600    277.13669   -982.91814    142810.68    -48956.88     3805.805   -52762.685   0.27283137 
   47700    275.09041   -981.52873     142772.5   -48875.494    3777.7044   -52653.199   0.29098012 
   47800    275.32762   -1010.3654     142796.7   -48932.971    3780.9618   -52713.933   0.27215694 
   47900    269.98822   -976.56775    142756.62   -48978.454     3707.638   -52686.092    0.2836386 
   48000     276.8708   -1011.1106    142777.32   -48945.687    3802.1537   -52747.841   0.27416928 
   48100    269.21654   -1051.7096    142752.89   -48981.899    3697.0409    -52678.94   0.27539798 
   48200    274.09075    -962.3348    142749.24   -48969.044    3763.9765   -52733.021   0.28292879 
   48300    272.27544   -1026.1388    142771.68   -48925.686    3739.0475   -52664.733   0.28533321 
   48400      275.144   -1005.0017    142793.19   -48965.369    3778.4403    -52743.81   0.26807552 
   48500    271.49219   -1022.4312    142769.39   -49046.585    3728.2914   -52774.876   0.27774356 
   48600    271.90119   -1017.9283    142743.66   -49039.404     3733.908   -52773.312   0.28594551 
   48700    275.91526   -1006.8482    142740.22   -48929.725    3789.0316   -52718.757   0.26746452 
   48800    273.65918    -993.8694    142738.64   -48920.678    3758.0499   -52678.728   0.28907283 
   48900    279.58175   -1018.0345    142774.91   -48950.118     3839.382     -52789.5   0.28585089 
   49000    273.06616   -987.71599    142758.72   -48976.588    3749.9061   -52726.495   0.26711605 
   49100    271.06732   -1018.9353    142789.48   -48895.215    3722.4569   -52617.672   0.28261578 
   49200    274.18506   -1008.7106    142804.52   -48929.147    3765.2716   -52694.418   0.28538667 
   49300    269.75643   -1042.4835    142789.24   -48998.553     3704.455   -52703.008   0.27702367 
   49400    276.11247   -957.99886     142738.6   -49007.461    3791.7399   -52799.201    0.2685764 
   49500    275.91608   -1009.4674    142775.94   -48959.004     3789.043   -52748.047    0.2840012 
   49600     274.5635   -977.24035    142786.67    -48949.41    3770.4685   -52719.879   0.27471054 
   49700    273.55121   -969.65651    142783.16   -48953.348    3756.5671   -52709.916    0.2660467 
   49800    277.34035   -985.32232    142791.08   -48972.946    3808.6018   -52781.548   0.28587114 
   49900    275.77065   -983.36144    142779.18   -48946.006    3787.0457   -52733.051   0.27026916 
   50000    274.13949    -1015.497    142776.83   -48955.716    3764.6458   -52720.362   0.27271044 
   50100    276.45581   -982.44727    142847.44   -48822.356    3796.4548    -52618.81   0.28595321 
   50200    278.43089   -1031.6329    142831.86   -48894.797    3823.5777   -52718.375   0.26510291 
   50300    279.21546   -991.19828    142796.95    -48903.41    3834.3519   -52737.762   0.27931192 
   50400    271.44192   -1012.5087    142798.97   -48923.448    3727.6011   -52651.049   0.29118977 
   50500     276.8522   -974.48204     142813.1   -48838.834    3801.8983   -52640.732   0.27818548 
   50600    287.39216   -982.59391    142847.79   -48766.104    3946.6392   -52712.743   0.27235011 
   50700    275.29587   -1005.6782    142797.97   -48990.606    3780.5259   -52771.132   0.28074897 
   50800    275.62398   -1003.4367     142760.8   -48973.974    3785.0316   -52759.006   0.27964579 
   50900    272.62715   -1023.1329    142752.67   -49000.631    3743.8774   -52744.508   0.27703107 
   51000    274.96522   -995.54432     142751.2   -48961.717    3775.9851   -52737.702   0.29404825 
   51100    274.20245   -992.08259    142746.43   -48965.214    3765.5104   -52730.724   0.27627422 
   51200    269.63891   -1025.5811    142737.63   -49019.452    3702.8411   -52722.293   0.28309972 
   51300    274.01669   -967.24596    142737.01   -49027.251    3762.9594    -52790.21   0.29098341 
   51400    272.95737   -968.61422    142772.28   -48973.882    3748.4122   -52722.295   0.27207892 
   51500    276.21248   -986.94268    142758.44   -49026.925    3793.1133   -52820.039   0.27780261 
   51600    278.75824   -1013.0203    142775.34   -48949.654    3828.0731   -52777.727   0.29375132 
   51700    285.29329   -985.06813    142787.96   -48849.931    3917.8164   -52767.748   0.27591404 
   51800    281.70344   -980.42118    142820.54   -48894.978    3868.5183   -52763.496   0.27485129 
   51900    275.20596   -999.95781    142827.65   -48957.833    3779.2911   -52737.124   0.28690712 
   52000    271.88265   -1004.3265    142796.48    -48940.23    3733.6535   -52673.883   0.28315669 
   52100    274.63515   -999.51593    142764.23   -49023.295    3771.4524   -52794.748   0.28269861 
   52200    272.81433   -982.31054    142766.31   -49077.021    3746.4479   -52823.469   0.28562397 
   52300    273.44958   -1008.7099    142754.91   -49055.176    3755.1715   -52810.348   0.27354398 
   52400    270.57236    -976.0382    142728.55   -49133.743    3715.6598   -52849.403   0.27095665 
   52500    274.75981    -978.0134    142765.18   -48992.994    3773.1644   -52766.158   0.28703091 
   52600     274.8939   -1011.4191     142812.3   -48958.309    3775.0058   -52733.315      0.27473 
   52700    277.87913   -948.16341    142828.92    -48894.38    3816.0007   -52710.381   0.27700015 
   52800    276.40301   -1010.2214    142879.55   -48872.897    3795.7297   -52668.626   0.29370811 
   52900    276.64463   -1031.2247       142853   -48894.405    3799.0478   -52693.453   0.27814784 
   53000    279.04243   -999.03288    142881.64   -48848.397    3831.9758   -52680.373    0.2752949 
   53100    274.74981   -1012.6251    142835.63   -48978.239     3773.027   -52751.266   0.29444023 
   53200    273.33144   -1010.4502     142819.6   -49028.987    3753.5491   -52782.536   0.27489244 
   53300    277.28493    -986.5087    142822.51   -48994.483    3807.8408   -52802.324   0.27540096 
   53400    279.92603   -993.79475    142852.94   -48929.299      3844.11   -52773.409   0.29217451 
   53500    281.01073    -1005.832    142856.78   -48915.051    3859.0056   -52774.056   0.26871149 
   53600    277.01465   -1020.0742    142831.88   -48981.973    3804.1291   -52786.102   0.27975103 
   53700     277.0313   -1009.5214    142861.01   -48958.233    3804.3578    -52762.59   0.29151415 
   53800    273.13701   -1022.7595    142833.71   -48988.234    3750.8791   -52739.113   0.27834949 
   53900    281.10158    -1013.431    142823.08    -48990.31    3860.2532   -52850.563   0.27146679 
   54000    273.61046   -995.99827    142785.53   -48995.024    3757.3809   -52752.405   0.29606955 
   54100    276.94095   -1023.1817    142790.85   -48968.885    3803.1171   -52772.002   0.27812389 
   54200    277.94436    -974.0929    142821.36   -48920.695    3816.8964   -52737.592   0.27892038 
   54300    281.59604   -985.79185    142843.26   -48852.991    3867.0436   -52720.035   0.28655565 
   54400    282.35592    -1001.517    142860.23   -48772.959    3877.4786   -52650.438   0.27900302 
   54500     278.8274   -977.09088    142877.69   -48843.704    3829.0229   -52672.727   0.27137785 
   54600    280.95097   -1002.5862    142873.71   -48857.582     3858.185   -52715.767   0.28277995 
   54700    272.91481   -1014.7668     142851.9   -48915.916    3747.8277   -52663.744   0.27937385 
   54800    275.25031   -1035.3371    142850.62   -48841.724    3779.9002   -52621.624   0.27825051 
   54900    277.32421   -1008.9481    142880.26   -48863.662    3808.3803   -52672.043   0.28882266 
   55000    276.85725   -1062.3102    142907.73   -48890.825    3801.9676   -52692.792   0.27286926 
   55100    274.28277   -1037.2077    142878.64   -48903.925    3766.6133   -52670.538   0.27065433 
   55200    272.93662   -1005.0944    142823.87   -49011.969    3748.1273   -52760.096   0.28782259 
   55300    274.29606   -962.91907    142763.34   -49053.313    3766.7958   -52820.109   0.26837535 
   55400    274.65429   -1020.7382    142778.06   -49018.557    3771.7153   -52790.273   0.27944314 
   55500    273.37769   -1022.5717    142783.47   -48982.622    3754.1842   -52736.806   0.28633293 
   55600    282.30221   -971.18281    142804.94   -48883.752     3876.741   -52760.493   0.26606853 
   55700    277.67613   -1000.7731    142835.72   -48846.756    3813.2129   -52659.969   0.29036996 
   55800    276.76946   -967.32046    142879.96   -48836.277     3800.762   -52637.039   0.27961674 
   55900    278.42176   -1029.9509    142881.89   -48853.361    3823.4524   -52676.813   0.27487058 
   56000    277.34284   -1021.1548    142895.45   -48867.463     3808.636   -52676.099    0.2764698 
   56100     276.5509   -1025.9619    142889.51   -48854.401    3797.7606   -52652.161   0.29278386 
   56200     273.6473   -1018.9192    142892.32   -48884.009    3757.8866   -52641.896   0.26645745 
   56300    276.58225   -984.32695    142833.94   -48953.191    3798.1912   -52751.382   0.26792418 
   56400    272.97486   -1010.8631    142786.11   -49004.892    3748.6524   -52753.545   0.29367644 
   56500    269.05357   -1010.4102    142746.95   -49045.101    3694.8029   -52739.904   0.26701586 
   56600    272.73757   -1021.0079    142720.26   -49103.043    3745.3937   -52848.437   0.27829213 
   56700    273.00579   -996.96941    142729.09   -49077.395    3749.0771   -52826.472    0.2909707 
   56800    274.66817   -992.45382    142761.44   -48969.909    3771.9059   -52741.815   0.26404835 
   56900    271.83569   -1030.9952    142740.52   -49059.081    3733.0085   -52792.089   0.27559476 
   57000    269.88734    -996.7977    142744.08   -49045.123    3706.2528   -52751.376   0.29472502 
   57100    274.95571   -1025.3554    142794.76   -48976.309    3775.8546   -52752.164    0.2678109 
   57200    281.44066   -1009.3131    142821.29   -48924.887    3864.9097   -52789.797    0.2707521 
   57300    273.80873   -1033.8885    142783.69   -49052.338    3760.1036   -52812.442   0.28920545 
   57400     276.9159    -1022.794    142778.87   -48940.013    3802.7731   -52742.786   0.28176248 
   57500    278.86797   -965.90665    142802.58   -48903.575      3829.58   -52733.155    0.2673487 
   57600     275.3902   -1021.9141    142766.44   -49011.874    3781.8212   -52793.695   0.28842605 
   57700    282.26908   -976.00248    142798.15   -48924.242     3876.286   -52800.528   0.27148145 
   57800    280.55177   -974.44842     142823.8   -48874.929     3852.703   -52727.632   0.27446633 
   57900    277.45539   -980.93777    142851.93   -48916.602    3810.1816   -52726.783   0.28219804 
   58000    277.78557   -1007.9302    142825.74   -48880.352    3814.7159   -52695.068   0.27755228 
   58100    275.62248   -999.50307    142809.01   -48923.337     3785.011   -52708.348   0.28322046 
   58200    277.65695   -1017.5253    142841.17   -48822.848    3812.9496   -52635.798    0.2851993 
   58300     278.6133   -1012.0955    142822.77   -48888.983    3826.0828   -52715.066   0.26743405 
   58400    278.65695   -997.32805    142832.39   -48932.098    3826.6822    -52758.78   0.27768844 
   58500    276.13324   -986.95314    142807.25   -48932.374    3792.0251   -52724.399   0.28330221 
   58600    274.00104    -991.4153    142799.84    -48966.11    3762.7445   -52728.854   0.27107104 
   58700    277.00685   -992.32029    142836.43   -48922.495     3804.022   -52726.517    0.2763003 
   58800    274.12329   -982.03369       142816   -48956.498    3764.4233   -52720.921   0.28628966 
   58900    278.47548   -1014.9279    142811.11   -48878.721    3824.1901   -52702.911   0.27130762 
   59000    276.06606   -990.69648    142858.08    -48847.07    3791.1026   -52638.173   0.28180754 
   59100    278.89321   -1002.5241    142860.81    -48811.34    3829.9266   -52641.267   0.29009106 
   59200    276.66596   -1013.0468    142844.96   -48932.961    3799.3408   -52732.302   0.26491935 
   59300    279.46458   -999.79935    142828.25   -48914.628    3837.7731   -52752.402   0.27734641 
   59400    273.31124   -991.71005     142816.7   -48896.229    3753.2717   -52649.501    0.2916058 
   59500    273.24819    -1009.663    142787.05   -49000.014    3752.4058    -52752.42   0.27331746 
   59600    274.75007   -1006.3681    142798.78   -48980.454    3773.0306   -52753.485   0.27098237 
   59700    279.91343   -1003.1918    142812.13   -48906.861    3843.9369   -52750.798   0.29032094 
   59800    275.49505   -1011.3161    142797.62   -49020.829     3783.261    -52804.09   0.27102012 
   59900    275.01863   -1029.6692    142766.08    -49012.33    3776.7186   -52789.049   0.26788089 
   60000     271.8432    -974.2349    142784.51   -48977.504    3733.1117   -52710.616   0.29066825 
   60100    276.12194   -997.72317    142772.22   -48942.268    3791.8699   -52734.138   0.28338878 
   60200    278.01896    -1022.362    142799.72    -48913.08     3817.921   -52731.001   0.27183777 
   60300    281.99468   -977.87683    142823.11   -48871.152    3872.5179    -52743.67   0.27678291 
   60400    283.26489   -1020.0134    142874.15   -48823.596    3889.9612   -52713.557   0.27808658 
   60500    277.63663   -1030.1078    142874.68   -48851.712    3812.6705   -52664.382   0.26998731 
   60600      276.465   -997.40748    142821.25   -48908.554     3796.581   -52705.135   0.27763709 
   60700    279.45508   -978.35706    142874.33   -48743.411    3837.6425   -52581.054   0.28007472 
   60800     279.1894   -1001.7698    142891.53    -48762.84    3833.9941   -52596.835   0.27752058 
   60900    277.63072   -1001.2918    142900.61   -48862.266    3812.5894   -52674.856   0.25965263 
   61000    276.15029   -983.38261    142862.69   -48896.091    3792.2592    -52688.35   0.27366722 
   61100    278.36545   -963.00548    142877.02   -48885.865    3822.6792   -52708.545   0.27464889 
   61200    277.08121   -1027.5453     142877.2   -48829.683    3805.0431   -52634.726   0.27420328 
   61300    276.03602   -1037.2796    142863.27   -48922.671    3790.6901   -52713.361   0.27173846 
   61400     274.4256   -1061.8606    142825.44   -48971.558    3768.5748   -52740.133   0.27319304 
   61500    278.30004   -968.56902    142819.57   -48910.927    3821.7808   -52732.707   0.28210491 
   61600    275.41799   -963.94983    142788.62   -48949.515    3782.2029   -52731.718   0.26400082 
   61700    270.99341   -994.38634    142813.99   -49006.475    3721.4419   -52727.917    0.2758982 
   61800    269.86766   -995.27415     142799.4   -48998.793    3705.9824   -52704.776   0.28255716 
   61900    276.80822   -1023.4414     142856.6   -48906.542    3801.2943   -52707.837   0.26182096 
   62000    278.42371    -964.4197    142857.12   -48914.815    3823.4791   -52738.294   0.27056434 
   62100     275.7205   -1014.8914    142828.65   -48980.807    3786.3571   -52767.164   0.27791609 
   62200    271.83567   -1010.5492    142857.68   -48880.202    3733.0083    -52613.21   0.27293978 
   62300    280.07926    -970.1872    142834.24   -48926.312    3846.2142   -52772.526   0.26220092 
   62400    275.72045   -1001.4274    142831.09   -48973.614    3786.3564    -52759.97   0.27813531 
   62500    271.48932   -1009.0444    142819.74   -48959.028     3728.252    -52687.28    0.2757361 
   62600    275.20149    -1003.782    142802.93   -48987.663    3779.2298   -52766.893   0.25993946 
   62700    272.22956   -1025.4023    142788.14   -49020.434    3738.4175   -52758.851   0.28827241 
   62800    275.59386   -993.57175    142798.88    -48989.76    3784.6181   -52774.378   0.27547668 
   62900    275.73058   -964.37716    142834.82   -48903.572    3786.4955   -52690.067   0.25770914 
   63000    274.80523   -1014.6223    142846.86   -48934.363    3773.7881   -52708.151   0.28521128 
   63100    275.79894   -1013.8244    142791.45   -49003.683    3787.4343   -52791.117   0.27654199 
   63200    277.82375   -997.24234    142795.79   -48885.531    3815.2402   -52700.771   0.26824729 
   63300    276.55156    -1021.695    142800.05   -48982.231    3797.7697   -52780.001   0.27373909 
   63400     267.1509   -1015.2069    142744.11   -49059.195    3668.6744   -52727.869   0.27889148 
   63500    269.35787   -1006.2664    142771.13   -49038.112    3698.9817   -52737.093   0.26995407 
   63600    271.54075   -1034.1722    142769.63   -49079.692    3728.9583    -52808.65   0.27636866 
   63700    271.05283   -996.88682    142764.19   -49044.118    3722.2579   -52766.375   0.27848514 
   63800     272.8523   -985.54216    142758.56   -49116.731    3746.9693     -52863.7   0.27144133 
   63900    274.24357   -993.90296    142770.16   -49011.681    3766.0751   -52777.756   0.27644947 
   64000    275.43761   -962.17392    142817.37    -48928.32    3782.4723   -52710.792   0.27462678 
   64100     279.9053   -956.89206     142833.7   -48883.054    3843.8253   -52726.879   0.26747005 
   64200    283.55567   -1011.0435    142860.98   -48873.725    3893.9543    -52767.68   0.27912945 
   64300    274.40831   -1045.4177    142848.57   -48910.569    3768.3374   -52678.906   0.26902093 
   64400    280.70809   -980.54974    142843.65   -48966.536    3854.8496   -52821.386   0.26399687 
   64500    274.75594   -1012.1117    142849.05   -48958.864    3773.1113   -52731.975   0.28459839 
   64600    268.83292   -1022.5977    142840.05   -48993.882    3691.7728   -52685.655   0.25809348 
   64700    273.63801   -973.22144    142839.46   -49002.414    3757.7591   -52760.173   0.26121831 
   64800    276.60059   -989.10909    142849.83   -48950.463     3798.443   -52748.906   0.28337808 
   64900    282.68708   -993.63148    142860.65   -48869.782    3882.0263   -52751.809   0.26496136 
   65000    277.14458   -970.60061    142891.41   -48857.474    3805.9135   -52663.387   0.26185855 
   65100    274.73561   -982.79686    142866.41   -48922.382     3772.832   -52695.214   0.28859097 
   65200    278.22813   -982.41754    142872.48   -48944.479    3820.7934   -52765.273   0.26664909 
   65300    281.51274   -954.91397    142878.22    -48878.35    3865.8996   -52744.249   0.25249858 
   65400    276.63113   -1028.9395    142846.77   -48919.429    3798.8624   -52718.291   0.28936316 
   65500    284.12743   -1005.3741    142869.98   -48858.022    3901.8061   -52759.828    0.2749611 
   65600    278.91147   -1040.3049    142882.52   -48870.501    3830.1774   -52700.678    0.2662126 
   65700    278.46084   -984.42372     142874.3   -48829.545     3823.989   -52653.534   0.27845185 
   65800     275.3225   -995.03065    142857.23   -48896.572    3780.8915   -52677.463   0.28761592 
   65900    278.10205     -1027.53    142829.58   -48908.473     3819.062   -52727.535   0.26780938 
   66000    277.94779   -1010.5502    142826.54   -48916.645    3816.9435   -52733.588   0.27711371 
   66100    279.11209   -1016.0509    142795.89   -48877.076    3832.9324   -52710.008   0.28514588 
   66200    276.60536   -1014.5099    142799.51    -49013.24    3798.5085   -52811.748   0.26825919 
   66300    277.31328   -1010.8928    142769.77   -48946.246      3808.23   -52754.476   0.28222875 
   66400    274.08914   -1002.8389    142782.59   -48941.997    3763.9543   -52705.951   0.28319884 
   66500    275.80571     -980.531    142792.12   -48980.391    3787.5273   -52767.919   0.27477367 
   66600    275.94649   -1017.9525    142796.72   -48982.487    3789.4606   -52771.948   0.27428802 
   66700    275.41407   -984.52573    142793.03   -48963.245     3782.149   -52745.394   0.27650976 
   66800     271.3558   -1004.3772     142808.6   -48995.841    3726.4185    -52722.26   0.27676734 
   66900    277.45578   -952.44394    142810.77   -49007.567     3810.187   -52817.754   0.27128248 
   67000    272.99348    -995.1249    142773.91   -49107.616    3748.9081   -52856.524   0.26257375 
   67100     274.3525   -1001.9494    142808.02   -48945.355    3767.5709   -52712.926   0.28182013 
   67200    268.74673   -1038.7677    142828.66   -49047.059    3690.5892   -52737.649   0.28674858 
   67300    275.36359   -974.06783    142820.72   -48974.499    3781.4559   -52755.955   0.26051515 
   67400    273.68259    -1005.985    142797.39   -48949.829    3758.3713     -52708.2   0.27743432 
   67500    276.01885   -998.29919    142818.05   -48938.479    3790.4542   -52728.933   0.29043722 
   67600    278.92449   -1000.9342    142852.05    -48802.55    3830.3561   -52632.906   0.27428251 
   67700    277.67572   -983.47154    142867.81   -48875.942    3813.2073   -52689.149    0.2685716 
   67800    277.53378   -1027.3735    142848.42   -48916.746    3811.2582   -52728.004    0.2887294 
   67900    275.66621   -1030.4937    142853.66   -48943.548    3785.6116   -52729.159   0.27715088 
   68000    277.11454   -1016.9958    142825.91    -48979.25    3805.5009   -52784.751   0.25730574 
   68100    275.00191    -1006.159    142814.48   -48982.414     3776.489   -52758.903   0.28968558 
   68200    273.35153   -996.93215    142799.85   -48946.752    3753.8249   -52700.577   0.27819361 
   68300    278.79442   -991.92306    142820.43   -48897.954      3828.57   -52726.524   0.26220206 
   68400    276.14312   -1033.3826    142852.24   -48861.263    3792.1607   -52653.424   0.29006867 
   68500    276.27178   -1020.3786    142853.55   -48859.048    3793.9276   -52652.976   0.28112232 
   68600    275.03936   -1018.0124    142800.05   -48944.021    3777.0032   -52721.025   0.26876803 
   68700    276.52105   -1000.1149    142771.06   -48919.432    3797.3507   -52716.782   0.28352318 
   68800    275.51242   -1016.7457    142781.33   -48918.597    3783.4997   -52702.096    0.2926621 
   68900    271.23533   -1021.2771    142783.18   -48919.239    3724.7641   -52644.003   0.28508085 
   69000    273.94231   -963.44643    142780.87   -48917.059    3761.9379   -52678.997     0.276997 
   69100    274.90245   -1006.2052    142776.97   -48978.093    3775.1232   -52753.216   0.28672637 
   69200    276.47829   -1017.4903    142808.68   -48989.804    3796.7636   -52786.568   0.28035115 
   69300    269.97969   -1018.4171     142821.1   -49024.957    3707.5208   -52732.478   0.27021203 
   69400    269.62975   -991.40448    142780.38    -49067.62    3702.7154   -52770.335   0.27263265 
   69500    277.02127   -1006.2136    142803.47   -48940.073      3804.22   -52744.293   0.28364652 
   69600    280.16883   -990.50476    142890.46   -48842.038    3847.4442   -52689.482   0.28241464 
   69700    274.37297   -997.37366    142874.64    -48930.53    3767.8521   -52698.382   0.26811874 
   69800    278.78013    -1008.257    142861.25   -48929.553    3828.3738   -52757.927   0.27548519 
   69900    270.66466   -1004.6176    142805.27   -49019.267    3716.9273   -52736.194   0.28773686 
   70000    271.66362   -1011.7802     142799.4   -48954.823    3730.6457   -52685.468   0.27001843 
   70100    275.16434   -1005.8719    142798.13   -49075.246    3778.7196   -52853.965   0.27124003 
   70200    276.30155   -997.05256    142814.86   -48914.045    3794.3364   -52708.381    0.2943501 
   70300    277.43893   -992.64293    142813.67   -48923.079    3809.9557   -52733.035   0.26687235 
   70400     279.1606   -981.33764    142858.77   -48820.158    3833.5986   -52653.757   0.27277216 
   70500     278.4079    -1006.675    142835.45   -48889.901     3823.262   -52713.163   0.29110306 
   70600    278.22528   -997.46004    142806.92    -48939.58    3820.7542   -52760.334   0.27303225 
   70700    283.00039   -1004.3561    142789.91    -48911.11    3886.3288   -52797.439   0.26843781 
   70800    273.42734   -987.78821    142786.63   -48949.798    3754.8661   -52704.664   0.29056228 
   70900    276.59374   -1007.2578    142784.01   -48943.537     3798.349   -52741.886    0.2864936 
   71000    277.45757   -985.31881    142761.48   -48954.466    3810.2116   -52764.678   0.27228757 
   71100    275.45677   -1005.2962    142710.36   -48943.595    3782.7355    -52726.33   0.28511563 
   71200    273.17583   -1018.3063    142744.55    -48980.78    3751.4121   -52732.192    0.2938212 
   71300    270.62036   -974.94984    142736.64   -49030.936    3716.3189   -52747.255    0.2802918 
   71400    273.43882   -974.03985    142750.72   -48970.813    3755.0238   -52725.837   0.27493765 
   71500    279.07527   -986.12583    142791.07   -48928.114    3832.4268    -52760.54   0.28116834 
   71600    274.10321   -1004.7669    142788.11   -48940.897    3764.1476   -52705.044   0.27768657 
   71700    272.48757   -1003.8391     142785.2   -48930.492    3741.9606   -52672.452   0.28365857 
   71800    264.65644   -1034.2195    142755.25   -49101.282    3634.4189     -52735.7    0.2813835 
   71900    273.31617   -986.33699    142727.09   -49041.792    3753.3394   -52795.131   0.28779652 
   72000    275.24324   -998.29225    142766.05   -49017.435    3779.8032   -52797.239   0.27757957 
   72100    277.00018    -995.4716    142802.36   -48885.535    3803.9304   -52689.465   0.27463392 
   72200    280.94576   -1001.5543    142843.76   -48778.759    3858.1134   -52636.873   0.28942492 
   72300    285.80091   -1002.1922    142861.94   -48757.241    3924.7873   -52682.029   0.27531647 
   72400    279.17035   -1000.6904    142856.75   -48871.367    3833.7325     -52705.1   0.26630879 
   72500       282.59    -983.7717    142833.21   -48867.471    3880.6931   -52748.164   0.27959326 
   72600    283.23341   -984.98856    142836.02   -48807.002    3889.5288   -52696.531   0.28004001 
   72700    274.79028   -1044.2091    142802.41   -48968.716    3773.5827   -52742.299   0.27340059 
   72800    275.21109   -960.20787    142791.51   -48892.057    3779.3616   -52671.419   0.27803066 
   72900    273.30783    -1009.907    142793.48   -48900.844    3753.2248   -52654.069   0.29295448 
   73000    273.58164   -1012.0659    142764.91   -48915.661    3756.9851   -52672.646   0.27886923 
   73100    277.79645   -1010.1033    142782.06   -48870.108    3814.8652   -52684.973   0.26880773 
   73200    280.96242   -984.18134    142795.66   -48854.178    3858.3422    -52712.52   0.29399586 
   73300     281.4644   -993.18004    142810.69   -48830.083    3865.2357   -52695.319   0.27542372 
   73400    279.13643   -1011.6538    142802.23   -48817.267    3833.2667   -52650.533   0.27446112 
   73500    282.78345    -975.0054    142828.28   -48817.188    3883.3497   -52700.538   0.28929112 
   73600    281.07055   -1011.2582    142832.39   -48863.856    3859.8272   -52723.684   0.27987381 
   73700     279.5984   -983.84368    142811.79   -48919.148    3839.6107   -52758.758   0.26605776 
   73800    276.14576   -1037.7211    142784.68     -49006.3     3792.197   -52798.497   0.27871507 
   73900    275.49551   -1004.5942    142795.74   -48990.795    3783.2674   -52774.062   0.28195347 
   74000    278.19281    -993.9347     142779.3   -48916.158    3820.3083   -52736.466   0.27712653 
   74100    280.81958   -1011.3697    142833.86   -48759.259    3856.3807    -52615.64   0.27710976 
   74200    274.34627    -1037.306    142855.89    -48919.44    3767.4854   -52686.926   0.28325279 
   74300    278.57322   -1002.4217    142809.25   -48921.746    3825.5323   -52747.279   0.27488533 
   74400    276.98104    -962.1771    142775.98   -48949.412    3803.6676    -52753.08   0.27131335 
   74500    273.98787   -1003.6559     142754.5   -48967.223    3762.5637   -52729.787   0.28116319 
   74600    280.42416   -1003.9492     142783.1    -48966.08    3850.9506   -52817.031   0.27847113 
   74700    276.33783   -1038.7401    142804.85   -48887.333    3794.8347   -52682.167   0.27547428 
   74800    276.88151   -989.31314    142793.31   -48943.562    3802.3007   -52745.862   0.27361003 
   74900    273.18038   -1024.2599    142775.86    -48940.04    3751.4747   -52691.515   0.28807482 
   75000    273.29256   -988.82703    142778.75   -48927.949    3753.0151   -52680.964   0.27446747 
   75100    282.53227   -964.95584    142779.42   -48853.069    3879.9004   -52732.969    0.2742526 
   75200    277.70619   -1037.9748    142786.68   -48907.569    3813.6258   -52721.195   0.28235355 
   75300    273.70348   -988.51748    142780.47   -48951.771    3758.6583   -52710.429   0.28279896 
   75400    274.78538   -1016.8162    142760.49   -48962.653    3773.5155   -52736.169    0.2707607 
   75500    274.86575    -992.5285    142758.99   -48957.332    3774.6192   -52731.951   0.27435405 
   75600     276.0063   -966.41232    142761.99   -48884.609    3790.2818    -52674.89   0.28746469 
   75700      278.778   -996.06543    142810.75   -48844.147    3828.3444   -52672.492   0.27296205 
   75800     274.4379   -1039.9836    142826.06   -48863.139    3768.7437   -52631.883   0.28294992 
   75900    276.77951   -1010.4189    142834.89   -48887.768    3800.9001   -52688.668   0.28188985 
   76000     274.7373    -973.9117    142827.56   -48890.247    3772.8552   -52663.102   0.28198017 
   76100    275.99783   -995.30121    142802.48   -48975.241    3790.1656   -52765.407   0.27418474 
   76200    269.34578   -1032.0455    142774.34     -49019.4    3698.8156   -52718.215   0.28157539 
   76300    273.17643   -999.85946    142782.49   -48963.554    3751.4205   -52714.974    0.2834917 
   76400    274.63864   -1013.4988    142778.04   -48958.026    3771.5004   -52729.526   0.27420518 
   76500    278.61818   -997.63883    142802.46   -48951.576    3826.1498   -52777.725   0.27234174 
   76600    273.52613   -1021.4866    142784.53   -48993.095    3756.2227   -52749.317   0.28545854 
[...]
   81900    270.47477   -998.46656    142754.74   -48982.067    3714.3197   -52696.386   0.27905423 
   82000    275.05001   -1010.0479    142776.92   -48900.188    3777.1495   -52677.337   0.28547916 
   82100     279.5609   -986.25752    142809.96   -48850.647    3839.0958   -52689.743   0.27119598 
   82200    281.66134   -1008.2856     142841.3   -48867.779    3867.9403   -52735.719   0.28018625 
   82300    271.49087    -1014.003    142839.65   -48935.425    3728.2733   -52663.698   0.28463805 
   82400    278.48054   -958.81372    142877.32   -48817.661    3824.2596    -52641.92   0.27090392 
   82500    285.78263   -1016.0883    142887.99   -48724.505    3924.5362   -52649.041   0.27425504 
   82600    282.32167   -988.91214    142887.81   -48824.913    3877.0082   -52701.921    0.2780877 
   82700     278.8244   -1021.4437    142849.91   -48901.579    3828.9817   -52730.561   0.27542396 
   82800    279.19601   -1026.1439    142820.61   -48915.894    3834.0849   -52749.979   0.27059859 
   82900     282.5131   -1005.1268    142833.89   -48871.412    3879.6371   -52751.049   0.28252326 
   83000    280.94825   -960.38809    142847.67   -48807.957    3858.1477   -52666.105   0.27864039 
   83100    273.69455   -994.67242    142864.77   -48843.851    3758.5356   -52602.387   0.27711405 
   83200    279.19472   -1012.4332    142857.03   -48869.393    3834.0671    -52703.46   0.27540516 
   83300    280.29011   -962.92052     142843.2   -48853.076    3849.1096   -52702.186   0.27679061 
   83400     272.7968   -992.54288    142805.08   -48929.258    3746.2071   -52675.465   0.28088041 
   83500    273.04495   -1015.3656    142773.82   -49034.798    3749.6149   -52784.412   0.27021939 
   83600    273.03042   -994.21002    142774.12   -48980.131    3749.4154   -52729.546   0.28265872 
   83700    267.41534   -1022.5176    142746.54   -49008.881    3672.3057   -52681.187   0.28931102 
   83800    274.87734   -988.06861    142770.45   -48976.387    3774.7783   -52751.165   0.27261555 
   83900      277.793   -988.67934    142775.41   -48973.977    3814.8179   -52788.795   0.27854914 
   84000    274.10762   -1013.3216    142749.73   -48987.601     3764.208   -52751.809   0.29029602 
   84100    278.01788   -968.83977    142744.72   -48927.134    3817.9061    -52745.04   0.27505113 
   84200    279.63482    -972.1131    142764.48   -48879.481    3840.1108   -52719.592   0.27667878 
   84300    277.30241    -969.2501    142766.43    -48930.99    3808.0808   -52739.071   0.28912782 
   84400    277.29219   -1009.6478    142747.97   -48924.535    3807.9405   -52732.475   0.28323366 
   84500    271.77164   -1018.6912    142740.14   -48982.119     3732.129   -52714.248   0.28225259 
   84600    277.36963   -984.35481    142768.09    -48900.73     3809.004   -52709.734   0.29242275 
   84700    280.92115   -1034.7359    142775.18   -48910.072    3857.7754   -52767.847   0.28329864 
   84800    275.27585   -1018.0141    142774.47   -48907.147     3780.251   -52687.398   0.27284196 
   84900    282.15771   -992.56911    142772.26   -48824.121    3874.7567   -52698.878   0.28878142 
   85000    275.29385   -1008.9517    142780.44   -48902.242    3780.4981    -52682.74   0.28305994 
   85100    276.80641   -1002.7477    142780.43   -48921.931    3801.2694     -52723.2   0.27711264 
   85200    274.58385   -1028.7083    142794.05    -48958.51     3770.748   -52729.258   0.28419234 
   85300    275.03881   -977.24641    142781.18    -48968.89    3776.9958   -52745.886   0.28832491 
   85400    275.60195   -1016.5711    142780.51   -49000.065    3784.7291   -52784.794   0.27821037 
   85500     274.2519    -999.6566    142769.45   -48942.345    3766.1894   -52708.534   0.28141509 
   85600    273.52975   -992.01254    142734.25   -48970.077    3756.2724    -52726.35   0.29208093 
   85700    277.52845   -995.45641    142778.54   -48914.239    3811.1849   -52725.424    0.2760075 
   85800    273.77906   -990.97416    142777.63   -48906.575    3759.6961   -52666.271   0.28273361 
   85900    274.49486   -985.34525    142820.32   -48880.301     3769.526   -52649.827   0.28623254 
   86000    275.31823   -986.96649    142787.97   -48931.682    3780.8329   -52712.515    0.2858025 
   86100    276.20687   -1008.7487    142779.74   -48901.517    3793.0363   -52694.553   0.27965629 
   86200    279.73031    -1003.401    142785.96   -48871.967    3841.4222   -52713.389   0.28512348 
   86300    276.79977   -1011.0973    142774.44   -48913.226    3801.1782   -52714.405    0.2881134 
   86400    277.85343     -1000.11    142755.84   -48973.512    3815.6477   -52789.159   0.27559044 
   86500    276.23035   -985.97772    142752.92   -49001.747    3793.3586   -52795.106   0.27894375 
   86600    274.45327    -974.2966    142787.21    -48849.09    3768.9548   -52618.044   0.28232502 
   86700    278.87658   -980.12813    142809.79   -48848.178    3829.6983   -52677.877   0.28172236 
   86800    274.34998   -1023.9724    142762.04    -48958.96    3767.5363   -52726.496   0.28165793 
   86900    272.33284   -998.42068    142774.29    -48945.31    3739.8358   -52685.145   0.28524558 
   87000    276.78109   -1001.2328    142766.89   -48921.208    3800.9217    -52722.13   0.28766684 
   87100    282.94482   -958.90928    142783.08   -48900.906    3885.5658   -52786.472   0.27694763 
   87200    277.01416   -1013.4541    142785.13   -48833.482    3804.1225   -52637.604   0.28137853 
   87300    276.43245   -967.64218    142808.17   -48844.249    3796.1341   -52640.383   0.28718777 
   87400     275.7857   -975.27882    142777.83   -48900.268    3787.2525   -52687.521   0.28837658 
   87500    280.13234   -995.86514    142794.07   -48870.301    3846.9431   -52717.244   0.27220392 
   87600    278.76991   -1025.7078    142808.23   -48897.197    3828.2335   -52725.431   0.28331831 
   87700    276.94641   -1009.8418    142789.04   -48865.442    3803.1921   -52668.634    0.2953358 
   87800    274.28527   -1004.2379    142756.42   -48946.876    3766.6476   -52713.524   0.27042257 
   87900    276.11059   -1008.2391    142728.05   -48968.187    3791.7141   -52759.901   0.28255081 
   88000    277.38812   -992.65489     142768.1   -48944.195    3809.2579   -52753.453   0.29038138 
   88100    278.97961   -1041.5117     142773.5   -48913.513    3831.1132   -52744.627   0.27965248 
   88200    275.75685   -1027.5023    142747.41   -49013.086    3786.8563   -52799.943   0.27446849 
   88300    278.75644   -970.62827    142735.51   -48952.721    3828.0485   -52780.769    0.2927017 
   88400    276.74844   -978.49393    142766.94   -48887.617    3800.4734    -52688.09   0.27611669 
   88500    271.31468   -1017.6154    142763.99   -48958.211    3725.8538   -52684.064   0.28299031 
   88600    275.74711   -1004.1509    142786.69   -48950.681    3786.7225   -52737.403   0.28668871 
   88700    279.40279   -1009.4321    142789.36   -48922.381    3836.9244   -52759.306   0.27340365 
   88800    272.21652    -1022.993    142791.88   -48983.068    3738.2383   -52721.307   0.27582891 
   88900    276.55999   -1011.6847    142779.62   -48920.223    3797.8855   -52718.109   0.28047103 
   89000    275.51229   -986.16759    142787.08   -48893.507    3783.4979   -52677.005   0.28413297 
   89100    275.06771   -1007.2368    142788.09   -48946.494    3777.3925   -52723.886   0.28555108 
   89200    276.71083   -1015.9469    142795.93   -48897.891    3799.9568   -52697.847   0.27536503 
   89300    268.94712   -1011.1219    142800.31   -49013.358     3693.341   -52706.699   0.27284571 
   89400     271.6651   -979.44747    142783.61   -48918.572     3730.666   -52649.238   0.29195489 
   89500    273.06655   -1011.6661    142788.43   -49015.231    3749.9115   -52765.143   0.27298795 
   89600    272.92024   -1007.8053    142759.89   -49039.872    3747.9023   -52787.774   0.27207956 
   89700    277.81885   -966.48548    142780.57   -48952.294    3815.1729   -52767.466   0.28757249 
   89800    276.55259   -991.40102    142822.07   -48889.182    3797.7838   -52686.966   0.27812214 
   89900    281.65294     -991.073    142815.69   -48879.351    3867.8248   -52747.176   0.26552655 
   90000    278.28592   -1032.0978    142829.87   -48902.606     3821.587   -52724.193   0.28958995 
   90100    277.90894   -1017.2724    142819.46   -48882.467    3816.4101   -52698.877   0.28261481 
   90200    277.34046   -1027.4673    142819.86   -48956.025    3808.6033   -52764.629   0.26688705 
   90300    278.39379    -949.8689    142799.47   -48926.095    3823.0683   -52749.164   0.28472926 
   90400     273.0807   -975.42585    142820.64   -48914.959    3750.1058   -52665.065   0.28323086 
   90500    281.92167   -991.03093    142820.16   -48931.918    3871.5152   -52803.433   0.26216165 
   90600    274.34815   -1032.1078    142820.87   -48954.291    3767.5112   -52721.803   0.27877432 
   90700    271.28735    -1033.292    142807.27   -48981.019    3725.4784   -52706.498   0.29157981 
   90800     272.5181   -1060.8648    142785.79    -48996.67    3742.3798    -52739.05   0.27419497 
   90900    270.31276   -988.98328    142763.25    -48966.96    3712.0948   -52679.055   0.27962238 
   91000    269.60921   -981.11655    142766.92   -48983.889    3702.4332   -52686.322   0.29573255 
   91100    265.46627   -1023.9482    142735.67   -49085.396      3645.54   -52730.936   0.27787317 
   91200    269.49141   -984.40511     142744.3   -49032.394    3700.8156    -52733.21   0.27389092 
   91300    278.48357   -970.90238    142789.34   -48965.853    3824.3012   -52790.154   0.28095515 
   91400    279.75052   -973.17534    142783.53   -48935.322    3841.6997   -52777.022   0.27597792 
   91500    280.89727   -1014.0566    142832.89   -48780.995    3857.4476   -52638.443   0.28425937 
   91600    279.07044    -1011.236    142828.23   -48839.616    3832.3604   -52671.977   0.28085062 
   91700    272.50065   -1001.5518    142806.01   -48914.081    3742.1402   -52656.221   0.28623584 
   91800     276.5613   -1024.2461    142806.69   -48886.226    3797.9035   -52684.129   0.29193631 
   91900    276.52041   -970.97471    142856.03   -48882.617    3797.3419   -52679.959   0.27066262 
   92000    277.76395   -1018.4635    142833.57   -48929.748    3814.4189   -52744.167   0.27761489 
   92100    279.09757   -986.72607    142808.48   -48916.471     3832.733   -52749.204   0.28466383 
   92200    277.47596   -985.70004    142774.41   -48945.208    3810.4641   -52755.673   0.27650243 
   92300    279.37375   -1023.0196    142819.21    -48824.87    3836.5257   -52661.396   0.27609514 
   92400    274.65346   -1013.3176    142821.75   -48866.758    3771.7038   -52638.462   0.29361982 
   92500    282.15838   -1000.0964    142819.85   -48858.686    3874.7659   -52733.452   0.28147273 
   92600    283.57687   -1002.9572    142857.59   -48777.394    3894.2454   -52671.639   0.26081854 
   92700    275.43404     -1046.41    142855.28   -48901.256    3782.4232   -52683.679    0.2920833 
   92800    278.10012   -1038.4023    142832.13   -48916.308    3819.0354   -52735.343   0.28228063 
   92900     276.5748   -1020.0227    142817.48   -48946.531    3798.0888    -52744.62    0.2587357 
   93000    277.29085   -965.58348    142808.77   -48961.616     3807.922   -52769.538   0.28522855 
   93100    279.38869   -1015.5955    142819.51   -48878.682    3836.7308   -52715.413   0.29314667 
   93200    276.09266   -1039.9303    142830.51   -48940.327    3791.4678   -52731.794   0.26316599 
   93300    271.34278   -970.95822    142820.28    -48986.37    3726.2396   -52712.609    0.2709892 
   93400    270.72769   -994.72822    142754.49   -49038.651    3717.7929   -52756.444   0.29333793 
   93500    270.59185   -1039.8977    142768.65   -49035.875    3715.9275   -52751.802   0.26808175 
   93600    272.46602   -984.13981    142794.37   -48990.609    3741.6646   -52732.274    0.2747399 
   93700    276.55324   -963.25038    142801.84   -48969.075    3797.7927   -52766.867   0.29257617 
   93800     275.4463   -1017.1053    142788.97   -48967.486    3782.5916   -52750.078   0.26550616 
   93900    276.36123   -1007.9336    142752.98   -49043.981     3795.156   -52839.137   0.27739147 
   94000    273.11212   -966.73528    142731.17   -49005.732    3750.5372   -52756.269   0.28570799 
   94100    274.74983   -992.22909    142774.98   -48892.365    3773.0273   -52665.392    0.2716406 
   94200     276.9841   -1005.0445    142815.83   -48890.016    3803.7096   -52693.726   0.27801987 
   94300    277.33885    -1015.346    142818.88   -48896.531    3808.5812   -52705.113   0.27969947 
   94400    283.16343   -985.20879    142798.91   -48882.009    3888.5678   -52770.577    0.2728608 
   94500    276.11156   -1008.6606    142806.05   -48892.077    3791.7273   -52683.805   0.27991601 
   94600    277.22746   -1004.3104    142783.17   -48896.567    3807.0515   -52703.618   0.28159285 
   94700    281.05145   -985.89375    142805.92   -48934.325    3859.5649    -52793.89   0.26787728 
   94800     272.8993   -1013.2303    142804.81   -48971.665    3747.6147   -52719.279    0.2890147 
   94900    277.08841   -1005.0622    142785.67   -49000.455     3805.142   -52805.597   0.28035181 
   95000    275.01581   -997.92623    142792.92   -48965.331    3776.6798   -52742.011   0.26279001 
   95100    274.40666   -1030.7014    142796.27   -48929.445    3768.3146    -52697.76   0.29677476 
   95200    277.01439    -1019.642    142771.14   -48953.739    3804.1256   -52757.865    0.2814029 
   95300    277.56411   -992.63114    142779.58    -48911.11    3811.6747   -52722.785    0.2624328 
   95400     278.4492   -985.94026    142778.99   -48876.851    3823.8293    -52700.68   0.29835433 
   95500    275.86447   -1032.6838    142797.69   -48898.916    3788.3342   -52687.251   0.28770558 
   95600    280.58623   -986.43315    142772.23   -48887.093    3853.1761   -52740.269   0.26512666 
   95700    275.78981   -1008.6062    142765.02    -48926.12     3787.309   -52713.429   0.29228971 
   95800    281.27595   -978.91953    142785.43   -48868.134    3862.6479   -52730.782   0.29299679 
   95900    279.78687   -973.61541    142786.51   -48882.118    3842.1989   -52724.317   0.26640741 
   96000     275.9334   -986.09583    142806.03   -48853.242    3789.2808   -52642.523   0.28417262 
   96100    275.81849   -1016.0897     142824.6   -48801.711    3787.7028   -52589.414   0.30648757 
   96200     278.0713   -1016.4449    142816.28   -48824.993    3818.6397   -52643.632    0.2710933 
   96300    285.92475    -977.4323    142836.44   -48844.714    3926.4878   -52771.202   0.27452937 
   96400    275.66588   -1017.4813    142811.32   -48893.144     3785.607   -52678.751   0.30036056 
   96500    274.08214   -999.62279    142822.45   -48891.208    3763.8582   -52655.066   0.27227394 
   96600    276.99478   -988.65224    142837.49   -48942.164    3803.8563   -52746.021    0.2758652 
   96700    278.19721   -987.86832    142852.87   -48920.333    3820.3687   -52740.702     0.280738 
   96800    280.92682   -973.99498    142847.77   -48940.706    3857.8534   -52798.559   0.27509672 
   96900    277.58718   -994.87077    142846.47     -48947.3    3811.9915   -52759.291   0.28048359 
   97000    271.21965   -994.63532    142817.14   -49010.099    3724.5487   -52734.648   0.28050316 
   97100    274.61466   -1007.8965    142805.32   -48981.215     3771.171   -52752.386   0.28572938 
   97200    281.38007   -958.76483    142805.31   -48927.347    3864.0777   -52791.425   0.27616065 
   97300    275.12484   -962.97243    142865.89    -48817.35    3778.1772   -52595.527   0.28411679 
   97400     276.2944   -1026.3492    142866.03   -48906.054    3794.2382   -52700.293   0.27786997 
   97500    281.54545   -1018.0955    142878.51   -48878.197    3866.3487   -52744.546   0.28750029 
   97600    284.83194   -972.97052     142904.9   -48818.714    3911.4808   -52730.195   0.27296916 
   97700    278.57203   -1006.0196     142920.2    -48784.51     3825.516   -52610.026   0.26820817 
   97800    278.86898   -1024.3861    142874.77    -48883.82    3829.5939   -52713.414   0.29380957 
   97900    273.88136   -999.93454    142886.67   -48848.094     3761.101   -52609.195   0.27924145 
   98000    279.09951   -1041.5133    142824.05   -48931.764    3832.7597   -52764.523     0.267615 
   98100    277.27546   -972.77106    142837.91   -48907.439    3807.7108   -52715.149   0.29110115 
   98200    278.46648   -1004.1341     142846.4   -48909.244    3824.0666    -52733.31    0.2882882 
   98300    278.28413   -1018.9865    142860.47   -48854.644    3821.5623   -52676.206   0.26337722 
   98400    278.48417   -990.39911    142846.57   -48892.724    3824.3094   -52717.033   0.28360393 
   98500    273.40363   -981.44005    142833.58   -48872.877    3754.5404   -52627.418   0.29836587 
   98600    276.02255   -995.64623    142839.66    -48884.18    3790.5051   -52674.685   0.26244405 
   98700    281.70955   -980.51096    142839.34   -48852.704    3868.6023   -52721.306   0.27748735 
   98800    280.59055   -981.30447    142864.06    -48861.51    3853.2355   -52714.745   0.29550094 
   98900     279.9485   -1047.3257    142834.82   -48925.566    3844.4186   -52769.984   0.26830881 
   99000    276.89176   -968.37049    142809.89   -48913.251    3802.4416   -52715.692   0.27889122 
   99100     268.1824   -1023.4624    142787.39   -48975.738    3682.8395   -52658.578   0.29769413 
   99200    269.11896   -1032.3409    142778.02   -48979.618    3695.7009   -52675.319   0.27701684 
   99300    278.14159   -1009.2943    142780.33   -48903.303     3819.605   -52722.908   0.27561775 
   99400    280.07027    -1020.359    142780.62   -48944.032    3846.0907   -52790.122   0.29538957 
   99500    274.34612   -989.93362    142794.76   -48892.783    3767.4832   -52660.267   0.28267786 
   99600    280.72519   -969.20042    142802.52   -48889.928    3855.0845   -52745.013   0.27410668 
   99700    273.36849   -976.51152    142775.88   -48935.926    3754.0579   -52689.984   0.29096553 
   99800     276.2844   -1051.1968    142797.02   -48951.689    3794.1009   -52745.789   0.27724161 
   99900    272.03521   -999.06489    142804.54   -49007.434    3735.7485   -52743.182   0.27742444 
  100000    275.02471   -1013.2185     142816.5   -48925.691    3776.8021   -52702.494   0.28676775 
Loop time of 111.746 on 6 procs for 100000 steps with 4608 atoms

Performance: 386.590 ns/day, 0.062 hours/ns, 894.885 timesteps/s
98.9% CPU use with 6 MPI tasks x no OpenMP threads

MPI task timing breakdown:
Section |  min time  |  avg time  |  max time  |%varavg| %total
---------------------------------------------------------------
Pair    | 93.842     | 94.538     | 95.715     |   6.1 | 84.60
Neigh   | 6.4263     | 6.5817     | 6.8209     |   6.6 |  5.89
Comm    | 6.9246     | 7.8946     | 8.3057     |  17.1 |  7.06
Output  | 0.16825    | 0.1691     | 0.1726     |   0.4 |  0.15
Modify  | 1.8429     | 1.9201     | 1.9694     |   3.2 |  1.72
Other   |            | 0.6424     |            |       |  0.57

Nlocal:        768.000 ave         779 max         750 min
Histogram: 1 0 0 0 0 2 1 0 1 1
Nghost:        1650.50 ave        1660 max        1636 min
Histogram: 1 0 1 0 0 1 0 0 1 2
Neighs:        0.00000 ave           0 max           0 min
Histogram: 6 0 0 0 0 0 0 0 0 0
FullNghs:      24085.3 ave       24512 max       23459 min
Histogram: 1 0 0 0 0 2 1 0 1 1

Total # of neighbors = 144512
Ave neighs/atom = 31.361111
Neighbor list builds = 6657
Dangerous builds = 0

undump              1
unfix               2
unfix               3
unfix               4




################################################
#######         Run Simulation         #########
################################################

reset_timestep      0
log                 log.run_${NAME}
log                 log.run_ice_277K_-1000atm_mW
