
# Create simulation box of size 50 x 50 x 50 Angstrom
#
lattice	            sc 1
Lattice spacing in x,y,z = 1.0000000 1.0000000 1.0000000
region 	            all block 0 ${X} ${YZ_LO} ${YZ_HI} ${YZ_LO} ${YZ_HI} units box
region 	            all block 0 53.4 ${YZ_LO} ${YZ_HI} ${YZ_LO} ${YZ_HI} units box
region 	            all block 0 53.4 0.311137335488219.0 ${YZ_HI} ${YZ_LO} ${YZ_HI} units box
region 	            all block 0 53.4 0.311137335488219.0 50.59598266451023.0 ${YZ_LO} ${YZ_HI} units box
region 	            all block 0 53.4 0.311137335488219.0 50.59598266451023.0 0.311137335488219.0 ${YZ_HI} units box
region 	            all block 0 53.4 0.311137335488219.0 50.59598266451023.0 0.311137335488219.0 50.59598266451023.0 units box
create_box          1 all
Created orthogonal box = (0.0000000 0.31113734 0.31113734) to (53.400000 50.595983 50.595983)
  3 by 1 by 2 MPI processor grid

# fill box with 4175 randomly distributed atoms
#
create_atoms        1 random 4608 63782 all
Created 4608 atoms
  create_atoms CPU = 0.001 seconds
mass                1 18.015

# Define potential
#
pair_style          sw
pair_coeff          * * /data/emrosky-sim/Freezing_Simulations/Melting/mW_fancy/mW.sw mW
Reading sw potential file /data/emrosky-sim/Freezing_Simulations/Melting/mW_fancy/mW.sw with DATE: 2019-02-27

# Run minimization
#
minimize            1.0e-8 1.0e-8 10000 1000
WARNING: Using 'neigh_modify every 1 delay 0 check yes' setting during minimization (../min.cpp:187)
Neighbor list info ...
  update every 1 steps, delay 0 steps, check yes
  max neighbors/atom: 2000, page size: 100000
  master list distance cutoff = 6.3065
  ghost atom cutoff = 6.3065
  binsize = 3.15325, bins = 17 16 16
  1 neighbor lists, perpetual/occasional/extra = 1 0 0
  (1) pair sw, perpetual
      attributes: full, newton on
      pair build: full/bin/atomonly
      stencil: full/bin/3d
      bin: standard
Per MPI rank memory allocation (min/avg/max) = 4.236 | 4.254 | 4.260 Mbytes
Step Temp E_pair E_mol TotEng Press 
       0            0    4722160.7            0    4722160.7    3341519.6 
     689            0   -52171.608            0   -52171.608    379.75877 
Loop time of 2.08422 on 6 procs for 689 steps with 4608 atoms

100.0% CPU use with 6 MPI tasks x no OpenMP threads

Minimization stats:
  Stopping criterion = max force evaluations
  Energy initial, next-to-last, final = 
      4722160.65249574   -52171.526112304  -52171.6080492372
  Force two-norm initial, final = 1.0801806e+08 1.9611455
  Force max component initial, final = 57117162.0 0.28661447
  Final line search alpha, max atom move = 0.12847432 0.036822599
  Iterations, force evaluations = 689 1000

MPI task timing breakdown:
Section |  min time  |  avg time  |  max time  |%varavg| %total
---------------------------------------------------------------
Pair    | 1.8037     | 1.882      | 1.9682     |   3.8 | 90.30
Neigh   | 0.044253   | 0.045405   | 0.046715   |   0.3 |  2.18
Comm    | 0.047424   | 0.13483    | 0.21398    |  14.2 |  6.47
Output  | 0          | 0          | 0          |   0.0 |  0.00
Modify  | 0          | 0          | 0          |   0.0 |  0.00
Other   |            | 0.02198    |            |       |  1.05

Nlocal:        768.000 ave         777 max         758 min
Histogram: 1 0 1 1 0 0 1 0 1 1
Nghost:        1696.00 ave        1711 max        1675 min
Histogram: 1 0 1 0 0 0 0 3 0 1
Neighs:        0.00000 ave           0 max           0 min
Histogram: 6 0 0 0 0 0 0 0 0 0
FullNghs:      25790.0 ave       26221 max       25326 min
Histogram: 1 0 1 1 0 0 1 0 1 1

Total # of neighbors = 154740
Ave neighs/atom = 33.580729
Neighbor list builds = 39
Dangerous builds = 0

# Add velocity/set timestep
#
velocity            all create ${TEMP} 120598 rot yes dist gaussian
velocity            all create 277 120598 rot yes dist gaussian
timestep            5.0

# Define output
#
compute	            1 all msd
thermo	            100
thermo_style        custom step temp press vol etotal ke pe c_1[4] density

# Neighbor lists
#
neigh_modify        delay 0 every 1 check yes

# Set fixes
#
fix                 1 all momentum 10 linear 1 1 1 rescale
fix                 2 all nve
fix                 3 all temp/csvr ${TEMP} ${TEMP} 500.0 928347
fix                 3 all temp/csvr 277 ${TEMP} 500.0 928347
fix                 3 all temp/csvr 277 277 500.0 928347
fix                 4 all press/berendsen iso ${PRES} ${PRES} 1000.0 modulus 20000
fix                 4 all press/berendsen iso -1000 ${PRES} 1000.0 modulus 20000
fix                 4 all press/berendsen iso -1000 -1000 1000.0 modulus 20000

# Run 0.5 ns equilibration
#
dump                1 all custom 1000 eq.${NAME}.dump id type x y z vx vy vz
dump                1 all custom 1000 eq.liq_277K_-1000atm_mW.dump id type x y z vx vy vz
run                 100000
Per MPI rank memory allocation (min/avg/max) = 3.504 | 3.507 | 3.510 Mbytes
Step Temp Press Volume TotEng KinEng PotEng c_1[4] Density 
     689          277    1667.5624    135025.41    -48367.68     3803.928   -52171.608            0    1.0208932 
     700    113.52738    2059.8891    136208.51   -48207.366    1559.0252   -49766.391  0.069589745    1.0120257 
     800    187.51557   -698.23277     139279.4   -46628.846    2575.0748   -49203.921   0.59244425   0.98971215 
     900    218.26131    -821.6199    140311.01   -45675.246    2997.2935    -48672.54    1.0503747   0.98243553 
    1000    233.01247   -782.90071    140884.47    -45018.29    3199.8652   -48218.155    1.5824887   0.97843659 
    1100    245.38622   -1100.0378    141193.99   -44543.849    3369.7888   -47913.638    2.0793857    0.9762917 
    1200    255.85095    -825.9356    141426.92   -44142.563    3513.4966   -47656.059    2.7000509    0.9746837 
    1300    271.51578   -1021.5458    141637.47   -43762.106    3728.6154   -47490.721    3.5828516   0.97323478 
    1400    261.90506   -1005.6613    141570.67   -43645.421    3596.6353   -47242.056     4.552321   0.97369403 
    1500    272.63582   -1109.0608    141454.45   -43481.015    3743.9965   -47225.011    5.7366968   0.97449401 
    1600    268.65668   -943.48505    141063.95   -43428.532    3689.3526   -47117.884    6.7672928   0.97719167 
    1700    270.57878   -980.38571    141251.59   -43384.677    3715.7479   -47100.425    7.9127311   0.97589357 
    1800    274.08067   -979.18021    141369.87   -43282.178    3763.8381   -47046.016    9.2202808   0.97507707 
    1900    273.42883   -1009.5072    141595.05   -43211.055    3754.8865   -46965.942    10.514192   0.97352636 
    2000     275.7501   -1035.8897    141704.57   -43136.474    3786.7636   -46923.238    11.651087   0.97277396 
    2100     274.0991   -1122.1537    141438.42   -43206.277    3764.0911   -46970.368    12.918999    0.9746045 
    2200    271.22911   -1053.2585     141256.8   -43240.924    3724.6787   -46965.602    14.130695   0.97585755 
    2300     278.0208   -992.62911    140955.37   -43148.306    3817.9462   -46966.252    15.192786   0.97794442 
    2400    274.20147    -1013.604    141201.99   -43131.563    3765.4969    -46897.06    16.481586   0.97623636 
    2500    273.16008   -799.07592    141184.94   -43076.376    3751.1959   -46827.572    17.525751   0.97635424 
    2600     277.4766   -995.33897    141310.53   -43011.953     3810.473   -46822.426    18.898875   0.97548651 
    2700    275.95735   -1088.3156    141142.19   -42959.487    3789.6097   -46749.096    20.440512   0.97664999 
    2800    277.33149    -1022.859    141026.22   -43084.465    3808.4802   -46892.945     21.61457   0.97745312 
    2900    279.91172   -969.38531    141087.71   -43018.626    3843.9135   -46862.539     22.87752   0.97702707 
    3000    279.94623   -774.51187    141251.34   -42923.065    3844.3873   -46767.453    24.283376   0.97589526 
    3100    277.35479   -1078.1221    141107.75   -42955.188    3808.8002   -46763.988     25.54176   0.97688836 
    3200    272.12628   -1040.9989    141017.82    -42983.73    3736.9991   -46720.729    26.834672   0.97751133 
    3300     275.5062   -914.86364    141181.42   -43034.752    3783.4142   -46818.166    27.992761   0.97637863 
    3400    281.59694    -1059.608    141167.49   -42982.566    3867.0559   -46849.622    29.236699   0.97647496 
    3500    283.75152   -1014.4735     140986.1   -42912.718    3896.6438   -46809.362    30.708588   0.97773127 
    3600    279.60421   -880.38032    141082.97   -42893.428    3839.6905   -46733.119    32.202703    0.9770599 
    3700    277.89397   -1118.6912    140938.94   -42926.849    3816.2045   -46743.054     33.66923   0.97805843 
    3800     281.6678   -1128.1107    140678.04   -42919.279     3868.029   -46787.308    34.971905   0.97987235 
    3900    277.70027   -1003.3411    140423.23   -43026.983    3813.5445   -46840.527    36.348252   0.98165038 
    4000    272.01353   -967.88682    140508.24   -43047.058    3735.4508   -46782.509    37.476052   0.98105647 
    4100    273.23068   -915.42543    140703.03   -42985.192    3752.1654   -46737.358    38.527502   0.97969826 
    4200    274.73233   -890.53369    140615.52   -42973.739    3772.7869   -46746.525    39.739002     0.980308 
    4300    280.53241   -1167.5361    140545.55   -42972.251    3852.4371   -46824.688    41.014457   0.98079603 
    4400    277.64983     -1014.89    140818.25   -42940.341    3812.8517   -46753.193     42.48616   0.97889669 
    4500    277.05254   -1155.9445    140652.94   -42906.863    3804.6495   -46711.512    43.813785    0.9800472 
    4600    280.57624   -1098.9615    140699.72   -42943.922     3853.039   -46796.961    45.264416    0.9797213 
    4700    276.00035   -908.05564    140581.62   -42981.951    3790.2002   -46772.151    46.693938   0.98054435 
    4800    277.70056   -976.94548    140849.88   -42935.665    3813.5485   -46749.213    47.929983   0.97867682 
    4900    275.55702    -995.1972     140962.4   -42912.255    3784.1121   -46696.367    49.119653   0.97789563 
    5000    276.13295   -1148.1204    140967.03   -43027.103    3792.0211   -46819.124    50.461184   0.97786349 
    5100    275.19682   -1005.3671    141019.74   -42956.476    3779.1656   -46735.641    51.668376   0.97749804 
    5200    281.87736   -865.17899    140853.19   -43040.709    3870.9067   -46911.616    52.750254   0.97865387 
    5300    277.70372   -953.81574    140916.02   -43092.046    3813.5918   -46905.638    54.148455   0.97821753 
    5400    277.96698   -894.18017    140774.95   -42984.193    3817.2071     -46801.4    55.408765    0.9791978 
    5500     279.7211   -1092.6569    140679.74   -42936.869    3841.2957   -46778.165    56.980239   0.97986047 
    5600    279.37715   -939.44166    140969.43   -42859.675    3836.5724   -46696.247    58.175306    0.9778469 
    5700    278.81272   -1174.2221    140954.66    -42975.47    3828.8213   -46804.292    59.607164   0.97794933 
    5800    281.83582   -920.09221    140482.94   -42912.579    3870.3363   -46782.915    60.880596   0.98123314 
    5900     279.0789   -1104.6324    140431.58   -43006.388    3832.4766   -46838.864    62.479853   0.98159202 
    6000     278.3845   -938.93763    140487.86   -43079.221    3822.9407   -46902.162    63.817689   0.98119877 
    6100     276.4797   -992.99827    140380.18    -43117.86    3796.7829   -46914.643    64.901632   0.98195139 
    6200    272.37648   -944.65905    140346.53   -43105.576    3740.4351   -46846.012    66.549388   0.98218685 
    6300    275.05242   -842.57597    140406.45   -43158.669    3777.1826   -46935.852    68.353922   0.98176766 
    6400    272.78223   -874.24425    140690.32    -43092.19    3746.0071   -46838.197    69.584191   0.97978681 
    6500     278.8974   -838.14946    140552.99   -43056.889    3829.9842   -46886.873    71.059611   0.98074408 
    6600    273.90505   -877.50463    140626.61   -43121.059    3761.4262   -46882.486    72.696117   0.98023068 
    6700    279.63583   -1015.9826    140819.73   -43116.065    3840.1247    -46956.19    74.279577   0.97888637 
    6800    274.35893   -1278.6347    140875.14   -43185.846    3767.6592   -46953.505    75.176825   0.97850134 
    6900    276.75223   -1040.9341    140770.41   -43166.743    3800.5255   -46967.268    76.475163   0.97922935 
    7000    275.22504   -991.41872    140921.84   -43037.684    3779.5532   -46817.237    78.044476   0.97817708 
    7100     275.8618   -1113.4688    141038.77   -43115.942    3788.2975    -46904.24    79.519837   0.97736612 
    7200    276.27341   -844.78177    140931.98    -43141.18      3793.95    -46935.13    81.334759   0.97810673 
    7300    276.68144   -1168.2421    140889.11   -43163.904    3799.5533   -46963.457    82.895846   0.97840431 
    7400    270.77794   -1012.8303    140600.33   -43214.948     3718.483   -46933.431    84.339747   0.98041387 
    7500    271.35339    -1024.444    140766.67   -43138.772    3726.3853   -46865.158    85.939081   0.97925535 
    7600    278.28263   -1015.7181    140580.39   -43069.681    3821.5418   -46891.222    87.517492   0.98055294 
    7700    276.43074   -842.37872    140812.23   -43028.119    3796.1106    -46824.23    89.203409   0.97893854 
    7800    277.64483   -969.49697     140885.6   -43087.107    3812.7831    -46899.89    90.715479   0.97842869 
    7900    274.12839   -808.21964     140919.2   -43163.322    3764.4933   -46927.816    92.483952   0.97819541 
    8000    277.96401   -1133.4551    141255.42   -43192.783    3817.1663   -47009.949    94.258709   0.97586707 
    8100    275.90073   -925.62061    141437.45   -43099.233    3788.8321   -46888.065    95.814662   0.97461118 
    8200    277.90724   -1185.7884    141509.51   -43072.005    3816.3867   -46888.392    97.321611   0.97411485 
    8300    274.41047   -963.26015    141362.31   -43072.915     3768.367   -46841.282     98.68326   0.97512921 
    8400    274.54546   -1056.2177    141396.19   -43120.672    3770.2208   -46890.893    99.775679   0.97489558 
    8500    270.84332   -942.54115    141563.72   -43171.935    3719.3808   -46891.316     100.9214   0.97374182 
    8600    279.30044   -950.81636    141491.31   -43057.697    3835.5189   -46893.216    101.85288   0.97424016 
    8700    276.90352   -1036.1795    141526.07   -43050.964    3802.6031   -46853.568    103.16274   0.97400088 
    8800     280.3192   -1094.1351    141500.23   -43002.372    3849.5092   -46851.882    104.59726   0.97417876 
    8900    277.02358   -1124.0068    140988.62    -43042.65    3804.2518   -46846.902    105.68169   0.97771377 
    9000    278.36485   -964.87031    140804.23   -43011.276    3822.6709   -46833.946    106.24871   0.97899416 
    9100    274.83953   -1014.1416    140983.49   -42985.183    3774.2591   -46759.442    107.67681   0.97774937 
    9200    277.69888   -966.25746    141115.73   -43056.182    3813.5254   -46869.708    109.38899   0.97683312 
    9300    281.87184   -1019.4359    140967.02   -43076.774     3870.831   -46947.605    110.04448   0.97786363 
    9400    284.16982   -953.07535    140778.71    -43057.27    3902.3882   -46959.659    111.74411   0.97917165 
    9500     274.4845   -910.79986    140894.22   -43139.116    3769.3836   -46908.499    113.25581   0.97836883 
    9600    274.59618   -926.16355    140614.18   -43165.805    3770.9172   -46936.722    114.57446   0.98031729 
    9700    275.66079   -960.97585    140531.97   -43059.843    3785.5371    -46845.38    115.63867   0.98089083 
    9800    277.45961     -989.605    140541.54   -43103.356    3810.2396   -46913.596    116.97702   0.98082401 
    9900    280.14709   -919.91672    140738.59   -42962.087    3847.1457   -46809.233    118.23586   0.97945072 
   10000    272.98482   -1175.2806    140533.36    -43128.29    3748.7891   -46877.079     119.6649   0.98088107 
   10100     276.5042   -1240.6732    140475.78   -43051.267    3797.1193   -46848.386     120.9667   0.98128318 
   10200    277.54028   -1061.2499    140583.15   -43102.888    3811.3473   -46914.236    122.64206   0.98053368 
   10300    281.73563   -977.51109    140581.74   -43091.177    3868.9605   -46960.137    123.92799   0.98054355 
   10400    278.26708   -820.16549    140426.84   -43001.153    3821.3283   -46822.482    125.53765   0.98162514 
   10500    276.88319   -1211.4831    140506.61   -42982.342    3802.3238   -46784.666    127.31089   0.98106785 
   10600    278.57293   -781.91724    140562.97    -42942.35    3825.5284   -46767.879    128.24123   0.98067445 
   10700    275.94421    -1096.726    140674.68   -43000.773    3789.4292   -46790.203    129.57138    0.9798957 
   10800    279.95815   -1115.9012    140634.94   -42923.409     3844.551    -46767.96    130.72418   0.98017264 
   10900     281.9635   -863.77071    140747.92   -42851.139    3872.0897   -46723.228    131.81951   0.97938579 
   11000    282.72823    -976.4053    140994.16   -42882.568    3882.5914    -46765.16    134.08542   0.97767533 
   11100    276.96133   -949.68631    140815.43   -42942.409     3803.397   -46745.806    135.66462   0.97891629 
   11200     278.6785   -971.03856    140905.49    -42970.87    3826.9781   -46797.848    137.24455   0.97829062 
   11300    277.25178   -953.48437     140975.7   -43007.946    3807.3856   -46815.332    138.96609   0.97780336 
   11400    279.67202   -967.84015    140997.41   -43033.466    3840.6218   -46874.088    140.71612   0.97765282 
   11500    275.08685   -999.59667    141005.75     -43133.7    3777.6554   -46911.356    141.67812   0.97759498 
   11600    269.67236   -1002.8318    140943.08   -43186.338    3703.3005   -46889.638    142.82825   0.97802966 
   11700    277.58551    -925.2606    140984.88   -43166.681    3811.9685   -46978.649    144.15099   0.97773974 
   11800    275.10239   -1101.0872    141170.36   -43094.395    3777.8689   -46872.264    145.32877    0.9764551 
   11900     271.0668   -1009.9476    140993.14   -43185.967    3722.4498   -46908.417    146.55173   0.97768244 
   12000    272.82172   -983.23771     140701.7   -43143.699    3746.5494   -46890.248    147.73042   0.97970757 
   12100    270.76156   -991.55184    140593.55   -43114.373     3718.258   -46832.631    148.99952   0.98046115 
   12200    280.20278   -1174.5041    140531.79   -42973.696    3847.9105   -46821.607    151.04558   0.98089208 
   12300    281.26518    -1069.786    140419.83   -42948.709    3862.4999   -46811.209    152.52997   0.98167411 
   12400    280.39711   -948.58867    140520.95   -42846.385    3850.5791   -46696.965    154.27432   0.98096773 
   12500    279.82271   -1065.4028    140805.67   -42894.221    3842.6911   -46736.912    155.88166    0.9789841 
   12600    282.28599   -1063.9991    140848.78   -42940.306    3876.5183   -46816.824    157.47016   0.97868446 
   12700    278.74605   -1116.6343    140839.03   -42898.196    3827.9058   -46726.102    158.99566   0.97875222 
   12800    277.95306   -962.03053    140712.44     -42957.5     3817.016   -46774.516    159.90276    0.9796328 
   12900    278.76176   -938.65278    140995.52    -42955.45    3828.1215   -46783.572    161.52506   0.97766592 
   13000    280.43176    -1071.493    140853.83   -42967.938     3851.055   -46818.993    162.49744   0.97864943 
   13100    279.94285   -1118.4752     140560.1   -43010.588    3844.3409   -46854.929    163.86001   0.98069447 
   13200    278.01201   -1152.1001    140566.32   -42944.875    3817.8254     -46762.7    165.16276    0.9806511 
   13300    275.62809   -919.77029    140625.42   -42934.575    3785.0881   -46719.663    166.75091   0.98023897 
   13400    275.74717   -1087.3624    140671.49   -42965.982    3786.7234   -46752.705    168.73163   0.97991793 
   13500    279.27739   -875.57706    140946.82   -42972.894    3835.2024   -46808.096    170.67518   0.97800376 
   13600    280.39406   -1122.0026    140732.04   -43042.164    3850.5372   -46892.701    172.63196   0.97949631 
   13700    273.12936   -888.79908     140735.2   -43028.803    3750.7741   -46779.577    174.58299   0.97947431 
   13800    280.26151   -1076.9938    140746.69   -43049.376    3848.7169   -46898.093    175.63197   0.97939437 
   13900    273.78862   -874.24832    140652.91   -43107.919    3759.8274   -46867.747    177.27297   0.98004736 
   14000    269.33242   -1016.5761    141008.56   -43152.485    3698.6321   -46851.117    179.23738   0.97757555 
   14100    272.93195    -935.9978     140737.1   -43181.164    3748.0631   -46929.227    180.58069   0.97946108 
   14200    275.66609   -814.73489     140696.1   -43078.703    3785.6099   -46864.313    182.55463   0.97974655 
   14300    277.22798   -1070.1198    140466.47   -43070.848    3807.0588   -46877.907    183.70611    0.9813482 
   14400    272.96602    -1116.855    140404.65   -43072.982    3748.5309   -46821.513    185.12241   0.98178026 
   14500    274.37345   -1017.8952    140312.21   -43052.093    3767.8587   -46819.952    186.50871   0.98242708 
   14600    275.62986   -980.46575    140502.28   -42972.569    3785.1125   -46757.681    188.20225   0.98109805 
   14700    275.70612   -1119.9566    140665.24   -42881.258    3786.1597   -46667.418    190.52455   0.97996151 
   14800    276.52698    -820.1078    140618.78   -42947.571    3797.4322   -46745.003    192.37125   0.98028522 
   14900    277.98087   -1180.2974    140553.27   -42921.862    3817.3978    -46739.26    194.11114   0.98074217 
   15000    273.08663   -1055.4306    140355.37   -43009.563    3750.1872    -46759.75    194.88305   0.98212498 
   15100    275.45556   -1082.0062    140373.45   -43049.626    3782.7188   -46832.345    196.31088   0.98199849 
   15200    277.47263   -1094.0486    140332.12   -43106.849    3810.4184   -46917.267    197.76037    0.9822877 
   15300    276.02127   -914.69717     140503.3   -43033.581    3790.4875   -46824.069    199.23068   0.98109092 
   15400    274.82079   -867.23217    140660.36    -43009.77    3774.0018   -46783.772    201.10583   0.97999547 
   15500    280.10816   -1131.2719    140708.48   -43004.865     3846.611   -46851.476    203.31779   0.97966035 
   15600    276.77028   -1061.8417    140498.22   -43059.979    3800.7733   -46860.752    204.82696   0.98112645 
   15700    276.09658   -1136.4734     140436.2   -43087.725    3791.5216   -46879.246    205.93954   0.98155971 
   15800    276.85468   -1037.5991     140680.1   -43085.054    3801.9324   -46886.986    207.46352   0.97985797 
   15900    274.50585   -936.40477    140723.39   -43037.921    3769.6768   -46807.598    209.37913   0.97955653 
   16000    272.00488   -1006.0921     140578.4   -43104.963     3735.332   -46840.295    210.55219   0.98056685 
   16100    280.04328   -945.73962    140525.56   -43132.803    3845.7201   -46978.524    211.83963   0.98093557 
   16200    278.66825   -1127.4741    140691.39   -43051.935    3826.8374   -46878.772       213.71   0.97977936 
   16300    272.99404   -981.55898    140919.17   -42967.616    3748.9157   -46716.531    215.37611   0.97819564 
   16400    280.99986   -884.89252    140826.79   -42926.792    3858.8564   -46785.649    216.63294   0.97883735 
   16500    278.87782    -1087.091     140748.2   -42942.554    3829.7152    -46772.27    217.66738   0.97938384 
   16600    278.58115   -990.44896    140720.34    -42990.51    3825.6412   -46816.151    219.04635   0.97957774 
   16700    275.77829   -966.31833    140683.94   -42985.339    3787.1508   -46772.489     220.2091   0.97983123 
   16800    275.70446   -929.22446     140891.2   -42996.803    3786.1368    -46782.94    221.88553    0.9783898 
   16900    277.08111    -893.3221    141256.38   -43008.902    3805.0419   -46813.944    223.61737   0.97586044 
   17000    275.72964   -1163.1491    140904.56   -43014.215    3786.4826   -46800.698    224.93879   0.97829704 
   17100    274.86425   -953.17884    140607.94   -43070.718    3774.5985   -46845.317    225.84069   0.98036086 
   17200    275.05606   -974.14086    140866.96   -43000.971    3777.2326   -46778.204    227.48912   0.97855821 
   17300    276.54235   -1003.6092    141002.69   -42889.671    3797.6433   -46687.315    228.57017   0.97761624 
   17400    280.36095   -1077.8158    140879.19   -42957.881    3850.0826   -46807.964    230.37048   0.97847326 
   17500    276.90618   -928.59053    140660.99   -42948.333    3802.6396   -46750.973    231.51451   0.97999112 
   17600    273.85691   -864.86537    140827.54   -42996.338    3760.7652   -46757.103    233.66391    0.9788321 
   17700    275.04739   -958.84719     140602.7   -43018.441    3777.1135   -46795.554    234.97258   0.98039739 
   17800     273.2661    -1065.354     140444.6   -43002.917    3752.6518   -46755.569    235.93199   0.98150099 
   17900    275.44812    -839.5982    140324.37   -43075.609    3782.6166   -46858.226    237.17379   0.98234199 
   18000    273.57248   -1240.8001    140157.16    -43144.42    3756.8593    -46901.28    237.78558   0.98351394 
   18100    275.16343    -1226.937    139977.19   -43168.928    3778.7071   -46947.635    238.63448   0.98477844 
   18200    275.62141    -927.7622    140100.27   -43049.007    3784.9964   -46834.003    240.00813   0.98391325 
   18300    275.77451   -907.42366    140389.68   -43089.134    3787.0988   -46876.233    241.99739   0.98188494 
   18400    275.16447   -1030.2746    140691.69   -43119.841    3778.7214   -46898.562    243.40794   0.97977724 
   18500    280.85991   -749.50582    140569.77   -43047.656    3856.9345    -46904.59    244.21854   0.98062706 
   18600    275.15282   -961.85976    140595.01   -43013.605    3778.5615   -46792.166    245.06399   0.98045099 
   18700    275.80622   -1004.7316    140507.79   -42944.782    3787.5342   -46732.317     245.6118   0.98105963 
   18800     276.7969   -938.38732    140610.92   -42940.305    3801.1388   -46741.443    246.59318   0.98034004 
   18900    271.64567   -1030.0802    140610.31   -42990.671    3730.3991    -46721.07    247.29793   0.98034428 
   19000    275.08754   -926.59935    140897.78    -42980.95    3777.6649   -46758.615    248.97735   0.97834414 
   19100     274.6226   -1095.5647    140726.28   -43038.496    3771.2801   -46809.776    250.54786    0.9795364 
   19200    273.04111   -1081.9763    140658.71   -43032.858    3749.5622    -46782.42    252.47453   0.98000698 
   19300    274.04793   -990.74862    140485.33    -42974.52    3763.3884   -46737.909    253.81096   0.98121646 
   19400    274.72515   -1026.1886    140361.06   -42970.631    3772.6884    -46743.32    255.25899   0.98208519 
   19500    282.41587   -1117.2603    140396.39   -42978.391    3878.3019   -46856.693    256.63803   0.98183804 
   19600    276.74868   -1159.9559    140314.88   -42994.066    3800.4767   -46794.542    257.92499   0.98240843 
   19700    278.79377   -701.55135    140224.31   -42999.496     3828.561   -46828.057    258.57747    0.9830429 
   19800    275.28556   -855.85383    140453.15   -42915.216    3780.3842     -46695.6    260.29537   0.98144124 
   19900    284.51826   -991.95326    140701.11   -42925.074    3907.1731   -46832.247    261.75137   0.97971164 
   20000    282.03555   -1089.1961     140802.5   -42858.006    3873.0792   -46731.085    263.11799   0.97900618 
   20100    277.01471   -959.23527    140639.11    -42899.25      3804.13    -46703.38    264.64312   0.98014355 
   20200    282.66863   -992.46735    140455.87   -42878.336    3881.7729   -46760.109     265.9954   0.98142228 
   20300    281.24995   -746.39995     140477.2   -42837.091    3862.2908   -46699.382    266.94836   0.98127324 
   20400     277.6038   -1252.5579     140475.7   -42919.839    3812.2197   -46732.058    268.31815   0.98128373 
   20500    274.95862   -885.04059    140627.34   -42848.706    3775.8945     -46624.6    269.64365    0.9802256 
   20600    275.94933   -855.53469    140979.19   -42908.582    3789.4995   -46698.082    271.46565   0.97777918 
   20700    278.01992   -1162.8267    140983.56   -42944.046    3817.9341    -46761.98    273.18753   0.97774889 
   20800    274.90683   -1257.7634    140848.71   -42979.163    3775.1833   -46754.346    274.44158   0.97868495 
   20900    282.94852   -934.81643    140889.48   -43010.218    3885.6166   -46895.835    275.94128   0.97840175 
   21000    281.17899   -887.64064     140934.2   -42957.288    3861.3163   -46818.604    277.64968   0.97809131 
   21100    279.68981   -1017.8314    140736.85   -43039.104     3840.866    -46879.97    278.73188   0.97946287 
   21200    278.22391   -882.09878    140679.34   -43150.233    3820.7355   -46970.968    279.97494   0.97986325 
   21300    273.35073   -1105.0719    140582.66   -43192.947     3753.814   -46946.761     281.1956   0.98053713 
   21400    276.62879   -1153.8699    140486.93   -43115.506    3798.8303   -46914.336    282.41307   0.98120524 
   21500    280.06627   -912.87326     140623.8    -42970.12    3846.0358   -46816.156    284.37448   0.98025029 
   21600    276.09181    -1092.896    140828.74   -43064.172    3791.4561   -46855.628    285.91804   0.97882376 
   21700    278.08896   -1068.8064     140876.5   -43057.748    3818.8823    -46876.63    287.02671    0.9784919 
   21800    279.33864   -1245.7286    140862.01   -42955.992    3836.0436   -46792.036    288.26566   0.97859258 
   21900    279.45772   -1043.7055    140663.57   -42979.761    3837.6788    -46817.44    288.48668   0.97997311 
   22000    275.95425   -860.94068    140944.63   -42967.055    3789.5671   -46756.622    289.69875   0.97801891 
   22100    281.96949   -966.02112    141053.16    -42935.69    3872.1719   -46807.862    290.36481   0.97726644 
   22200    280.48425   -987.73858    140855.76   -42889.423    3851.7758   -46741.199    291.09234   0.97863599 
   22300    274.38688   -1099.4202     140876.7   -42868.366     3768.043   -46636.409    292.56394   0.97849056 
   22400    276.78145   -986.76788    140697.25   -43033.668    3800.9267   -46834.595    294.14878   0.97973856 
   22500    275.80803   -980.23489    140725.49   -43027.233    3787.5591   -46814.792    295.24146   0.97954193 
   22600    272.99359   -827.96579    140877.49   -43005.597    3748.9096   -46754.507     296.9288   0.97848505 
   22700    274.30814   -1124.5868    141009.21   -43010.123    3766.9617   -46777.085    298.00696   0.97757103 
   22800    270.89106   -962.00283    140711.42   -43097.822    3720.0363   -46817.858    298.61005   0.97963985 
   22900    276.80738   -833.04453    140862.25   -43152.817    3801.2828     -46954.1    300.08382   0.97859091 
   23000    278.12594   -1123.0939     140924.2   -43049.657    3819.3901   -46869.047    301.81337   0.97816072 
   23100      275.239   -1042.8836     140491.2    -43035.85    3779.7449   -46815.594    302.25696   0.98117543 
   23200    280.25172   -854.99211    140361.85   -43015.042    3848.5825   -46863.624    303.05791   0.98207967 
   23300    278.87601   -1058.6968    140319.42   -43044.945    3829.6905   -46874.635    303.18469   0.98237659 
   23400    272.96232   -1113.3337    140660.66    -43070.49    3748.4802   -46818.971    304.97047   0.97999338 
   23500    270.49653   -1064.7785    140543.12   -43045.576    3714.6185   -46760.195    306.13463   0.98081295 
   23600    273.37913   -1044.6929    140743.98   -43064.647     3754.204   -46818.851    308.17484   0.97941322 
   23700    274.35282   -1027.8273    140709.33    -43098.72    3767.5753   -46866.295    308.78619   0.97965442 
   23800    273.59357   -1098.4446    140579.78   -43067.191    3757.1489    -46824.34    310.00772   0.98055724 
   23900    276.20821   -1064.9883    140644.84   -43033.387    3793.0546   -46826.441    311.52641   0.98010359 
   24000    280.43595   -762.52655    140707.89   -42978.077    3851.1125    -46829.19    312.64653   0.97966444 
   24100     279.5201   -1063.2857    140769.15   -43048.524    3838.5354   -46887.059    312.94912   0.97923811 
   24200    279.95535   -955.91733    140612.69   -42948.427    3844.5126    -46792.94    313.68956   0.98032771 
   24300    276.20853   -914.10115    140801.66   -42993.439     3793.059   -46786.498    315.60093   0.97901201 
   24400    278.17514   -1095.5396    140536.92   -42916.477    3820.0656   -46736.543    316.34482   0.98085628 
   24500    278.96483   -840.44391    140428.73   -42973.748    3830.9101   -46804.658    318.23908   0.98161191 
   24600    275.23367   -1054.4995    140778.62   -42997.113    3779.6717   -46776.785    319.88545   0.97917227 
   24700     277.3868   -1043.4625    140638.04   -42947.847    3809.2398   -46757.087    320.39945   0.98015101 
   24800    275.62787   -1089.8856    140311.28   -42868.991     3785.085   -46654.076    321.35853   0.98243363 
   24900    281.55027   -927.82857    140227.13   -42969.418     3866.415   -46835.833    323.25209   0.98302316 
   25000    274.64879     -889.175    140501.82   -42987.283    3771.6397   -46758.923    324.80849   0.98110127 
   25100    275.94131   -839.26535    140646.02   -42973.919    3789.3894   -46763.308    326.90396   0.98009537 
   25200    277.69248    -922.1175    140872.29   -43024.724    3813.4375   -46838.161    328.85224   0.97852116 
   25300    276.95207   -1136.9027    140749.22   -43069.208    3803.2698   -46872.478    330.34276   0.97937678 
   25400    275.95149    -800.4889    140916.36   -43078.625    3789.5292   -46868.154    331.69313   0.97821513 
   25500    279.87838    -1027.282    140691.08   -43069.549    3843.4556   -46913.004    332.73381    0.9797815 
   25600    274.76529   -961.22443    140784.82   -43152.053    3773.2396   -46925.293    334.10589   0.97912911 
   25700    271.92372   -879.40386       141076   -43126.383    3734.2175     -46860.6    335.84926   0.97710817 
   25800    272.48555   -979.11208    140758.57   -43103.658    3741.9328    -46845.59    336.46307   0.97931173 
   25900    266.27516   -850.36488    140623.95   -43238.342    3656.6481    -46894.99    337.20525   0.98024921 
   26000    275.09841    -1099.734    140658.21   -43073.149    3777.8142   -46850.964    338.43226   0.98001043 
   26100    276.16299   -1067.3283    140621.63   -43149.908    3792.4337   -46942.342    340.18121   0.98026541 
   26200    277.70279   -999.35382    140707.32   -43026.651     3813.579    -46840.23    342.08837   0.97966839 
   26300    281.43973   -944.60322     140737.2   -42990.334     3864.897   -46855.231    343.93132    0.9794604 
   26400    274.54709   -977.40349    140837.53   -43063.129    3770.2432   -46833.373    345.31415   0.97876266 
   26500    278.51039   -1157.8774    140464.97   -42915.129    3824.6695   -46739.799    345.80643   0.98135867 
   26600    282.02945    -1115.711    140452.49   -42931.762    3872.9954   -46804.757    347.49075   0.98144584 
   26700    276.03752   -821.79498    140468.02   -42971.364    3790.7106   -46762.074    348.93613   0.98133735 
   26800    281.15966   -1072.8344    140733.08   -42938.214    3861.0509   -46799.265    351.15608   0.97948906 
   26900    275.64726   -824.59408    140807.33   -43022.514    3785.3513   -46807.865    353.26221   0.97897257 
   27000    272.87198   -1003.1821    140629.36   -43035.222    3747.2395   -46782.462    354.26053   0.98021152 
   27100    277.09109   -923.36417    140974.27   -43062.319    3805.1788   -46867.498    356.80649   0.97781328 
   27200    278.45749   -1086.9678    141202.68   -42970.139     3823.943   -46794.082    358.90875   0.97623158 
   27300    283.78262   -1113.1742     140816.8   -42946.229    3897.0709     -46843.3      358.843   0.97890673 
   27400    281.70491   -1141.9118    140961.37    -42932.87    3868.5386   -46801.409    361.19065   0.97790278 
   27500     278.6754   -1040.6582     141019.8   -43018.266    3826.9356   -46845.202    362.94692   0.97749761 
   27600    278.49053   -808.62004    141140.19   -42969.233    3824.3967    -46793.63    364.52387   0.97666379 
   27700     277.5807    -1002.496    141350.84   -42977.461    3811.9025   -46789.363    366.50875   0.97520832 
   27800    275.94766   -986.11074    140837.56   -42948.629    3789.4766   -46738.106    367.19759   0.97876244 
   27900     277.3625   -930.51478    140820.51   -42969.256     3808.906   -46778.162    369.14302   0.97888099 
   28000    280.67608   -882.63302    140995.44   -42842.675      3854.41   -46697.085    371.12969   0.97766652 
   28100    278.54686   -1113.7777    140777.59   -42915.071    3825.1704   -46740.241    372.18962   0.97917939 
   28200    277.07285   -1001.0652    140821.48   -43017.924    3804.9283   -46822.853    374.18764   0.97887419 
   28300    275.02257   -1046.2824    140589.33   -43082.866    3776.7727   -46859.638    375.67037    0.9804906 
   28400    281.83369   -1008.8606    141026.22   -42959.531    3870.3071   -46829.838    379.01587    0.9774531 
   28500    281.16561    -945.0606    141183.03   -42976.246    3861.1325   -46837.379    381.05577   0.97636746 
   28600    279.25296   -1014.9296    141282.08   -43028.417     3834.867   -46863.284    382.19234   0.97568292 
   28700    278.66422   -993.87561    141310.84   -43099.563    3826.7821   -46926.345    383.66806   0.97548437 
   28800    275.69917   -1175.1438    141140.06   -43087.419    3786.0641   -46873.483    384.84018   0.97666472 
   28900    272.24707   -1223.4545    140873.53   -43075.638     3738.658   -46814.296    385.68254   0.97851256 
   29000    279.40733   -1025.7479    140755.28   -43090.383    3836.9868    -46927.37    386.61404   0.97933459 
   29100    279.98644   -1146.2446    140857.91   -43032.674    3844.9395   -46877.613    387.88362   0.97862106 
   29200    277.66827   -1048.3441    140875.72   -43047.636    3813.1051   -46860.741    388.53569   0.97849732 
   29300    273.88885   -1005.6415    140854.76   -43076.644    3761.2037   -46837.847    390.37587   0.97864293 
   29400    276.92177   -1013.5728    141281.08   -43046.302    3802.8536   -46849.155    392.22374   0.97568985 
   29500    272.20438   -1108.6006    141016.79   -43075.465    3738.0717   -46813.537    393.22044    0.9775185 
   29600    279.16598   -884.40047     140869.1   -43045.887    3833.6725   -46879.559    394.26627   0.97854333 
   29700    274.62397   -829.72158    141015.99    -43018.48    3771.2989   -46789.779    395.68047   0.97752398 
   29800    276.14899   -766.81491    141066.42   -43010.036    3792.2414   -46802.277    396.15719   0.97717455 
   29900    278.32954   -948.31024       140652   -42945.476    3822.1859   -46767.662    397.48079   0.98005376 
   30000    278.48701   -1013.6964    140833.78   -42941.155    3824.3484   -46765.503    399.59062    0.9787887 
   30100    276.04936   -1044.6371    140538.72   -42935.382    3790.8732   -46726.255    401.21753   0.98084371 
   30200    279.28069   -1021.0974    140584.94   -42945.546    3835.2478   -46780.794    402.81412   0.98052125 
   30300    275.27029   -836.11232    140549.89   -42949.585    3780.1746    -46729.76     405.1269   0.98076574 
   30400    273.91628   -958.15516    140369.86   -43042.021    3761.5806   -46803.602    406.12283   0.98202359 
   30500    275.37381     -1137.35    140261.78   -43090.484    3781.5962    -46872.08    406.90642   0.98278029 
   30600    275.48718   -1018.2088    140279.39   -43061.643     3783.153   -46844.796    408.72818   0.98265692 
   30700    277.33614   -906.40744    140282.82    -43025.51     3808.544   -46834.054    410.83447   0.98263292 
   30800    277.73901   -895.26322    140534.81   -43011.471    3814.0765   -46825.548    413.41538   0.98087096 
   30900    275.78119   -1044.5707     141024.7   -42987.307    3787.1906   -46774.497    416.59183   0.97746363 
   31000    278.59864   -1028.0402    141102.84   -43017.672    3825.8814   -46843.553    418.74783   0.97692234 
   31100    273.38704   -1146.3124    141090.75   -43094.897    3754.3127   -46849.209    419.85527   0.97700606 
   31200    270.70316   -901.00509    140913.45   -43176.122     3717.456   -46893.578     421.1293   0.97823533 
   31300    278.21635   -1046.1601     140884.6   -43060.358    3820.6316    -46880.99    422.50295   0.97843567 
   31400    271.58187   -876.34183    140990.32   -43126.234    3729.5229   -46855.757    424.07005   0.97770198 
   31500    278.02157   -1057.8722    140918.91    -43012.24    3817.9567   -46830.197    425.20866   0.97819742 
   31600    275.27673   -1196.5158    140868.82   -42979.055     3780.263   -46759.318    426.97203   0.97854524 
   31700    279.09949   -1050.7179    140830.55   -42964.198    3832.7594   -46796.958    428.19294   0.97881115 
   31800    278.34118   -901.79505    140838.98   -43001.286    3822.3458   -46823.632    430.05875   0.97875257 
   31900    277.65508   -1012.0268    140729.77   -42964.783    3812.9239   -46777.707    431.96829   0.97951213 
   32000    279.66636   -907.44647    140775.49   -42959.736     3840.544    -46800.28    433.87372   0.97919401 
   32100    274.07589   -1013.3913    140988.41   -43015.136    3763.7724   -46778.908    436.24877   0.97771526 
   32200    277.94797   -842.17159    141180.79    -42949.37    3816.9461   -46766.316    438.02864   0.97638298 
   32300    280.46439   -928.35743    141303.04   -42972.761     3851.503   -46824.264    439.26936   0.97553825 
   32400    278.12818    -987.3905    141219.27   -42955.593    3819.4208   -46775.014    440.24542    0.9761169 
   32500    276.02544   -1085.8886    141412.97   -42973.881    3790.5448   -46764.426     441.8283   0.97477988 
   32600    274.94068   -924.50782    141145.16   -43011.617    3775.6481   -46787.265     442.5025   0.97662944 
   32700    280.54917    -1202.834    141402.32   -43004.728    3852.6672   -46857.395    445.03733   0.97485331 
   32800    275.07562   -997.12628    141387.41   -43059.902    3777.5012   -46837.403     446.0835   0.97495608 
   32900    273.32362    -1037.419    141061.64   -43147.063    3753.4417   -46900.504    447.06972   0.97720769 
   33000    280.10718   -1115.0326    140643.13   -43107.908    3846.5976   -46954.506      446.883   0.98011554 
   33100    275.99828    -1111.035    140858.18   -43169.319    3790.1718   -46959.491    449.27138   0.97861917 
   33200    272.38714   -884.00605    140784.64   -43048.951    3740.5815   -46789.533    450.73721   0.97913039 
   33300    278.53263   -1045.6115    140732.36   -43028.017     3824.975   -46852.992    451.82396   0.97949412 
   33400    279.16561   -1105.9788    140626.94   -43082.219    3833.6674   -46915.886    452.44721    0.9802284 
   33500    277.50396   -978.10009    140382.18   -42969.208    3810.8486   -46780.057    453.43642   0.98193744 
   33600    278.10059   -890.57749    140514.53   -42996.045    3819.0419   -46815.087    455.24839   0.98101256 
   33700    273.90332   -875.51046    140656.96   -42984.776    3761.4025   -46746.178    458.41672   0.98001919 
   33800    281.43429   -837.95496    140692.84   -42954.873    3864.8223   -46819.696    459.71721   0.97976921 
   33900      279.771   -1060.8805    140590.74   -42997.101    3841.9809   -46839.082    460.64146   0.98048078 
   34000    274.68983   -930.82853    140558.47   -42995.654    3772.2033   -46767.858    461.76339   0.98070586 
   34100    276.39635   -1096.3701    140752.13   -43036.662    3795.6382   -46832.301    464.03549   0.97935654 
   34200    279.46815   -1017.4903    140822.43   -43023.397    3837.8221   -46861.219    465.84533   0.97886764 
   34300    274.47894   -981.04248    140723.58   -43012.022    3769.3072   -46781.329    466.73484   0.97955523 
   34400    275.38638   -898.62986    140724.16   -42919.284    3781.7688   -46701.052    468.27736   0.97955115 
   34500    278.91735   -704.72023    140873.56   -42864.142    3830.2581     -46694.4    469.89893   0.97851237 
   34600    279.68169   -883.22919    140790.57   -42905.599    3840.7546   -46746.354    470.91425   0.97908916 
   34700    276.03591   -903.84026    140891.11   -42961.029    3790.6885   -46751.718    473.14643   0.97839044 
   34800    277.78779   -969.16596    140922.27   -42984.711    3814.7463   -46799.458    474.78966   0.97817409 
   34900    277.00367   -1044.7752    141023.58   -42990.667    3803.9784   -46794.646    476.49875   0.97747138 
   35000    275.72588   -1059.1689    140859.54   -43035.321     3786.431   -46821.752    477.51464   0.97860973 
   35100    280.32144   -919.00592    140679.96   -42983.916    3849.5399   -46833.456    478.93531   0.97985898 
   35200    282.56433    -1017.198    140984.09   -42908.133    3880.3406   -46788.473    481.90724   0.97774518 
   35300    272.68139   -886.14886     141037.8   -42926.695    3744.6222   -46671.317    483.28375   0.97737284 
   35400    275.32843   -1014.7754     140814.7   -43017.744     3780.973   -46798.717    484.80351   0.97892138 
   35500    281.89454   -942.43322     140950.6    -43007.94    3871.1426   -46879.083    486.20353   0.97797754 
   35600    270.72298    -898.4731    140990.48   -43058.041    3717.7282    -46775.77    487.56034   0.97770087 
   35700    275.45491   -1093.2171    140914.91   -43012.801    3782.7098   -46795.511    488.40027   0.97822521 
   35800    280.05442   -902.88131    141194.28   -43005.923    3845.8731   -46851.796    490.30195   0.97628964 
   35900    280.72147   -1104.4108     141038.6   -42994.872    3855.0333   -46849.905    491.41837   0.97736732 
   36000     272.2229   -1157.1884    140864.37   -43018.246    3738.3259   -46756.571    492.09016   0.97857619 
   36100    280.26024   -998.48724    140764.21    -43052.46    3848.6994   -46901.159    493.12801   0.97927249 
   36200     279.2806   -893.81288    140819.02   -43024.621    3835.2465   -46859.867    494.51588   0.97889132 
   36300    277.45617   -964.48076    140969.72    -43012.09    3810.1924   -46822.282    496.09501   0.97784488 
   36400    278.88132   -1113.7673    141002.75   -43012.107    3829.7634    -46841.87    497.93814   0.97761584 
   36500    278.35558   -966.68775    140978.69   -42933.888    3822.5436   -46756.431    499.78837   0.97778268 
   36600     273.0629   -960.88371    141121.75   -42999.694    3749.8614   -46749.556    501.24166   0.97679147 
   36700    276.08086   -953.79107    140930.35   -42990.172    3791.3058   -46781.478    503.19304   0.97811802 
   36800    274.85628   -885.98522     140712.9   -43052.658    3774.4892   -46827.148    504.50478   0.97962957 
   36900    268.35089   -888.78274    140691.93   -43070.102    3685.1533   -46755.256    505.92585   0.97977555 
   37000    278.97297   -1146.6804    140691.87   -43008.638     3831.022    -46839.66    507.73671   0.97977602 
   37100    274.35762   -1021.6476    140453.29   -43071.768    3767.6413   -46839.409    508.20523    0.9814403 
   37200    275.82356   -896.95924    140344.76   -43066.635    3787.7723   -46854.407    509.51698   0.98219921 
   37300    282.32988   -1082.5142    140525.83   -43069.296     3877.121   -46946.416    511.53418   0.98093366 
   37400    272.99009   -1089.0481     140503.9   -43129.739    3748.8615     -46878.6    513.13701   0.98108678 
   37500    273.75634   -1023.0703    140526.16   -43170.015     3759.384   -46929.399    513.40673   0.98093134 
   37600    277.78087   -904.76604    140258.62   -43097.811    3814.6513   -46912.462    513.94692   0.98280246 
   37700    277.49523   -983.54068    140284.38   -43131.984    3810.7288   -46942.713     515.9589   0.98262201 
   37800     275.3831   -1045.0863    140405.18   -43172.177    3781.7237   -46953.901    518.52627   0.98177654 
   37900    271.03557   -792.78427    140495.86   -43149.657    3722.0209   -46871.678    520.24277   0.98114293 
   38000    278.18775   -991.26678    140955.19   -43131.718    3820.2389   -46951.957    521.78503   0.97794563 
   38100    275.17598   -818.09619    141305.75     -43142.6    3778.8795   -46921.479    524.06318   0.97551954 
   38200    273.76059   -916.89844    141109.45   -43160.372    3759.4425   -46919.815    524.83267   0.97687661 
   38300    276.21645   -1050.3209    140991.86   -43192.419    3793.1677   -46985.586    526.02349   0.97769131 
   38400    273.47244   -1011.9454    141023.31   -43237.168    3755.4855   -46992.653    527.57101   0.97747326 
   38500    268.47514    -1104.935    140968.97   -43251.538    3686.8596   -46938.397    528.95404   0.97785005 
   38600    276.32745   -1016.1935    140939.35   -43166.785     3794.692   -46961.477     529.4109   0.97805556 
   38700    276.36128   -1055.8202    141031.39    -43114.61    3795.1566   -46909.766    530.93826   0.97741725 
   38800    273.04705   -836.51743     140867.5   -43032.424    3749.6437   -46782.067    531.86668   0.97855442 
   38900    278.87915   -1197.5432    141019.93   -42916.777    3829.7335    -46746.51    532.82207   0.97749673 
   39000     276.4761   -1019.4891    140986.84    -42965.68    3796.7335   -46762.413    533.67202   0.97772611 
   39100    278.44583   -989.62406    140807.78   -42948.943    3823.7829   -46772.726    535.20991   0.97896943 
   39200    279.48978   -840.14579    140942.84   -42992.014    3838.1191   -46830.133    536.35103   0.97803136 
   39300    278.58174   -1049.8964    141060.38   -42942.157    3825.6494   -46767.806    538.56532    0.9772164 
   39400    278.49944   -1001.6466    141156.32   -42942.855    3824.5191   -46767.374    540.46651   0.97655223 
   39500    282.14728    -1012.794    140935.12   -42925.893    3874.6135   -46800.507    541.29998   0.97808493 
   39600    277.63972   -1028.5408    140698.34   -42959.857     3812.713    -46772.57    542.48757   0.97973091 
   39700    280.40277   -1022.0152    140709.83   -42968.247    3850.6567   -46818.903    543.53291   0.97965094 
   39800     277.1253   -1185.2339    140523.95   -42996.199    3805.6487   -46801.847    544.71586   0.98094682 
   39900    273.53961   -999.87768    140409.52   -43104.492    3756.4078     -46860.9    545.99768    0.9817462 
   40000    274.82363   -929.04369    140419.19   -43120.011    3774.0408   -46894.052    546.69293    0.9816786 
   40100    277.70884   -1151.5653    140460.39   -43035.699    3813.6621   -46849.361    547.14672    0.9813907 
   40200    280.89732   -1101.6463    140519.13   -42981.059    3857.4483   -46838.507    548.90998   0.98098041 
   40300    282.38689   -927.15772    140651.99   -42961.237     3877.904   -46839.141    550.40386    0.9800538 
   40400    277.34143   -953.61612    140731.11   -42959.825    3808.6167   -46768.441    552.20609   0.97950278 
   40500    275.96541   -1092.0857    140633.37    -43000.86    3789.7204    -46790.58    553.68699   0.98018354 
   40600    278.43975   -1113.9474    140718.05   -42944.171    3823.6995    -46767.87    555.34699   0.97959369 
   40700    278.88567   -942.59817    140673.06   -43014.401     3829.823   -46844.224    555.40519   0.97990698 
   40800    274.04367   -1021.9203    140888.92    -43022.83    3763.3299    -46786.16    556.83704   0.97840563 
   40900    273.99931   -1067.4641    140851.52    -43002.44    3762.7206    -46765.16    558.04798   0.97866548 
   41000    278.62717   -1076.5148       140757   -43035.576    3826.2732   -46861.849    559.78169   0.97932262 
   41100    276.81844   -761.27348    140628.36   -43112.092    3801.4347   -46913.526    560.96323   0.98021844 
   41200    276.93567   -1064.7418    140658.09    -42997.93    3803.0446   -46800.975    562.47642   0.98001131 
   41300    273.67339   -1071.5453    140681.01    -43079.97    3758.2449   -46838.215     563.5325   0.97985161 
   41400     272.8109   -1324.9609    140382.29   -43083.607    3746.4008   -46830.008    564.03857   0.98193669 
   41500    274.51264    -1129.076    140410.48   -43077.311      3769.77   -46847.081    566.10207   0.98173948 
   41600    278.30724   -954.09951    140103.17   -43038.378    3821.8797   -46860.258    566.87785   0.98389292 
   41700    271.03036   -1093.2594    140188.07   -43166.673    3721.9494   -46888.623    569.40807   0.98329703 
   41800    281.64813   -1121.6028    140305.35   -43052.078    3867.7588   -46919.837    571.60348   0.98247509 
   41900     281.7069   -910.59577    140514.58   -43011.671    3868.5659   -46880.237    573.73116   0.98101217 
   42000    276.40386   -964.60619    140819.53   -43085.645    3795.7415   -46881.387    575.58961   0.97888778 
   42100    273.81893   -775.59884    140876.25   -43015.725    3760.2437   -46775.969    576.85925   0.97849366 
   42200    278.56068   -1071.6904    141075.46   -43001.119    3825.3601   -46826.479    578.78397   0.97711194 
   42300    274.27303   -762.08589    140967.19    -43077.16    3766.4795   -46843.639    580.44438   0.97786241 
   42400    271.83561   -896.61497    140818.43   -43134.776    3733.0074   -46867.783    582.13512   0.97889539 
   42500    276.98642   -1143.5905    140616.56   -43103.301    3803.7415   -46907.043     582.8866   0.98030077 
   42600    272.30225   -836.72661    140430.27   -43157.317    3739.4157   -46896.733    583.40406   0.98160114 
   42700    275.45098   -1023.3499    140536.54   -43112.057     3782.656   -46894.713    585.40074   0.98085892 
   42800    268.88842   -1033.8447    140684.36   -43219.619     3692.535   -46912.154    587.24477   0.97982832 
   42900      275.589   -988.88731    140594.71   -43121.813    3784.5512   -46906.364    588.97884   0.98045307 
   43000    276.74143    -1023.582    140739.26   -43071.489    3800.3772   -46871.866    590.60717   0.97944609 
   43100    274.84803   -1125.1194    140565.41   -43091.482    3774.3758   -46865.858    591.89656   0.98065747 
   43200    276.43971   -1099.3055    140617.83   -43027.189    3796.2338   -46823.423    593.09876   0.98029189 
   43300    275.45073   -1144.4271    140538.47   -43089.273    3782.6524   -46871.926    594.65643   0.98084545 
   43400    271.51714   -1291.3996    140368.87   -43147.863    3728.6341   -46876.497    596.40432   0.98203054 
   43500    273.56047   -918.42137    140444.61   -43107.275    3756.6942   -46863.969    599.63691   0.98150096 
   43600    276.41712   -916.72313    140771.51   -43055.203    3795.9235   -46851.127     601.9354   0.97922167 
   43700    275.10999   -826.49195    140691.06   -43095.094    3777.9732   -46873.067    603.56473   0.97978165 
   43800    277.80592   -906.91834    140958.57   -43020.694    3814.9954   -46835.689    604.95042   0.97792224 
   43900    281.54865   -952.56512    140874.48   -43038.662    3866.3927   -46905.054    605.11677   0.97850595 
   44000    279.62079   -953.90571    140796.45   -43063.705    3839.9182   -46903.624    606.26197   0.97904822 
   44100    275.69659   -933.96942    140694.65   -43018.554    3786.0288   -46804.582    607.86761   0.97975661 
   44200    276.69613   -1138.2565    140832.92   -43034.419     3799.755   -46834.174    610.12502    0.9787947 
   44300     272.8012   -993.89353    140497.43   -43163.955    3746.2675   -46910.223    609.75754   0.98113191 
   44400    278.87023   -1092.6747    140566.98   -43161.799    3829.6111    -46991.41    612.93349    0.9806465 
   44500    273.45315   -812.05571    140797.46   -43230.429    3755.2205   -46985.649    615.68948   0.97904122 
   44600    270.21279   -1006.4863    140970.72   -43175.168    3710.7219    -46885.89    617.19174    0.9778379 
   44700    274.06636   -926.61687       140822   -43235.294    3763.6415   -46998.935    618.00395   0.97887059 
   44800    272.80543   -868.75881    140798.21    -43169.57    3746.3257   -46915.896    619.13411   0.97903598 
   44900    274.10458   -1122.8354    140903.05   -43148.732    3764.1664   -46912.899    619.79959   0.97830752 
   45000    275.42887   -784.69791    140928.62    -43130.75    3782.3522   -46913.102    621.69824   0.97813007 
   45100    276.15913   -1122.6263    140599.84   -43161.182    3792.3806   -46953.563    622.02979   0.98041734 
   45200    273.82825   -959.42331    140403.47   -43132.686    3760.3717   -46893.058    622.52177   0.98178855 
   45300    277.52637   -1077.6278    140620.05   -43113.223    3811.1564   -46924.379    625.34713   0.98027638 
   45400    273.60249   -964.36644    140832.74   -43129.778    3757.2714   -46887.049    627.04725   0.97879593 
   45500    274.26324   -1008.7758    140955.13   -43081.184    3766.3451   -46847.529    629.09715    0.9779461 
   45600    273.48288   -962.63216    140644.99   -43075.567    3755.6288   -46831.196    628.53513   0.98010257 
   45700    273.08383   -962.55266    140649.43   -43096.683    3750.1488   -46846.832    629.70637   0.98007161 
   45800    283.02299   -999.08276    140721.47    -42970.21    3886.6392   -46856.849    631.10714    0.9795699 
   45900    277.76936   -1052.4462    140531.72   -43035.328    3814.4933   -46849.821    631.53019   0.98089254 
   46000    276.71339   -983.05651    140735.09   -43067.657    3799.9921   -46867.649     632.7741   0.97947513 
   46100    273.85222   -901.25877    140763.77   -43099.922    3760.7008   -46860.623    633.09745   0.97927557 
   46200    276.50065   -1112.7442    140667.61   -43050.072    3797.0706   -46847.143    634.53623   0.97994494 
   46300    282.37031   -914.62512    140859.93   -43016.284    3877.6763    -46893.96    636.32975     0.978607 
   46400    276.32306   -952.56611    140968.36   -43008.433    3794.6318   -46803.064    638.11936   0.97785429 
   46500    277.43361   -1121.9415    140858.41   -43050.725    3809.8825   -46860.607    639.45374   0.97861759 
   46600    276.82192   -935.49423    140854.93    -42952.05    3801.4825   -46753.533    641.46365   0.97864173 
   46700    282.15386   -1122.1564    140877.18   -42969.487    3874.7038   -46844.191    642.92338   0.97848722 
   46800    281.37458   -973.17102    140701.13   -42908.839    3864.0022   -46772.841    643.53657   0.97971148 
   46900    280.33022   -905.35973    140633.79   -42954.097    3849.6605   -46803.757    646.30857   0.98018064 
   47000    277.15144   -966.52657    140602.73   -42987.492    3806.0077     -46793.5    646.93905   0.98039714 
   47100    282.20274   -1098.7853    140522.99   -42998.331    3875.3751   -46873.706    647.57492   0.98095346 
   47200    276.62639   -1245.3564    140410.87   -42974.247    3798.7973   -46773.044    648.85144   0.98173678 
   47300    278.15704   -825.04766    140443.57   -42981.264    3819.8171   -46801.082    650.30428   0.98150823 
   47400    283.57876   -974.00426    140724.69   -42967.531    3894.2714   -46861.802    652.88053   0.97954749 
   47500    274.18252   -931.22989    140788.18   -42979.419    3765.2366   -46744.656    654.82614   0.97910577 
   47600    277.34418   -1031.7029    140812.94   -42949.259    3808.6544   -46757.913     657.8039    0.9789336 
   47700    277.34231   -1140.9578    140837.61   -42984.281    3808.6287   -46792.909    660.82053    0.9787621 
   47800    272.48964   -751.52662    140667.08   -43034.464     3741.989   -46776.453    661.87246   0.97994866 
   47900    276.51935     -941.515    140538.87   -43023.392    3797.3274    -46820.72    664.52508   0.98084264 
   48000    272.84464   -915.30083    140574.16   -43120.231    3746.8641   -46867.095    665.17645   0.98059639 
   48100    275.32407   -990.27885    140635.58   -43093.465    3780.9131   -46874.378    666.02315   0.98016814 
   48200    274.46467   -1164.4002    140615.84   -43046.346    3769.1113   -46815.458    668.45555   0.98030575 
   48300    277.67332   -1053.2214    140461.67   -43027.669    3813.1743   -46840.843    668.82271    0.9813817 
   48400    278.91157   -1076.6972    140485.84   -42994.655    3830.1787   -46824.833    670.41098   0.98121285 
   48500    280.21226   -1187.1245    140515.14    -43024.01    3848.0407   -46872.051     670.5031   0.98100828 
   48600    274.39276   -919.38027    140513.55   -43066.302    3768.1238   -46834.425    671.58592   0.98101942 
   48700    271.39155   -1013.3701    140528.51   -43076.116    3726.9094   -46803.025    673.83923   0.98091494 
   48800    275.90135   -1002.9273    140378.29   -43065.438    3788.8406   -46854.279    674.89708   0.98196464 
   48900    281.71604   -977.74817    140377.09   -43039.888    3868.6914    -46908.58    675.61843   0.98197301 
   49000    278.26035   -1002.3161    140302.63   -43078.406    3821.2358   -46899.642    676.08514   0.98249417 
   49100     280.1128    -1015.807    140561.44   -43076.369    3846.6748   -46923.043    677.68457   0.98068517 
   49200    270.96357   -1092.0735    140607.05   -43186.401    3721.0321   -46907.433    679.77569   0.98036701 
   49300    272.78017   -991.76413    140814.09   -43166.691    3745.9787    -46912.67    682.08446    0.9789256 
   49400    273.68993   -987.91091    140732.22    -43066.78    3758.4722   -46825.252    683.83988   0.97949507 
   49500    278.91353   -746.12584    140930.07    -43036.85    3830.2057   -46867.056    685.35261   0.97811994 
   49600      275.394   -1032.6665    140761.05   -43096.198    3781.8734   -46878.071     685.8728   0.97929449 
   49700    277.42393   -1108.8025    140743.41   -43059.236    3809.7497   -46868.985    686.78867   0.97941718 
   49800    277.09633   -1026.7165    140616.79   -42957.247    3805.2508   -46762.498    687.05676   0.98029915 
   49900    276.39931   -985.09864    140802.86   -43040.206     3795.679   -46835.885    688.11366   0.97900367 
   50000    281.36273   -1097.4606    140767.78   -43084.841    3863.8395    -46948.68    689.19077   0.97924762 
   50100     277.1018    -1238.008     140577.8   -43153.009     3805.326   -46958.335    689.05465   0.98057105 
   50200    276.78456   -1056.5234    140954.19   -43086.806    3800.9694   -46887.775    690.73404   0.97795257 
   50300    276.90894    -966.3469    141188.91    -43083.68    3802.6774   -46886.358    692.86371    0.9763268 
   50400    278.61722   -1131.0978    141012.51   -43067.551    3826.1365   -46893.687    692.80988   0.97754816 
   50500    269.58024   -983.90824    141189.62   -43089.716    3702.0355   -46791.752    695.15596   0.97632186 
   50600    272.54135     -1075.88    141043.77   -43077.399    3742.6991   -46820.098    695.73172   0.97733151 
   50700    275.36724   -1058.8186     140872.5   -43077.801     3781.506   -46859.307    696.18215   0.97851968 
   50800    275.62384   -877.01389    140746.87   -42971.446    3785.0297   -46756.475    697.58002    0.9793931 
   50900    276.45725   -944.58509    141008.81   -42975.013    3796.4746   -46771.487    699.05479   0.97757381 
   51000    277.62264   -990.21418     141039.9    -43000.97    3812.4784   -46813.448    700.29519   0.97735829 
   51100    273.87982   -995.63067    141336.36   -43022.323    3761.0798   -46783.403    703.22406   0.97530824 
   51200     271.3853   -1121.6114    141307.83   -42929.161    3726.8235   -46655.984    704.32782   0.97550515 
   51300     279.5014   -1193.1417    140866.15   -42839.809    3838.2786   -46678.088    704.72933   0.97856379 
   51400    274.99264   -967.40346    140726.47   -43036.355    3776.3616   -46812.717    705.56288    0.9795351 
   51500    273.48892   -1143.5015    140396.45   -43065.343    3755.7118   -46821.055    705.75276    0.9818376 
   51600    272.98474   -1068.7525    140439.04   -43053.796     3748.788   -46802.584    707.18043   0.98153986 
   51700    275.27227   -853.16839    140535.82   -43025.326    3780.2017   -46805.528    709.03251    0.9808639 
   51800    272.38965   -1084.7227    140731.81   -43057.172    3740.6159   -46797.788    712.12695   0.97949793 
   51900    271.12539   -1033.9347     140763.4   -43115.546    3723.2544     -46838.8    714.19315   0.97927809 
   52000     273.9727   -837.08966    140764.67   -43111.385    3762.3553    -46873.74    715.75255   0.97926929 
   52100    273.43255   -858.09632    140542.39   -43074.626    3754.9377   -46829.564    716.33597   0.98081807 
   52200    275.56335   -850.47947    140721.54   -43182.108     3784.199   -46966.307    718.34538   0.97956938 
   52300     277.2144   -800.75698    140889.95   -43080.715    3806.8723   -46887.587    720.05197    0.9783985 
   52400    280.48382   -991.40876    140963.95   -42992.502    3851.7698   -46844.272    721.21172    0.9778849 
   52500    277.63613   -1035.5276    141093.06   -43003.546    3812.6637    -46816.21    723.23679   0.97699007 
   52600    276.38581   -1116.2414    140869.19   -43086.058    3795.4936   -46881.552    723.79843   0.97854267 
   52700    281.03108   -1045.7666     140535.5   -43085.686    3859.2851   -46944.971     723.4909   0.98086618 
   52800    274.76991   -977.60098    140460.25   -43129.753     3773.303   -46903.056    725.06171   0.98139168 
   52900    270.82781   -870.17391    140535.66   -43193.966    3719.1678   -46913.134    726.11838   0.98086502 
   53000    272.80626   -993.98119    140861.02   -43232.991     3746.337   -46979.328    727.71373   0.97859947 
   53100    271.61197   -1145.7718    140736.79   -43264.814    3729.9363   -46994.751    728.74701   0.97946325 
   53200    274.88224   -1068.3477    140450.26   -43108.734    3774.8456   -46883.579    729.54391   0.98146148 
   53300    271.32464   -1024.8592    140719.77   -43140.891    3725.9905   -46866.881    732.51552   0.97958171 
   53400    278.19816   -1153.2008    140719.46   -43062.609    3820.3819    -46882.99    733.99496   0.97958388 
   53500    277.71189   -1118.3481    140481.78   -43011.129     3813.704   -46824.833    734.64173   0.98124127 
   53600    282.00702   -879.44381    140500.44    -43018.26    3872.6873   -46890.947    736.79455   0.98111091 
   53700    281.31258   -1021.4094    140562.77   -42961.472    3863.1509   -46824.623    738.70354   0.98067588 
   53800    275.75215    -961.5537    140778.03   -43135.841    3786.7918   -46922.633    740.44411   0.97917637 
   53900    275.01602   -942.32504    140667.74   -43143.116    3776.6827   -46919.799    742.28785   0.97994404 
   54000    274.55032   -871.26161    140445.21   -43149.449    3770.2875   -46919.737    742.01586   0.98149678 
   54100    278.93323   -1044.7135     140425.5   -43107.254    3830.4761   -46937.731    743.64538    0.9816345 
   54200     278.8499   -862.70465    140600.44   -43038.734    3829.3319   -46868.066    745.30262   0.98041314 
   54300     274.0147   -961.81475    140786.71   -43075.842     3762.932   -46838.774    747.81614   0.97911595 
   54400    276.10234   -1058.2384    140836.24   -43046.349    3791.6008    -46837.95    748.96262   0.97877161 
   54500    280.43169   -1010.2701    140937.09    -43093.96     3851.054   -46945.014    750.65324   0.97807129 
   54600    273.97324   -939.60443    141124.42   -43073.288    3762.3627    -46835.65    752.37566   0.97677297 
   54700    275.05172   -973.02095     141125.9   -43061.487     3777.173    -46838.66    753.18189    0.9767627 
   54800    270.39161   -1005.4192    141170.72   -43076.446    3713.1777   -46789.623     754.7569    0.9764526 
   54900    275.75341   -897.91318    140899.51    -42998.28     3786.809   -46785.089    755.20137   0.97833214 
   55000    277.48299    -813.6301    140969.91   -42989.568    3810.5607   -46800.128    757.10574   0.97784354 
   55100     276.7843    -826.0064     141009.9   -42918.992    3800.9659   -46719.958    758.82538    0.9775662 
   55200    278.28867   -933.07691    140846.74   -42981.198    3821.6248   -46802.822    759.32114   0.97869868 
   55300    278.33647   -938.42403    140634.72   -42965.685    3822.2812   -46787.966     760.7158   0.98017411 
   55400    275.22044   -990.44695    140704.41   -42989.742    3779.4899   -46769.232     762.0397   0.97968865 
   55500     276.8578   -775.66873    140625.95   -42969.716    3801.9752   -46771.692    762.22123   0.98023529 
   55600    278.17943   -951.11723    140601.56   -42973.888    3820.1245   -46794.012    763.01946   0.98040534 
   55700     274.7205   -929.79012    140518.25   -43000.699    3772.6245   -46773.324    765.21401    0.9809866 
   55800    278.22991   -963.76342    140603.56   -43021.657    3820.8178   -46842.475    767.28445   0.98039136 
   55900     276.7489   -1012.2737    140523.71   -43104.211    3800.4796   -46904.691    768.34884   0.98094848 
   56000    271.08323   -936.58804    140704.75   -43150.314    3722.6753   -46872.989    769.64744   0.97968629 
   56100    272.38728   -864.18607    140871.08   -43100.611    3740.5833   -46841.194    771.69305   0.97852959 
   56200    277.43988   -863.04324     140700.7   -43076.741    3809.9687    -46886.71    773.60841   0.97971448 
   56300    275.79108   -1044.7138    140770.86   -43023.881    3787.3263   -46811.208    774.09055    0.9792262 
   56400    275.15533   -924.82877    140974.37     -42975.7    3778.5959   -46754.296    776.81312    0.9778126 
   56500    278.20002   -1024.7051    141074.75   -42946.994    3820.4073   -46767.401    778.08399   0.97711686 
   56600     284.8511   -1019.3162    141114.64    -42938.01     3911.744   -46849.754    778.45373   0.97684066 
   56700      277.623   -1017.4084    141203.55   -42979.223    3812.4834   -46791.706    779.75699   0.97622559 
   56800    284.08989   -1065.5365    141182.14   -42965.312    3901.2905   -46866.603    780.79279   0.97637361 
   56900    274.61609   -885.12884    140909.37   -43060.046    3771.1907   -46831.236    780.58373   0.97826363 
   57000    272.51942    -738.6279    141171.34   -43148.551     3742.398   -46890.949    782.06531   0.97644834 
   57100     273.9857    -1007.509    141206.18   -43134.777    3762.5338   -46897.311    784.49323   0.97620741 
   57200    270.33086   -958.68252    140897.31   -43208.981    3712.3434   -46921.325    784.93562   0.97834742 
   57300    269.81564   -1006.2575    140829.64   -43244.936     3705.268   -46950.204    786.67985   0.97881752 
   57400    275.50969   -830.87462    140772.16   -43177.373    3783.4621   -46960.836    787.93874   0.97921715 
   57500    274.65764   -1117.4311    140889.62   -43135.088    3771.7613   -46906.849    790.46629   0.97840077 
   57600    266.19758   -1124.1527    140777.23   -43195.829    3655.5827   -46851.412    792.06968    0.9791819 
   57700    271.08077   -808.55627    140563.68   -43176.481    3722.6416   -46899.123    793.53732   0.98066953 
   57800    280.28431     -957.216    140626.19   -43048.367      3849.03   -46897.397    795.74153   0.98023363 
   57900    269.51203   -991.23486    140839.69   -43037.119    3701.0987   -46738.218    798.09251   0.97874763 
   58000    270.81966   -1048.1444    140636.11   -43144.951    3719.0558   -46864.007    799.07025   0.98016445 
   58100    275.42913   -1084.3334     140603.7   -43060.226    3782.3558   -46842.582    799.45045   0.98039041 
   58200    276.61824   -1185.2978    140567.09   -43059.773    3798.6854   -46858.459    799.41486   0.98064573 
   58300    279.68241   -1104.7051     140439.1   -43152.862    3840.7644   -46993.626    798.90356   0.98153943 
   58400    275.37428   -899.08109    140499.29   -43082.205    3781.6026   -46863.808    800.97139   0.98111898 
   58500    275.22439   -906.71774    140570.21    -43000.06    3779.5443   -46779.605    803.06099   0.98062399 
   58600    280.48133   -1017.2859    140622.49   -43055.855    3851.7356    -46907.59     804.3915    0.9802594 
   58700    279.75561   -1166.5164    140436.16   -42988.403    3841.7697   -46830.173    804.34458   0.98155997 
   58800    277.57457   -952.49874    140516.32   -43054.233    3811.8183   -46866.051     806.0361   0.98100002 
   58900    281.28663    -1120.085    140664.28   -42972.708    3862.7946   -46835.503    808.74466   0.97996814 
   59000    275.45912   -1000.7257     140579.8   -43021.033    3782.7677   -46803.801     810.0907   0.98055708 
   59100    275.20766   -883.50675    140759.38   -43028.377    3779.3145   -46807.691    812.59606   0.97930607 
   59200    273.94554   -839.41335    140653.94   -43058.518    3761.9824     -46820.5     814.2739   0.98004018 
   59300    274.27953   -975.21713    140494.65   -43069.579    3766.5689   -46836.148     814.7788   0.98115133 
   59400    276.82313   -935.77666    140568.44    -42991.22    3801.4991   -46792.719    816.74781   0.98063631 
   59500     275.0724   -910.89669    140244.05   -43049.914     3777.457   -46827.371    816.91487   0.98290454 
   59600    279.47201   -889.96938    140621.92   -42968.687    3837.8751   -46806.562    819.69198   0.98026334 
   59700    276.77864   -1018.4782     140721.4   -42985.916    3800.8881   -46786.804    821.40882   0.97957036 
   59800    278.83972   -957.28761    140583.16   -42959.221     3829.192   -46788.413    823.82559   0.98053362 
   59900    271.04306    -1057.917    140765.79   -43052.502    3722.1238   -46774.626    825.67183    0.9792615 
   60000    272.08149   -1032.3384    140832.46   -43026.521    3736.3841   -46762.905    827.08523   0.97879787 
   60100    275.22187   -1075.2078    140609.56    -42972.99    3779.5097   -46752.499    827.89847   0.98034955 
   60200    273.28162   -1102.3029    140602.69    -43059.19     3752.865   -46812.055    829.52106   0.98039741 
   60300    279.95255   -1074.2046     141089.1   -43014.534    3844.4741   -46859.008    833.09339   0.97701746 
   60400    280.49225    -1101.955    141009.73   -43012.935    3851.8856   -46864.821    833.13436    0.9775674 
   60500    273.01444   -867.95684    140973.01   -43117.261    3749.1959   -46866.457    834.07424   0.97782203 
   60600    278.24647   -1197.0767    140862.37   -43145.468    3821.0452   -46966.513    835.99328   0.97859008 
   60700    275.40666    -1169.105    140839.92   -43138.152    3782.0473   -46920.199    837.01977   0.97874608 
   60800     275.0241   -1064.6262    140888.08   -43126.005    3776.7937   -46902.798    837.90922   0.97841149 
   60900    278.80313   -912.98242     140997.1   -43061.098    3828.6896   -46889.788     840.1672   0.97765499 
   61000    281.97535   -875.36029    141027.66    -43003.12    3872.2525   -46875.373    842.10616   0.97744311 
   61100    281.58698   -906.74293    141140.13   -42944.719    3866.9191   -46811.638    843.79109   0.97666426 
   61200    279.62987   -1074.9949    141104.59   -43027.516     3840.043   -46867.559    845.67172   0.97691021 
   61300    280.94534   -860.58022     141303.8   -43028.056    3858.1076   -46886.163    847.91076   0.97553299 
   61400    281.82291   -962.72317    141405.75   -42870.177     3870.159   -46740.336    850.46082   0.97482965 
   61500    282.93179   -1098.4832     141408.4   -42906.113    3885.3868     -46791.5    850.37926   0.97481136 
   61600    276.01045   -1093.1145     141264.1   -42963.482    3790.3389   -46753.821    850.32538   0.97580715 
   61700    277.85976    -1017.739    141134.47   -43009.778    3815.7346   -46825.513    851.41526   0.97670342 
   61800    276.15754   -1204.7923    140905.86   -43007.758    3792.3587   -46800.116    851.89321   0.97828804 
   61900    277.88627   -819.66825    140968.37   -42932.259    3816.0988   -46748.358    853.97996   0.97785422 
   62000    270.46199   -919.33014    140878.44   -43001.811    3714.1442   -46715.955    854.27965   0.97847844 
   62100    278.64161   -1043.1141    140888.14   -43032.011    3826.4715   -46858.483    856.83862   0.97841107 
   62200    277.19463   -1102.0362    140847.19   -43013.802    3806.6007   -46820.403    857.90467   0.97869554 
   62300    275.84324   -1207.1452    140518.04   -43049.476    3788.0426   -46837.519    858.05524   0.98098802 
   62400     274.6788   -983.20485    140406.56   -43164.525    3772.0518   -46936.577    859.65875   0.98176694 
   62500    267.73974    -958.4608    140513.07    -43133.52    3676.7606    -46810.28    860.04112   0.98102271 
   62600     275.9841   -970.52808    140472.44   -43038.565     3789.977   -46828.542    861.00382   0.98130647 
   62700    272.79867   -997.54891    140460.71   -43034.046    3746.2329   -46780.279    861.56815   0.98138844 
   62800    278.36023   -1020.8401    140466.64   -43026.295    3822.6075   -46848.902    863.25324   0.98134698 
   62900    277.41557   -1016.2157    140588.89   -42973.638    3809.6349   -46783.273    864.88739   0.98049367 
   63000    276.25247   -1114.1955    140562.38   -43011.469    3793.6624   -46805.131    866.47147   0.98067857 
   63100    278.57197   -1004.1356    140538.85   -42987.403    3825.5152   -46812.918    867.66248   0.98084277 
   63200    277.45546   -1001.5017    140709.59   -43036.673    3810.1826   -46846.856    870.21757   0.97965259 
   63300    272.20189   -1074.8253    140458.54     -43067.8    3738.0374   -46805.838     871.0211   0.98140359 
   63400    272.06525   -1044.5607    140472.35   -43147.608    3736.1611   -46883.769    873.25416   0.98130712 
   63500    284.33792   -1052.8276    140519.87   -43074.333    3904.6966    -46979.03    874.55406   0.98097528 
   63600    279.79264   -1036.2708    140620.85   -43035.904    3842.2781   -46878.182    875.80708   0.98027079 
   63700    275.24807   -963.19178    140657.86   -43095.413    3779.8694   -46875.283    877.11458   0.98001288 
   63800    275.14484   -1005.4766    140728.01   -43174.265    3778.4518   -46952.717    879.07434   0.97952436 
   63900     272.3753   -936.04031    140845.29   -43068.574    3740.4188   -46808.993    881.05815   0.97870875 
   64000    275.61951   -986.80103    140824.17   -43169.685    3784.9703   -46954.656    883.13701   0.97885555 
   64100    274.42808   -998.29157     140931.4   -43205.256    3768.6088   -46973.865    885.01272   0.97811078 
   64200    271.93863   -1051.0423    140818.61   -43193.765    3734.4222   -46928.188    885.31313   0.97889414 
   64300    269.55385   -966.79704    141085.65    -43216.78     3701.673   -46918.453    887.98606   0.97704138 
   64400     274.3125   -1063.9537    141151.92   -43175.056    3767.0216   -46942.078    889.75004   0.97658263 
   64500    269.63674   -901.44654       140985    -43244.52    3702.8113   -46947.332    891.02664    0.9777389 
   64600    276.93669   -1054.8185    141136.69   -43107.259    3803.0586   -46910.317    893.62899   0.97668801 
   64700    277.23084   -906.62252    141214.01   -43059.995     3807.098   -46867.093    895.95211   0.97615329 
   64800    278.58518   -1055.0827    141413.34   -42996.892    3825.6966   -46822.588    897.82882   0.97477729 
   64900    274.28843   -867.08938    141252.54   -42998.938     3766.691   -46765.629    899.17495   0.97588701 
   65000    274.14229   -1131.2254    141075.08   -43050.772    3764.6843   -46815.456    899.70099    0.9771146 
   65100    272.73968   -1056.9848    140727.47   -43109.421    3745.4228   -46854.843    900.33394   0.97952817 
   65200    273.66047   -982.72765    140530.08   -43078.691    3758.0675   -46836.758    901.31353   0.98090396 
   65300    270.73051    -927.3907    140503.67   -43108.489    3717.8316    -46826.32    903.04895   0.98108834 
   65400    269.62681   -1024.5791     140482.5   -43121.329    3702.6749   -46824.004    905.30884    0.9812362 
   65500    281.50469   -908.51339    140575.77   -43046.289     3865.789   -46912.078     906.2851    0.9805852 
   65600    275.33111   -1079.1288     140715.7   -43010.028    3781.0098   -46791.038     907.7889   0.97961007 
   65700    275.46481   -1076.2096     140508.5   -42982.137    3782.8458   -46764.982    910.33998   0.98105461 
   65800    276.62424   -1119.2315    140585.73   -43043.874    3798.7679   -46842.642    912.69528   0.98051569 
   65900    274.97309   -1027.3292    140373.79    -43008.84    3776.0932   -46784.934    913.23173   0.98199613 
   66000    278.40723   -924.90459    140269.06   -43010.591    3823.2528   -46833.844    914.12144   0.98272928 
   66100    278.42498   -802.11068    140427.42   -43043.594    3823.4966    -46867.09    915.56564   0.98162107 
   66200    277.82753   -1105.8688    140851.26   -42959.513     3815.292   -46774.805    919.52032   0.97866724 
   66300    276.83309   -873.80099    140589.25   -42976.983    3801.6359   -46778.619     919.6029   0.98049116 
[...]
   84600    275.17878   -1051.2402    140955.96   -43114.491    3778.9179   -46893.408    1173.4046   0.97794029 
   84700    269.40527   -1059.1614    140763.11   -43162.579    3699.6326   -46862.211     1172.843   0.97928011 
   84800    276.80501   -1004.2266    140849.52   -43082.356    3801.2503   -46883.606    1174.6357   0.97867937 
   84900    275.06044   -1040.0399    141139.73    -43054.97    3777.2928   -46832.262    1176.5674   0.97666702 
   85000    275.68673   -1038.7041    140921.79   -43033.351    3785.8934   -46819.244    1176.0699   0.97817748 
   85100    270.58489   -945.02552    140895.05   -43062.442    3715.8319   -46778.274    1175.2118   0.97836309 
   85200    272.33004   -1001.6714    141072.44   -43073.471    3739.7973   -46813.269    1177.7293   0.97713285 
   85300    279.12583   -971.42687    141232.21   -43011.504    3833.1211   -46844.625    1180.7822   0.97602745 
   85400     278.9815   -942.19234     141089.3   -43004.128    3831.1391   -46835.267    1181.4169   0.97701612 
   85500    278.33036   -858.63071    141013.01   -43041.443    3822.1972    -46863.64    1182.7143   0.97754464 
   85600    275.25875   -1275.5232    141150.24   -43015.296    3780.0161   -46795.312    1184.1017    0.9765943 
   85700    275.75865   -1171.5307    140898.82   -43031.764     3786.881   -46818.645    1183.2235    0.9783369 
   85800    279.67125   -963.33165    140751.11   -43029.737    3840.6112   -46870.348    1182.7248   0.97936361 
   85900    276.18229   -946.42436    140845.94   -43081.964    3792.6986   -46874.662    1185.0122   0.97870425 
   86000    275.76996   -1122.0951    140939.15   -43079.849    3787.0363   -46866.885    1187.0962   0.97805696 
   86100    275.00527   -896.10277    141133.46   -43083.914    3776.5351   -46860.449    1188.8516    0.9767104 
   86200    273.00175   -1086.6966    141084.56   -43097.172    3749.0216   -46846.194    1191.5524   0.97704892 
   86300    275.50009   -963.09883    141120.95   -43094.331    3783.3303   -46877.662    1193.3324   0.97679698 
   86400      279.108   -1018.4974    141014.03   -43042.562    3832.8762   -46875.439    1194.0206    0.9775376 
   86500    280.17652   -961.37344    141044.13   -43026.588    3847.5498   -46874.137    1195.7588   0.97732901 
   86600    276.23474   -856.26026    140857.86   -43009.738     3793.419   -46803.157    1196.0933   0.97862138 
   86700    275.95735   -949.49436    140690.63   -43073.904    3789.6097   -46863.513    1196.3152   0.97978464 
   86800    279.05576   -880.60963    140923.75   -43018.642    3832.1589   -46850.801    1199.7958   0.97816386 
   86900    278.38215   -779.03029    140974.52   -43039.818    3822.9085   -46862.727    1202.1048   0.97781157 
   87000    273.50938   -1139.7713    141030.31   -43082.302    3755.9927   -46838.295     1203.927   0.97742472 
   87100    272.83595   -856.16611    140869.74   -43129.822    3746.7448   -46876.567    1203.1447   0.97853885 
   87200    277.57853   -1248.6928    140751.15   -43158.413    3811.8727   -46970.286    1204.0137   0.97936336 
   87300     278.7908   -857.66008    140557.42   -43017.137    3828.5203   -46845.658     1204.009   0.98071322 
   87400    276.86648   -1192.6303    140366.59   -43026.764    3802.0944   -46828.859    1205.4651   0.98204647 
   87500    271.21575   -975.31648    140270.57   -43098.065    3724.4952    -46822.56    1205.7548   0.98271876 
   87600    274.60612   -785.85305    140288.92   -43041.241    3771.0538   -46812.294    1208.4694   0.98259019 
   87700    276.35097   -972.68745    140397.25     -43066.8    3795.0151   -46861.815    1211.3143     0.981832 
   87800    280.23777   -1257.5697    140295.62   -42970.652    3848.3909   -46819.043    1212.3056   0.98254325 
   87900    282.03212    -1175.032    140169.71   -42960.589     3873.032   -46833.621     1212.018   0.98342586 
   88000    279.40785   -808.29545    140021.99    -42944.52    3836.9939   -46781.514    1213.1021   0.98446337 
   88100    279.36442   -976.06797    140250.09   -43010.897    3836.3975   -46847.295    1215.3732   0.98286222 
   88200    279.36905   -1164.3907    140229.05   -42954.628    3836.4612   -46791.089    1216.2492   0.98300972 
   88300    274.84291   -895.71687    140468.53   -42956.446    3774.3055   -46730.752    1217.6937   0.98133378 
   88400    274.30594   -959.22849    140455.65   -42974.196    3766.9316   -46741.127    1218.7305   0.98142377 
   88500    276.33313   -1161.6199    140271.24   -43048.736      3794.77   -46843.506    1218.6705     0.982714 
   88600    277.08457   -1029.6517    140523.92   -43051.949    3805.0893   -46857.038    1220.7525   0.98094697 
   88700    274.38858   -1074.9534    140674.34   -43074.755    3768.0664   -46842.821    1222.7868   0.97989809 
   88800    276.51715   -951.43786    140728.91    -43044.48    3797.2972   -46841.777    1223.6591   0.97951811 
   88900    275.22161   -1171.2808    140802.67   -43083.859     3779.506   -46863.365    1225.8274   0.97900503 
   89000       271.34   -812.93262    140805.12   -43062.445    3726.2015   -46788.647    1228.0314   0.97898797 
   89100     271.8805    -1004.192    140713.48   -43021.331    3733.6239   -46754.955    1228.1208   0.97962549 
   89200    276.81509   -1143.5973    140729.36   -43082.356    3801.3887   -46883.744    1229.4942   0.97951501 
   89300    273.63048   -1158.8761    140949.21    -43083.39    3757.6558   -46841.046    1232.2404   0.97798712 
   89400    279.02894   -1043.2687     140992.7     -43027.2    3831.7906   -46858.991    1234.9008   0.97768546 
   89500     273.9005   -1018.6891    141115.36   -43104.545    3761.3638   -46865.909    1237.1136   0.97683569 
   89600    275.65535   -1165.2902    140810.12    -43056.36    3785.4624   -46841.822    1237.3442   0.97895322 
   89700    275.75634   -1105.0231    140686.48   -43005.377    3786.8493   -46792.226    1237.6902   0.97981353 
   89800    272.88974   -1259.2524     140644.6   -43101.067    3747.4835   -46848.551    1239.3959   0.98010529 
   89900     276.1425   -917.78719    140550.82   -43073.092    3792.1522   -46865.245    1239.6299   0.98075927 
   90000     274.6098    -1088.664    140806.06   -43103.567    3771.1043   -46874.672    1242.6992   0.97898141 
   90100    274.22745   -857.25132    140930.31   -43028.967    3765.8536   -46794.821    1244.1871   0.97811832 
   90200    271.42166   -1111.9813    140825.44   -43125.101    3727.3229   -46852.424    1244.5393   0.97884669 
   90300    268.25413   -1025.7047    140743.46   -43204.795    3683.8245    -46888.62     1243.786   0.97941688 
   90400    277.60946   -951.82566    140684.67   -43107.972    3812.2974    -46920.27    1243.8107   0.97982616 
   90500    278.95778   -1011.3313    140842.71    -43023.13    3830.8133   -46853.943    1245.0566   0.97872668 
   90600    279.67394   -1043.2791    141037.02   -43045.941    3840.6481    -46886.59    1248.1956   0.97737828 
   90700    272.72215   -790.89016    141135.99   -43064.002    3745.1821   -46809.184    1250.2513   0.97669291 
   90800    272.10974    -991.8363    141052.36   -43007.756    3736.7721   -46744.528    1250.9239   0.97727194 
   90900    272.33527   -940.49016     140842.9   -43084.006    3739.8691   -46823.875    1250.1613   0.97872532 
   91000    274.04317   -767.67026    141024.58   -43040.622     3763.323   -46803.945    1252.6833   0.97746449 
   91100    281.81435   -880.85374    141152.38   -42997.345    3870.0415   -46867.387    1255.0415   0.97657947 
   91200    279.73872   -1085.4352    140858.87   -43029.573    3841.5376   -46871.111    1253.9457   0.97861442 
   91300    274.92378   -999.13156    140812.69   -43072.042    3775.4161   -46847.458    1255.0706   0.97893532 
   91400    277.40831   -1009.2592     140969.6   -43107.462    3809.5352   -46916.997     1257.407   0.97784572 
   91500    278.60634   -1059.0987    140664.07   -43117.106    3825.9872   -46943.093     1256.872   0.97996966 
   91600    276.32976   -1026.0005    140769.04   -43101.109    3794.7238   -46895.833     1257.214   0.97923891 
   91700    270.99213   -851.27609     140778.8   -43135.799    3721.4243   -46857.223    1257.5368   0.97917099 
   91800    269.02096   -893.50101    140741.08   -43240.814     3694.355   -46935.169    1259.2282    0.9794334 
   91900    275.32151   -1036.4311    140803.35   -43186.211    3780.8779   -46967.089    1260.5694   0.97900029 
   92000    280.01697   -949.62475    140771.83   -43122.445    3845.3588   -46967.804    1260.0829   0.97921944 
   92100    271.12846   -1100.1043    140878.69    -43095.71    3723.2964   -46819.006    1262.7639   0.97847671 
   92200    281.06695   -909.20092    140808.23   -43004.663    3859.7777   -46864.441     1262.533   0.97896633 
   92300    276.50253   -1072.1356     140684.5   -43049.042    3797.0963   -46846.138         1262   0.97982732 
   92400    270.90174   -829.97552    140815.91   -43094.356     3720.183   -46814.539    1265.6899   0.97891296 
   92500    273.91643    -994.1247    140772.58   -43063.681    3761.5826   -46825.263    1265.3243   0.97921424 
   92600     276.8687   -1065.8575    140807.84   -43057.217    3802.1249   -46859.342    1266.9775   0.97896902 
   92700    273.73321   -1111.0094    140781.96   -43123.867    3759.0665   -46882.934    1267.9659   0.97914902 
   92800    270.68396   -946.17274    140923.84    -43050.03    3717.1924   -46767.223    1269.3861   0.97816321 
   92900    275.90641   -1107.6535    140936.81   -43050.354    3788.9102   -46839.264    1270.8465   0.97807322 
   93000    282.37338   -1191.2501    141275.52    -42953.49    3877.7184   -46831.209    1274.7641   0.97572827 
   93100    277.53622    -1111.725    141075.31   -43017.312    3811.2917   -46828.604    1274.9222   0.97711297 
   93200    277.84615    -1032.274    140777.18   -42975.653    3815.5477   -46791.201    1275.3095   0.97918223 
   93300    282.10488   -829.56793    140933.47   -42881.329    3874.0312   -46755.361    1277.0524   0.97809637 
   93400    275.77025   -1134.9192    140811.94    -42990.14    3787.0403   -46777.181    1277.9924   0.97894052 
   93500    274.70644   -947.95407     140694.8   -43021.391    3772.4314   -46793.822     1277.279   0.97975558 
   93600    272.97092   -904.36402    140650.01   -43066.876    3748.5982   -46815.474    1277.0766   0.98006759 
   93700    275.27671   -775.09647    140962.73   -43039.281    3780.2627   -46819.543    1279.9019   0.97789336 
   93800    281.21034   -884.73818     140672.3   -42938.421    3861.7469   -46800.168    1279.6686   0.97991227 
   93900     276.9072   -1214.4196    140913.53   -43037.883    3802.6536   -46840.537    1283.8463    0.9782348 
   94000    278.65504   -1135.2213    140665.55   -43080.163    3826.6559   -46906.819    1282.6737   0.97995929 
   94100    272.08269    -863.6507    140778.06   -43153.298    3736.4006   -46889.698    1284.7533   0.97917612 
   94200    274.07209   -1019.0516    141018.61   -43138.251    3763.7202   -46901.971    1287.8249   0.97750585 
   94300    278.42842   -945.22441    141193.75   -43071.013    3823.5438   -46894.557     1290.871   0.97629332 
   94400    279.00824   -938.98547     141028.2    -43069.59    3831.5063   -46901.096    1291.0902    0.9774394 
   94500    277.95563   -962.51599    141243.43   -43135.748    3817.0512     -46952.8    1294.1932   0.97594994 
   94600    272.79457   -952.57093     141169.2   -43208.277    3746.1765   -46954.453    1294.6672   0.97646313 
   94700    275.78755   -819.31028    141169.65   -43145.709    3787.2779   -46932.987    1296.1901   0.97645998 
   94800    275.75438    -1219.458    141228.51   -43069.929    3786.8224   -46856.751    1297.7742   0.97605306 
   94900    275.66317    -951.1093    141075.61   -43027.555    3785.5698   -46813.125    1298.3798   0.97711092 
   95000    278.48161   -1002.3587    141276.33   -43007.063    3824.2743   -46831.338    1301.5184   0.97572264 
   95100    275.22714   -950.17541    141452.41   -43011.265     3779.582   -46790.847    1304.4915   0.97450805 
   95200    283.58511   -1089.7634       141141   -42998.638    3894.3586   -46892.996    1303.9237    0.9766582 
   95300    274.30741   -915.75288    141028.99   -43026.084    3766.9517   -46793.035    1305.0874   0.97743388 
   95400    274.83996    -1095.852    140960.75   -43041.763     3774.265   -46816.028    1304.0484    0.9779071 
   95500    285.58005   -1042.0786    140655.62   -43033.188    3921.7543   -46954.943    1303.6474   0.98002849 
   95600    275.58369   -995.59692    140646.47   -43098.914    3784.4783   -46883.392    1305.1216   0.98009225 
   95700    277.81735       -882.1    140711.13   -43121.473    3815.1523   -46936.626     1307.946   0.97964189 
   95800    275.00966    -1017.139    140731.23   -43077.257    3776.5954   -46853.852    1309.0326   0.97950195 
   95900    274.76824   -788.93789    140840.05    -43096.22    3773.2802     -46869.5    1310.6212   0.97874514 
   96000    278.79436    -945.7277    140831.01   -43039.376    3828.5691   -46867.945    1312.5601   0.97880795 
   96100    280.84627   -998.03355    140615.96   -43019.821    3856.7472   -46876.569    1311.3282   0.98030491 
   96200    275.81397   -870.15759    140931.59   -43006.816    3787.6407   -46794.457     1315.228    0.9781094 
   96300    277.97754   -1010.3644    141229.21   -42997.869    3817.3522   -46815.222    1319.2538   0.97604819 
   96400    275.59721   -959.01673    141115.08   -43070.131     3784.664   -46854.795    1320.0181    0.9768376 
   96500    275.58426   -1022.2135     140883.9   -42985.165    3784.4862   -46769.652    1320.9304   0.97844049 
   96600    277.34997   -978.13799    140846.49    -42967.92     3808.734   -46776.654    1322.0611   0.97870044 
   96700    277.47252   -694.89588    141068.71   -42966.563    3810.4169    -46776.98    1324.1726   0.97715869 
   96800    276.69638   -1100.3369    141162.28   -42891.248    3799.7585   -46691.006    1325.9293     0.976511 
   96900    283.87284   -884.67849    141139.19   -42923.491    3898.3098   -46821.801    1327.1673   0.97667071 
   97000    278.21766   -1151.7952     140862.1   -42974.501    3820.6496   -46795.151    1326.7452   0.97859194 
   97100    274.50887   -938.52275    140672.23   -43023.717    3769.7182   -46793.436    1328.2358   0.97991279 
   97200    277.29935   -987.32454    140533.01   -42979.748    3808.0389   -46787.787    1328.7145   0.98088355 
   97300     276.0678   -885.05984    140599.76   -43041.296    3791.1265   -46832.423    1330.0196   0.98041786 
   97400    275.25366   -871.31371    140348.94   -43038.654    3779.9462     -46818.6    1329.7384   0.98217002 
   97500    274.04344   -927.56896    140614.83   -43052.268    3763.3268   -46815.595    1332.5097    0.9803128 
   97600    278.43798   -1033.4767    140745.71   -43038.749    3823.6752   -46862.424    1334.9784   0.97940122 
   97700    276.80429   -1086.8274    140805.76   -43116.251    3801.2403   -46917.491    1336.3621   0.97898351 
   97800    276.59962   -930.15412    140701.27   -43128.507    3798.4297   -46926.936    1337.1586   0.97971055 
   97900    277.22358   -1002.7112    140876.17   -43046.082    3806.9983   -46853.081    1337.9134   0.97849421 
   98000    277.27879   -948.43578    140658.38   -42968.046    3807.7565   -46775.803    1337.7381   0.98000928 
   98100    275.74884   -1048.2545    140893.04   -43020.018    3786.7463   -46806.764    1340.7645   0.97837703 
   98200    283.47774   -1081.3423    140761.62   -43023.542    3892.8841   -46916.426    1341.5935   0.97929051 
   98300    281.89559   -860.16031    140744.83   -42948.607    3871.1571   -46819.764    1342.5776    0.9794073 
   98400      279.762   -1179.1214    140846.54    -42921.67    3841.8574   -46763.527    1344.7991   0.97870009 
   98500     275.4453   -945.64479    140593.82   -42988.813    3782.5778   -46771.391    1345.7236   0.98045931 
   98600    283.93202   -1024.5805    140567.69   -42991.678    3899.1225     -46890.8    1346.8486   0.98064157 
   98700     273.3725   -1037.8417    140596.32   -43065.609    3754.1129   -46819.722    1347.1483   0.98044187 
   98800    276.77161   -907.48543    140836.45   -43025.224    3800.7916   -46826.016    1349.9603   0.97877016 
   98900    277.50694   -980.68535    140934.02   -43018.348    3810.8895   -46829.237     1352.561   0.97809255 
   99000    283.02807   -1141.0424    140606.77   -42930.795     3886.709   -46817.504    1352.0271   0.98036897 
   99100    271.46354   -1056.5523    140509.85   -43021.607    3727.8981   -46749.505    1352.8068   0.98104525 
   99200     277.0082   -833.55621    140346.58   -42962.759    3804.0406     -46766.8    1353.7917   0.98218649 
   99300    278.02274   -916.79901    140581.93   -43003.955    3817.9728   -46821.928    1356.0632   0.98054224 
   99400    280.55587   -934.45156    140614.45    -42937.85    3852.7593   -46790.609    1356.9025   0.98031545 
   99500    281.53418   -975.14474     140822.2   -42964.647     3866.194   -46830.841    1359.8879   0.97886925 
   99600    276.57786   -1108.7548    140697.32   -43029.966    3798.1309   -46828.097    1359.6966   0.97973803 
   99700    278.23381   -875.78791    140785.14   -42981.697    3820.8714   -46802.569    1361.6649   0.97912689 
   99800     279.9533   -1049.5375    140447.84   -43045.699    3844.4844   -46890.183    1360.1891   0.98147835 
   99900    271.79854   -765.31925    140442.37   -43042.308    3732.4984   -46774.806    1358.7949    0.9815166 
  100000    276.80437   -918.23362    140810.67    -42992.87    3801.2414   -46794.111     1362.721    0.9789494 
  100100    280.59344   -995.16348    140767.71   -43024.013    3853.2751   -46877.288    1363.5428   0.97924815 
  100200    276.23734   -985.90632    140695.81   -43012.233    3793.4546   -46805.687    1362.4514   0.97974853 
  100300    272.05841   -994.72685    140730.81   -43014.255    3736.0671   -46750.322    1363.0982   0.97950486 
  100400    274.17498   -914.85905    140662.28   -43040.861    3765.1331   -46805.994    1363.0315   0.97998207 
  100500    272.50929   -1015.6203    140660.89   -43061.912    3742.2588   -46804.171    1364.6205   0.97999179 
  100600    272.88117   -1066.7017     140651.5   -43061.833    3747.3657   -46809.199    1366.4291    0.9800572 
  100689    276.02487   -983.26222    140549.13   -42993.543    3790.5368    -46784.08    1367.3433   0.98077103 
Loop time of 175.244 on 6 procs for 100000 steps with 4608 atoms

Performance: 246.514 ns/day, 0.097 hours/ns, 570.634 timesteps/s
99.3% CPU use with 6 MPI tasks x no OpenMP threads

MPI task timing breakdown:
Section |  min time  |  avg time  |  max time  |%varavg| %total
---------------------------------------------------------------
Pair    | 154.93     | 155.73     | 156.54     |   4.5 | 88.87
Neigh   | 7.5487     | 7.5975     | 7.6768     |   1.4 |  4.34
Comm    | 8.3872     | 9.175      | 10.058     |  19.2 |  5.24
Output  | 0.17453    | 0.17524    | 0.17856    |   0.4 |  0.10
Modify  | 1.8543     | 1.9404     | 2.0155     |   3.4 |  1.11
Other   |            | 0.624      |            |       |  0.36

Nlocal:        768.000 ave         774 max         761 min
Histogram: 1 0 0 2 0 0 1 0 0 2
Nghost:        1661.17 ave        1681 max        1643 min
Histogram: 1 0 1 1 0 1 0 1 0 1
Neighs:        0.00000 ave           0 max           0 min
Histogram: 6 0 0 0 0 0 0 0 0 0
FullNghs:      25264.7 ave       25509 max       25037 min
Histogram: 2 0 0 1 1 0 0 0 0 2

Total # of neighbors = 151588
Ave neighs/atom = 32.896701
Neighbor list builds = 7117
Dangerous builds = 0

undump              1
unfix               2
unfix               3
unfix               4


################################################
#######         Run Simulation         #########
################################################

reset_timestep      0
log                 log.run_${NAME}
log                 log.run_liq_277K_-1000atm_mW
