LAMMPS data file via write_data, version 29 Oct 2020, timestep = 100000

8530 atoms
1 atom types

-0.1465430976986184 104.55948146100795 xlo xhi
-0.16187959088835413 51.14095495113399 ylo yhi
-0.16187959088835413 51.14095495113399 zlo zhi

Masses

1 18.015

Atoms # atomic

284 1 1.2520779024526065 1.4957124080222193 3.2873945361587023 0 1 0
275 1 3.223909130750684 0.006404910408993908 1.9521148696872919 0 1 0
189 1 4.8254863507047965 1.187500682387042 0.21585232850977293 0 1 0
279 1 9.593229802347553 0.044873279339645494 1.3858045070385037 0 1 0
286 1 14.319930417438739 1.6282086847079615 2.972667751470569 0 1 0
773 1 19.16278468224534 2.928379095993341 1.3488774683443545 0 0 0
1004 1 20.92746242769432 1.7281902522174029 3.160164472266171 0 1 0
932 1 23.708377550830807 1.4635209877333073 0.20072875684589492 0 1 0
1006 1 26.554680089205398 1.633523316311146 3.2067745561906964 0 1 0
1007 1 28.4796772997226 0.2713460590534907 1.7173168767178673 0 1 0
934 1 30.457299965477013 1.6918551322813014 0.12757669740719813 0 1 0
131 1 11.007676715631332 20.61261608165929 0.08172690351474923 0 0 0
195 1 4.646738825032715 5.092571034021223 3.1372225856862035 0 0 0
190 1 6.327550870682395 3.019456903038873 1.6802351758529896 0 0 0
198 1 11.12212821088409 4.699526692343811 3.052348601093878 0 0 0
197 1 12.671181402072678 2.9437938125033347 1.3467162370557004 0 0 0
199 1 17.443245785714613 4.871170255197429 3.038122484523125 0 0 0
935 1 23.89413682899558 5.209752718262098 3.2460983187179773 0 0 0
936 1 25.35633173085106 3.453956227168561 1.5904687307108736 0 0 0
857 1 26.78869626075713 5.297061594095167 0.1417627182905729 0 0 0
937 1 30.137531643578804 4.685942906312054 3.0559998990823667 0 0 0
939 1 31.92323717283405 3.3619324175763423 1.7632687630113597 0 0 0
200 1 1.4560669860655762 8.058932745344848 3.0059841367691553 0 0 0
104 1 3.1726984962353364 6.631831406460212 1.3860356435975432 0 0 0
201 1 7.875037014516449 8.131420194773735 2.9155608239825783 0 0 0
107 1 9.331899906591575 6.340423599473754 1.6459513307724212 0 0 0
103 1 15.573291529262638 6.4641595686488476 1.2605128823257143 0 0 0
203 1 14.385363105681336 8.442319264089184 3.250603341109335 0 0 0
940 1 20.81731166529413 8.242114395996358 2.86015924267754 0 0 0
856 1 22.047898606586827 6.269420251408436 1.3426755620410968 0 0 0
942 1 27.034593876569552 8.104146411976382 3.1502990903774397 0 0 0
941 1 28.762789447801758 6.474012051555994 1.7551211512834524 0 0 0
861 1 30.13156723726038 8.19674347030143 0.20561662539982878 0 0 0
943 1 33.67816515210446 7.7053159601204495 3.076723673893186 0 0 0
111 1 1.2321560452196978 11.537715632585321 0.3705492384147768 0 0 0
205 1 5.159198279773551 11.01041058696574 2.8859337241101484 0 0 0
112 1 6.331563219927899 9.155008565152412 1.3202316960110527 0 0 0
206 1 11.176770450967693 11.397381357443654 3.1743282313272405 0 0 0
108 1 12.560586334707748 9.790721912917101 1.6605734316722696 0 0 0
115 1 14.155731751043916 11.30898494548203 0.25101324752304854 0 0 0
209 1 17.479379520782164 10.947479306969498 2.9889967877060797 0 0 0
814 1 19.31116310621584 9.764396084913708 1.2887838012541832 0 0 0
864 1 20.94154124863672 11.708318005838814 0.1683029789327763 0 0 0
944 1 23.890995945306585 11.813801120517805 3.2265150914801177 0 0 0
945 1 25.331472208473926 9.983077607688465 1.7307920679218562 0 0 0
866 1 27.330047030586535 11.637539880001336 0.2827153627503036 0 0 0
946 1 30.021074305659358 11.822138814578823 3.1316796778723557 0 0 0
862 1 31.818457114308483 9.933000688232108 1.6902003791831224 0 0 0
119 1 3.097178617731195 13.085264934202069 1.8007330179831382 0 0 0
118 1 4.875020749499044 14.367947697871942 0.15051029121888282 0 0 0
214 1 7.951700597139407 14.510109502271003 3.0915506935199097 0 0 0
114 1 9.522897191035046 12.851515795088927 1.3972782770839294 0 0 0
120 1 11.009866215446719 14.670431455753127 0.17353855139208635 0 0 0
116 1 15.765911271260926 12.75785312623667 1.808577851359602 0 0 0
122 1 17.56622751948129 14.54939089862179 0.3567483744324169 0 0 0
949 1 20.605273147381844 14.904111207032537 3.0865942828089663 0 0 0
950 1 22.44241783677717 13.576442751075975 1.7030568711984129 0 0 0
954 1 28.663079064699414 13.661159027813605 1.6510680899155743 0 0 0
956 1 33.46513489616779 14.696741353939247 2.7666721815404687 0 0 0
67 1 0.018780509896128367 16.178738038084326 1.9667340765738697 0 0 0
124 1 6.140554578478695 16.37297100530697 1.860791908019019 0 0 0
220 1 4.341125461184749 17.92353815980487 3.1521724051195874 0 0 0
121 1 12.463646601244015 16.07223931868166 1.9038113571821325 0 0 0
221 1 10.697061718246756 17.579366614871613 3.2083753464079012 0 0 0
869 1 19.390290541033462 16.260780520881227 1.2674111213778698 0 0 0
958 1 25.545675855279523 16.494948130049853 1.731158696868835 0 0 0
955 1 31.617093995152786 16.58409891977832 1.9289995234351243 0 0 0
128 1 2.7794073253525653 19.42726610680531 1.4667702519578816 0 0 0
226 1 9.31154190630699 19.12627148611381 1.390370660193269 0 0 0
225 1 7.574623910798897 20.72827604648531 2.935856251682761 0 0 0
132 1 15.747096860040855 18.954055291563247 1.704006210287547 0 0 0
133 1 17.194447804350805 20.898742285374453 0.15239485860405222 0 0 0
962 1 20.315995918371875 20.868798273907856 2.7700052290110566 0 0 0
963 1 22.189734042091022 19.293062809359764 1.400023069185701 0 0 0
959 1 28.673292022305453 19.7460357374199 1.6109137472888764 0 0 0
882 1 32.9358119169309 18.226351322815383 0.21509656668767252 0 0 0
230 1 5.582565187956286 22.138330507948012 1.678114292187879 0 0 0
229 1 4.238150055628441 23.89111137619708 3.276735346217928 0 0 0
232 1 10.859508533872386 23.920407941702738 3.192799729002478 0 0 0
138 1 12.93293748730509 22.41498916836205 1.5197198619427732 0 0 0
233 1 17.228480814467577 23.912976799677768 3.0443490429505604 0 0 0
948 1 19.097487102739414 22.849240914149902 1.3550154545505566 0 0 0
969 1 23.46229020195553 24.01265752466297 3.209076708487367 0 0 0
884 1 25.36777969632122 22.661710674918133 1.5438201598413885 0 0 0
885 1 30.29849734269746 21.219610462517345 0.3104769302432669 0 0 0
966 1 33.5825908096382 21.175208134286194 3.028777483233921 0 0 0
886 1 31.729577984750115 22.74803700894471 1.817215792960581 0 0 0
135 1 2.978351104466409 25.446797776856865 1.2014313241440406 0 0 0
234 1 1.4333226368454972 26.929388951321577 3.038917102533442 0 0 0
143 1 9.12855287048179 25.237964333987428 1.4326798278119852 0 0 0
137 1 14.291409966865565 24.124384713106007 0.12222558441563058 0 0 0
239 1 15.887004599457416 25.735714317322273 1.633772385047377 0 0 0
968 1 22.272663662152482 26.04829108575415 1.342064852722275 0 0 0
888 1 26.91135372603563 24.342650471053048 0.3181494875314668 0 0 0
971 1 30.18123039313993 24.291456240066072 2.998742405907653 0 0 0
889 1 28.830963502649002 26.194053602376716 1.550686870799062 0 0 0
752 1 0.14842303465276063 29.069995655878884 1.5083952914742818 0 0 0
141 1 6.094683092099736 28.837157560070114 1.5832350088356661 0 0 0
236 1 7.942902731613147 27.354844640097905 3.208582591325856 0 0 0
153 1 12.26398917089712 28.580942740631926 1.470574098973352 0 0 0
237 1 13.990914824323061 27.28548823419135 3.2832669270216694 0 0 0
746 1 18.92362095576431 29.027682265608888 1.415778669315674 0 0 0
972 1 20.345741809706993 27.259132941905982 3.1386952649241504 0 0 0
894 1 25.451833296044395 28.934637303457276 1.6893480898038642 0 0 0
975 1 33.33728878604877 27.24020992834194 2.9388281763494666 0 0 0
898 1 31.982736868657334 28.971816400706885 1.411946998539634 0 0 0
154 1 2.757600517122327 31.707152201797086 1.5615894794687117 0 0 0
149 1 8.066204677819167 30.56092088698746 0.4640524948402638 0 0 0
150 1 9.627268597841484 31.962263058840186 1.9993498259697091 0 0 0
159 1 15.8847308571038 31.986940792261173 1.6495247277370977 0 0 0
896 1 20.565352600627794 30.50909485280674 0.16744555073172346 0 0 0
976 1 23.825787494919616 30.59273503305735 3.0991625009987125 0 0 0
980 1 22.34288127455519 32.19993416855213 1.1949938721383322 0 0 0
978 1 30.30173650271627 30.52690950063553 3.0197488436780078 0 0 0
904 1 28.665772163367162 32.4181841002203 1.35898669186249 0 0 0
919 1 20.38785754820986 43.17899043583785 -0.09702226355748471 0 0 0
155 1 4.459045775054425 33.58360016765289 0.30117081427855497 0 0 0
248 1 6.247384542840266 35.296675718693784 1.7063646004490765 0 0 0
156 1 10.864903682788185 33.47932970484807 0.16189192302133182 0 0 0
249 1 14.364953270016796 33.65313882012476 2.9419788344466777 0 0 0
157 1 12.646171635600082 35.18066337030404 1.2938170006498946 0 0 0
158 1 17.32405437077855 33.637402402539074 0.10110775402617361 0 0 0
979 1 20.58956114693294 33.73188068643686 3.108547746748146 0 0 0
751 1 18.974060149759598 35.594994355052506 1.5479257189244608 0 0 0
982 1 27.020907356796226 33.94043758009771 3.1242915321721307 0 0 0
985 1 25.472354390021337 35.59527892518559 1.4817152972727086 0 0 0
983 1 33.3526474089397 33.652614446198065 3.014162809066217 0 0 0
909 1 31.778649603221687 35.330401794379725 1.63651830379806 0 0 0
160 1 1.4340009497699842 36.74457965040474 0.16891764743032417 0 0 0
162 1 3.02402052903938 38.51764072203145 1.6230678594636545 0 0 0
251 1 4.614786647029626 36.80026937640788 3.1878384601294365 0 0 0
164 1 7.978812191716315 36.99813504898785 0.1443972711226147 0 0 0
259 1 9.703450827139076 38.680058152321664 1.651901123271329 0 0 0
254 1 16.051077746480605 38.52950566913641 1.452442417554847 0 0 0
984 1 24.10408419893678 37.09032376891302 2.9772362225542057 0 0 0
914 1 22.296900773469154 38.72403163431371 1.4789865273830378 0 0 0
917 1 28.3617203627158 38.7380689021866 1.2965375450745702 0 0 0
986 1 29.84213788641025 37.271856798727285 3.0675306124618698 0 0 0
918 1 34.69675973666225 38.668130752305586 1.984209044737518 0 0 0
256 1 1.1138908300343702 39.77079428538885 3.2221689251788628 0 0 0
168 1 4.726894709815223 40.184503549324376 0.1937040646524648 0 0 0
173 1 6.488364638739423 41.550602803718675 1.635123754096267 0 0 0
265 1 12.96033601241348 41.46069968406387 1.424335714519766 0 0 0
261 1 14.480612303340207 40.075762421053156 3.155899725754831 0 0 0
170 1 17.522183867213453 40.297042145416206 0.17861985765594884 0 0 0
786 1 19.099191737298252 41.760425568008884 2.069534422080436 0 0 0
994 1 25.146727683115962 41.59601842904768 1.4851944521824745 0 0 0
989 1 27.13197511894262 40.23017593686349 3.177156703847886 0 0 0
992 1 31.331559520776143 42.12602853990593 1.5954880282039023 0 0 0
262 1 4.781369277383229 43.0406885517824 3.1144482894273837 0 0 0
268 1 3.10736620429543 44.8605228072049 1.691481216711508 0 0 0
174 1 7.964675923422304 43.19286469110372 0.135103944642206 0 0 0
271 1 9.3709350526234 44.97249703992811 1.9506467853224607 0 0 0
264 1 11.063842447122694 43.00551625444852 3.0936036852645965 0 0 0
177 1 15.466960109898368 44.78941575341447 1.4536958931149255 0 0 0
266 1 17.246454210395033 43.18557146576092 2.931466527566089 0 0 0
997 1 21.990847950660484 44.53447920194651 1.7474104774779111 0 0 0
993 1 23.79713002889434 43.18284236685169 3.007033381090564 0 0 0
999 1 28.051748907881837 44.84814568594373 1.8609579697161243 0 0 0
995 1 30.129108303626236 43.65061532692281 3.2596445492579167 0 0 0
31 1 0.04803701532804583 47.887780447170755 1.5537384088169595 0 0 0
269 1 1.4853076496711286 46.45303092258312 3.2020514472105486 0 0 0
270 1 6.301875285025515 47.89700545384164 1.6837722704554854 0 0 0
281 1 12.310566549113783 47.57075074754248 1.4294504788594997 0 0 0
274 1 13.894236560117333 46.27165343767998 3.124019428793338 0 0 0
996 1 20.465655620611344 46.25456072108867 3.0812525776647797 0 0 0
79 1 19.014599009071016 47.78334042472817 1.4048106036132402 0 0 0
923 1 23.614927403344705 46.47630118470487 0.21300382366135084 0 0 0
927 1 25.451885837212476 47.99825872972784 1.6584098072891211 0 0 0
925 1 30.130725952188197 46.299042920313134 0.21484149933428753 0 0 0
184 1 1.7414257874031152 49.53016667985187 0.45010033102159486 0 0 0
185 1 8.079269958526703 49.493120339391425 0.3591590722231456 0 0 0
280 1 11.166066666198873 49.647443853308125 3.038850352921697 0 0 0
194 1 15.740364861177065 50.92016808505589 1.3532072239389197 0 0 0
282 1 17.23596392932102 49.18609166148231 2.907325357427157 0 0 0
931 1 22.225254607025228 -0.16182097230532122 1.5212833383505913 0 1 0
1002 1 23.812131770605543 49.54161919965934 3.056870741270289 0 0 0
928 1 27.124619656050566 49.54554307603638 0.23478882926411432 0 0 0
1003 1 30.372038504935173 50.020851031811844 3.0543425885388213 0 0 0
1001 1 31.865257805028982 48.371559119903075 1.3891006122942082 0 0 0
381 1 4.723297954251856 1.3620720592785647 6.090341437660426 0 1 0
285 1 7.99661752684967 1.2543789803561178 3.293613771877338 0 1 0
383 1 11.375453021509532 1.6037213250683306 6.4333023521887585 0 1 0
685 1 18.806713289558992 0.0345179117371425 4.019764036165763 0 1 0
386 1 17.69813947554301 1.5454126969899042 6.330716121273862 0 1 0
1008 1 33.64641972286817 1.3743808749246387 3.3399451734590517 0 1 0
1076 1 31.720411560266204 0.1701276233660471 4.965481602291067 0 1 0
289 1 1.7880124895368126 5.086862017050168 6.099151904956952 0 0 0
288 1 3.079249763576561 2.998555982075944 4.56677762302722 0 0 0
292 1 7.7179565538250845 4.7069298246346465 6.035922032180026 0 0 0
291 1 9.732973833568789 2.985651399458241 4.808136996845967 0 0 0
294 1 14.589831241921603 5.101396883959902 6.074092825903615 0 0 0
287 1 15.934780316318598 3.07337958032367 4.522523826945736 0 0 0
1005 1 22.321948364371313 3.6640589615641574 4.7815485680245375 0 0 0
1012 1 27.052658176325313 5.002563087252253 6.359085435554359 0 0 0
1013 1 28.450782580177115 3.464573399138927 4.703232331375745 0 0 0
152 1 14.131761998939663 30.402320740742642 0.07831848379904452 0 0 0
296 1 4.623647580493144 8.34067673781956 6.430969772172509 0 0 0
196 1 6.270655778226448 6.691024098192404 4.98790273016956 0 0 0
298 1 11.006755211691738 8.045270036836797 6.2371037136590886 0 0 0
293 1 12.73101469301594 6.729370146590395 4.675403045333311 0 0 0
299 1 17.769589972291055 8.017028664848015 6.461176808174653 0 0 0
906 1 19.17266969892709 6.381076496744621 4.475843769944301 0 0 0
1017 1 23.835917603236563 8.563340338993623 6.400421561756313 0 0 0
1011 1 25.444852608085895 6.75695826999358 5.104713473653866 0 0 0
1018 1 29.970859682632458 8.02922738235482 5.870768578980576 0 0 0
938 1 31.878710963141074 6.373463919686154 4.521804822979552 0 0 0
301 1 1.6448289891530916 11.223086834977343 6.133635416956725 0 0 0
204 1 3.071634945708699 9.83462461822424 4.348610081807848 0 0 0
302 1 7.629597522215442 11.266724282208264 6.208151054968807 0 0 0
202 1 9.363006520614908 9.762684549908972 4.544016983895638 0 0 0
208 1 16.340207698372733 9.414357858127435 5.030465424031199 0 0 0
1020 1 20.61171656318291 11.498041976286979 6.328404419993316 0 0 0
1016 1 22.219418175612144 10.215471808094224 4.639588386883217 0 0 0
1021 1 26.991209020035505 11.819716168394768 6.277042109067981 0 0 0
1022 1 28.460438542539226 10.208069543130796 4.62498210339106 0 0 0
1024 1 33.3955477701201 11.31317985639566 5.951669558622022 0 0 0
211 1 1.5685852005344076 14.708181374462447 3.593242826538596 0 0 0
323 1 -0.11234291800399886 12.853908803084186 4.881351006239728 0 0 0
309 1 4.606157086694079 14.360625824955958 6.451623621611454 0 0 0
213 1 6.340375122858218 12.932155737306609 4.582478106528597 0 0 0
311 1 10.839475590694242 14.399135557644016 6.4448046323690615 0 0 0
216 1 14.336107823047517 14.573532756459935 3.497625710534894 0 0 0
207 1 12.857148134587451 12.792646645814148 4.945007270183783 0 0 0
313 1 17.443465395158196 14.428644681073317 6.385145360749089 0 0 0
750 1 18.991098520942433 13.02027417787837 4.372000469440184 0 0 0
951 1 25.581657755217737 13.413973480030187 4.752067355052732 0 0 0
1026 1 30.335330742158007 14.94715557840194 6.166366734859559 0 0 0
947 1 31.880437640645702 13.373967227788265 4.58009125746923 0 0 0
219 1 3.2072517721922735 16.47029490329727 5.110044495903435 0 0 0
315 1 7.743398296178601 17.348686039747143 6.359324380898649 0 0 0
215 1 9.44487680313347 15.987018558314212 5.060173414479315 0 0 0
222 1 17.605548102322047 17.316114311076042 3.3408002292511334 0 0 0
312 1 15.815728071821104 16.165858891655084 5.069605546936184 0 0 0
957 1 23.88958561264866 17.832824851812163 3.448110040193571 0 0 0
1027 1 22.46839062526216 15.956487402084171 4.988008651823166 0 0 0
952 1 27.268127212688043 15.096346482934264 3.421882197096106 0 0 0
953 1 28.72045002859092 16.740119721937585 4.920748298360763 0 0 0
1031 1 33.600349406948716 17.936082411586398 6.4548614644299835 0 0 0
223 1 1.247975451983128 20.92234076231338 3.3886140918017547 0 0 0
224 1 6.149128233326897 19.222152137783226 4.72346610613347 0 0 0
319 1 4.6031707652695 20.64378032634246 6.335419594470357 0 0 0
316 1 12.42176705762972 19.031984657929844 4.890946383235572 0 0 0
227 1 14.267710832360576 20.645548753889074 3.400322608968762 0 0 0
810 1 19.28545933290599 19.0857916600912 4.9286397436859914 0 0 0
1029 1 25.305454964194865 19.7585790145707 4.865589522404342 0 0 0
1030 1 26.793170163602667 18.09712751606552 6.394938363740724 0 0 0
960 1 30.084254748986723 18.24098261112451 3.526322367548195 0 0 0
961 1 32.08230091720512 19.63246520030446 4.7803164110825715 0 0 0
324 1 2.8867897434326557 22.413780635999974 4.993397320402117 0 0 0
231 1 9.254849219430616 22.35456670830287 4.699687773062373 0 0 0
327 1 7.450205675638333 23.900672925757227 6.318908854967753 0 0 0
321 1 11.288510037092172 21.15771376534067 6.140192866746513 0 0 0
329 1 14.127853663272148 23.9951936695167 6.075786000870785 0 0 0
228 1 15.761092663852354 22.268362265090758 4.936574149766977 0 0 0
1034 1 21.70833570730985 22.433454284967972 4.79940463364168 0 0 0
1036 1 20.002407740295286 23.84064211948528 6.3272210153365664 0 0 0
1033 1 23.84456915724417 21.10960803860994 6.18685136744805 0 0 0
964 1 26.996336045841538 21.262216067001425 3.3828615649636764 0 0 0
1035 1 30.021870649430124 21.161176382843205 6.111298480948908 0 0 0
965 1 28.718919706010137 22.88799832443879 4.765597039989053 0 0 0
55 1 -0.0009433208189712217 25.430693901608727 5.028289689531117 0 0 0
235 1 5.80345182967214 25.796171051137765 4.5390653085042585 0 0 0
238 1 12.197788022451205 25.773550008029876 4.50198054464712 0 0 0
749 1 18.775158044598108 25.58486746612663 4.924642600317583 0 0 0
970 1 25.225216579534653 25.436098631228827 5.048730442992479 0 0 0
1040 1 23.32382299544752 26.916921839441503 6.2944549626056565 0 0 0
1037 1 27.1223330017163 24.275864137653578 6.403298170028106 0 0 0
974 1 31.802718716959017 25.833721139546082 4.551347431776925 0 0 0
1038 1 32.96309959025904 24.3023823613095 6.466884925345222 0 0 0
240 1 2.9532383094493104 28.57280024835743 4.998422213586328 0 0 0
242 1 9.36835493321404 28.608249807486196 5.0744708839037544 0 0 0
335 1 15.711662406337634 28.846556810823703 4.696944653386498 0 0 0
336 1 17.078840961753123 27.360055407726453 6.235256094090879 0 0 0
1044 1 22.049825851867514 28.935179323038327 4.70948124448841 0 0 0
973 1 27.132541833285195 27.412524622905224 3.303958018789372 0 0 0
977 1 28.852058586215506 29.10532961949488 4.7770833290605506 0 0 0
1041 1 30.30145224830861 27.178088167591913 6.4427969395479225 0 0 0
338 1 1.5757459823212805 30.20876395377427 6.382241323757288 0 0 0
890 1 33.56405907702079 24.02398150265848 0.07688474660109221 0 0 0
241 1 4.448829873112953 30.24471682222066 3.4240059331614607 0 0 0
339 1 5.969765861602427 31.5986527384134 5.043768246278034 0 0 0
243 1 11.061997879692449 30.164906149462404 3.595117755363827 0 0 0
244 1 12.581762607168486 32.30833859311215 4.696169959283627 0 0 0
342 1 13.982701789569361 30.356718657565334 6.308070425237553 0 0 0
245 1 17.476760624216702 30.589397393097755 3.391671320248028 0 0 0
748 1 18.81470183564531 32.35327069182354 4.9397514020359745 0 0 0
1045 1 20.515015545433478 30.408671990701546 6.457800839240651 0 0 0
1046 1 27.006772848976322 30.635987065504654 6.275267961814209 0 0 0
1051 1 25.407994093566693 32.20731109389401 4.448170592891333 0 0 0
1048 1 33.34708746842721 30.466463733396736 6.325561357156489 0 0 0
1047 1 31.852230097240177 32.080698382369086 4.750564805181919 0 0 0
246 1 1.2813790626467612 33.40558239340087 3.3443101297083415 0 0 0
343 1 2.929566219504798 35.217096660976594 4.626302420419317 0 0 0
344 1 4.474774708619041 33.71359978250452 6.278917913349472 0 0 0
247 1 7.7346328608639014 33.38249018273303 3.322369335359109 0 0 0
346 1 9.12884816178686 35.2556856288869 4.630832039767977 0 0 0
347 1 10.667892565085335 33.94428331593804 6.199813625234827 0 0 0
348 1 15.800818477199586 35.4056400613129 4.414261443482836 0 0 0
1050 1 23.995077200873794 33.544489832913655 6.2918126810663955 0 0 0
981 1 22.340189967233606 35.622973642777964 4.636907018017124 0 0 0
1052 1 30.172884911215125 33.869397810932206 6.218107044743167 0 0 0
987 1 28.56761000168951 35.390037277867 4.794361978344382 0 0 0
351 1 1.2806449576267418 36.66011444794266 6.300658020208297 0 0 0
252 1 6.346974003194061 38.29423603992356 4.754507215186821 0 0 0
352 1 7.767736387002774 36.834391730041816 6.411926701354408 0 0 0
253 1 11.387410494108684 36.75094906792276 3.4325891797915675 0 0 0
353 1 14.42588436388529 36.898687760366656 6.304354803638746 0 0 0
260 1 13.026054354420499 38.725955936058625 4.9119318413988715 0 0 0
255 1 17.499598751404026 37.26101487829788 3.2995752397817153 0 0 0
848 1 19.311787277592373 38.897026157590595 5.128359485760118 0 0 0
1055 1 25.63382381593502 38.61905746064396 4.5018222660163785 0 0 0
1061 1 31.44433103275451 38.72058375220886 4.97816438904425 0 0 0
123 1 1.3353271885237006 17.542903267733486 0.02726601610410509 0 0 0
257 1 2.93173575720646 41.42238712211258 4.7508122047531804 0 0 0
355 1 4.667358384331077 39.96882341234296 6.339148728266141 0 0 0
258 1 7.972752369617838 40.040047624219866 3.380887671333651 0 0 0
263 1 9.376515446543861 41.685782273011135 4.751334136652446 0 0 0
357 1 11.02334693938966 40.339531342537796 6.279928782143582 0 0 0
365 1 16.0418716695792 41.67483426792954 4.7227588643362965 0 0 0
988 1 21.004346761968176 40.27346796838904 3.3967652891664257 0 0 0
1059 1 22.504926157854914 41.82341738984271 5.165298596360691 0 0 0
1060 1 24.04098088082238 40.12446652272696 6.423251748570935 0 0 0
990 1 28.531204065478196 42.127060915464185 4.826980043851757 0 0 0
991 1 32.98648282155644 40.350705865323484 3.41581353469875 0 0 0
756 1 0.09327091575107502 44.766058815247625 5.05385740638373 0 0 0
361 1 1.6096959100773427 43.15845373746474 6.449303003605277 0 0 0
367 1 6.131776460244574 44.86960699379986 4.867829810823178 0 0 0
362 1 7.66831425012558 43.467170742131216 6.3248768906630115 0 0 0
364 1 14.354792084280122 43.242030207712695 6.319102011896923 0 0 0
273 1 12.7124223096955 44.728696806643306 4.548649473108575 0 0 0
728 1 18.78756558360187 44.5709961449699 4.785786770052214 0 0 0
1068 1 25.481345079503704 44.84119087658599 4.985362037139757 0 0 0
1065 1 32.23641548988604 44.84760178927056 4.935364634355337 0 0 0
366 1 2.861620249995876 47.96254070302437 5.063049684293528 0 0 0
272 1 7.728932921625936 46.419662181104066 3.524229099821127 0 0 0
372 1 10.928821529539459 46.193718043366765 6.200299487117301 0 0 0
371 1 9.596017526002203 48.11504772437717 4.980828940645964 0 0 0
379 1 15.534908049690337 47.86717284383417 4.702774760382769 0 0 0
374 1 17.290655465626152 46.44941680673409 6.288209248858961 0 0 0
1067 1 23.81904204040292 46.49524244628039 6.348273291617484 0 0 0
1072 1 22.281743043780473 47.82364103404145 4.403198441881963 0 0 0
998 1 27.09121686162432 46.50142363230926 3.577257224101051 0 0 0
1000 1 33.712710771566826 46.90607186620781 3.3682399347496728 0 0 0
2 1 -0.11921495566064703 51.00162127124337 5.204097558350138 0 0 0
278 1 4.596067883833096 49.27322992643456 3.3347089592814094 0 0 0
380 1 6.213376551016157 50.90677961319167 4.587333202635431 0 0 0
385 1 12.783882564201095 -0.08423258524122124 4.7022436447231915 0 1 0
378 1 14.012117324176455 49.50704714195354 6.482401943099542 0 0 0
1071 1 20.60739180978711 49.597974188318105 5.606793947400681 0 0 0
1079 1 25.115436004339973 -0.14209011411795003 4.72635502491536 0 1 0
1074 1 27.079014053173747 49.981860480495165 5.77666320338558 0 0 0
1073 1 29.102752344152087 48.26873482122835 4.742246862793405 0 0 0
1075 1 33.38377160476539 49.921128962394285 6.458431041951216 0 0 0
76 1 0.09304036993104409 2.9356446690515323 7.456900384977138 0 0 0
474 1 1.5303211832109611 1.7868136473246041 9.645475466116578 0 1 0
473 1 3.2415996916115364 0.061224128898897306 8.083724127905873 0 1 0
382 1 6.39174094399779 2.8884804187498365 7.832469643295336 0 0 0
475 1 8.073412698085404 1.5744882652696996 9.657555318783894 0 1 0
384 1 9.454317252490707 0.35807801643386195 7.732592666502477 0 1 0
477 1 14.332742236388984 1.5363025676127513 9.438583014766797 0 1 0
1155 1 20.468633297883507 1.4533451167505396 9.563908558861796 0 1 0
1080 1 23.81730364850458 1.390029501827891 6.529308820694773 0 1 0
1156 1 27.125912668166805 1.4841587046004148 9.552261059768847 0 1 0
1081 1 29.886616181173967 1.7660617424401845 6.553729845877822 0 1 0
387 1 4.982178038984298 4.996087696483599 9.502045629502883 0 0 0
390 1 11.199682521000428 5.072999361127778 9.2325303187335 0 0 0
476 1 13.180802623807155 3.5770437742992436 7.9297392748366775 0 0 0
1009 1 20.527323919444857 5.176280599496725 6.607740605503037 0 0 0
307 1 18.95809407661269 3.3727412688960774 8.15031586349625 0 0 0
1083 1 24.13465346784721 4.960656207007567 9.394060377140825 0 0 0
1077 1 25.62250834260449 2.9599284229276015 8.026507916073173 0 0 0
1014 1 33.33041446624966 4.953126484132637 6.945194022042912 0 0 0
1086 1 31.79367460813705 3.059484955546464 8.307715897156271 0 0 0
290 1 3.295511378414341 6.617763277701312 7.998269719165277 0 0 0
395 1 8.02273155963419 7.861015522173965 9.11448034430093 0 0 0
388 1 9.435739410598197 6.284792857789849 7.3804715396494665 0 0 0
397 1 14.010605230033486 8.29306801688102 9.522069682606682 0 0 0
391 1 15.694408789226674 6.766770759747442 8.225412649039788 0 0 0
1089 1 20.73727237903596 8.416396976821478 9.56177603848485 0 0 0
1010 1 22.26381318833365 6.839608833175464 8.150020944157639 0 0 0
1091 1 27.126958899264356 8.23932190427186 9.323669424939238 0 0 0
1085 1 28.913804084560443 6.411254454549377 7.851886641176366 0 0 0
1092 1 33.302906308146916 7.782560011685402 9.454523201079963 0 0 0
407 1 0.26269628112501325 9.957332637893415 8.118622417642058 0 0 0
297 1 6.00911659114681 9.764062844719385 7.948196635932325 0 0 0
398 1 4.57434122182726 11.258928314927406 9.656312489814729 0 0 0
304 1 12.348466675896141 9.872851226718117 7.8828439586248376 0 0 0
400 1 10.60506022892421 11.15543222306467 9.654216916151094 0 0 0
305 1 14.40086580997722 11.125761112037164 6.52924918544339 0 0 0
402 1 17.327742162697845 11.505288596491 9.613252496979905 0 0 0
836 1 19.101911264401025 9.882105139320837 7.944566922983201 0 0 0
1094 1 23.728330622679785 11.363759903590212 9.54314304272855 0 0 0
1090 1 25.693769689022606 10.196348962220135 8.009005146770745 0 0 0
1095 1 30.352086572658383 11.332435347111653 9.275709865887713 0 0 0
1019 1 31.89636210000701 9.440689798627977 7.447877045600461 0 0 0
308 1 2.7383351164546426 12.498482536479607 8.155743771119907 0 0 0
403 1 1.508130309507867 14.3496298122689 9.640589195607829 0 0 0
303 1 9.166198477988486 12.736551207017477 8.018788553435826 0 0 0
306 1 15.687457831353367 13.141944777377553 7.928738848036833 0 0 0
406 1 14.019347922437646 14.60283777400562 9.657959879483315 0 0 0
1098 1 21.02465655753048 14.767350642303308 9.679256792485107 0 0 0
1025 1 23.91237714894056 14.685206956748718 6.632818331527941 0 0 0
1093 1 22.254669064182238 12.917093818882853 7.882696861809368 0 0 0
1099 1 26.850050722038937 14.209850165030698 9.52722336330079 0 0 0
1023 1 28.877943730129537 13.163347268807764 7.9709412830363675 0 0 0
1102 1 33.44474564841041 14.502122003176803 9.008934444828048 0 0 0
7914 1 0.20190977394554555 8.603574252834672 19.516573133295005 1 -1 -3
314 1 1.3672133674688949 17.78261412997085 6.557410983868863 0 0 0
408 1 4.933614123819505 18.0214372401134 9.60612352196697 0 0 0
310 1 6.199289037135168 15.978438177165039 8.240396533279565 0 0 0
413 1 12.448439193040986 16.10529099837496 7.933045505702811 0 0 0
410 1 10.9136033248105 17.637203119397327 9.640816290574627 0 0 0
317 1 14.188867072227755 17.86292241848395 6.637594449204507 0 0 0
1028 1 20.743438643330926 17.43166823307412 6.5112337268068385 0 0 0
834 1 19.21786815197105 15.797897815062186 8.180515507369545 0 0 0
1100 1 25.668826197484492 16.36298376434682 8.249077842698913 0 0 0
1107 1 29.912582854418396 17.81825617089883 9.300655724731566 0 0 0
1032 1 31.855543340209273 16.51294648184366 7.988246626938958 0 0 0
416 1 1.5342820852563805 20.644602645744843 9.574225081562156 0 0 0
320 1 3.0558172271164774 19.064657909818298 8.097934722587654 0 0 0
418 1 8.001047655911544 20.621504766847295 9.532343981231197 0 0 0
409 1 9.716426605564903 19.257676268010503 7.632410123652432 0 0 0
322 1 17.33465053532527 20.629009630254988 6.654617545333686 0 0 0
412 1 16.107067783363867 19.062885747566128 8.373624952930994 0 0 0
1108 1 20.727238796226736 20.64303847760919 9.272791465319697 0 0 0
1105 1 22.4143367891555 19.15816872654637 7.786181559111957 0 0 0
1106 1 28.45847337523995 19.86614667917902 7.883646625453341 0 0 0
1112 1 32.98521728489574 20.859808887194212 9.298870525850223 0 0 0
325 1 1.3974940564936789 23.788139168728947 6.822678479074762 0 0 0
326 1 6.475933475566575 21.936021925381002 7.884949200343021 0 0 0
422 1 10.941801659837024 23.838045280867252 9.424806799961907 0 0 0
328 1 12.835451443143954 22.40289863882632 7.994884740052594 0 0 0
634 1 18.646285443027644 22.46245573615803 8.277817214958166 0 0 0
1109 1 25.4179541979765 22.788867004316213 7.800619638524675 0 0 0
1110 1 26.878522209332065 21.460205952552673 9.588488365908187 0 0 0
1111 1 31.52220013437692 22.525279210606307 7.918047910799702 0 0 0
330 1 3.393711280228922 25.197610547731443 8.21493743981738 0 0 0
331 1 4.466240787669797 26.906487030077457 6.769809281756926 0 0 0