LAMMPS data file via write_data, version 29 Oct 2020, timestep = 200000

4608 atoms
1 atom types

-0.11031557332285047 53.51031557332375 xlo xhi
-0.1458870073547125 51.053007007356015 ylo yhi
-0.1458870073547125 51.053007007356015 zlo zhi

Masses

1 18.015

Atoms # atomic

474 1 14.428238286112613 15.698088066316787 24.848128957733945 0 0 -1
2445 1 6.416822087137127 1.6010025191385602 4.857230376511213 1 0 1
2602 1 6.249486950689948 0.6540332739829571 2.39637985687491 1 0 0
1540 1 8.881503610930643 50.26263778283649 23.66266462448157 0 0 -1
1202 1 0.5590801398310876 33.538571969537784 22.306000340470806 0 0 -1
1728 1 4.169031930656829 3.75885521144988 5.078567910050302 -1 1 0
3854 1 -0.07148039191239729 0.18745687693457946 11.373934162409965 2 1 1
250 1 11.30457736589771 4.950230591990893 1.6786601132741208 0 1 1
4116 1 1.253021373578946 3.29843918776818 8.020197100145028 1 2 1
3068 1 1.6447646472438193 9.55769413282888 4.078662098563958 1 1 0
3803 1 0.15270868741156146 11.508524631768017 22.367598043786067 0 1 0
1537 1 15.772595329132931 8.358765812431164 24.847694740872694 1 0 0
4392 1 1.1655868026443403 11.842265626666931 5.577340835751905 1 0 1
873 1 5.23000502573472 13.857666047278878 2.8941570854905323 1 0 1
2039 1 7.545627359700758 10.82928009595238 1.991029026276356 1 0 1
3061 1 0.8887841175310858 38.34861441692412 2.6274873096902778 0 -1 0
1559 1 12.540641584326176 7.616956845346882 3.131067518103924 0 0 1
341 1 4.381003081560859 21.83053212128411 25.291034817498094 1 -1 -1
977 1 7.26179293278837 11.747132609169206 23.658257408688463 0 0 1
2423 1 16.057647761533946 8.884618452735571 1.7691881174106046 1 3 0
2215 1 17.591721706265815 13.741983977919972 11.219493325891431 -1 1 0
3097 1 15.243620608077983 16.251218405955264 3.9511251745178537 0 1 0
3345 1 1.1329202676980623 3.1006044706297886 4.8104195450809435 1 -1 1
4433 1 2.6578889085300537 15.800423369661418 15.670667220528687 1 0 0
122 1 0.7846240838483471 16.365684209377488 13.37000159982172 -1 0 0
585 1 0.44679904213786337 49.612832449630446 22.010247641877026 0 -2 0
20 1 1.5496271388127503 19.78200503204235 3.830914265129578 0 0 0
1546 1 0.04905463732416171 18.14489336391948 2.12608291205178 0 0 0
4601 1 10.949596422813672 20.540314377848574 2.509717072034363 1 1 2
2108 1 0.7338100449246178 16.336292098820827 7.230246379207662 0 2 0
1940 1 14.365968124277599 18.005263361100692 1.7245617933769437 0 0 0
2533 1 11.38165287584104 17.899468444667225 1.5025103426590092 0 0 1
4453 1 1.075503642228694 29.461027454017373 22.072804139116155 1 -1 1
2844 1 13.298271173892044 13.602907776256014 3.0708762031441954 1 0 1
2266 1 2.228725783337589 22.141669254388756 2.071155499681626 1 0 0
464 1 4.583800256438959 23.6576678598139 2.6647416774235846 0 0 1
1824 1 11.951571714579256 23.21470963943676 0.7357794962182381 1 0 1
1609 1 16.843772782272826 49.348044669615675 20.940668524577056 0 0 0
3263 1 3.866555202909088 33.29427951605457 24.934393885506207 2 -1 0
1484 1 14.735301428621607 22.49486384554177 1.233870317374592 0 0 1
1913 1 0.5846357059432548 4.983135074162078 25.31716837109384 1 0 0
2717 1 5.9526458579997 27.809580508689617 4.354251461849924 1 2 2
3716 1 1.266016327427586 27.51249053486771 -0.10808142744119914 1 0 1
2929 1 12.140667617629488 27.748361030731683 24.816529843273365 0 0 0
2901 1 1.967764430532187 7.999801969881361 1.283525793476124 1 1 0
3923 1 13.848167199010806 24.04663875928948 3.6772317678041238 1 1 1
3823 1 0.599476466442683 44.903544494593305 25.397581654095553 2 -2 0
2710 1 9.55744487496827 29.531767357801563 0.8854329733649147 0 -2 0
1036 1 7.998566516528852 47.702637868984695 24.825995327701204 0 -1 1
3445 1 2.561620346970396 11.634559761768667 1.2896271616367276 0 0 1
4427 1 3.149783340451031 27.398453767346883 16.917918071435132 1 -1 0
2453 1 3.821235275354383 16.098712330676733 24.232034186885542 1 -1 0
2086 1 1.3724316308751299 44.93767684061622 2.213776417310646 0 0 0
3861 1 15.820654861910462 11.200457989275106 23.97601088193204 1 -1 0
2400 1 2.7715748512408553 34.558993149132206 1.6747868331779758 0 -2 2
850 1 16.391239476241843 34.25533058177227 17.672175850123477 -1 0 1
3877 1 17.64660330244303 50.307430470672884 10.884250579355879 1 0 0
3622 1 1.7251238514578422 41.74368304594796 22.40973546152112 1 0 0
4462 1 16.79738097055156 40.31833714519124 18.019409012063427 1 1 1
416 1 16.26442303890895 29.940829308786057 1.7158420303090274 1 0 -1
2115 1 15.252901779274957 35.848155549927924 24.245371900193234 0 0 -1
2357 1 0.37638562372106255 35.93805236281838 1.487950725917224 1 -2 1
1059 1 17.039834321624156 40.970885773319495 3.8518190558729297 0 -1 -1
139 1 16.180397119778743 0.634650201562871 24.867153311776214 -1 1 -1
675 1 12.27469290261136 1.7352406974626577 0.5231367842390902 0 1 0
145 1 0.3562110013609928 14.169094034455334 21.66095297454807 0 -1 0
4160 1 3.899988378254454 40.348782250919115 23.45405939052066 0 1 1
1126 1 0.21090077460942935 30.395299212387904 19.34519355871671 0 0 0
88 1 3.69094541659634 6.028315304328815 2.5213169553132837 -1 1 1
714 1 1.0580784024515133 4.379039939212411 15.655015660810978 0 1 0
2230 1 7.458395903599471 8.103857333028389 25.384096375791945 1 1 -1
493 1 7.793139314336866 41.859085103981826 1.1862963627751364 -1 0 0
268 1 9.537519203606935 39.429405904750084 0.9198940055145628 0 -1 -2
935 1 3.7070458270210973 0.487108005905466 1.1070619951335545 1 1 1
2810 1 1.2952119253229295 42.06079931394822 1.6284588962930928 0 0 0
1377 1 0.7451571445951163 34.41601036451081 12.406557536447695 -1 1 1
4580 1 11.52274782235955 41.152310899959744 1.6103383377877838 1 0 0
2355 1 16.072724167249127 38.30614591398317 22.620277290882647 1 0 -1
702 1 15.937125378421378 38.63143853451713 0.48261904574135883 0 -2 0
3046 1 2.6817814496618304 13.66588579267693 3.5870570751257627 0 1 1
3128 1 3.7845508226194307 44.918787149465516 3.159186225189685 1 1 1
770 1 10.37241969719147 43.63159612544324 1.30460764740279 0 -1 -1
4565 1 9.945003096136201 46.187323688946634 3.321894615689126 1 0 -1
1383 1 2.2492498860790553 20.544991559265082 24.5083059627458 0 0 1
599 1 0.2370378425341314 24.977438530608534 10.991683979222403 0 0 -1
1994 1 7.403291153097186 49.26739715493812 2.174883681581928 1 0 0
1481 1 0.3781888460055407 29.001694532019542 2.844538031988693 1 1 1
3919 1 0.9524475660658225 15.25512600914005 1.9405362442796417 1 1 0
379 1 11.868494962762373 49.98258322663099 -0.13600586697728678 1 -1 0
2199 1 11.890653289226204 46.507918966030815 0.936103155805232 -1 -1 0
2619 1 0.04443111748255704 0.21792692101122174 5.112961815274292 1 1 1
3453 1 14.665422775353731 28.77131799088307 25.403096863524297 1 0 0
3958 1 3.3954591193255244 0.9800315622008084 3.93239670488415 0 1 1
4485 1 11.108980879178686 1.6165661179237552 5.3597434888349005 0 1 1
4474 1 9.258157471747221 50.5742759803923 6.267520904835472 1 0 0
2155 1 13.139933469098318 1.5421968549778362 3.370028573414389 1 0 0
982 1 17.26044674211124 26.469214569249228 4.6509470698650475 1 0 1
2550 1 7.717890515470967 2.5104688507947137 7.530163465840517 0 2 1
2649 1 9.727332442912326 3.92323900525912 5.612793941978911 1 0 1
4416 1 13.448653088356819 4.287162954180427 4.22009068773605 0 0 0
3208 1 17.32373399347997 0.9589528328440777 6.9748899016205534 0 1 1
1194 1 11.419511692236853 5.989724606591372 5.173335799719489 -1 0 0
3915 1 15.73276624026943 4.88250214496943 2.934164772072079 0 0 -1
4255 1 13.25531145437744 50.66471303409287 22.5630141992536 1 0 0
417 1 3.60143524837356 28.393858719766307 20.38971586907427 0 1 0
1097 1 2.633268207007244 7.841469629601389 6.267101003155958 1 -1 1
2955 1 4.8097098202505615 6.794346930870144 4.794112358999075 0 1 1
3289 1 8.982706335070548 4.304122045765172 3.2001643005490235 0 0 0
607 1 15.235360881718716 7.355249826725492 4.084639844289351 0 0 0
3835 1 3.2696656515667812 25.671350943932335 19.495252791920766 0 0 -1
962 1 3.66621744316241 10.222606999259968 7.525548328230205 0 1 1
26 1 6.148020473782712 10.485538462809439 5.848815532884105 0 1 0
2871 1 9.81342326467348 11.508985813206042 4.364005867860494 -1 2 1
2364 1 7.133809155054944 8.631853162370517 4.070374369023345 -1 -1 1
2060 1 9.914486251654559 8.46800220702492 5.06326618649472 0 0 1
2984 1 12.92032028168926 10.033332394625342 4.507515374316994 1 0 1
3489 1 -0.10421071475304017 5.123754658921652 0.6881184038745228 0 -1 0
175 1 2.708817488878588 31.950334235872223 22.562263022194085 1 0 0
1512 1 17.295990363827517 4.943623982920758 0.02861255329390547 0 0 1
3856 1 6.9673959222471975 12.53833294627472 4.474595309534637 0 1 2
4595 1 10.650585758348 13.204340577027617 2.399303286113173 0 1 0
4075 1 8.58985655639123 15.639020409698025 3.312086266113343 1 -1 2
4107 1 13.016557826309345 14.619544518206267 5.873131924660628 1 1 1
74 1 11.120016895490439 12.176262212846456 6.681172684134959 0 0 1
3096 1 14.251436681965297 15.310933275228548 0.5212309840895981 0 0 0
502 1 6.012396982499317 16.230954092684502 2.4860508443047853 -1 0 0
2078 1 6.303337003980402 19.60592793239423 3.9597597157371673 -1 -1 0
2877 1 5.901522123876951 16.483722366647427 5.665447052864282 0 1 1
2760 1 11.275946327933028 17.012785810201695 7.214076102050135 1 0 1
1876 1 15.201834959785279 19.012118867186388 5.111400957638082 0 0 0
3409 1 16.21795087790662 14.293114174718841 5.875874117634587 0 0 0
2152 1 4.319096715598601 21.832546138670313 4.743208663361398 1 0 0
841 1 9.14558671212533 19.930430959068197 4.63961085656839 1 0 -1
3336 1 10.560625917564614 17.482899602237975 4.491679279660032 0 0 1
3343 1 13.700141757348593 20.882161095753958 3.227423712547406 0 -1 1
2071 1 17.140625755518684 15.747463232137155 1.7154306023838755 0 0 0
1129 1 1.297670880760956 23.69067928053876 4.427611145866893 0 0 1
1278 1 14.752048707203336 40.513485179265714 8.329871251296913 0 0 0
4226 1 3.222172239625309 23.469827853513273 6.863653476936972 1 0 1
3215 1 10.560294576901587 25.47698305487993 1.4356043061916821 1 0 0
606 1 10.756044280322557 24.959728191936307 5.753768225668851 0 0 0
1593 1 15.965432589626783 24.023815032981965 5.840903927628236 0 0 0
668 1 15.187045510514926 48.932032857270585 24.09267880268126 0 -1 0
1542 1 1.696803615184282 26.09388885327648 5.8821433561414525 0 0 0
3364 1 3.922929648328174 25.676742215696976 4.371592461545351 1 0 1
1996 1 9.286355990963198 28.910361936496525 3.9226880517973353 1 0 0
2345 1 14.812284784239578 26.36569639463118 7.435227370592144 0 1 1
4262 1 13.174988863636424 26.55195012545404 2.8143029265854063 0 -1 1
4174 1 5.250413032745643 28.65240084767851 1.9972193128832645 1 1 2
3004 1 5.144957946562267 30.27498544297213 5.57100810754959 1 0 1
2891 1 10.74922002322631 32.31105314593793 1.619206442279049 0 0 -1
3780 1 11.923055523270156 28.38889049121209 4.459724011380512 0 0 1
3944 1 12.457132784714034 31.09473153405609 5.395716030749563 1 0 0
3112 1 15.109558403631018 30.907089703497746 4.390976078050497 0 0 0
87 1 4.849911435022437 -0.03715949218444785 22.416307392607905 -1 0 0
4085 1 1.982026960110228 32.082490856595655 0.7590282911264427 2 -1 1
566 1 7.0078863081328855 30.677952102068556 1.2920036322720077 0 0 0
3729 1 5.426515230970369 32.153447810349476 3.45134457940102 1 0 0
1388 1 0.5157547845304159 26.238578616622288 2.8107895187844307 -1 0 1
950 1 6.8254713122602215 33.788502475901396 0.9118247541688036 1 0 0
1323 1 5.428252884972187 11.771410678993615 0.18442315836290657 0 1 1
1404 1 14.521339154895772 33.60939704590464 3.4446379034924712 0 0 0
1812 1 9.439080653475397 21.91212258506516 0.17636645347946767 0 0 0
4229 1 3.2102761548541396 49.10865718327136 1.9007622825959576 0 -2 1
1754 1 1.7073802797150857 24.057388815249684 21.319445929574712 1 1 1
4062 1 13.205356920042657 10.164726800223967 -0.07827351134201795 1 0 1
1978 1 2.9872962818801985 30.53548059003318 2.768418992764557 1 -1 0
4263 1 7.134889052945643 36.63006805193339 1.0075723270970582 1 0 1
932 1 12.613020122464818 35.95960970429984 4.082718720683206 -1 -1 0
169 1 14.84488609309941 37.21341674458634 5.137012794545399 0 1 -1
2656 1 17.570640962023134 33.525508370617914 3.7478809969304057 1 0 0
2321 1 17.554175107460818 39.92759202596953 10.26162315682536 -1 0 1
1206 1 3.761994813817324 37.63588619584368 23.014464510717293 1 0 1
4553 1 4.238885476374204 35.71489750944751 3.947524214536341 1 0 0
2178 1 0.443416788043242 0.9592419173539017 0.47353795226511863 1 2 0
1637 1 11.384288578733658 35.394952682201335 1.227648092456958 0 0 0
650 1 13.252834023391896 37.47686313337714 1.0060247058565748 0 -1 -1
3459 1 0.6007415086358528 41.329696254428384 4.120815859008457 1 1 1
4495 1 1.2496730659293929 42.8829588625057 6.790030198536336 1 -1 1
10 1 3.481531778966417 39.96010446014894 2.168812102514108 1 -2 1
2556 1 9.591398921426622 37.09753876820281 2.339409986893566 1 0 0
3667 1 13.374302896813914 39.16210422117247 6.125239947634804 1 0 0
4234 1 11.207700236850723 40.67760703330049 4.389311785393972 1 -1 1
1246 1 3.3671947413040986 44.52284217440348 7.730507475955268 1 1 1
4357 1 5.300114318705447 42.74651874924302 2.249449358549235 1 1 0
2615 1 7.341677856806076 46.36369049905234 4.675986830024468 0 0 1
129 1 14.284171326982602 41.66246025351465 4.20062886082524 -1 1 0
2968 1 7.314362069400171 36.80426716714423 24.857758806457344 0 0 0
3657 1 1.0879616682125233 41.715496903119885 19.704946092262915 1 -1 -1
1844 1 5.732156378713758 47.087548094458114 2.607394240686695 -1 0 1
847 1 0.8569781023051557 49.27235032164475 3.4858334123142862 0 0 1
2062 1 13.899278457891999 42.45434604668942 1.498657685747412 0 0 -1
1374 1 0.5083102335988696 25.175382920448666 17.750033243910305 0 0 1
2367 1 5.743624254978011 50.81037794371623 6.669733203909844 1 -1 0
331 1 9.95297948453398 49.994956801113744 3.7502647735256445 0 0 -1
3956 1 14.870534996344793 50.59282891639262 6.434933438894573 1 1 2
2584 1 14.225989130671797 50.28364668360382 2.077544354025932 0 0 1
4488 1 12.875981113605613 1.3451374672848166 7.638113587667687 1 1 1
4140 1 13.275513447324942 29.112385847855382 16.796155499586426 1 -1 -1
84 1 10.941705191123818 47.572182546193716 7.4445924178852785 0 -1 1
77 1 14.44024419561284 3.6818094862321127 7.01144716935244 1 0 0
3259 1 11.239782454730316 2.5230201801092167 12.672012580977716 0 1 0
691 1 10.019794914511476 37.149265494087004 23.64879936522504 0 0 0
3172 1 1.6493047448335312 6.3350293816373355 8.366636458605843 0 1 -1
411 1 5.280084688570418 3.7806091340273644 7.635821566367213 0 1 0
514 1 12.167521503696644 5.118417369037728 7.864551527058534 0 1 1
3857 1 10.196195075755185 3.451056933900355 8.946191999988852 0 1 1
2176 1 1.9438304508107662 7.733695241477329 10.829516766675829 1 1 1
4351 1 5.688664046868376 9.341930287630843 9.336840253698119 1 0 0
114 1 5.844264197381671 6.856051874912451 7.47669877112698 -1 1 1
2129 1 15.332387792966562 6.314123001956727 8.937173269036593 0 -1 0
2114 1 14.914657342341151 27.406790474280985 0.7614514668274012 0 0 0
1274 1 7.719429847208308 21.80728211078052 2.4888324251699663 -1 0 1
2962 1 1.4165239482092593 10.72395090968171 9.726802196868611 0 0 1
2989 1 1.9926733006368953 13.205352263468763 10.814772670576936 1 1 0
1886 1 2.2889110275563564 12.967718996356615 7.71648264044071 0 -1 0
50 1 8.137464118924646 8.816369606113328 7.4545746146004985 0 1 1
3964 1 1.6546462140951133 7.701853615298082 22.17781046814646 1 1 0
1424 1 9.182733272964782 14.36342242209237 10.162412738683559 -1 1 0
3485 1 15.017902931915016 13.018387555444258 7.9487468060244435 0 1 0
433 1 17.642299124295523 23.3888019366289 21.626162037042192 1 1 0
1090 1 3.56883014870211 16.03208800522304 7.36021491482321 -1 1 0
1250 1 2.2844912131208464 17.885884186489204 11.474149793310916 1 1 1
1309 1 8.01511786922095 14.7586831747971 5.976204954415814 0 0 2
2816 1 9.290020117827837 18.65987567494021 8.72072279743553 0 1 0
2948 1 10.026816447898554 14.659999813364841 7.643789145639367 0 0 1
1902 1 13.920433289408747 17.35015228499176 8.354883670656044 1 1 0
3314 1 13.88164798216043 15.024019378026416 9.686428094839235 -1 0 0
1731 1 3.610625591667735 18.806035741216785 5.53901284710761 1 2 1
3188 1 2.6483907377331493 20.544772336916438 7.227597572819805 1 0 0
482 1 3.544064341505811 19.907206042323097 9.55891309138438 0 0 -1
4461 1 8.585247821223598 20.992038475848847 6.988463357313284 1 0 0
3814 1 6.411176987176422 18.539539645603654 7.520900426454033 1 1 0
1038 1 13.224240685159177 19.273142336763048 10.542914306778947 -1 0 1
509 1 15.113557685173534 20.036119456743595 7.638415780603184 -1 2 1
3420 1 2.307370254044019 25.951456847266147 9.111686076526558 -1 0 -1
4096 1 5.225889631160254 23.69467836413615 8.57884063523673 0 1 1
1466 1 6.018907062717726 21.109403997027748 9.25744114060501 0 1 0
3121 1 12.137735154256122 27.1851412383605 6.921877977231997 0 0 -1
4463 1 10.784730404230896 22.839590725548454 7.51909128062029 1 1 1
3934 1 13.475368284798094 21.937838838987048 5.8363420796370455 1 -1 2
2598 1 0.580128108435496 28.825141765300547 11.423081863177188 1 0 1
66 1 3.887894522831231 29.931204970161993 8.220011500425848 -1 0 0
530 1 7.023438947034018 24.054938195184857 4.407120644192761 0 0 -1
2201 1 8.555891001455631 26.179071281399693 3.569748713880508 1 0 1
4241 1 12.508396268007107 29.606322657008892 8.192543149870522 0 0 0
3831 1 1.291089877049604 14.866080081289187 24.120819498819706 1 1 0
2635 1 8.016134338339471 28.40982080431028 8.155145224921228 0 0 1
4208 1 7.762151234498424 30.282618800484734 6.1471717112455595 2 0 0
2421 1 11.171680818235311 33.45462488710096 4.244018852057863 -1 -1 1
344 1 1.3073168946593061 28.359817921198584 8.856663838714924 0 0 -1
4563 1 9.198997933621204 33.99863458999954 8.5055974384026 1 0 0
4014 1 8.761648599029863 32.949360639216735 6.017471262021089 1 0 0
1826 1 14.310144124988575 33.3994598091317 9.772300075392904 0 0 -1
61 1 1.8391990565094856 38.14376671860964 8.21934598619639 0 0 2
2405 1 6.083123659811409 33.86697295929382 5.694451204294982 0 1 1
3312 1 4.065268320645395 36.3095304997813 8.465226178113495 0 0 0
4418 1 11.237262375653351 35.63020348115241 7.037415715243509 0 1 0
4105 1 12.612419817141292 38.87351626073965 12.566282816838491 1 1 2
3077 1 1.3217793408356393 40.00068313347232 10.675617646755573 1 0 -1
3154 1 15.981234831727328 20.822994419648367 15.243753555421822 0 -1 0
3106 1 5.870265962545598 37.99452169969513 3.6264703432255616 -1 1 1
1057 1 7.685555917031211 37.6572228385064 6.034726284381796 1 -2 1
1104 1 13.23641779599103 33.591550171111194 7.222488370055996 0 0 0
713 1 6.953454072616464 35.75404962559578 8.052462218871387 0 1 -1
1231 1 15.355318926058528 37.08163475626783 8.119627604172136 0 0 1
803 1 17.591369356094145 39.86778447493849 20.794420501062742 -1 -1 0
293 1 2.3754674379698666 39.73852025267014 5.858939107710994 0 0 0
4377 1 5.148703959827791 40.7447119852378 4.527152673888133 1 0 0
2743 1 6.936075647830677 40.70901687898032 6.82334039683989 1 -1 2
1584 1 14.83976237288813 43.22817385493296 7.944679819791007 0 -1 0
3114 1 2.5922902092678517 47.064793442148186 8.870872492471209 1 0 0
3685 1 0.9249192586205925 46.76968192635688 4.755747892087094 1 0 -1
795 1 6.707008479025956 43.81137561384628 4.445597796244109 -1 0 2
3379 1 8.912856870222866 42.13755839519641 5.1240794087141825 0 1 -1
3447 1 15.188754320015704 43.957067761415345 5.445613723360949 1 0 0
339 1 15.714749660665895 28.789501243939824 18.2752429384852 0 -1 0
2401 1 11.02408340767798 1.4986586659472547 23.264885665037998 1 0 0
1238 1 1.8610562596967144 48.78901162735174 6.66667217076295 0 -1 1
2715 1 4.073017743850297 49.60626974113599 5.06569147703788 0 -2 0
2674 1 11.90815181413586 48.46668818018789 3.3053500812202885 1 -1 -1
2932 1 8.209957380575052 47.72275304395622 7.23647929847535 0 0 1
3363 1 15.457391259041536 47.361945223925986 2.0603109554255616 0 -1 0
2324 1 11.6008287921722 45.979862855466166 5.368240051640347 1 0 1
4559 1 13.589205225615645 45.13586810356256 2.8734236123473362 1 0 0
818 1 1.0970864052159448 30.372974501690177 5.304153613493236 -1 0 1
2695 1 0.7482685658579096 51.03437918671513 8.003970096790615 1 0 1
2804 1 5.093576131549482 0.7785721755590063 9.10767550606598 0 -1 0
1269 1 4.1976961962757695 48.86898920890505 10.336496876885269 0 0 1
4123 1 14.197365964727654 47.859350982433384 6.881007609556805 2 -1 0
897 1 14.561674049742326 48.44339726023213 9.681594622185928 1 0 2
295 1 5.0689794202471194 48.12296509409465 25.26980284929123 1 -1 -1
975 1 6.009854454203647 22.747176318132954 0.5031242578921767 -1 0 0
4026 1 8.429830376099812 0.634563062092002 9.76899000894805 1 1 1
2123 1 10.941207186906007 -0.09837368033523876 8.871142734528952 0 0 0
2525 1 13.121801930874678 2.041082715319336 10.537623921948331 0 1 0
292 1 5.500192190155087 45.739919289609574 0.08663934553142233 0 -2 1
4536 1 2.4239752248662927 2.9331481452579897 11.227076890066874 1 0 0
1078 1 4.621449475269446 4.131444970236744 10.392947312630662 1 -1 0
2817 1 9.311244573116673 5.681424331096021 10.347630858691263 2 0 1
2825 1 6.138395019193622 2.030237318621113 11.410122748313247 0 0 0
737 1 12.98907076380283 6.424337499504675 10.261972787064828 0 0 0
3087 1 16.47771796966507 38.26928907499456 3.432696872029933 1 -1 0
2237 1 15.496743507366832 3.568894961411334 9.977988832240818 -1 0 0
80 1 4.5610802096496 6.928949639712561 10.563509743020884 0 1 0
1317 1 12.25961320449453 9.08110135955318 9.873471502321555 0 1 1
651 1 17.17606890172102 7.49106501904385 11.252196194749235 -1 0 0
2939 1 17.07573670129952 1.8467070385682536 18.50686493801856 0 1 0
1419 1 2.8699192217376286 11.852115194969244 16.44044358771186 -1 0 2
1592 1 9.358488196696875 8.56966829900512 10.038873469141251 1 1 0
201 1 8.758042165643413 10.239352269147808 12.270644563324172 1 -1 0
163 1 11.96945235409328 11.308721718823648 11.574756218614798 0 1 1
463 1 16.52481186629146 11.984276293043 13.750499132199256 -1 0 -1
3744 1 4.585609927931901 12.656129799519443 12.666852570684998 0 1 0
703 1 7.403177767692836 12.444901047978325 11.219447588746526 0 1 0
2772 1 8.40987621370566 16.945909392603582 11.19158021938763 0 -1 0
2812 1 13.201202487398374 10.535867843271895 7.4352927690263115 0 1 1
976 1 11.716892134632783 14.046272476702532 11.389923627869901 -1 0 1
2311 1 7.009474042442721 20.804054113479992 12.26297893448704 1 0 1
2708 1 4.0276239954663815 15.808519452516748 10.24280303810768 1 0 0
4212 1 5.780675043177916 17.817079336532547 10.405510494588789 0 0 2
831 1 0.9876180856468113 23.209799474452595 8.80315537036452 0 1 1
1653 1 10.699259298041854 22.19699801130113 13.7622325145511 0 0 0
2434 1 17.140266912422845 17.891739662391153 11.629056199520278 0 1 1
3881 1 1.8771558905657673 36.95623852035935 5.013645895331573 2 0 0
584 1 2.4813858014777996 21.941908335451757 11.160295013019404 0 1 0
2083 1 4.988356069999037 26.14523789418782 9.84453199087827 0 1 -1
1518 1 9.20048199440183 22.93351506923636 11.551086021034129 0 0 1
92 1 16.035436348942802 41.675075674174835 0.16921934126929533 -1 0 0
3023 1 16.79356771998283 27.208804187351284 11.693732474356626 -1 1 1
1562 1 6.478054404964922 25.63472278719146 6.785932979861325 0 0 1
913 1 11.232605211243836 27.657929595132554 12.396033927315527 -1 1 0
2 1 9.128066248376618 26.756263608334063 14.304691143757315 -1 0 -1
517 1 13.18981593987569 21.72612784740738 8.947966634730852 0 0 -1
4058 1 12.82930648026197 25.30487457014332 11.349581868514578 1 -1 0
1556 1 0.2636564105115109 9.97148753813361 25.25094575828283 0 1 -1
800 1 5.778037894015645 28.870229839753325 9.842408515258814 1 0 2
1586 1 3.9986179158718818 32.08281043457875 12.821852506880363 0 -1 1
325 1 5.630984400149248 29.784313434601614 12.512284809054842 1 0 1
1245 1 10.279737418927715 28.497471068543526 9.902552104266508 0 0 1
3570 1 14.23913992109778 30.718282546400825 10.083263048756736 0 0 1
745 1 16.83727584610902 34.60403928857656 10.862691922505947 0 -1 -1
275 1 1.624200897474188 32.003880876910046 11.318034805612356 0 1 -1
1938 1 5.69715668832701 32.519229853045246 8.246315605474951 0 -1 1
1384 1 10.115422336511983 32.26622292416971 12.649254601754853 0 0 1
2065 1 5.642790469785255 30.863001077123677 25.320672287419836 1 0 1
2045 1 3.798393121000358 35.2196559537953 11.794561570569646 0 0 0
91 1 3.0892656600949095 33.43669603283702 9.220858416234007 1 0 -1
3051 1 12.262508316250136 37.717641571432026 8.565153018250339 0 0 0
2729 1 7.679423750737308 38.412789836492394 9.443387992488413 1 0 1
1211 1 12.53395385552132 35.45830788315375 10.675031855304761 -1 -1 0
2617 1 13.24908329118679 36.30030923867392 12.910200956982976 0 0 1
1263 1 1.2442747205640048 44.68847709554332 20.46273533796909 -1 0 0
3392 1 3.194743110530588 36.994842662994685 16.41312811815738 1 0 0
4349 1 5.083388421299162 38.89467971843088 9.291306033972832 -1 -1 0
697 1 3.903832708620076 41.21442477694818 8.008536776216882 0 -1 1
777 1 10.48803802825595 38.10859997075001 4.850272143661831 -1 1 1
4187 1 16.00607102818463 35.49418371613589 13.346123829150034 0 0 1
1675 1 13.058146342876842 40.78245953111376 10.346840775942324 0 -1 1
3005 1 2.3945824274886243 42.67967830838822 10.02082911122925 1 0 0
142 1 6.062251165414471 43.570704697734314 7.135582763305867 0 -1 0
1566 1 9.201239233361322 41.95383742958474 13.538503402926983 1 1 1
2942 1 10.113503973982548 39.60255800318963 7.975081487456324 1 -1 0
3720 1 10.357165758601713 41.390121746599945 9.825317791338458 1 0 0
1189 1 16.722660177806887 45.21470773520491 10.339680128369745 -2 0 0
1513 1 16.512946938502527 41.723562580220076 23.14619566106872 0 -1 0
2773 1 5.830537196681845 46.14211650622856 9.281057100869466 0 0 1
199 1 4.043407527059843 46.37567059826121 5.498693915328921 1 -1 -1
4568 1 10.547042142577897 44.46286344169934 11.767864975117257 0 -1 1
969 1 1.124009832753475 36.32413090482932 23.64475584477789 1 1 0
4470 1 8.246995824007513 42.828477172216765 10.471481262390224 -1 -2 1
68 1 10.572991152360004 43.62832589768374 7.066877423354075 -1 0 0
4199 1 12.478657430223478 43.867216416269315 9.5747093070954 1 -1 0
2130 1 0.3727593446469792 29.69284230023081 24.96754409730699 0 -1 -1
4344 1 4.1507901126743265 46.80618553767066 12.503250212030196 1 -1 0
2797 1 6.9661274382754055 49.34014195550424 9.209124580606966 1 -1 1
1184 1 11.936954740161882 48.92253359097701 10.432422080994963 0 0 2
2208 1 8.90332035581088 0.7929499489066923 12.520414188616055 1 0 0
1174 1 0.08063825554336637 1.385289258548801 15.874948108746654 1 1 0
86 1 4.3877774015518725 0.20045866598879158 12.936691939909142 0 1 0
338 1 5.835953121225468 48.92651122007463 13.388511452835246 0 0 0
233 1 13.124953443409842 0.542367537596615 13.938490059226426 -1 1 -1
2439 1 16.74874817680879 49.64387371612993 14.090393488087155 -1 -2 0
3446 1 3.2956328872000604 2.8959558383700092 13.896180990978738 0 1 0
304 1 6.788243328196271 5.598885403170404 12.24664362045571 1 1 1
321 1 5.747855752153167 4.332790662931268 14.564890612576033 1 0 0
3534 1 9.41224934857789 4.673226355719528 13.206300945729481 0 -1 0
1573 1 7.233372554749057 2.052502567494189 14.717031047562562 -1 1 0
1434 1 13.498280722548717 4.863523573413513 12.528899230099523 0 1 1
2567 1 12.75821522671261 6.5858390059599925 14.928579874473286 0 0 1
2313 1 11.669440116917366 7.765164790629124 0.4705168423827769 0 2 1
3457 1 6.731670442137374 7.3225245991502135 14.85009899517402 0 0 0
890 1 16.20701683724168 5.268998659914945 12.926175313115293 0 1 0
3031 1 16.876260606438127 6.396544928158829 15.369093598346206 0 0 0
2413 1 1.4084554010696753 7.4143510163242015 13.593740738113762 0 0 2
2440 1 2.2494701702893987 9.008407425671635 15.710521467252642 1 1 1
4055 1 6.389499959588832 8.801238651815082 12.309196681979296 0 1 1
1857 1 11.588074832638487 9.600141930624304 16.953904672817345 0 1 0
1612 1 16.812157848257865 10.627112228954184 16.227497706574432 1 0 0
3105 1 13.716305395464945 11.208130848470018 14.120022119231365 1 1 0
421 1 16.848317253209718 29.76815993643284 10.48887935033542 0 0 0
3117 1 6.93880435309715 12.500670155587756 16.62325206084874 1 1 0
3227 1 9.429033894196651 9.719559405862256 14.77284616681086 -1 -1 0
4545 1 10.577964583132697 12.380710819967986 14.056361291343547 1 1 1
2370 1 12.644725010454534 16.88894253706499 12.324958727891069 -1 1 1
3243 1 13.751185083371867 13.867364405739714 13.685771764245688 0 0 1
2878 1 0.18729747830247284 16.689497483349435 9.89291343997963 1 -1 0
1021 1 5.0521569799298165 15.295783760704246 14.403835007841064 1 -1 1
3374 1 4.716445423710424 17.88433934406795 13.18485801671543 0 1 0
3602 1 7.9302716798104225 13.54620869105041 14.03539134346079 1 -1 0
3124 1 10.753741498652248 15.411428572271857 14.275611135778876 0 -1 -1
2709 1 14.167212834781537 17.184700208376704 14.692440455160545 0 0 1
3524 1 16.916363300111442 18.23006523357834 14.73285936721766 0 -1 -1
3760 1 16.982569036981676 3.1853494712968327 5.14790087466714 1 1 0
3967 1 8.268574942104692 16.39168943150622 13.925854700727259 1 1 0
4501 1 1.2021880669141818 20.089464490467343 12.878668088123705 1 -1 2
1741 1 0.8819567854104408 23.452401712186067 15.313840600743596 1 0 1
4458 1 10.297921436825051 19.633823375092167 14.199345301037258 0 1 1
2312 1 15.529505996328325 15.401861924128978 11.75294799500489 -2 0 0
1156 1 10.431144247107476 19.024053693379468 11.61696620793938 0 0 0
920 1 1.0790477839276498 9.627521613903067 18.547515840649424 0 0 1
3425 1 3.684664132760035 22.28383594296505 15.576642048258327 1 -1 0
2879 1 4.7599754391464915 22.27449035617843 12.855316061195484 0 0 2
1959 1 7.628131306985872 18.96007495971019 14.273911524291307 1 0 0
3777 1 8.801334094363305 23.689898789737015 15.640770180690042 0 1 0
3537 1 13.240759667921525 22.823943701827154 12.311722680950453 0 -1 0
1040 1 8.338997495485717 25.744682110240124 9.227563886175126 0 1 1
1399 1 1.9487765593983064 28.147603264016823 14.221890795090019 0 1 0
3785 1 6.4124568049001684 25.804896370040986 15.935930698788173 1 0 1
3000 1 7.403613205008666 24.030244700696617 13.293219517975732 0 0 1
1936 1 13.269825834478487 26.62209535045548 14.355941883691834 1 0 -1
1634 1 16.77440675528039 23.73796226960363 13.864836967840436 0 0 0
719 1 0.9943406136563324 30.5235012645707 15.230328437823623 0 -1 0