LAMMPS data file via write_data, version 29 Oct 2020, timestep = 200000

4608 atoms
1 atom types

-0.040474890138167297 57.31098489013394 xlo xhi
-0.035977680122023514 50.943097680122854 ylo yhi
-0.035977680122023514 50.943097680122854 zlo zhi

Masses

1 18.015

Atoms # atomic

29 1 4.40792318566823 1.483712644584459 1.5219194657993291 0 0 0
242 1 -0.02263511839629473 47.5236023435408 9.89233180965911 0 0 0
285 1 11.101897175503078 1.3755750342699309 1.3728551596088037 0 0 0
281 1 9.637580885603125 50.654278599730326 2.6380646580013787 0 -1 0
207 1 0.021677333561868295 37.8380232719616 12.501503637315473 0 0 0
538 1 12.852691661666604 3.124925022181205 3.091504479721212 0 0 0
541 1 17.349934654358773 1.574958288057408 1.3939446709508334 0 0 0
537 1 16.036562118253606 50.86870661884235 3.195904024161887 0 -1 0
30 1 1.2558904062606824 4.96657925847154 2.126991252131392 0 0 0
57 1 3.0747498117117553 6.478008477188178 3.4571403724152354 0 0 0
143 1 0.04469686285540278 25.270752907474257 12.853981903031912 0 0 0
286 1 7.760088899721492 4.54565949268712 1.1073536934635206 0 0 0
313 1 9.190782156954002 6.303826506433454 2.992941364841263 0 0 0
542 1 14.354173108891619 4.835847995922466 1.7023234467239434 0 0 0
1407 1 12.827696506915231 19.20467572727978 25.318813348065838 0 0 0
61 1 4.275408912956187 7.503250051151463 1.4397219842486944 0 0 0
314 1 6.03680837065394 9.333434774301764 2.845830030212259 0 0 0
576 1 15.782230670964536 9.596627838913758 -0.0035781135948354664 0 0 0
317 1 11.276391010076791 7.7023502740764656 1.8113202924882759 0 0 0
569 1 15.897303764732861 6.647042935199693 3.251066516228736 0 0 0
7 1 0.11809355694748547 50.92037334727433 19.287962369062548 0 -1 0
573 1 17.51120609034328 8.38480745336003 1.7669222478852509 0 0 0
740 1 17.174082282837066 49.06545057678121 24.159220729602456 0 0 0
62 1 1.6238509065002762 11.042789462626526 1.773803488491243 0 0 0
960 1 2.819701851558325 34.92146493229747 25.343185708352816 0 0 0
318 1 7.874521868529059 10.98477763805508 1.546837336518656 0 0 0
570 1 12.605452925286851 9.561213410306184 3.5046241517211483 0 0 0
574 1 14.247652462006377 10.998700428619745 1.90310257993462 0 0 0
601 1 16.131383211433732 12.71567756611669 3.212830271819997 0 0 0
93 1 4.628597780475214 14.054348150228533 1.3514727821258945 0 0 0
247 1 0.14427799689318177 44.41607022073232 6.249368357815252 0 0 0
183 1 -0.031242272786531862 31.401118026201747 6.2875312209976295 0 0 0
345 1 9.807432365340183 12.882247699661885 3.0173899651852714 0 0 0
349 1 11.13691608683431 14.534616316854757 1.5853144535062298 0 0 0
106 1 0.2808965713424659 21.905770905187495 16.02961735544701 0 0 0
605 1 17.372829211600575 14.500584037657823 1.3429566333968805 0 0 0
94 1 1.438631096646389 17.43579652950148 1.334746446635544 0 0 0
121 1 2.8739206851985473 19.40356663797069 2.8188808699824337 0 0 0
350 1 7.87296053673495 17.285033243749396 1.6233211675039367 0 0 0
26 1 0.042104151935419054 3.080489292190999 3.284203993632169 0 0 0
606 1 14.090515267751538 17.82569102707969 1.360888236100572 0 0 0
125 1 5.015983987956841 20.776976788270467 1.4087206947232198 0 0 0
378 1 6.9066428391557455 22.15850839564611 3.2204487057256475 0 0 0
377 1 9.760305649463811 18.740728447828996 3.101672399796849 0 0 0
381 1 11.475451848311927 20.490033209834493 1.270730768008147 0 0 0
633 1 15.923372105217775 19.20519871683071 3.025559400706492 0 0 0
637 1 17.542362690237304 20.72054567536497 1.3806231185381737 0 0 0
126 1 1.5602909462690706 23.668599119266343 1.570263212655058 0 0 0
175 1 0.09150318416173661 31.546533708994595 12.73342063277084 0 0 0
153 1 3.216134498081594 25.187791328527645 3.021368542885124 0 0 0
382 1 8.181280965149417 23.927358247191602 1.4836428525023562 0 0 0
638 1 14.10307065382462 23.631598620259755 1.8293456680363522 0 0 0
157 1 4.80565486056744 27.058587438937554 1.6394477385818547 0 0 0
413 1 11.060669935236476 26.7901934031287 1.6445726129476583 0 0 0
114 1 0.09539689584715916 22.004482163479214 9.716880130955673 0 0 0
669 1 17.664896680974056 27.008001332253993 1.6194917500090324 0 0 0
158 1 1.612768381197413 30.089361194851342 1.7434844251019943 0 0 0
186 1 0.0007408470257227878 35.04168014525896 3.3621101044673476 0 0 0
410 1 6.383365746196336 28.47500536224317 3.5448743810803416 0 0 0
414 1 7.8077543725040455 29.946732069484383 1.4455385602548492 0 0 0
42 1 0.08870818021586308 9.350330901154381 16.00671949796099 0 0 0
670 1 14.405967537697563 30.201113118302104 1.3347551302027567 0 0 0
666 1 12.573766533348818 28.521467747032997 3.141659234833038 0 0 0
484 1 11.240674136575999 49.812931556702125 23.854180890018867 0 0 0
575 1 12.523659243664737 6.227306829086319 0.029603887008965504 0 0 0
189 1 4.936074211862904 33.58010211768465 2.1113250634918534 0 0 0
87 1 0.11508076570271347 12.77127094008475 6.66152728842384 0 0 0
445 1 11.32127135882259 33.119237565216984 1.3839453015511334 0 0 0
701 1 17.07194688078342 33.54134491340743 1.4363913870060412 0 0 0
697 1 15.601728630364818 31.759690951666677 3.1552742148305017 0 0 0
190 1 1.6586532460748313 36.70926547181988 1.887821838141841 0 0 0
71 1 -0.018149981068802473 12.690990034173959 19.101628039771455 0 0 0
446 1 8.093061073585531 36.71099382114172 1.928918945327633 0 0 0
442 1 6.6274080432408216 35.28633765282009 3.537174049006123 0 0 0
702 1 14.321686941977045 36.93586949612445 1.6366909921725152 0 0 0
15 1 0.18919017383610348 50.75390234707012 12.14057041452718 0 -1 0
221 1 4.732711872391673 39.6252532760128 1.3748326683782 0 0 0
474 1 6.2570335138555535 41.090774210425494 3.34280099225661 0 0 0
1783 1 19.07241337205826 44.31184179578115 6.100742283202581 0 0 0
477 1 10.828121945581648 39.95772565463294 1.2988180782481586 0 0 0
1575 1 19.010349524867113 6.234066693055751 19.1554676417083 0 0 0
729 1 16.12386510373839 38.31984896443189 2.966375687668456 0 0 0
733 1 17.59235855026414 40.10544108652145 1.5039867787379424 0 0 0
32 1 2.5728265095808 3.18578278352766 0.24186666664141637 0 0 0
222 1 1.6696021147942397 43.066971532117535 1.5533680794342428 0 0 0
478 1 7.68365057803594 42.7682014179248 1.5803849693836756 0 0 0
505 1 9.42196397112915 44.16623741694886 2.9148173083373354 0 0 0
734 1 14.25741069226728 42.81219863484365 1.022132216128449 0 0 0
170 1 0.1040894485967207 34.40597355987317 15.904848629032676 0 0 0
253 1 4.776573843074624 46.1878378535039 1.5180378927141172 0 0 0
1711 1 18.816362125206464 32.380525677137285 12.60545265337552 0 0 0
509 1 11.010715386370617 46.081338414202015 1.6077022308013045 0 0 0
765 1 17.398528413016837 46.0448246388636 1.4577284310504057 0 0 0
1119 1 6.6628128930921875 12.659812175129217 25.26659488962287 0 0 0
254 1 1.5810904966198902 49.06895726869339 1.6733716821826037 0 0 0
25 1 3.2124776110825013 50.533831104476256 3.13421486786104 0 -1 0
510 1 7.817534421058774 48.930753577488694 1.2495200686887162 0 0 0
766 1 14.53170710787669 48.9399688174817 1.4708303640606015 0 0 0
27 1 1.6289089517148043 1.259061611577638 4.748267989726063 0 0 0
282 1 6.529150376731427 2.788103194407271 2.8629680089501632 0 0 0
283 1 8.231096000026842 1.181181898076946 4.666294205776872 0 0 0
539 1 14.294198558474378 1.4224837013237508 4.599573769047686 0 0 0
536 1 15.638078047244953 3.076374393056108 5.956736911867496 0 0 0
24 1 3.262608853676317 3.243706524506091 6.082005361616354 0 0 0
28 1 4.944821524487282 4.5333044614280125 4.293191005303186 0 0 0
284 1 10.842683200887695 4.568334550040829 4.603106822545202 0 0 0
280 1 9.40933160377678 2.9528891153290866 6.341394454621085 0 0 0
567 1 12.631476651229054 6.396197058176375 6.35598693086414 0 0 0
540 1 17.400150107922418 4.920297853938557 4.637673755102442 0 0 0
896 1 3.5180983360782587 21.81912048138262 25.146769295519686 0 0 0
59 1 1.3259979789063472 8.13965133504255 5.068576351378147 0 0 0
311 1 6.4150736568181 5.7617716778541475 6.016334734090198 0 0 0
315 1 7.825691356651338 7.818471234269077 4.592470707692641 0 0 0
312 1 9.599941924056647 9.450789713204687 6.093225217311381 0 0 0
571 1 14.223390272340016 7.911384060700459 4.949282542698046 0 0 0
568 1 15.830307537948517 9.35731680671652 6.503691490756866 0 0 0
89 1 3.106391084980052 12.760528642878675 3.2556804877783776 0 0 0
60 1 4.961482169386192 10.964149295850962 4.848983207311291 0 0 0
56 1 3.1872419798952123 9.684065272076142 6.495862551163192 0 0 0
316 1 11.083898320688329 11.266020215834438 4.871964811788321 0 0 0
599 1 12.534733319525602 12.664987989129731 6.598732051668854 0 0 0
572 1 17.626976310902112 11.145224889194465 5.054803448211185 0 0 0
91 1 1.4289600954940564 14.132672344799387 4.725988627464256 0 0 0
343 1 6.22445200254198 12.965110387587512 6.555799760734806 0 0 0
347 1 7.787260135104344 14.110015219292654 4.47576654187958 0 0 0
602 1 12.875770077367536 16.107748336198334 3.0495439565938907 0 0 0
603 1 14.294277754135548 14.149649466130628 4.682454210635617 0 0 0
88 1 2.870114498253084 16.013217428596878 6.162576400110561 0 0 0
346 1 6.082423716291907 15.777121679865333 2.9192530964194057 0 0 0
92 1 4.558944314760702 17.621235576247855 4.318663013600411 0 0 0
348 1 11.081713256841825 17.196165861654062 4.780339176071196 0 0 0
600 1 15.811531245087004 15.540965347548047 6.399331713836256 0 0 0
604 1 17.25594982860884 17.48171236819117 4.850863956527437 0 0 0
123 1 1.2065626737133848 20.748787039104673 4.489123710050141 0 0 0
120 1 3.0686552134526246 22.020553411967082 5.897775054056668 0 0 0
379 1 7.494120719557965 20.02331481956046 4.652020504234829 0 0 0
635 1 14.35879360149265 20.700819582461822 4.820755805867402 0 0 0
631 1 13.003073413245692 18.994887305894775 6.215418733169939 0 0 0
1626 1 18.82184653899888 16.1223139277618 2.950510946227831 0 0 0
124 1 4.843524853576288 23.708927486244665 4.728846158267537 0 0 0
407 1 6.178673452674706 25.404044261195555 6.278805197156159 0 0 0
409 1 9.59427984027665 25.326998594074936 3.343333573687329 0 0 0
376 1 9.206396552664662 21.81214306966062 6.128555043818441 0 0 0
380 1 10.981330858488173 23.496119428330793 4.624067827570247 0 0 0
634 1 12.739657230153401 21.836050969313234 3.2566094371008467 0 0 0
636 1 17.563355462264482 23.748460977331682 4.65330291281301 0 0 0
482 1 6.5435064264795235 47.76157219028326 22.151428063210002 0 0 0
155 1 1.643519591036818 27.103967084797475 4.290093577731572 0 0 0
411 1 8.14620069782688 27.12431521053316 5.161890168411316 0 0 0
408 1 9.704101872389694 28.522818236251794 6.694076957684788 0 0 0
665 1 15.94688186875722 25.387752936554985 3.251172772802923 0 0 0
667 1 14.19946908341374 26.96603639122805 4.776937661879317 0 0 0
663 1 12.335480398964126 25.14834853789935 6.166372540459391 0 0 0
152 1 2.848351871034763 28.268224238702665 6.257203522046855 0 0 0
156 1 4.546349968222404 30.14087048497016 4.999338489259723 0 0 0
412 1 10.939229484903594 30.03681127612367 4.860341779709289 0 0 0
695 1 12.716888554659182 31.73469800692361 5.98997355540911 0 0 0
668 1 17.385293809645795 30.194563715495807 4.799680760608391 0 0 0
664 1 15.948886393029383 28.547445972111515 6.3449606118147965 0 0 0
187 1 1.527433941806442 33.2954457626276 4.867353269866804 0 0 0
185 1 3.016718787470547 31.603958233274273 3.2337354998574974 0 0 0
184 1 3.1142321108948465 35.06491457849285 6.318557345664139 0 0 0
441 1 9.597148535116155 31.68133090344121 3.056805570809475 0 0 0
443 1 8.058985270577859 33.54848745310834 4.8428825723117 0 0 0
699 1 14.220502725558891 33.5612357240678 4.664453902172011 0 0 0
698 1 12.640158407348643 35.127995723596804 2.983725482571081 0 0 0
256 1 3.066946381802189 47.459495568013345 0.1384741756956627 0 0 0
188 1 4.813656235901531 36.72840030971397 4.892089469330771 0 0 0
444 1 11.357885778424434 36.61204745464736 4.629817972973773 0 0 0
700 1 17.58302189191836 36.8407109004501 4.877035823227614 0 0 0
217 1 3.281158388850197 38.209101659244965 3.2607976811659345 0 0 0
219 1 1.6124859260737323 39.88439152509381 4.767642390941243 0 0 0
471 1 6.571557392946218 38.09173182080274 6.330588814822995 0 0 0
475 1 8.04487764263462 39.730666454088215 4.833608074287991 0 0 0
473 1 9.82527169641119 38.391970523859115 3.212729597889005 0 0 0
731 1 14.235398366113186 39.75788076245845 4.506541756119096 0 0 0
728 1 15.531962057376047 41.3239828733051 6.149528530169412 0 0 0
220 1 4.692446895966499 42.98421307844452 4.731770180920575 0 0 0
249 1 3.1430959900650306 44.65395894502012 3.2165678012323142 0 0 0
730 1 12.707118942825215 41.205140598932964 2.755889486005271 0 0 0
476 1 11.049034759884591 42.599990464063666 4.523424138009946 0 0 0
732 1 17.217491970404705 42.977984373702974 4.598746427307496 0 0 0
160 1 3.0768315857363984 28.441467611529067 0.18398720581839595 0 0 0
251 1 1.8342359308188954 46.05512894739318 5.147966271944612 0 0 0
507 1 8.159239508025404 46.018157663526154 5.057209261880965 0 0 0
506 1 6.49862059914928 47.600990659199525 3.1240497738008504 0 0 0
763 1 14.152055926569904 45.706838018706534 4.593393901479375 0 0 0
761 1 15.86321133355558 44.56954127613003 2.909689812399155 0 0 0
252 1 4.912048128234424 49.009300133672205 4.914192860381368 0 0 0
279 1 6.41106943666912 50.837544775862185 6.3756088399737285 0 -1 0
762 1 12.78511418167169 47.591024561449174 2.817660065392121 0 0 0
508 1 11.221103032831891 49.22642477315757 4.445483331101138 0 0 0
764 1 17.66386027234544 49.07056814588575 4.74585718627651 0 0 0
760 1 15.804812885381482 47.44231418307175 6.049243452965712 0 0 0
21 1 4.733662748479541 1.7075647231211748 7.829644365353928 0 0 0
274 1 6.354289614762552 3.3027792907092888 9.67657499634903 0 0 0
535 1 12.741847650865406 50.76203498020108 6.042765616946647 0 -1 0
277 1 11.195932871169262 1.315316696822776 7.744942337083447 0 0 0
533 1 17.504243740487297 1.486612506523955 7.730745042897678 0 0 0
22 1 1.5494552718890968 4.667916528691629 7.698671808053118 0 0 0
278 1 7.955420343879349 4.740257117156982 7.608431694633449 0 0 0
305 1 9.440375195202828 6.368216499403783 9.233588571115847 0 0 0
534 1 14.45255638944606 5.050526298991879 7.942795409190795 0 0 0
49 1 3.161750059842387 6.440010815759732 9.03857756716143 0 0 0
53 1 5.245083950531072 7.613414619564891 7.5788646198339515 0 0 0
309 1 11.25046440502569 7.999601379835484 7.866674834245059 0 0 0
562 1 12.927437611211001 9.392039833956021 9.633766443389 0 0 0
561 1 16.403440429479012 6.020595524184491 9.71905145737661 0 0 0
565 1 17.5403042679151 7.550610839549449 7.681718875685332 0 0 0
228 1 4.628270307632706 49.293970767255885 24.0086093858591 0 0 0
54 1 1.6617455222962385 11.30369365248416 8.284740700447067 0 0 0
1376 1 16.24372203771767 15.660926054734974 25.391630891028356 0 0 0
306 1 6.423867706664035 9.53126627735226 9.271971770776235 0 0 0
310 1 8.031928604611693 11.106023077706375 7.784065005317574 0 0 0
337 1 9.522079606958114 12.579939887659297 9.748699258865482 0 0 0
566 1 14.403400898959827 11.169317835165405 8.189317306555482 0 0 0
10 1 0.2789244777037625 2.9073627187845377 16.128814074724847 0 0 0
352 1 9.402295202080317 15.82133113018166 0.1093049278751376 0 0 0
81 1 3.297092124033016 13.062237105493088 9.798469300521685 0 0 0
85 1 4.428668563171649 14.51253606327432 7.844563896166176 0 0 0
341 1 10.771727571402668 14.169061816495775 7.900652969217309 0 0 0
597 1 17.666217229486616 13.906342866920314 8.032809556706273 0 0 0
86 1 1.3417853352481097 17.505263034162 8.080526547453408 0 0 0
338 1 6.233008287001192 15.808519024412655 9.412674125988561 0 0 0
342 1 7.655615882875052 17.31159149717244 7.628686003407528 0 0 0
344 1 9.3890148491913 15.712832628784206 6.086331595385338 0 0 0
598 1 14.335142481888653 17.229031811658054 8.092211342940415 0 0 0
625 1 15.825498693132234 18.848557471542687 9.625350408635292 0 0 0
117 1 4.325901787763513 20.468018861809913 7.968874470355491 0 0 0
375 1 5.66759310923283 18.71878916123598 6.373492253259628 0 0 0
369 1 9.33243702278648 18.934587262898688 9.388943968276635 0 0 0
373 1 10.933845266662594 20.49725607191138 7.885108908311551 0 0 0
629 1 17.28991388719382 20.48983998552208 7.736958986198463 0 0 0
118 1 1.526757003156975 23.500140828260953 7.731538050996937 0 0 0
370 1 5.888032230373856 22.369218849288973 9.228646927913772 0 0 0
374 1 8.023148563729691 23.924734535646497 7.900859794252793 0 0 0
630 1 14.058907267875101 23.85551864715107 7.975392818051256 0 0 0
626 1 12.269413375315436 22.346643636848928 9.191637298499716 0 0 0
632 1 15.951155528738042 22.308884601976228 6.329240183673667 0 0 0
145 1 3.043593297440109 25.140222542469665 9.687073167091079 0 0 0
149 1 4.5361547638943485 26.80875178126896 8.11584668426361 0 0 0
401 1 9.445712771815497 25.175600280112743 9.762967761342356 0 0 0
405 1 11.135924365182518 26.729102806464027 8.286611830630639 0 0 0
658 1 12.652610020155505 28.868192614850294 9.385433281655907 0 0 0
661 1 17.537690677284587 27.15273402269424 8.0835775818969 0 0 0
150 1 1.3751212695554622 29.96321337814492 8.036312346037645 0 0 0
406 1 7.815300651736085 29.940167952737045 8.01441600415899 0 0 0
439 1 6.331065527345698 31.8504753120693 6.401685325853875 0 0 0
662 1 14.432187904499719 30.210268250796577 7.63479618170132 0 0 0
738 1 12.879840982770226 48.089172582507146 22.32289286437549 0 0 0
181 1 4.701775306202317 33.351022660176376 7.880157691063982 0 0 0
434 1 6.430453217541702 34.84196251856425 9.443652345158512 0 0 0
437 1 11.460677687397157 33.30180227558233 8.124412541071957 0 0 0
696 1 16.114896260416486 35.07675548699338 6.148277594175096 0 0 0
693 1 17.56048253398673 33.81083468283865 7.991668089856864 0 0 0
182 1 1.2079723713165271 36.315529228682706 7.914418601932915 0 0 0
209 1 3.0221343097807116 37.96377590662499 9.439964820887676 0 0 0
438 1 8.052937725795523 36.58423705508729 8.072815780862149 0 0 0
440 1 9.780129755028629 35.227002947956414 6.347332192726303 0 0 0
690 1 13.096001623801287 35.272807741904785 9.600758026057344 0 0 0
694 1 14.547612610402213 36.619879493057525 7.84828366517838 0 0 0
213 1 4.868020436950235 39.57879862654295 7.80691621025628 0 0 0
465 1 9.453856751788821 38.22663741389698 9.440485695342263 0 0 0
469 1 11.137765195483569 39.543697588959134 7.7861138376616434 0 0 0
727 1 13.030416428416885 38.002010846594665 6.120227835860085 0 0 0
725 1 17.307850868676283 39.72338800495886 7.624305172956493 0 0 0
739 1 14.189205253852636 46.156367380362575 23.819474286070747 0 0 0
216 1 3.197408926213522 41.3949458628413 6.386832096137608 0 0 0
214 1 1.5786366933489948 42.984227526219605 7.89434188236079 0 0 0
503 1 6.385445870241778 44.42527653736489 6.3791387683550145 0 0 0
472 1 9.448287663852996 41.506693233617995 6.645472590332986 0 0 0
470 1 7.809612260683921 42.95092639045086 8.215866796864498 0 0 0
722 1 12.78300500361757 41.2633869442873 9.238211674817043 0 0 0
726 1 13.962424875688573 42.803217515580926 7.816467958310784 0 0 0
248 1 3.31371573446335 47.83059728439271 6.646937700330636 0 0 0
234 1 0.270633531571278 47.83207002940087 15.963677695072425 0 0 0
199 1 0.4339264529039534 38.24464787989761 18.754671067607756 0 0 0
245 1 4.683094467579362 45.79871275276539 8.026730627766788 0 0 0
504 1 9.670132040148749 47.86898771566723 6.0817746933443875 0 0 0
501 1 11.23978230633007 46.17216851504183 7.731471436621309 0 0 0
759 1 12.381963410518612 44.09968282936536 6.125332237589095 0 0 0
757 1 17.29738184111406 45.7117510316104 7.600212913291454 0 0 0
223 1 0.00553133152391707 38.14114349218924 0.1355252148798423 0 0 0
246 1 1.345879474074164 49.31688741643464 7.979512064572869 0 0 0
502 1 8.076754531760448 49.07604293492626 7.985718700000767 0 0 0
758 1 14.38725626908547 49.449115253122706 7.665422922390691 0 0 0
529 1 15.998834451080384 50.89135820476763 9.21213895971391 0 -1 0
17 1 3.1693494499431547 50.81668620056588 9.25630309675635 0 -1 0
19 1 1.8807282474001394 1.7018672727280513 10.785572758983363 0 0 0
16 1 3.385172914599184 3.229666898046252 12.68084292405427 0 0 0
273 1 9.809592947280537 50.803807762881554 9.497173471851301 0 -1 0
275 1 7.798658131215475 1.3227048302256266 10.722470991141764 0 0 0
530 1 12.80155971841249 3.3410476492774523 9.364708441871677 0 0 0
531 1 14.656610269318673 1.7163726917188147 10.76056445010502 0 0 0
1055 1 6.267899681034471 -0.011042746155652594 25.363021345989097 0 0 0
20 1 4.7106182872447695 4.949089702430572 11.116718356831804 0 0 0
303 1 6.093280311095157 6.369592001762075 12.63087128984881 0 0 0
276 1 11.08079361988724 4.654281501093313 10.923245074673881 0 0 0
532 1 17.82992674747997 4.626097346665885 11.146864192799452 0 0 0
1602 1 18.920662403886485 16.238938271167427 22.13464016340184 0 0 0
51 1 1.737834839535867 7.825659981416606 10.819986406726063 0 0 0
307 1 7.710478116699561 7.869209018342165 10.894351074625524 0 0 0
304 1 9.243965889447395 9.336058045595054 12.701320186773087 0 0 0
559 1 12.419786750917119 6.478159976410884 12.565651018320084 0 0 0
563 1 14.468027684965492 7.7285314422585945 11.214798654125746 0 0 0
560 1 15.752013046215609 9.740630280801351 12.611452923805194 0 0 0
1551 1 19.016022919676498 -0.008780633895305812 12.8325810199797 0 0 0
48 1 2.8291255024383974 9.098471706752084 12.837997930558075 0 0 0
52 1 4.693163229521531 10.956842257190422 11.137330361175506 0 0 0
335 1 6.283067464058373 12.571376890526725 12.922479184597172 0 0 0
308 1 10.913852910612132 10.995273968421275 11.130525187336247 0 0 0
593 1 15.88002340871501 12.75841788705312 9.758112281641221 0 0 0
564 1 17.504462904997066 11.024723305799856 11.070986786545125 0 0 0
83 1 1.4607816724287996 14.371897548230253 11.242903396206925 0 0 0
339 1 7.824048328110565 13.938848604643576 11.045218120495463 0 0 0
594 1 12.492938624670522 15.618736827522937 9.579815084835278 0 0 0
595 1 14.256458460726837 14.452043130608068 11.322924408303018 0 0 0
1703 1 18.817416177359455 31.640065284605818 19.329136658307746 0 0 0
84 1 4.690182958441807 17.22726696698035 11.02136176562379 0 0 0
80 1 3.145964388251372 15.651343882775862 12.780306004267619 0 0 0
340 1 11.361977604604352 17.740159166968468 10.826530570996457 0 0 0
596 1 17.395868506159857 17.212526196607044 11.339913015311911 0 0 0
50 1 -0.015777003615252846 9.453177872919898 9.57023914825721 0 0 0
113 1 2.9772793574933223 18.99368122204317 9.682058454436282 0 0 0
115 1 1.4910010121965425 20.365255278010718 11.507633454376698 0 0 0
367 1 6.559151415548082 18.516890459740445 12.567751994778282 0 0 0
371 1 7.531449721446242 20.477561039486645 11.004884477195741 0 0 0
623 1 12.905784877681217 18.982821272004664 12.677464802975289 0 0 0
627 1 14.195568666109184 20.57189028240622 10.7622541946672 0 0 0
112 1 3.483173861527959 21.771871040949744 12.897071671746872 0 0 0
116 1 4.553530403604034 23.47728530674703 11.454871371066764 0 0 0
399 1 6.068482135854893 25.22398183237889 12.905458845971381 0 0 0
372 1 10.926813014481615 23.496899457473262 11.230487428486686 0 0 0
368 1 9.272796939412533 21.824571161301673 12.610150188498258 0 0 0
657 1 15.77616858226739 25.413424468886763 9.38620640621383 0 0 0
628 1 17.140577207692814 23.929934746159965 10.92140119841775 0 0 0
231 1 0.3399126112390707 44.52858542247998 18.744154797570634 0 0 0
147 1 1.6688917962016574 26.772871754024244 11.068088633187935 0 0 0
402 1 6.054009306883532 28.159944597312787 9.732327327849887 0 0 0
403 1 8.088516412314007 26.590501119361953 11.519986550518787 0 0 0
400 1 9.491531713135048 28.72863687718273 12.77496784778769 0 0 0
659 1 14.050710872888354 26.92052669874643 10.994068006332341 0 0 0
177 1 3.019969167604211 31.771057483050065 9.315707295766195 0 0 0
148 1 4.562047034665832 30.270606718109416 10.964974557993044 0 0 0
431 1 6.039097357654069 32.16005658373654 12.740317569464947 0 0 0
433 1 9.206691245703126 31.809568268969176 9.320227738019046 0 0 0
404 1 10.74261751550543 30.500822882273532 10.886030536684453 0 0 0
689 1 15.865144021218958 31.959218890838642 9.104095917917597 0 0 0
660 1 17.3660094668358 30.547781835035497 11.224633534005102 0 0 0
447 1 6.361450147479036 32.06052752482179 0.29565698108475524 0 0 0
179 1 1.3743886518462605 33.21115168828558 10.986670618978472 0 0 0
435 1 7.848337109495758 33.3850758812677 11.097713867641025 0 0 0
691 1 14.492995550803561 33.449241646599376 10.990359912654142 0 0 0
688 1 15.876380360295899 35.19795539300291 12.64633524941863 0 0 0
180 1 4.75424053215536 36.513157144830046 11.0250833441227 0 0 0
463 1 6.3727630093038385 38.113980892644136 12.741763543156308 0 0 0
436 1 11.097351732426345 36.88311401364268 10.965983378747248 0 0 0
692 1 17.64703406104506 36.768107073313786 11.365101152503177 0 0 0
483 1 7.7031334728847565 46.35369631588696 24.0581800076698 0 0 0
227 1 1.4012545360644593 46.19494170406799 24.33957553821478 0 0 0
211 1 1.7027729407526988 39.69632521770079 11.135014444786139 0 0 0
467 1 7.749116403775644 40.00441675579241 11.01084042153674 0 0 0
719 1 12.359969722656787 38.708860235478994 12.469816791650688 0 0 0
723 1 14.422047305520659 39.77973236041432 11.005077242785223 0 0 0
721 1 16.105708835204627 38.21571158967869 9.411968317076564 0 0 0
241 1 2.952160857933364 44.49067901087574 9.751569701301689 0 0 0
466 1 6.2156916689440544 41.40401164470311 9.55674534704135 0 0 0
208 1 3.025269481141532 41.205783332741824 12.982480773816256 0 0 0
212 1 4.448312690033438 42.59264544928156 11.249638107590293 0 0 0
464 1 9.280642659091175 41.375519741221 12.590928554981065 0 0 0
497 1 9.672914115821738 44.64287705007563 9.669515538458754 0 0 0
468 1 11.003017832870421 42.725440019870724 10.886515414201659 0 0 0
720 1 15.626912655975291 41.64089761032818 12.749484004621177 0 0 0
724 1 17.35196257131624 42.9806207326391 10.974247069078029 0 0 0
243 1 1.7441311900384735 46.27164313387929 11.306405421971839 0 0 0
499 1 7.626617477037507 46.21935930096402 11.221057660876896 0 0 0
751 1 12.354256225743855 44.590355601766106 12.482331956281792 0 0 0
755 1 14.08006681105756 46.032056250119275 11.168046325193725 0 0 0
753 1 15.599772333338505 44.395504368796175 9.392024701301185 0 0 0
498 1 6.2971264363657 47.42895283650939 9.276817030365358 0 0 0
244 1 4.810066767434088 49.18351782560259 10.77678014186277 0 0 0
271 1 6.475129459664163 50.706833652445255 12.515378762320127 0 -1 0
500 1 11.448744440866776 49.42467750534088 11.11904621099605 0 0 0
496 1 9.53150092978258 48.181557893956196 12.415704138199184 0 0 0
754 1 12.854320478276204 47.7401434220473 9.391494661691988 0 0 0
756 1 17.758621010809794 49.36648701166476 11.016667821753575 0 0 0
13 1 5.068422356146482 1.6112768626771343 14.181572155540065 0 0 0
272 1 9.512960726955225 2.8973710825956216 12.064296415506758 0 0 0
266 1 6.858865862473257 3.2435313794696743 15.964493706752446 0 0 0
269 1 11.273330054764033 1.6880327028128637 13.912602887962102 0 0 0
528 1 15.758949921315187 3.3783724880745365 12.907525657993666 0 0 0
525 1 17.254890319107552 1.6562127839432252 14.409426021609727 0 0 0
14 1 1.7194382031246804 4.68846100024165 14.442363500947122 0 0 0
41 1 3.4927027763798555 6.09294180946255 15.998630236094751 0 0 0
270 1 8.102815657013712 4.470400289613015 13.794792085043431 0 0 0
522 1 12.728548091686449 3.0895800861811344 15.854109698500897 0 0 0
526 1 14.078557780446996 4.901577437674345 14.20155563952806 0 0 0
45 1 4.661411824207902 7.8614288458400585 14.335526468232539 0 0 0
298 1 6.420612317676035 9.521989490228421 15.880062091251114 0 0 0
301 1 10.679912478862855 7.758142439046366 14.333435140240276 0 0 0
554 1 12.880369971209499 9.59569122232228 15.885795538070463 0 0 0
557 1 17.388974130027805 8.107289996745656 14.292553715769671 0 0 0
46 1 1.601413114039024 10.945868522635562 14.31983502972067 0 0 0
73 1 3.4648626799618256 12.720718601795715 15.604378850229006 0 0 0
302 1 7.951859402260675 11.176793310874038 14.397222720684256 0 0 0
558 1 14.087282759988382 11.198563480183314 14.337170520257196 0 0 0
47 1 0.35850235889819865 6.562470226625878 12.800951785654687 0 0 0
77 1 5.019956832405941 14.61023679816696 14.285439184196656 0 0 0
336 1 9.79307924427848 15.843971182070064 12.315724567103175 0 0 0
333 1 10.987830460516582 14.226781143154207 14.320061664589012 0 0 0
329 1 9.332900630128197 12.975294859302453 15.945592798534971 0 0 0
592 1 16.170772860411326 15.649575310959234 13.05543768091327 0 0 0
591 1 12.51955672182396 12.697972705486142 12.615750856100107 0 0 0
589 1 17.569727386897338 13.845028158508722 14.51830627607809 0 0 0
585 1 15.61132869211687 12.41403859927555 16.136762067276994 0 0 0
78 1 1.6275119057879066 17.228087620347576 14.25360537064329 0 0 0
330 1 6.267302547466786 16.213935940732192 16.022573926804498 0 0 0
334 1 8.081175685295898 17.2050365381957 14.211809122225231 0 0 0
590 1 14.639148767105345 17.664630126464335 14.558941507802922 0 0 0
105 1 2.792341876843518 18.697387001511803 15.836162041471628 0 0 0
109 1 4.587511937961723 19.812406610461046 14.411907730427377 0 0 0
365 1 11.015971665174948 20.4150602794081 14.104489813348874 0 0 0
624 1 15.805372491838915 22.02925366844995 12.60147433862474 0 0 0
621 1 17.286724032439782 20.69970443171549 14.665574224053842 0 0 0
239 1 0.0006062038947184309 44.424497262342996 12.843686111603851 0 0 0
110 1 1.8702705232928705 23.69966833356846 14.506409442032094 0 0 0
366 1 7.623080017249957 23.46861816497211 14.196874276178342 0 0 0
655 1 12.578175269724714 25.290121586195617 12.656700496364758 0 0 0
622 1 13.996031931420383 23.49598811615649 14.099441618083013 0 0 0
144 1 3.07536078017535 28.748010158172633 12.56607431332763 0 0 0
141 1 4.618408364776742 27.0261900997351 14.217896057645964 0 0 0
397 1 10.923579001954323 26.70288469699457 14.330050453616375 0 0 0
656 1 16.01596871776038 28.561327260647406 12.446278018296407 0 0 0
653 1 17.327805744555576 27.01148844628265 14.278131053210473 0 0 0
79 1 -0.0377672055708451 12.461801126314779 12.694932356497507 0 0 0
1722 1 18.742612268053467 35.04301222935743 3.235267491930793 0 0 0
142 1 1.6141223536463958 30.418180767530515 14.545720503403329 0 0 0
398 1 7.765607549527748 30.392474754905404 14.314919315834848 0 0 0
687 1 12.717757175214974 31.62055231504883 12.325668192181201 0 0 0
425 1 9.313641856667179 31.815538573783247 16.16890709215441 0 0 0
654 1 14.132918064442757 30.251106112030044 14.15553565084459 0 0 0
681 1 15.646167460918715 32.034812645802965 15.651683471808886 0 0 0