
# Define the lattice
#
variable	    lattice_constant equal 6.36339
lattice		    diamond ${lattice_constant} orient x 0 0 1 orient y 0 1 0 orient z -1 0 0
lattice		    diamond 6.36339 orient x 0 0 1 orient y 0 1 0 orient z -1 0 0
Lattice spacing in x,y,z = 6.3633900 6.3633900 6.3633900

# Define region
# multiples of lattice spacing
#
region 		    simbox block 0 9 0 8 0 8

# Create Atoms
#
create_box          1 simbox
Created orthogonal box = (0.0000000 0.0000000 0.0000000) to (57.270510 50.907120 50.907120)
  3 by 1 by 2 MPI processor grid
create_atoms        1 box
Created 4608 atoms
  create_atoms CPU = 0.001 seconds
mass                1 18.015

# Define potential
#
pair_style          sw
pair_coeff          * * /data/emrosky-sim/Freezing_Simulations/Melting/MLmW_fancy/ML_mW.sw mW
Reading sw potential file /data/emrosky-sim/Freezing_Simulations/Melting/MLmW_fancy/ML_mW.sw with DATE: 2019-02-27

# Add velocity/set timestep
#
velocity            all create ${TEMP} 120598 rot yes dist gaussian
velocity            all create 292 120598 rot yes dist gaussian
timestep            5.0

# Define output
#
compute	            1 all msd
thermo              100
thermo_style        custom step temp press vol etotal ke pe c_1[4]

# Neighbor lists
#
neigh_modify        delay 0 every 1 check yes

# Set fixes
#
fix                 1 all momentum 10 linear 1 1 1 rescale
fix                 2 all nve
fix                 3 all temp/csvr ${TEMP} ${TEMP} 500.0 928347
fix                 3 all temp/csvr 292 ${TEMP} 500.0 928347
fix                 3 all temp/csvr 292 292 500.0 928347
fix                 4 all press/berendsen iso ${PRES} ${PRES} 1000.0 modulus 20000
fix                 4 all press/berendsen iso -500 ${PRES} 1000.0 modulus 20000
fix                 4 all press/berendsen iso -500 -500 1000.0 modulus 20000

# Run 0.5 ns equilibration
#
dump		    1 all custom 1000 eq.${NAME}.dump id type x y z vx vy vz
dump		    1 all custom 1000 eq.ice_292K_-500atm_ML.dump id type x y z vx vy vz
run                 100000
Neighbor list info ...
  update every 1 steps, delay 0 steps, check yes
  max neighbors/atom: 2000, page size: 100000
  master list distance cutoff = 6.0032907
  ghost atom cutoff = 6.0032907
  binsize = 3.0016454, bins = 20 17 17
  1 neighbor lists, perpetual/occasional/extra = 1 0 0
  (1) pair sw, perpetual
      attributes: full, newton on
      pair build: full/bin/atomonly
      stencil: full/bin/3d
      bin: standard
Per MPI rank memory allocation (min/avg/max) = 4.779 | 4.779 | 4.779 Mbytes
Step Temp Press Volume TotEng KinEng PotEng c_1[4] 
       0          292   -627.25492    148418.52   -51887.267    4009.9168   -55897.184            0 
     100    198.49646    -356.2844    148311.86    -50254.63    2725.8708   -52980.501   0.10125475 
     200    226.95741   -411.80814    148613.37   -49282.659    3116.7135   -52399.373   0.11607613 
     300    244.25149   -467.46968    148793.56   -48664.794     3354.206       -52019   0.14590552 
     400    265.78625   -460.61577    148926.66   -48257.792    3649.9341   -51907.726   0.14685502 
     500    283.26824   -435.83982    149047.25   -47966.418    3890.0072   -51856.425   0.13820109 
     600    288.19884   -469.61978    149139.13    -47693.13    3957.7171   -51650.847   0.15564985 
     700    293.05242   -505.58413    149190.21   -47641.644    4024.3692   -51666.014   0.14566348 
     800      291.112   -509.12281    149189.89   -47542.606    3997.7224   -51540.328   0.15616106 
     900      288.524   -502.83647    149199.59    -47518.61    3962.1824   -51480.793   0.16878272 
    1000     289.0359   -489.98228    149173.88   -47569.563    3969.2121   -51538.775    0.1486102 
    1100    294.14858   -501.34287    149193.65   -47516.003    4039.4224   -51555.425   0.15586702 
    1200    297.86882   -450.95393    149199.47   -47511.272     4090.511   -51601.783   0.15306007 
    1300    290.68402   -586.78805    149233.87   -47438.638     3991.845   -51430.482   0.16661906 
    1400    286.52444   -511.65586    149212.58   -47531.715    3934.7232   -51466.438   0.16249328 
    1500    287.86951   -527.46599       149207   -47564.572    3953.1945   -51517.766   0.15165543 
    1600    294.46596   -475.41515    149182.44   -47495.412    4043.7809   -51539.193   0.16197539 
    1700      289.919     -525.006    149201.24   -47521.444    3981.3393   -51502.783   0.15499289 
    1800    287.36985    -512.7175     149189.4   -47513.742    3946.3329   -51460.074   0.16915375 
    1900    292.27508   -518.30696    149203.15   -47429.415    4013.6944    -51443.11   0.16216403 
    2000    296.10795    -458.0232    149230.78   -47374.167    4066.3296   -51440.497   0.15399782 
    2100    288.48907   -521.66029    149218.14   -47544.709    3961.7027   -51506.412   0.16417322 
    2200    290.56215   -497.27187    149201.23   -47472.729    3990.1715   -51462.901    0.1516704 
    2300    297.27547   -489.35908    149203.82   -47407.245    4082.3627   -51489.608   0.17267721 
    2400    292.97162    -517.5381    149199.04     -47431.5    4023.2596   -51454.759   0.16565517 
    2500    296.56589   -498.24954    149233.47   -47485.946    4072.6183   -51558.564    0.1477675 
    2600     290.9922   -520.96728    149221.21   -47516.633    3996.0772    -51512.71   0.16918105 
    2700    297.83828   -445.92968     149194.6   -47484.192    4090.0916   -51574.283   0.14322115 
    2800    288.87961   -494.86419    149181.07   -47382.403    3967.0658   -51349.469   0.17357767 
    2900    298.06735    -486.4207    149205.17   -47404.389    4093.2373   -51497.626   0.16118084 
    3000    293.26238   -505.14682    149187.21    -47464.01    4027.2525   -51491.262   0.16562889 
    3100    301.48686   -468.56868    149215.54   -47438.574     4140.196    -51578.77   0.15391744 
    3200    291.90394   -510.26118    149209.01   -47545.642    4008.5977   -51554.239   0.14800662 
    3300    293.48911   -464.94928    149141.65   -47603.265    4030.3661   -51633.632   0.14939388 
    3400    286.60244   -528.09123    149154.57   -47537.207    3935.7943   -51473.001   0.15672941 
    3500    296.05023   -512.95165    149175.67    -47507.05     4065.537   -51572.587   0.16300858 
    3600    291.29583   -523.52818    149198.45   -47513.825    4000.2468   -51514.072   0.16146436 
    3700    295.92819   -503.90118    149188.08   -47475.754    4063.8611   -51539.615   0.15912223 
    3800    294.47776    -502.8051    149210.29   -47468.944    4043.9429   -51512.887   0.16253365 
    3900     288.4521   -524.25149    149217.35   -47473.688     3961.195   -51434.883   0.15990036 
    4000    287.63427   -516.71651    149195.02   -47517.891    3949.9641   -51467.855   0.15589909 
    4100    288.91872   -500.99118    149176.59   -47531.008    3967.6029   -51498.611   0.16320844 
    4200    298.03797   -482.94798    149226.66   -47493.351    4092.8338   -51586.185   0.14473779 
    4300    284.89044    -533.6003    149179.18   -47623.356    3912.2842   -51535.641   0.16528821 
    4400    295.36695   -479.45254    149217.43   -47511.741    4056.1538   -51567.895   0.14276685 
    4500    288.45024   -511.80457    149216.74   -47572.096    3961.1694   -51533.266   0.16090013 
    4600    289.83245   -524.63583    149198.97    -47608.98    3980.1508   -51589.131   0.15273583 
    4700    292.13419   -503.47317    149202.25   -47503.987    4011.7596   -51515.747   0.15237126 
    4800    292.65355   -456.62367    149217.81    -47399.54    4018.8918   -51418.432   0.16092135 
    4900    296.60827   -452.06577    149247.81   -47370.197    4073.2003   -51443.398    0.1532505 
    5000    291.91922   -500.12732    149221.71   -47506.926    4008.8075   -51515.734   0.16066488 
    5100    290.89831   -526.17126    149230.78    -47433.53    3994.7877   -51428.317    0.1547694 
    5200    294.13767   -512.60047    149227.72   -47507.419    4039.2726   -51546.692   0.16006718 
    5300    292.97386   -497.20884    149199.54   -47610.035    4023.2904   -51633.326   0.14775444 
    5400    291.99255   -471.37386    149206.13   -47570.446    4009.8145    -51580.26   0.14512251 
    5500    287.38309   -523.19342    149204.78    -47536.24    3946.5147   -51482.755   0.16123763 
    5600    288.65777   -474.24226    149200.86   -47575.166    3964.0193   -51539.185   0.15211189 
    5700    289.96588   -511.75586    149217.62   -47567.567    3981.9831    -51549.55   0.15190807 
    5800    290.86244   -501.47559    149240.25   -47507.215    3994.2952    -51501.51   0.15515435 
    5900    293.44175   -432.06195    149256.87   -47589.544    4029.7158   -51619.259    0.1425354 
    6000    291.06115   -480.11307    149219.22     -47564.1     3997.024   -51561.124     0.157269 
    6100        289.5   -472.18101    149180.58   -47639.772    3975.5854   -51615.357   0.14585773 
    6200    289.06535   -471.97439    149188.02   -47616.114    3969.6165    -51585.73   0.15729712 
    6300    298.31196   -547.57245     149231.1   -47501.192    4096.5965   -51597.788   0.15979031 
    6400    292.45462   -490.23114    149239.09   -47553.434    4016.1599   -51569.594   0.14670185 
    6500    290.06524   -493.47725    149206.06   -47566.666    3983.3475   -51550.014   0.15160034 
    6600    291.01344    -477.3708    149219.06   -47576.514    3996.3688   -51572.882   0.14409015 
    6700    290.01934   -529.28786    149189.12   -47631.012    3982.7173   -51613.729   0.15589078 
    6800    291.36281   -480.24365    149192.97   -47581.469    4001.1665   -51582.636   0.15325119 
    6900    292.93427   -492.94585    149210.51   -47498.692    4022.7468   -51521.439   0.15072737 
    7000    287.85167   -506.24246     149240.6   -47507.734    3952.9495   -51460.683   0.15716032 
    7100    292.22175   -499.97715    149241.01   -47510.262     4012.962   -51523.224   0.14225465 
    7200    288.87745   -493.55133     149209.2   -47626.888    3967.0361   -51593.924   0.15544485 
    7300    289.30464   -477.12089    149197.25   -47676.921    3972.9026   -51649.823   0.14350032 
    7400    285.64955   -489.00086    149213.89   -47562.128    3922.7087   -51484.836   0.15247149 
    7500    294.07629    -477.1589    149243.69   -47493.852    4038.4297   -51532.282   0.15209956 
    7600    291.88838   -465.85583    149244.49   -47467.489     4008.384   -51475.873   0.14622251 
    7700     288.9872   -565.94035     149218.8   -47566.464    3968.5433   -51535.007   0.16458956 
    7800    288.64598   -495.04374    149227.23   -47634.684    3963.8575   -51598.541    0.1455611 
    7900    290.13841    -519.0374    149214.03   -47573.001    3984.3524   -51557.353   0.15341908 
    8000    296.17272   -480.10979    149220.35   -47469.917    4067.2191   -51537.136   0.14959322 
    8100    295.78783   -493.16013    149207.51   -47426.194    4061.9335   -51488.128   0.15492281 
    8200     296.5359   -499.42684    149214.24   -47452.027    4072.2065   -51524.234   0.15919147 
    8300    291.50481   -552.78884    149242.67   -47415.329    4003.1166   -51418.446   0.16698178 
    8400    293.11587   -505.42941     149256.4   -47391.494    4025.2407   -51416.735   0.15915306 
    8500    292.07551   -451.02639    149273.49   -47482.804    4010.9537   -51493.757   0.15253978 
    8600    296.55358   -454.68558     149239.4   -47489.421    4072.4492    -51561.87     0.140427 
    8700     290.9642   -525.78579    149222.09   -47465.746    3995.6926   -51461.438   0.16544942 
    8800    288.44448   -494.96414       149250     -47507.7    3961.0903   -51468.791   0.15319302 
    8900    288.55457   -485.82928    149254.21   -47579.118    3962.6021    -51541.72   0.15639447 
    9000    293.13128   -477.73724    149246.13   -47498.925    4025.4523   -51524.377    0.1502038 
    9100    295.33287   -478.89367    149250.29   -47553.655    4055.6858    -51609.34   0.14290771 
    9200    292.85973   -496.07921     149237.2    -47436.43    4021.7232   -51458.153   0.16921879 
    9300     292.8975   -481.72878    149231.24   -47594.123    4022.2418   -51616.365   0.14484836 
    9400    288.87549   -514.46239    149229.97   -47555.675    3967.0092   -51522.684   0.16135875 
    9500    288.43375   -544.20079    149232.42   -47603.097     3960.943    -51564.04   0.14950894 
    9600    289.46096   -517.14224    149214.09   -47593.027    3975.0493   -51568.076   0.14999111 
    9700    297.00142   -482.68439    149239.16   -47462.144    4078.5992   -51540.744   0.15340437 
    9800    295.23793   -515.25192    149277.74   -47417.051     4054.382   -51471.433   0.15276392 
    9900    295.60126   -528.71018     149240.8   -47449.808    4059.3715   -51509.179   0.15974039 
   10000    293.15748   -522.61124    149232.89   -47506.007    4025.8121   -51531.819   0.15558841 
   10100    295.75019    -460.7222    149236.98   -47457.206    4061.4166   -51518.623   0.14767043 
   10200    294.17459   -480.03788    149243.53   -47423.949    4039.7796   -51463.728   0.16295518 
   10300    291.64832    -575.7296       149284   -47429.116    4005.0873   -51434.204   0.15976106 
   10400    292.36221   -516.97145    149261.29    -47430.93    4014.8909   -51445.821   0.16002469 
   10500    292.98763   -488.40284    149248.39   -47476.821    4023.4795   -51500.301   0.15207873 
   10600    292.17107    -490.6556    149240.43   -47501.175    4012.2661   -51513.441   0.15177451 
   10700     292.0149    -505.1408    149208.54   -47523.501    4010.1215   -51533.622   0.15557206 
   10800    289.77256   -489.45467    149182.53   -47656.039    3979.3284   -51635.367   0.14656113 
   10900    286.53998   -536.90246    149141.85   -47644.495    3934.9366   -51579.432   0.16192324 
   11000    279.43284   -509.44162     149152.5   -47653.158    3837.3372   -51490.495   0.15520911 
   11100    287.37106   -536.24729     149183.6   -47557.326    3946.3495   -51503.676   0.15387717 
   11200    291.71646   -459.33024     149178.4   -47663.406     4006.023   -51669.429   0.14801089 
   11300    289.33178   -473.70427    149181.28   -47578.897    3973.2752   -51552.172   0.14633203 
   11400    289.11031   -477.01029    149208.57   -47554.573    3970.2339   -51524.807   0.16178221 
   11500     298.1941   -480.90261    149245.62   -47455.696    4094.9778   -51550.674   0.14668992 
   11600    291.26599   -523.12944    149239.34   -47452.677    3999.8369   -51452.514   0.16404755 
   11700    294.74268   -485.54059    149273.08   -47321.341     4047.581   -51368.922   0.15986528 
   11800    298.49914   -461.25011     149263.3   -47398.159    4099.1668   -51497.325   0.14686441 
   11900    290.28926   -528.42013    149230.28   -47445.952     3986.424   -51432.376   0.16614841 
   12000    294.06768   -493.45614    149241.69   -47409.941    4038.3115   -51448.252   0.15039338 
   12100    294.64774   -470.18616    149232.02   -47470.086    4046.2772   -51516.363   0.16212716 
   12200    294.34918   -509.71387    149239.32   -47474.241    4042.1772   -51516.419   0.14815243 
   12300    288.00072   -470.43089    149191.05   -47521.108    3954.9964   -51476.104   0.15922838 
   12400     292.2232   -516.36199    149206.87   -47517.366     4012.982   -51530.348   0.15662165 
   12500    294.47447   -509.04267    149225.11   -47445.549    4043.8978   -51489.447   0.15614717 
   12600    296.23757   -458.13102    149226.51   -47407.208    4068.1097   -51475.318   0.15650198 
   12700    296.80676   -496.46147    149220.23   -47490.435    4075.9261   -51566.361   0.15146635 
   12800    296.54021   -516.33076    149218.27   -47470.461    4072.2657   -51542.727   0.15236772 
   12900    289.62841   -509.48566    149196.99   -47535.487    3977.3488   -51512.835   0.15910756 
   13000    293.21818   -489.04782    149188.72   -47502.635    4026.6456   -51529.281   0.15013043 
   13100    285.12538   -526.21782    149160.69   -47578.877    3915.5105   -51494.387   0.16209841 
   13200    282.03229   -520.41342     149177.1   -47608.183    3873.0344   -51481.218   0.15246325 
   13300     286.4746   -483.89321    149161.98   -47691.599    3934.0388   -51625.638   0.14799541 
   13400    282.13716   -495.08054    149118.03   -47673.825    3874.4744     -51548.3   0.16088499 
   13500    291.02028   -479.99916    149163.32   -47588.822    3996.4628   -51585.285   0.14676792 
   13600    292.53974   -509.28523    149165.08   -47533.067    4017.3289   -51550.396   0.16541029 
   13700    291.52269   -490.15998    149173.22    -47565.31    4003.3621   -51568.673   0.14088817 
   13800    289.97937   -463.20466    149189.19   -47511.744    3982.1683   -51493.913   0.15951638 
   13900    291.99172   -461.78586    149214.52   -47505.079    4009.8032   -51514.882   0.14805414 
   14000    295.99137   -479.87453    149209.05   -47389.135    4064.7286   -51453.864   0.15599351 
   14100    294.59861   -479.67728    149200.66   -47483.524    4045.6024   -51529.126   0.16097933 
   14200    295.65698   -500.02424    149218.02   -47497.308    4060.1366   -51557.445   0.14885186 
   14300    290.27556   -511.44279    149197.22   -47527.508    3986.2358   -51513.744   0.15652069 
   14400     290.5557   -475.11965    149191.36   -47583.798    3990.0828   -51573.881   0.14759834 
   14500     292.3409   -495.61716    149161.79   -47599.122    4014.5983    -51613.72    0.1504453 
   14600    288.21628   -507.61416    149164.57   -47552.781    3957.9565   -51510.738   0.16153785 
   14700    285.92191   -508.02965    149181.85   -47505.346    3926.4489   -51431.795   0.15441105 
   14800    293.48604   -499.54143    149209.26   -47487.211     4030.324   -51517.535   0.16035873 
   14900    292.71644   -508.13028    149220.77   -47498.299    4019.7554   -51518.055   0.15472852 
   15000    292.63037   -504.59402    149193.19   -47561.206    4018.5735   -51579.779   0.15205916 
   15100    290.51069   -487.76897    149194.57   -47575.482    3989.4647   -51564.946   0.15719842 
   15200    286.94764   -524.62662    149217.41   -47500.415    3940.5348    -51440.95   0.15305628 
   15300    291.35881   -505.72538    149210.43   -47588.635    4001.1116   -51589.747     0.154339 
   15400    290.91569   -491.94877    149201.22   -47584.053    3995.0264   -51579.079   0.14717934 
   15500    293.66688   -494.41958    149214.87   -47513.598    4032.8075   -51546.405   0.15055605 
   15600    296.55542   -477.28085    149257.34    -47390.95    4072.4745   -51463.425   0.15987944 
   15700    296.96518   -546.84751    149262.71   -47408.625    4078.1016   -51486.727   0.15705492 
   15800    298.92855    -545.9735    149267.35   -47414.455    4105.0637   -51519.518   0.16223751 
   15900    290.80466   -537.43616    149264.02   -47435.963    3993.5018   -51429.465   0.15524971 
   16000     296.4475   -495.01745    149237.38    -47477.78    4070.9925   -51548.772   0.15189332 
   16100    293.43906   -494.08262    149210.06    -47514.86    4029.6789   -51544.539   0.15721082 
   16200    291.72604   -502.75346    149227.36   -47524.124    4006.1547   -51530.278   0.14773513 
   16300    290.95518   -499.99804    149229.02   -47543.664    3995.5687   -51539.232   0.16291009 
   16400    296.62158   -526.06239     149261.9   -47558.357    4073.3832    -51631.74   0.14075912 
   16500    291.65128   -513.10085    149249.56   -47471.293    4005.1279   -51476.421   0.15890414 
   16600    294.62151   -467.56915    149288.69   -47394.897     4045.917   -51440.814   0.15229643 
   16700    294.49768   -488.44794    149295.26   -47436.834    4044.2164    -51481.05   0.15430448 
   16800    290.65174   -499.86041    149287.37    -47499.04    3991.4017   -51490.442   0.15335123 
   16900    289.75218   -485.95074    149286.57    -47522.92    3979.0485   -51501.969   0.14571558 
   17000    291.88052   -494.91895    149243.82   -47565.119     4008.276   -51573.395   0.14993617 
   17100    293.84274   -489.27772    149251.53   -47515.602    4035.2225   -51550.824   0.14974424 
   17200    287.83024   -482.59449    149229.16   -47576.469    3952.6553   -51529.124   0.15322676 
   17300    286.67057   -505.47359    149226.81   -47680.037      3936.73   -51616.767   0.15091055 
   17400    286.52192   -498.45814    149217.58   -47666.406    3934.6886   -51601.095   0.14652842 
   17500    292.61427   -483.53709    149242.58   -47560.796    4018.3524   -51579.149   0.14996565 
   17600    290.93881   -491.89648       149264   -47570.993    3995.3439   -51566.337   0.14689015 
   17700    290.25693   -489.28881    149253.53   -47633.504    3985.9799   -51619.484   0.14739708 
   17800    290.72263   -512.30711    149233.43   -47582.201    3992.3753   -51574.576   0.15343869 
   17900    292.13165   -488.43618    149262.17   -47522.394    4011.7247   -51534.118   0.14676048 
   18000    288.98749   -513.06032    149262.88   -47430.043    3968.5472    -51398.59   0.16291729 
   18100    295.58693   -548.64745    149284.53   -47444.078    4059.1746   -51503.253   0.14929805 
   18200    292.23752   -486.77416    149253.72   -47487.666    4013.1786   -51500.844   0.15700109 
   18300     291.6951   -496.02377    149260.72   -47491.843    4005.7298   -51497.573   0.14950432 
   18400    294.95713   -508.81454    149223.11   -47590.523     4050.526   -51641.049   0.14367437 
   18500    293.62251   -502.48673    149217.12   -47528.492    4032.1981    -51560.69    0.1519449 
   18600    296.21383   -505.92686    149247.46   -47477.768    4067.7837   -51545.552   0.14882887 
   18700    292.57542   -498.24842    149237.28   -47501.391    4017.8188   -51519.209   0.15451283 
   18800    284.26973   -538.74097    149201.77   -47514.023    3903.7601   -51417.784   0.15779075 
   18900    287.32213   -511.42639     149251.7   -47474.487    3945.6775   -51420.164   0.15518001 
   19000    293.64773   -511.08997    149270.24   -47508.989    4032.5444   -51541.534   0.15316914 
   19100    292.00236   -486.26922    149262.93   -47413.897    4009.9493   -51423.847   0.14783548 
   19200    294.70801    -499.1115    149247.68   -47444.314    4047.1049   -51491.419    0.1563933 
   19300    300.55109   -480.87645    149274.65   -47334.448    4127.3454   -51461.793   0.15375606 
   19400    294.37252   -523.37071    149237.38   -47398.748    4042.4976   -51441.246   0.15853366 
   19500    295.15582   -551.80707    149245.34   -47403.378    4053.2544   -51456.632   0.16241709 
   19600    296.72025   -487.25102    149254.84   -47390.275    4074.7382   -51465.013   0.14843423 
   19700    291.65431    -527.8456    149228.94   -47439.994    4005.1696   -51445.164   0.16130957 
   19800    293.18602   -495.01076    149243.06   -47392.711    4026.2039   -51418.915   0.15042735 
   19900    292.04066   -522.72572    149244.29   -47476.724    4010.4752   -51487.199   0.15482378 
   20000    293.15298   -497.58377    149234.31   -47504.025    4025.7503   -51529.775   0.15418471 
   20100    290.95074   -515.43235    149203.77   -47546.165    3995.5078   -51541.673   0.14679765 
   20200    293.51212   -519.95909     149232.1   -47527.067    4030.6822    -51557.75   0.15591587 
   20300    293.14782   -471.36587    149223.38   -47483.695    4025.6794   -51509.375   0.14998691 
   20400    288.62626   -519.51611     149243.9   -47546.093    3963.5867    -51509.68    0.1546393 
   20500    288.03646   -511.87825    149218.93   -47588.355    3955.4871   -51543.842   0.15673388 
   20600    290.10258   -530.40797    149231.89   -47610.096    3983.8603   -51593.957   0.14616201 
   20700    289.38216   -532.16555    149234.68   -47550.653    3973.9671    -51524.62   0.15725825 
   20800    293.11131   -501.97573    149265.61    -47411.05     4025.178   -51436.228   0.14693419 
   20900    293.33567   -516.23852     149249.3   -47522.354     4028.259   -51550.613     0.157094 
   21000    290.24689   -501.81108    149253.76   -47537.057     3985.842   -51522.899   0.15098243 
   21100    296.91887   -484.33022    149265.71   -47414.721    4077.4656   -51492.187   0.15174499 
   21200     295.4103   -501.28466    149250.46   -47426.933    4056.7491   -51483.682   0.15414105 
   21300    292.40298   -516.67766    149248.49   -47425.221    4015.4508   -51440.672   0.15309193 
   21400    293.35501   -524.91929    149218.32   -47461.118    4028.5246   -51489.642   0.15651449 
   21500    295.43503   -502.33876    149266.72    -47371.82    4057.0886   -51428.909   0.15627538 
   21600     298.8557   -484.94849    149279.51   -47374.524    4104.0634   -51478.588   0.15016678 
   21700    290.18321   -542.25456    149233.21    -47505.32    3984.9675   -51490.288   0.15330939 
   21800    296.70807   -505.85454    149243.93   -47541.079    4074.5708   -51615.649   0.14612149 
   21900    291.68469   -477.99451    149241.05   -47512.289    4005.5868   -51517.876    0.1484579 
   22000    290.97175    -486.2865     149242.6   -47547.385    3995.7963   -51543.182   0.14554533 
   22100    288.16095   -504.33252    149260.43   -47595.842    3957.1967   -51553.039   0.14571663 
   22200    286.50984   -546.29885    149217.12   -47678.415    3934.5226   -51612.938   0.14855939 
   22300    293.32583   -440.69753    149217.91    -47559.86    4028.1239   -51587.984   0.13863159 
   22400    290.24281   -460.30981    149234.28   -47505.613     3985.786   -51491.399   0.15114775 
   22500    295.35603   -459.88499    149262.86   -47459.169    4056.0038   -51515.173   0.14146748 
   22600     293.0766   -506.15862    149226.29   -47498.873    4024.7013   -51523.575   0.15224339 
   22700    287.94977   -487.73856    149219.45   -47556.895    3954.2967   -51511.192     0.144153 
   22800    293.08202   -509.22599    149220.01   -47478.509    4024.7758   -51503.285   0.15006742 
   22900     291.9603   -517.10641    149221.88   -47519.824    4009.3716   -51529.195   0.15155999 
   23000    286.09018   -529.59507    149224.87   -47589.539    3928.7596   -51518.299   0.14691936 
   23100    288.96624   -523.39637    149229.77   -47530.551    3968.2554   -51498.806   0.15061754 
   23200    293.25139   -469.72357    149250.12   -47473.352    4027.1017   -51500.454   0.14701112 
   23300    292.87273   -512.65111    149247.76   -47473.955    4021.9017   -51495.857   0.14740468 
   23400    285.66841   -524.06161    149248.75   -47525.237    3922.9677   -51448.205    0.1499865 
   23500    294.08281   -470.93406    149276.56   -47409.529    4038.5192   -51448.048   0.14802874 
   23600     299.0669   -477.39974    149285.06   -47433.712    4106.9637   -51540.675   0.14702913 
   23700    296.59053   -491.14094    149268.79   -47421.637    4072.9567   -51494.594   0.14680013 
   23800    301.40455   -543.12871    149269.48   -47433.641    4139.0656   -51572.706   0.15119356 
   23900    292.43215   -555.70172    149256.66   -47526.143    4015.8514   -51541.995   0.14893464 
   24000    288.60527   -531.17165    149265.16   -47469.514    3963.2985   -51432.813   0.15220468 
   24100    295.40128   -526.47456    149259.65   -47397.102    4056.6252   -51453.727   0.15311857 
   24200    292.23405   -515.41863     149267.2   -47528.283    4013.1309   -51541.414   0.14731302 
   24300    290.22934   -502.35632     149238.6   -47564.532     3985.601   -51550.133   0.15258691 
   24400    288.32324   -474.47369     149257.1   -47591.875    3959.4255     -51551.3   0.14292163 
   24500     287.7481   -545.71418    149260.21   -47549.894    3951.5272   -51501.421   0.14913394 
   24600    289.31551   -521.89657    149245.52   -47596.406    3973.0518   -51569.458   0.15188113 
   24700    289.80993   -500.98809    149243.11   -47592.253    3979.8415   -51572.094   0.14511293 
   24800    292.59085   -512.00439    149266.23   -47539.582    4018.0308   -51557.613    0.1482838 
   24900    292.76826   -503.40497    149269.56   -47599.181    4020.4671   -51619.648   0.14832989 
   25000    289.85989   -516.55227     149268.5   -47583.063    3980.5276    -51563.59   0.14389422 
   25100    286.38518   -515.88764    149255.55   -47638.168    3932.8108   -51570.979   0.15066575 
   25200    286.13408   -539.49006    149238.94   -47771.258    3929.3625   -51700.621   0.13752486 
   25300    288.04242   -482.06499    149239.12    -47602.39    3955.5689   -51557.958   0.15014337 
   25400     289.1794   -478.27157    149258.93   -47645.781    3971.1827   -51616.964    0.1425616 
   25500    293.56653   -497.73201    149287.36   -47529.629    4031.4294   -51561.058   0.14799202 
   25600    290.95243   -491.91381    149309.65   -47452.782     3995.531   -51448.313   0.14958339 
   25700    295.40012   -486.11489    149285.63   -47547.243    4056.6092   -51603.853   0.14458378 
   25800    294.55277   -482.92409    149306.58   -47396.579     4044.973   -51441.552   0.15314975 
   25900    296.30773   -517.56649    149306.24   -47425.826    4069.0731   -51494.899   0.14728687 
   26000    295.03683   -490.42193    149289.45   -47467.613    4051.6204   -51519.234   0.15284472 
   26100    296.05387     -523.609    149336.24   -47458.873     4065.587    -51524.46   0.14422226 
   26200    289.91975   -520.19141    149286.06    -47564.27    3981.3496   -51545.619   0.14979046 
   26300    288.37023   -487.80312    149274.56   -47522.517    3960.0707   -51482.588   0.14971172 
   26400    288.78968   -500.79025    149262.86   -47583.682    3965.8308   -51549.513    0.1470233 
   26500    294.46053   -490.61496    149291.07   -47493.614    4043.7063    -51537.32   0.14766656 
   26600    293.81956    -483.4966    149285.33   -47439.015    4034.9041   -51473.919   0.15219815 
   26700    296.42701    -475.1223    149294.56   -47438.228    4070.7112   -51508.939   0.14432587 
   26800    294.12929   -506.64278    149296.25   -47487.722    4039.1575   -51526.879   0.15244871 
   26900    294.16189   -495.67331     149326.2    -47432.34    4039.6052   -51471.945   0.14606223 
   27000    296.25962   -516.23246     149330.1   -47464.301    4068.4125   -51532.713   0.14883982 
   27100    300.00513   -503.51231    149311.88   -47405.707     4119.848   -51525.555   0.15037595 
   27200    290.33008   -492.24925    149319.11   -47476.369    3986.9846   -51463.353   0.14368164 
   27300    299.69925   -438.91564    149324.09   -47303.457    4115.6475   -51419.104   0.14930865 
   27400     291.6127    -519.7157     149327.4   -47432.551    4004.5982   -51437.149   0.15340921 
   27500    285.54817    -510.6058     149301.2   -47541.271    3921.3165   -51462.588   0.14791438 
   27600    290.39139   -511.96124    149272.52   -47594.748    3987.8264   -51582.574   0.14491805 
   27700    299.51946   -463.48882    149311.76   -47490.333    4113.1785   -51603.511   0.14356403 
   27800    290.67416    -483.9246    149327.07   -47465.736    3991.7096   -51457.446   0.14934899 
   27900    292.64376    -482.3104    149300.61   -47524.101    4018.7574   -51542.859   0.14321347 
   28000    289.99218   -517.46869    149277.78   -47596.503    3982.3443   -51578.848   0.14717449 
   28100    292.41472    -526.5984    149260.87   -47571.435     4015.612   -51587.047   0.14592913 
   28200    292.49256   -510.45893    149265.82   -47538.869     4016.681    -51555.55   0.14910021 
   28300    294.23694   -521.87681    149243.78   -47557.018    4040.6358   -51597.654   0.14963334 
   28400    297.60517   -487.34433    149260.12   -47488.376    4086.8904   -51575.267   0.14878823 
   28500    297.07171   -508.21612    149271.98   -47527.944    4079.5646   -51607.509   0.14936303 
   28600    289.90709   -487.81664    149268.93   -47529.128    3981.1758   -51510.304   0.14944385 
   28700    295.18742   -471.35832    149273.04   -47531.754    4053.6883   -51585.443   0.14686991 
   28800    289.02709   -479.25704    149270.16   -47572.141    3969.0911   -51541.232   0.14641091 
   28900    289.58045    -530.6771    149294.59   -47542.784    3976.6901   -51519.475   0.15042185 
   29000    295.52662   -494.54804     149315.6    -47487.14    4058.3465   -51545.487   0.14541284 
   29100    292.71665   -472.09656    149315.99   -47485.536    4019.7582   -51505.294   0.15152776 
   29200     297.1844   -521.68473    149352.98   -47418.331     4081.112   -51499.443   0.14245375 
   29300    300.07015    -497.8418    149316.16    -47420.89    4120.7409   -51541.631   0.15600996 
   29400    304.02731   -480.84117    149323.93   -47437.009    4175.0829   -51612.092   0.14012082 
   29500    294.57781   -526.74621    149299.48   -47481.598    4045.3168   -51526.915   0.15362817 
   29600    298.39777   -485.35611    149323.19   -47449.649    4097.7749   -51547.424   0.14970276 
   29700    295.06575    -515.1618    149294.66   -47524.884    4052.0176   -51576.901   0.14466896 
   29800    292.00278   -507.04952    149263.85   -47621.119     4009.955   -51631.074   0.14838254 
   29900    283.26427   -496.98187    149271.99   -47595.816    3889.9526   -51485.769    0.1463304 
   30000    285.79866   -501.97872    149278.95   -47560.726    3924.7563   -51485.482   0.15240269 
   30100    291.22019   -475.45178    149294.92   -47530.933     3999.208   -51530.141   0.14238709 
   30200    293.43272   -497.08013     149278.6   -47541.594    4029.5918   -51571.186   0.15080626 
   30300    288.85036   -536.55893     149280.4   -47532.185    3966.6641   -51498.849   0.14967236 
   30400     291.8756   -507.77274    149285.53   -47564.816    4008.2085   -51573.024   0.14907755 
   30500      290.239     -503.378    149264.57    -47666.82    3985.7338   -51652.554   0.14398823 
   30600    294.86053   -513.04123    149286.42    -47545.83    4049.1994   -51595.029   0.14755645 
   30700    292.45398   -505.13211    149276.82   -47578.512    4016.1512   -51594.663   0.14654731 
   30800    296.57787   -483.92864    149279.59   -47501.363    4072.7829   -51574.146   0.14524767 
   30900    296.28958   -525.30235    149316.48   -47484.886    4068.8239    -51553.71   0.15064129 
   31000    292.78603   -489.85188    149315.13   -47521.998     4020.711   -51542.709    0.1464819 
   31100    295.61774   -448.07213    149305.84   -47523.901    4059.5978   -51583.499   0.14494036 
   31200    291.12433   -503.65985    149315.92   -47474.304    3997.8916   -51472.196   0.15036902 
   31300    300.38349   -473.59588    149316.83   -47403.061    4125.0439   -51528.105   0.14718807 
   31400    289.61112   -537.03734    149326.22   -47526.513    3977.1113   -51503.624   0.14891299 
   31500    296.62374   -507.17569    149295.15   -47472.654    4073.4128   -51546.067   0.14924791 
   31600    289.93041   -489.95653    149285.32   -47495.172     3981.496   -51476.668   0.14877754 
   31700     294.9183   -475.07168       149327   -47464.069    4049.9927   -51514.062   0.14384413 
   31800    293.82274   -515.83601    149303.26   -47528.475    4034.9478   -51563.423   0.14519046 
   31900    294.11651   -492.73976    149306.71   -47527.949    4038.9819   -51566.931   0.13752093 
   32000    285.72485   -516.19571    149295.48   -47473.219    3923.7428   -51396.962    0.1545513 
   32100      291.367   -485.75083    149314.16   -47515.797    4001.2241   -51517.021   0.14407535 
   32200     289.3008   -504.33092    149270.53   -47637.113    3972.8498   -51609.963   0.14298901 
   32300    294.70753   -460.36347    149275.18   -47576.591    4047.0983   -51623.689   0.14268538 
   32400    287.36734   -501.08209    149271.05    -47669.34    3946.2984   -51615.638   0.14025276 
   32500     295.6744   -471.14067    149271.62   -47524.606    4060.3759   -51584.982   0.14647273 
   32600    295.06626   -514.93788    149303.74   -47477.918    4052.0246   -51529.943   0.14500345 
   32700    286.96471   -509.57758    149298.44   -47573.603    3940.7692   -51514.372   0.14612692 
   32800    293.89423    -496.1681    149297.22   -47440.255    4035.9296   -51476.184   0.14931762 
   32900    294.14527   -505.30661    149304.88   -47511.313     4039.377    -51550.69   0.14992452 
   33000    294.46667   -459.53945    149305.45   -47499.744    4043.7907   -51543.535   0.14120953 
   33100    290.22014   -497.75019    149307.29   -47537.198    3985.4747   -51522.673   0.15139365 
   33200    293.60595   -476.71816    149305.34   -47514.602    4031.9707   -51546.572   0.14046165 
   33300    288.91558   -542.03488    149285.29   -47513.938    3967.5597   -51481.498    0.1511826 
   33400    293.11106   -479.46888     149288.1   -47529.697    4025.1745   -51554.871   0.14242064 
   33500    289.11585   -475.48729    149270.82   -47552.636    3970.3099   -51522.946   0.14700799 
   33600    291.51476   -486.02732    149280.29   -47570.353    4003.2532   -51573.606   0.14346087 
   33700    295.42921    -458.6189    149301.27   -47464.724    4057.0088   -51521.732   0.14699346 
   33800    297.28993   -469.65743    149344.04   -47353.274    4082.5613   -51435.835   0.14632626 
   33900     298.2675   -473.52908    149331.41    -47385.51    4095.9859   -51481.496   0.14698582 
   34000     291.3376    -491.8562    149284.04   -47529.627    4000.8204   -51530.448   0.14791602 
   34100    291.83616   -510.13668    149277.89   -47552.696    4007.6669   -51560.363   0.14177802 
   34200    290.69293   -509.17762    149266.53   -47549.363    3991.9673   -51541.331   0.14823007 
   34300    290.68471   -496.43736    149261.08   -47584.398    3991.8546   -51576.253   0.14364388 
   34400    294.95427   -458.99303    149262.24   -47506.991    4050.4866   -51557.477   0.14354923 
   34500    294.41113   -478.13844    149292.58   -47430.066    4043.0279   -51473.094   0.15109684 
   34600    295.46241   -508.77183    149336.28   -47429.244    4057.4647   -51486.709   0.14813775 
   34700     294.6525   -480.23055    149296.59   -47551.351    4046.3425   -51597.693   0.14062202 
   34800    286.84727   -497.19069    149272.03   -47537.373    3939.1565    -51476.53   0.15029096 
   34900    290.87692   -534.32927    149283.98   -47519.892     3994.494   -51514.386   0.14605506 
   35000    298.32716   -503.51845    149271.22   -47497.081    4096.8051   -51593.886   0.14717057 
   35100    294.71994   -488.96283    149267.49   -47512.783    4047.2687   -51560.051   0.14610126 
   35200    294.80569   -478.63723    149267.83   -47449.099    4048.4463   -51497.545   0.14925012 
   35300     295.2894   -510.53734    149274.42   -47533.935    4055.0888   -51589.024   0.14942862 
   35400    287.79113   -482.82132    149277.43   -47534.036    3952.1182   -51486.154   0.14912174 
   35500    292.83777   -533.21788    149277.56   -47517.771    4021.4216   -51539.192   0.14640833 
   35600    294.09029   -493.03987    149287.91   -47495.028    4038.6219    -51533.65   0.14814813 
   35700     293.0483   -515.69205    149283.79   -47508.577    4024.3127    -51532.89   0.14669916 
   35800    299.70018   -475.40181    149343.44   -47343.897    4115.6603   -51459.557   0.15032852 
   35900     294.1277   -523.64415    149318.02   -47461.717    4039.1357   -51500.853   0.14678606 
   36000    291.00154   -495.13271     149268.6     -47510.1    3996.2053   -51506.306   0.14749865 
   36100    287.85977   -495.28901    149257.27   -47552.121    3953.0607   -51505.182   0.14600564 
   36200    292.47397   -517.89009    149231.68   -47585.586    4016.4256   -51602.012   0.14985679 
   36300    291.87793   -518.96582    149236.92   -47511.599    4008.2406    -51519.84   0.14928595 
   36400    295.13803   -521.41871    149257.73   -47573.657    4053.0101   -51626.667   0.14620504 
   36500    295.29555   -503.13286    149263.43    -47547.01    4055.1733   -51602.184   0.14591684 
   36600    293.88368   -495.40822    149256.61    -47546.25    4035.7846   -51582.035   0.14355422 
   36700    290.29561   -541.05077    149243.94   -47580.038    3986.5111   -51566.549   0.15140708 
   36800    286.21348   -518.00312    149246.45   -47655.359     3930.453   -51585.812   0.14490107 
   36900    289.03068   -509.50841    149236.98   -47568.651    3969.1404   -51537.791   0.15095044 
   37000     286.7804   -535.78162    149235.86   -47557.403    3938.2382   -51495.641   0.15077305 
   37100    289.58645   -478.42982    149207.47   -47594.029    3976.7726   -51570.801   0.14877169 
   37200    287.60237    -517.3311    149237.44   -47604.389     3949.526   -51553.915    0.1470095 
   37300    289.62549   -498.57696    149237.68   -47597.548    3977.3086   -51574.857   0.14622957 
   37400    289.66228   -488.37197    149233.81   -47613.525    3977.8139   -51591.339    0.1429669 
   37500    292.70035   -541.94044    149241.58   -47592.418    4019.5345   -51611.952   0.14767941 
   37600    286.06287   -522.03467    149232.88   -47641.878    3928.3846   -51570.263   0.14608329 
   37700    286.38007   -496.86572    149220.89   -47722.315    3932.7407   -51655.056   0.14447186 
   37800    285.59951   -483.29751     149200.9    -47736.37    3922.0215   -51658.391   0.14151461 
   37900    285.20099   -495.09286    149216.96   -47642.566    3916.5488   -51559.114   0.14925208 
   38000    291.33289   -491.04992     149232.9   -47576.986    4000.7557   -51577.742   0.14404182 
   38100    291.69987    -471.5854    149241.78   -47519.851    4005.7953   -51525.646   0.14919865 
   38200    294.60949   -504.41247    149258.07   -47482.214    4045.7519   -51527.966   0.15337916 
   38300    288.48621   -525.29069    149256.41   -47533.538    3961.6634   -51495.202   0.14947843 
   38400    298.39657   -467.77433    149266.04   -47466.004    4097.7584   -51563.763   0.14768294 
   38500    290.55654   -503.49414     149266.1   -47528.635    3990.0943   -51518.729   0.15017753 
   38600    292.09241   -499.53946     149277.9   -47489.629    4011.1858   -51500.815   0.15230963 
   38700    292.82128   -508.38508    149288.33   -47459.322    4021.1951   -51480.517    0.1484101 
   38800    294.48224    -488.1711    149279.22   -47494.729    4044.0044   -51538.734   0.14730843 
   38900    295.19934   -475.17044    149294.55   -47432.905     4053.852   -51486.757   0.14629006 
   39000    294.52863   -507.54457    149286.28   -47494.615    4044.6414   -51539.256   0.15079395 
   39100    291.59906    -499.3912    149267.33   -47511.436     4004.411   -51515.847   0.14860398 
   39200    287.27067   -483.65294    149250.55   -47645.629    3944.9708     -51590.6   0.14645623 
   39300    285.40565    -488.2798    149217.91   -47651.416    3919.3594   -51570.775   0.14559004 
   39400    293.30038   -517.36959    149237.53   -47526.199    4027.7745   -51553.973   0.15333948 
   39500    293.19229   -473.77885    149263.34   -47507.023    4026.2901   -51533.313   0.14725001 
   39600    298.47133    -499.7113    149249.45   -47501.586    4098.7849   -51600.371   0.15522646 
   39700    295.87878   -476.14964    149262.75   -47488.203    4063.1826   -51551.385   0.14977311 
   39800    287.93722    -517.8327    149232.81   -47503.663    3954.1243   -51457.787   0.15170062 
   39900    290.81409   -505.29625    149269.36   -47473.191    3993.6312   -51466.822   0.15484547 
   40000    289.93699    -500.9345    149288.48   -47552.819    3981.5864   -51534.406   0.14850673 
   40100     291.6648   -494.15015    149264.72   -47559.283    4005.3136   -51564.597   0.15196054 
   40200    290.26086   -498.85643    149268.78    -47535.24    3986.0339   -51521.274   0.14807369 
   40300    289.92017   -486.27117    149262.96    -47541.46    3981.3553   -51522.815   0.14501513 
   40400    287.91601   -523.84389    149271.86    -47634.78    3953.8331   -51588.613   0.14741924 
   40500    292.25902    -462.0309    149278.35   -47488.251    4013.4739   -51501.725   0.14650144 
   40600    290.79257   -510.16038    149282.02   -47565.591    3993.3357   -51558.927   0.14891936 
   40700    293.97535   -504.30252    149253.51   -47568.087    4037.0435   -51605.131   0.14642162 
   40800    291.86657   -532.14604    149260.03   -47544.036    4008.0845   -51552.121   0.14934343 
   40900    292.66112   -474.44214    149259.88   -47525.148    4018.9958   -51544.144   0.14571559 
   41000     290.9614   -526.27812    149256.54   -47596.633    3995.6542   -51592.287    0.1476394 
   41100    291.97826   -479.36105    149255.62   -47562.524    4009.6183   -51572.143   0.14854297 
   41200       299.81   -488.02078    149287.33   -47449.591    4117.1684    -51566.76   0.14456294 
   41300    292.08941   -496.21984    149280.24   -47533.382    4011.1447   -51544.526   0.14499602 
   41400    294.88507    -488.2644    149278.67   -47479.661    4049.5363   -51529.197   0.14595019 
   41500    294.02551   -477.69079    149278.47    -47495.77    4037.7323   -51533.502   0.14779961 
   41600    295.65289   -475.34007    149262.98    -47501.61    4060.0805   -51561.691   0.14519525 
   41700    288.07513   -510.39637    149241.03   -47615.096    3956.0182   -51571.114   0.14866993 
   41800    290.61357   -526.06525    149246.69   -47525.754    3990.8776   -51516.632   0.15165451 
   41900    285.79053   -531.89654    149238.02   -47606.229    3924.6448   -51530.873   0.15035532 
   42000    293.98837   -449.55567    149238.13   -47574.842    4037.2223   -51612.065   0.14126857 
   42100    286.89943    -479.1814    149240.97   -47646.573    3939.8728   -51586.446    0.1470963 
   42200    288.52848   -508.05412    149214.71   -47602.927    3962.2439   -51565.171   0.14737075 
   42300    297.79589   -494.72297    149221.51   -47566.712    4089.5095   -51656.221   0.14903419 
   42400    286.58036   -508.63878    149240.29   -47593.766    3935.4912   -51529.258   0.14664408 
   42500    285.80686   -511.89936    149236.34   -47552.264    3924.8689   -51477.133   0.15372204 
   42600    288.07688   -510.16212    149228.98   -47595.228    3956.0422    -51551.27   0.14910875 
   42700    290.74704   -478.15756    149210.96    -47660.46    3992.7105   -51653.171   0.14525968 
   42800     292.4395   -496.10937    149223.12   -47572.994    4015.9523   -51588.946   0.15105571 
   42900     287.5517    -497.8492    149230.78   -47594.188    3948.8302   -51543.018   0.14653352 
   43000    286.99263   -501.24482     149230.9   -47617.159    3941.1527   -51558.312   0.15286601 
   43100    286.58298   -524.34802    149225.21   -47532.141    3935.5272   -51467.668   0.14976037 
   43200    289.54197   -510.80946    149231.87   -47546.742    3976.1617   -51522.904   0.15335391 
   43300    293.46548   -465.58892    149232.89    -47542.65    4030.0417   -51572.691   0.14950993 
   43400    291.52084   -468.68558    149254.08   -47469.335    4003.3367   -51472.672   0.15080533 
   43500    288.37132   -521.68493    149268.53   -47526.962    3960.0857   -51487.048   0.15115669 
   43600    289.56088    -506.3812    149259.89   -47571.024    3976.4214   -51547.445   0.14532946 
   43700    286.49216   -481.71621    149240.57   -47612.682    3934.2799   -51546.962   0.14738495 
   43800    291.07638   -517.34058    149246.36   -47659.068    3997.2331   -51656.301   0.14539847 
   43900    288.14768   -490.30559    149250.66   -47567.502    3957.0145   -51524.516   0.14935447 
   44000    288.35384   -513.34121    149209.77   -47653.418    3959.8456   -51613.263   0.14981633 
   44100    292.00428   -474.16937    149222.48   -47607.013    4009.9756   -51616.988   0.14437371 
   44200    290.22408   -523.23008    149220.22   -47564.184    3985.5288   -51549.713   0.15859371 
   44300    290.40845   -510.43909    149227.39   -47567.935    3988.0608   -51555.996     0.148895 
   44400    294.59784   -471.49967    149227.17   -47582.331    4045.5919   -51627.923   0.14645141 
   44500    291.56839   -505.28619    149224.01   -47585.745    4003.9896   -51589.735   0.14878188 
   44600    289.40479   -528.63066    149219.37   -47589.481    3974.2779   -51563.759   0.14742326 
   44700    292.19317   -510.44284    149214.05   -47575.368    4012.5695   -51587.938   0.14982462 
   44800    294.76147   -455.63963    149214.91    -47531.15     4047.839   -51578.989   0.14900122 
   44900    291.27979   -478.17436    149224.01   -47516.982    4000.0265   -51517.009   0.14812601 
   45000    289.75305   -488.13923    149227.52   -47560.776    3979.0604   -51539.836   0.15160323 
   45100    287.53274   -529.09318    149261.35    -47443.51    3948.5698    -51392.08   0.15535493 
   45200    290.62573   -507.38809    149250.34   -47477.607    3991.0446   -51468.652   0.14939543 
   45300    296.35171    -511.4451    149240.22   -47508.234    4069.6771   -51577.911   0.14859197 
   45400    295.41009   -522.57846    149211.81    -47571.06    4056.7462   -51627.806   0.14448183 
   45500    295.24329       -491.8    149216.59   -47505.016    4054.4557   -51559.472   0.15048133 
   45600    290.20746   -496.28647    149223.15    -47501.04    3985.3006   -51486.341   0.14796235 
   45700     294.3566   -494.13093    149213.62   -47453.159    4042.2791   -51495.438   0.15298768 
   45800    286.49715   -534.45682    149233.42   -47533.704    3934.3484   -51468.052   0.14880079 
   45900    293.63252   -512.07511    149232.31   -47393.909    4032.3355   -51426.245   0.15734656 
   46000    292.41796   -521.26859    149255.49   -47459.833    4015.6565    -51475.49   0.14726952 
   46100    298.79025   -495.34204    149274.03    -47364.77    4103.1645   -51467.935   0.15178552 
   46200    297.90113   -507.47124    149295.89    -47423.96    4090.9546   -51514.914   0.15139587 
   46300    300.52847   -491.13613    149315.02    -47423.01    4127.0349   -51550.045   0.14419474 
   46400    292.06433     -487.832    149280.82   -47462.638    4010.8002   -51473.438   0.14997216 
   46500    294.47061   -502.34078    149260.23   -47425.777    4043.8448   -51469.622   0.15111559 
   46600    292.00008   -517.41159    149264.48   -47491.524    4009.9179   -51501.442   0.15200492 
   46700     298.4855   -454.52722    149290.22    -47422.73    4098.9796   -51521.709   0.14499126 
   46800    293.56279    -489.4582    149267.44   -47430.086     4031.378   -51461.464   0.15054308 
   46900    293.46625   -470.40892    149273.67   -47487.122    4030.0523   -51517.174   0.14686622 
   47000    291.60647   -496.40026    149275.95   -47524.606    4004.5126   -51529.119   0.15065904 
   47100       298.83   -506.37082    149270.26   -47538.327    4103.7105   -51642.037   0.14735794 
   47200    287.68295   -511.48909     149243.8   -47500.124    3950.6325   -51450.756   0.15036822 
   47300    288.79946     -506.068    149252.26   -47622.753    3965.9651   -51588.718   0.14830083 
   47400    289.51129   -521.42522    149260.93   -47561.429    3975.7404   -51537.169   0.14865756 
   47500    286.75476    -518.1292     149244.7   -47566.047    3937.8861   -51503.933   0.14897007 
   47600    292.57591   -473.36079    149249.69   -47560.097    4017.8255   -51577.923   0.14824819 
   47700    295.11976   -472.64195    149271.72   -47484.484    4052.7593   -51537.243   0.14306026 
   47800      291.071   -501.34754    149240.65    -47540.75    3997.1593    -51537.91   0.14708047 
   47900    297.50987   -500.21441    149251.29   -47594.114    4085.5817   -51679.696   0.14402931 
   48000    288.22487   -524.12792    149250.09    -47549.81    3958.0745   -51507.884   0.15060669 
   48100    289.34192   -502.82244    149227.41     -47591.6    3973.4145   -51565.014   0.14701399 
   48200    292.82244   -496.53936    149243.83   -47583.292     4021.211   -51604.503   0.14688086 
   48300    291.93485   -501.70317    149241.66   -47531.398    4009.0222    -51540.42   0.14831946 
   48400    289.58116   -491.85326    149260.16   -47574.922    3976.6999   -51551.622   0.14775199 
   48500    291.17842   -506.50905    149239.97   -47660.942    3998.6345   -51659.576   0.14594591 
   48600    287.05024   -489.13771    149227.81   -47654.015    3941.9438   -51595.959   0.14661974 
   48700     293.3983   -522.79926    149248.23   -47539.763    4029.1191   -51568.882   0.14756149 
   48800    298.64658   -488.57462    149237.77   -47532.583    4101.1915   -51633.774   0.14825494 
   48900     292.5499   -483.13555    149235.48   -47557.195    4017.4684   -51574.664   0.14490538 
   49000    289.81973   -486.21616    149231.39   -47591.251    3979.9761   -51571.227   0.14644965 
   49100    293.59094   -488.98414     149227.2   -47501.069    4031.7645   -51532.833   0.15056472 
   49200    292.30717   -493.04275    149242.73   -47540.848    4014.1351   -51554.983    0.1453492 
   49300    285.80274   -515.33876    149235.13   -47606.713    3924.8123   -51531.526   0.15365807 
   49400     285.9786   -511.30909    149230.15   -47627.387    3927.2274   -51554.615   0.14313069 
   49500     287.6205   -530.28542    149232.04   -47564.315     3949.775    -51514.09    0.1542465 
   49600    290.86364   -486.33768    149245.29   -47561.467    3994.3117   -51555.778   0.14428012 
   49700    294.81889   -467.56324    149245.45   -47566.327    4048.6275   -51614.955   0.14645156 
   49800    291.95679   -471.60506    149234.79    -47574.11    4009.3234   -51583.434    0.1437956 
   49900    287.93299   -469.23485    149221.74   -47551.464    3954.0663   -51505.531   0.14693124 
   50000    290.09518   -491.09704    149219.85   -47558.129    3983.7587   -51541.888   0.14904056 
   50100    295.33406   -503.03855    149231.86   -47419.684    4055.7022   -51475.386   0.15223112 
   50200    290.98422   -484.99205    149240.96    -47492.37    3995.9675   -51488.337   0.15412081 
   50300    294.04197   -517.60095    149248.38   -47506.563    4037.9583   -51544.521   0.15110651 
   50400    292.49079   -494.27037    149225.05   -47522.686    4016.6567   -51539.342   0.14860957 
   50500    296.28886   -481.82274    149235.29   -47430.605     4068.814   -51499.419   0.15060021 
   50600    295.49884   -499.34892    149270.58    -47359.66    4057.9649   -51417.624   0.15310884 
   50700    292.16293   -520.23943    149250.67   -47608.215    4012.1543    -51620.37   0.14715238 
   50800    292.80525   -487.18712    149213.46   -47584.443     4020.975   -51605.418   0.14520598 
   50900    289.47635   -467.02055    149214.35   -47608.953    3975.2606   -51584.213   0.14192116 
   51000    290.31746   -466.49171    149228.81   -47566.489    3986.8112   -51553.301   0.14576827 
   51100    292.96141   -473.28415    149236.39   -47577.659    4023.1194   -51600.779   0.14082156 
   51200    283.34314    -503.5054       149225   -47634.189    3891.0357   -51525.225    0.1480045 
   51300    286.63622   -493.94426    149214.54   -47641.996    3936.2583   -51578.254   0.14551463 
   51400    289.11036    -506.5274    149236.34   -47581.231    3970.2345   -51551.466   0.14931149 
   51500    287.24397    -493.0336    149217.78   -47640.893    3944.6043   -51585.497   0.14567209 
   51600    287.88632    -486.1616    149233.57   -47557.487    3953.4254   -51510.912   0.14917462 
   51700    291.71937   -495.01387    149246.85   -47455.248    4006.0631   -51461.311   0.15292083 
   51800     288.9856   -508.89991    149247.03   -47503.062    3968.5214   -51471.584   0.14578507 
   51900    290.20357   -514.32871    149242.69   -47572.539    3985.2472   -51557.786   0.14687756 
   52000    288.63504   -488.70658    149219.14   -47551.338    3963.7072   -51515.045   0.14664477 
   52100    289.03258   -489.31338    149197.94   -47628.473    3969.1665    -51597.64   0.14563266 
   52200    282.17288   -539.40213    149194.26   -47688.247     3874.965   -51563.213   0.15068408 
   52300    283.32183    -469.9505     149181.6   -47656.194    3890.7431   -51546.937   0.14344933 
   52400    286.44137   -499.82856     149168.7   -47741.718    3933.5825     -51675.3    0.1494027 
   52500    289.96927   -480.97331    149194.16    -47589.68    3982.0296    -51571.71   0.14533136 
   52600    286.94044   -517.56545    149208.31   -47546.348    3940.4359   -51486.784   0.15344821 
   52700    289.46912   -507.51724    149216.35   -47486.968    3975.1612    -51462.13   0.15405767 
   52800    293.98512   -491.40989    149261.41   -47458.757    4037.1776   -51495.935   0.15211922 
   52900    295.37598   -520.74512    149246.08   -47485.758    4056.2778   -51542.036   0.15298142 
   53000    294.81066   -505.37655    149254.68    -47431.94    4048.5145   -51480.454   0.15186661 
   53100    290.34022    -467.4527    149219.63   -47566.663    3987.1237   -51553.787   0.14905916 
   53200    290.16394   -492.29402    149201.48   -47621.855    3984.7029   -51606.558   0.14446576 
   53300    287.49031   -482.08564    149205.52   -47585.085    3947.9871   -51533.072   0.14699001 
   53400    294.59204   -497.97154    149217.23   -47520.029    4045.5122   -51565.541   0.14690415 
   53500    292.10784    -507.3092    149233.88   -47510.206    4011.3978   -51521.604   0.15177827 
   53600    291.63196   -493.04279    149207.25   -47575.707    4004.8627    -51580.57    0.1469444 
   53700    292.44182   -506.40613    149235.55   -47560.756    4015.9842    -51576.74   0.15327923 
   53800    291.18528   -461.72821    149248.32   -47586.648    3998.7286   -51585.377   0.13875583 
   53900    288.31143   -497.44454    149241.98    -47593.94    3959.2632   -51553.203   0.15080358 
   54000    289.42788   -496.15122    149251.15   -47605.618    3974.5949   -51580.213   0.14108969 
   54100    287.07423    -512.9133     149255.2   -47580.986    3942.2733    -51523.26   0.15169288 
   54200    290.42071   -510.56036    149252.32    -47524.96    3988.2291   -51513.189   0.14983399 
   54300     292.3944   -556.43444    149251.83   -47450.736     4015.333   -51466.069   0.15102651 
   54400    293.39807   -506.30372    149269.65   -47370.179    4029.1159   -51399.295   0.15666394 
   54500    292.54467   -480.35615    149285.89   -47443.258    4017.3965   -51460.654   0.14689376 
   54600    291.00924   -473.29293     149264.2   -47454.339    3996.3112    -51450.65   0.15197128 
   54700    294.94731   -517.37642    149275.82   -47521.724     4050.391   -51572.115   0.14811753 
   54800    291.06959   -493.42984    149269.33   -47444.511    3997.1399   -51441.651   0.15298153 
   54900    297.17303   -485.91349    149284.45   -47469.007    4080.9559   -51549.963   0.14480229 
   55000     290.9065   -492.42576    149313.88   -47504.644    3994.9003   -51499.544   0.14501646 
   55100    291.85853   -470.26794    149278.14   -47511.047    4007.9741   -51519.021    0.1455462 
   55200    286.52265   -489.05213    149255.66   -47620.652    3934.6987   -51555.351    0.1423366 
   55300    285.00549   -495.00848    149219.82   -47666.616     3913.864    -51580.48    0.1444483 
   55400    288.54569   -491.60928    149222.56   -47631.883    3962.4802   -51594.363   0.14630942 
   55500    285.81297   -467.88406    149228.82   -47592.843    3924.9529   -51517.796   0.14252444 
   55600    291.01833   -500.53287    149256.65   -47487.962     3996.436   -51484.398   0.15008159 
   55700    294.44807   -500.86262    149295.49   -47451.195    4043.5352   -51494.731   0.14334914 
   55800    292.68192   -494.09523    149283.07   -47434.782    4019.2813   -51454.063   0.14758711 
   55900    289.82289   -504.50366    149282.01   -47451.222    3980.0195   -51431.241   0.14964961 
   56000    292.12515   -511.12348    149272.79   -47464.777    4011.6354   -51476.413   0.14521909 
   56100    296.38196   -513.93566    149282.07   -47449.457    4070.0925   -51519.549   0.14884197 
   56200    292.99857   -487.64319    149306.11   -47493.198    4023.6298   -51516.828   0.14363284 
   56300    290.84584   -519.57476    149293.71    -47560.18    3994.0673   -51554.247   0.14271351 
   56400    290.59847   -520.87829    149252.69   -47609.446    3990.6703   -51600.116   0.14648215 
   56500    287.61214   -504.16842     149226.3   -47654.131    3949.6602   -51603.791   0.14000405 
   56600    283.52478   -509.54622    149190.55   -47706.467    3893.5301   -51599.997   0.14673976 
   56700    283.40054   -502.72109    149210.43   -47683.925     3891.824   -51575.749   0.14425739 
   56800    285.98161   -467.79457    149234.74   -47571.522    3927.2687    -51498.79    0.1480064 
   56900     286.9347   -496.19839    149241.71   -47676.484    3940.3571   -51616.841   0.14088264 
   57000    283.52706   -530.32571    149207.99   -47659.857    3893.5614   -51553.418   0.14855472 
   57100     289.7012   -503.35591    149238.46   -47578.077    3978.3484   -51556.426   0.14482585 
   57200    291.38397    -520.9189    149213.67   -47521.375    4001.4572   -51522.833   0.14924996 
   57300    288.59606   -489.09837    149198.37   -47657.194    3963.1719   -51620.366   0.14512187 
   57400    296.65702   -470.33903    149214.36   -47542.987    4073.8697   -51616.857   0.14238526 
   57500    292.49269   -523.08306    149238.64   -47505.987    4016.6828    -51522.67    0.1509652 
   57600    290.41137   -495.05916    149231.93   -47621.889    3988.1009    -51609.99   0.14135306 
   57700    288.10572     -478.427    149235.34   -47527.044    3956.4383   -51483.483   0.14751718 
   57800    292.58763   -491.67603    149248.25   -47479.689    4017.9865   -51497.676   0.14744521 
   57900    293.41874   -510.84179    149261.38   -47515.559    4029.3998   -51544.959    0.1469908 
   58000    292.29505   -499.00654    149269.87   -47473.861    4013.9686   -51487.829   0.14865608 
   58100    295.87155   -503.47531    149252.36   -47530.427    4063.0833    -51593.51   0.14899324 
   58200    295.03048   -504.19336     149267.8   -47419.076    4051.5332   -51470.609   0.15207396 
   58300    296.04491   -514.35097    149267.07   -47491.212     4065.464   -51556.676   0.14596662 
   58400    288.93585   -519.40877    149229.05   -47526.076    3967.8381   -51493.914   0.14928166 
   58500    290.22664   -513.72681    149255.23   -47535.797     3985.564   -51521.361   0.14740656 
   58600     290.0225   -507.96873    149235.22   -47570.872    3982.7606   -51553.633   0.14843277 
   58700    291.67192   -448.49358     149263.4   -47525.527    4005.4115   -51530.938   0.14552762 
   58800    289.95992   -522.49507    149239.81   -47569.753    3981.9012   -51551.654   0.15006429 
   58900    293.50419   -503.11939    149254.04   -47488.788    4030.5732   -51519.361   0.14836829 
   59000     294.9379   -463.82318    149261.04   -47448.087    4050.2618   -51498.349   0.14916681 
   59100    293.21174   -501.18694    149301.04   -47414.179    4026.5571   -51440.736   0.14822374 
   59200    293.24199   -455.14637    149279.26   -47533.759    4026.9726   -51560.731   0.14094594 
   59300    289.58869   -520.03191    149256.55   -47519.395    3976.8033   -51496.198   0.14728515 
   59400     292.6448   -491.57015    149255.37   -47500.437    4018.7716   -51519.208   0.14694103 
   59500    288.96516   -532.26725    149238.98    -47616.03    3968.2406    -51584.27   0.14864426 
   59600    292.18576   -502.78535    149257.22     -47593.5    4012.4678   -51605.968   0.14210365 
   59700    291.03085   -488.79516    149246.25   -47514.354    3996.6079   -51510.962   0.14811269 
   59800     285.0581   -495.42444    149234.26    -47632.19    3914.5865   -51546.776   0.14465055 
   59900    293.41052   -454.22403    149261.36   -47628.396     4029.287   -51657.683   0.14085183 
   60000    290.81746     -464.714    149266.59   -47589.868    3993.6775   -51583.546   0.14601479 
   60100    291.59222   -492.75182    149281.13   -47553.345     4004.317   -51557.662   0.14624728 
   60200    290.73499   -531.91874    149256.15    -47518.16     3992.545   -51510.705   0.15079575 
   60300    291.80748   -509.55115    149292.39   -47483.839     4007.273   -51491.112   0.14565988 
   60400    297.56877   -474.71715    149304.88   -47429.724    4086.3905   -51516.115   0.14661516 
   60500    292.85277   -486.55303    149296.55   -47453.964    4021.6275   -51475.591   0.14702477 
   60600    295.39249   -475.11466    149295.76   -47519.081    4056.5046   -51575.585   0.13956162 
   60700    298.65415   -469.39033    149306.27   -47341.584    4101.2956    -51442.88   0.14866527 
   60800    297.57938    -484.2054    149302.98   -47368.251    4086.5362   -51454.787   0.14872665 
   60900     294.6366    -534.9432    149278.42   -47464.986    4046.1243    -51511.11   0.14934543 
   61000    292.42943    -495.0966    149263.24   -47506.253     4015.814   -51522.067    0.1506582 
   61100    293.07372    -542.2715    149260.94   -47492.141    4024.6618   -51516.802   0.14443787 
   61200      297.057   -487.72434    149269.68   -47427.021    4079.3625   -51506.384   0.15084298 
   61300    291.08786   -500.76764    149247.01   -47521.896    3997.3908   -51519.287   0.14626235 
   61400    286.84259   -551.02595    149246.43   -47575.554    3939.0922   -51514.646    0.1473367 
   61500    293.57474   -483.81423    149242.53   -47510.735    4031.5422   -51542.277   0.14501335 
   61600    291.64433   -487.38968    149243.85   -47553.208    4005.0325    -51558.24   0.14435458 
   61700    290.14159   -525.49475    149251.19   -47622.108     3984.396   -51606.504   0.14347034 
   61800    287.48398   -523.04661    149235.72   -47613.259    3947.9002   -51561.159   0.14381516 
   61900    288.34966   -504.50052    149234.37   -47498.864    3959.7881   -51458.652   0.15126784 
   62000    291.88621   -485.52195    149261.89   -47516.658    4008.3543   -51525.012   0.14374369 
   62100    288.24383   -529.10607    149230.19   -47584.328    3958.3349   -51542.663   0.14925315 
   62200    289.33064   -519.39541    149250.62   -47477.068    3973.2596   -51450.327   0.14992191 
   62300    292.21826   -496.87248    149218.69    -47520.84    4012.9142   -51533.754   0.14304378 
   62400    290.26714   -501.83484    149221.68   -47568.602    3986.1201   -51554.722   0.14649783 
   62500    287.17734   -533.13282     149221.6   -47556.286    3943.6892   -51499.975   0.14679155 
   62600    290.75723   -464.45688    149203.63   -47581.043    3992.8504   -51573.893   0.14361897 
   62700    281.40718    -549.4813     149223.7   -47625.429      3864.45   -51489.879   0.15350929 
   62800    289.61093   -485.69424    149222.38    -47596.12    3977.1087   -51573.229   0.14303085 
   62900    290.76819   -498.99426    149245.95   -47502.766    3993.0008   -51495.767   0.14826057 
   63000    288.49543   -476.00023    149247.66   -47534.646    3961.7901   -51496.436   0.14395755 
   63100    290.19816   -485.31335    149209.55   -47604.081    3985.1729   -51589.254   0.14346904 
   63200    293.07638   -483.93862    149252.17   -47483.976    4024.6983   -51508.674   0.14759731 
   63300    292.71401    -506.7766    149232.67   -47584.985    4019.7221   -51604.707   0.14344033 
   63400    287.43064   -487.33802    149221.58   -47675.498    3947.1677   -51622.665   0.14378998 
   63500    285.36818   -493.71285    149216.76   -47646.367    3918.8447   -51565.211   0.14598041 
   63600    286.55376   -499.76547    149206.75   -47703.793    3935.1258   -51638.919   0.14320525 
   63700     287.0629   -453.14026    149194.45   -47660.465    3942.1176   -51602.583   0.14159582 
   63800    287.12213   -530.12128    149199.75   -47737.397     3942.931   -51680.328   0.14490668 
   63900    290.78583   -537.84353    149222.16   -47624.889    3993.2431   -51618.132   0.14433958 
   64000    296.08742   -484.01472    149247.51   -47539.028    4066.0477   -51605.076   0.14260935 
   64100    292.46103   -478.50204    149245.53   -47491.248    4016.2479   -51507.496   0.15197673 
   64200    291.59476   -516.91628    149262.26   -47481.933    4004.3518   -51486.285   0.14812188 
   64300    289.58929   -525.91832    149270.19   -47523.709    3976.8115    -51500.52   0.14644349 
   64400    293.81329   -495.26226    149228.25   -47575.971     4034.818   -51610.789   0.14464864 
   64500    289.89478   -483.57657    149206.11   -47564.048    3981.0068   -51545.055   0.14493308 
   64600    287.34528   -535.97544    149182.44   -47599.274    3945.9955   -51545.269   0.15300691 
   64700    291.22687   -482.75096    149181.94    -47603.53    3999.2997    -51602.83   0.14365024 
   64800    287.84245    -465.5079    149186.12   -47543.382    3952.8229   -51496.205   0.14831431 
   64900    296.26358   -469.27646    149229.76   -47461.492    4068.4668   -51529.959   0.14749065 
   65000    296.17745   -478.90284    149243.16   -47453.895     4067.284   -51521.179   0.14603492 
   65100    295.22114   -468.44808    149214.76   -47516.342    4054.1514   -51570.493   0.14623059 
   65200    291.16959   -517.30067    149203.19   -47537.264    3998.5132   -51535.777   0.15374379 
   65300    289.62492    -538.7816    149221.85   -47472.059    3977.3008    -51449.36    0.1495981 
   65400    292.83216   -480.57571    149226.26   -47515.518    4021.3445   -51536.863   0.14924126 
   65500    294.70255    -479.0281    149252.01   -47447.639    4047.0299   -51494.669   0.14938813 
   65600    291.73093   -531.71839    149268.31   -47465.283    4006.2218   -51471.505   0.15189034 
   65700    294.39492   -516.65259    149270.24   -47426.178    4042.8053   -51468.983   0.14697678 
   65800    293.05668   -516.27585    149252.57   -47491.727    4024.4278   -51516.155   0.15228533 
   65900    293.49906   -521.11749    149249.13   -47509.414    4030.5028   -51539.916    0.1475869 
   66000     290.0311   -512.12972    149245.59   -47519.246    3982.8788   -51502.124   0.14879245 
   66100    294.56932   -503.53701    149259.43   -47488.045    4045.2002   -51533.245    0.1487855 
   66200    283.92719     -487.841    149222.49   -47620.058    3899.0562   -51519.114   0.14373086 
   66300     295.5436    -466.2985    149227.85   -47547.692    4058.5797   -51606.272   0.14421696 
   66400    295.70444    -483.8211    149242.08   -47556.189    4060.7884   -51616.977   0.13984189 
   66500     294.2665   -461.35503    149213.61   -47584.472    4041.0418   -51625.514   0.14536546 
   66600    288.83401   -493.12759    149214.88   -47592.041    3966.4396   -51558.481   0.14645135 
   66700    288.16512   -524.17736    149208.77   -47574.932     3957.254   -51532.186   0.15059571 
   66800    294.63853   -466.67467    149221.44   -47599.627    4046.1507   -51645.778   0.14188038 
   66900    286.22785    -486.7502    149208.35   -47609.794    3930.6502   -51540.444   0.14461282 
   67000    284.17065   -477.70791    149163.55   -47718.239    3902.3995   -51620.638   0.14354104 
   67100    288.02014    -510.5082    149200.57   -47554.036    3955.2631   -51509.299   0.15037324 
   67200    287.53842   -503.25116    149184.64   -47652.168    3948.6477   -51600.816   0.14460188 
   67300    286.07301   -541.14347    149192.87   -47573.339     3928.524   -51501.863   0.15020979 
   67400    290.63968   -492.90758     149222.4   -47552.481    3991.2361   -51543.718   0.14729961 
   67500    292.91528    -455.8814    149233.08   -47537.016     4022.486   -51559.502   0.14313825 
   67600    298.70558   -493.24529    149245.93    -47394.57    4102.0019   -51496.572   0.14861311 
   67700    295.46854    -515.7202    149259.69   -47475.229    4057.5489   -51532.778   0.14507855 
   67800    293.81011   -483.42268    149228.47   -47510.324    4034.7744   -51545.098   0.14943255 
   67900    289.75676   -526.26031     149209.5   -47543.259    3979.1114    -51522.37   0.15205187 
   68000    292.34365   -509.34275    149217.67   -47579.895    4014.6361   -51594.531   0.14407567 
   68100    290.84225   -517.30588    149212.29   -47586.477    3994.0179   -51580.495   0.15273502 
   68200    294.33971   -481.89257    149217.43   -47553.206    4042.0472   -51595.253   0.14020356 
   68300    290.01112   -486.34787    149212.14   -47494.501    3982.6043   -51477.105   0.15057612 
   68400    293.94066   -498.61791    149236.91   -47461.983    4036.5671    -51498.55    0.1507426 
   68500    293.96788   -509.95306    149265.38   -47463.924    4036.9409   -51500.865   0.15027418 
   68600    294.66514   -567.55323    149267.13   -47556.918    4046.5161   -51603.434   0.14605933 
   68700    292.09097   -495.94191    149274.21   -47528.922    4011.1662   -51540.088   0.14291625 
   68800    293.78899    -494.9751    149279.32   -47523.022    4034.4843   -51557.506   0.14869071 
   68900    291.10558   -498.45359    149263.58   -47529.106    3997.6341    -51526.74   0.14337455 
   69000    288.16743    -530.8231     149252.4    -47526.32    3957.2857   -51483.606   0.15331603 
   69100    288.43656   -505.16024    149216.41   -47587.268    3960.9815    -51548.25   0.14211617 
   69200    291.09837   -527.29766    149202.14   -47601.991    3997.5351   -51599.526   0.15016146 
   69300    291.82418   -522.87649       149203   -47631.173    4007.5023   -51638.675   0.14411787 
   69400    283.85728   -499.03468    149177.25   -47677.705    3898.0962   -51575.802   0.14720375 
   69500    292.05509   -464.51933    149224.31    -47545.38    4010.6734   -51556.053    0.1467275 
   69600    295.05936   -507.81386    149258.97   -47440.858    4051.9298   -51492.788   0.15232656 
   69700    291.57491   -492.08917    149230.51   -47532.133    4004.0793   -51536.212     0.143006 
   69800    291.85121   -452.20432    149231.58   -47531.103    4007.8735   -51538.976   0.14918853 
   69900    287.68645   -541.96832    149203.08   -47628.392    3950.6806   -51579.072   0.15148609 
   70000    285.24002   -503.14398     149221.8   -47554.792    3917.0848   -51471.877   0.14666522 
   70100     284.5911   -484.85036     149195.8   -47677.851    3908.1734   -51586.024   0.14907852 
   70200    291.84199    -488.9312    149227.08   -47514.917     4007.747   -51522.664   0.14612921 
   70300    295.46041   -495.71585    149211.95   -47518.362    4057.4372   -51575.799   0.15096078 
   70400    298.42389   -486.46851    149253.66   -47411.198    4098.1336   -51509.331   0.15165777 
   70500    291.73257   -530.87329     149219.8   -47484.022    4006.2443   -51490.266   0.15409923 
   70600    290.61586   -496.06629    149222.11   -47543.177     3990.909   -51534.086   0.15056823 
   70700    293.30568   -472.65995    149216.22   -47513.312    4027.8472   -51541.159   0.14626333 
   70800    290.21532   -499.26753    149228.55   -47551.379    3985.4086   -51536.787   0.14445976 
   70900    292.38802   -477.88795     149189.6   -47536.362    4015.2454   -51551.608    0.1477089 
   71000    292.76497   -516.21245    149210.42   -47560.081    4020.4219   -51580.503   0.15164123 
   71100    292.30967    -453.4664    149205.48   -47548.424    4014.1694   -51562.594   0.14278362 
   71200    290.98533   -511.25354    149226.46   -47588.836    3995.9828   -51584.819   0.15038267 
   71300    290.87203   -489.74465    149213.67   -47642.394    3994.4268    -51636.82   0.14700278 
   71400    290.85456   -440.91129    149219.27   -47578.138    3994.1869   -51572.325   0.14448954 
   71500     292.2412   -503.49892    149228.48   -47529.347    4013.2291   -51542.576   0.15097177 
   71600    291.46274   -488.51814    149219.42    -47549.82    4002.5388   -51552.358    0.1475516 
   71700     293.8467   -471.80787    149228.29   -47541.353    4035.2768    -51576.63   0.14688469 
   71800    289.29881    -516.5736    149198.14   -47714.522    3972.8225   -51687.345   0.14414534 
   71900     287.8301   -482.77825    149177.47    -47653.49    3952.6534   -51606.144   0.14668504 
   72000    291.86136    -506.2325    149176.32   -47621.278     4008.013   -51629.291    0.1417439 
   72100    294.22731   -487.28716    149196.67   -47484.544    4040.5036   -51525.048   0.15592185 
   72200    299.81408    -490.8106    149250.23   -47375.438    4117.2245   -51492.663   0.14812311 
   72300    297.36428   -483.51604    149280.57   -47353.178    4083.5823    -51436.76   0.15115322 
   72400    293.07492   -528.03595    149249.41    -47474.76    4024.6783   -51499.438   0.15258116 
   72500    291.74971   -523.67866    149254.42    -47472.26    4006.4796   -51478.739   0.14725699 
   72600    298.26268   -500.54185     149267.4   -47411.812    4095.9197   -51507.731   0.15411251 
   72700    291.49233   -494.68915    149256.62   -47582.472    4002.9452   -51585.418   0.14176535 
   72800    290.52501   -488.90305    149237.19   -47501.959    3989.6614    -51491.62   0.15214804 
   72900    290.32066   -487.11518    149245.24   -47510.543    3986.8552   -51497.399   0.14814846 
   73000    289.72697   -501.76748    149235.88   -47518.815    3978.7022   -51497.517   0.15210094 
   73100    299.01642   -471.27722    149235.96   -47473.107    4106.2705   -51579.378   0.14584268 
   73200    295.35395   -497.67286     149258.9   -47461.215    4055.9753    -51517.19   0.15210996 
   73300    292.66635   -506.88623    149263.66   -47439.536    4019.0675   -51458.604   0.15164441 
   73400     291.2083   -494.32717    149253.63   -47419.065    3999.0447    -51418.11   0.15039586 
   73500    291.43662   -478.49316    149270.27   -47425.881    4002.1801   -51428.062    0.1526388 
   73600     292.5033   -515.60863    149245.81   -47466.805    4016.8284   -51483.634   0.15247301 
   73700    291.38237   -523.62324    149220.02   -47527.174    4001.4352    -51528.61   0.15245105 
   73800    288.66248   -503.39488    149229.66   -47617.218    3964.0841   -51581.302   0.14597784 
   73900    287.17081   -508.65005    149238.42   -47594.847    3943.5996   -51538.447   0.14770574 
   74000    289.25174   -489.41087    149240.44   -47520.641    3972.1761   -51492.817   0.14676388 
   74100    292.26685   -480.05298    149276.25   -47353.977    4013.5813   -51367.558   0.15530884 
   74200    292.65601   -516.53534    149267.29   -47526.439    4018.9255   -51545.365   0.14590893 
   74300    291.19234    -478.8937    149252.84   -47524.606    3998.8256   -51523.432   0.14968854 
   74400      288.531   -498.98463    149236.34   -47557.687    3962.2785   -51519.966   0.14634113 
   74500    289.20467   -490.30259    149226.61   -47574.166    3971.5297   -51545.696   0.14707658 
   74600    290.19793   -522.14791    149227.35   -47578.944    3985.1697   -51564.114   0.14976738 
   74700    291.83773   -492.19568    149253.62   -47493.094    4007.6885   -51500.782   0.14690195 
   74800     293.0891   -483.75174    149241.69   -47550.595     4024.873   -51575.468   0.14618603 
   74900    289.23939   -468.27014    149241.38   -47553.757    3972.0065   -51525.763   0.14605972 
   75000    293.71112   -450.28026    149219.03   -47528.563    4033.4149   -51561.978   0.14441133 
   75100    291.77756   -479.35147    149261.89    -47462.93    4006.8621   -51469.792   0.14702139 
   75200    292.32014   -514.55899    149257.73    -47507.42    4014.3132   -51521.734   0.15056132 
   75300    287.88087   -529.43602    149254.53   -47558.402    3953.3506   -51511.752   0.15006647 
   75400     293.4872   -502.64923    149245.65   -47568.894    4030.3399   -51599.234   0.14369936 
   75500    288.59995   -504.67322    149233.11   -47566.831    3963.2253   -51530.056   0.14784626 
   75600    291.27114   -484.87814    149247.12   -47495.394    3999.9077   -51495.301   0.14549006 
   75700    292.07603   -503.78282    149250.68   -47451.102     4010.961   -51462.063   0.15265425 
   75800    294.18049   -520.68137    149248.98   -47477.631    4039.8607   -51517.492   0.14816637 
   75900    291.25793   -493.68848    149234.36   -47490.585    3999.7263   -51490.312   0.15079278 
   76000    295.09304   -476.62026     149240.7   -47497.953    4052.3923   -51550.345   0.14709394 
   76100    287.90475   -492.81931    149218.54   -47583.982    3953.6784   -51537.661   0.14399711 
   76200    284.02304   -517.29845    149221.42   -47635.221    3900.3726   -51535.593   0.14795986 
   76300    289.02967   -492.47959     149223.3   -47570.256    3969.1265   -51539.383    0.1477611 
   76400    283.13994   -506.35782     149241.7    -47568.58    3888.2452   -51456.825   0.14965549 
   76500    292.76924   -490.32936    149252.65   -47555.452    4020.4805   -51575.933   0.14780175 
[...]
   81900     287.1654   -540.36032     149220.5   -47596.183    3943.5253   -51539.708   0.14909851 
   82000    293.87723   -500.91112    149261.13   -47508.557    4035.6961   -51544.253   0.15024841 
   82100    292.97573   -494.24245    149275.94   -47457.441    4023.3162   -51480.757   0.14809807 
   82200    291.90246   -505.88764    149296.58   -47471.294    4008.5773   -51479.871   0.14657856 
   82300    291.61474   -531.38109    149262.99   -47542.302    4004.6262   -51546.928   0.15406325 
   82400    296.76101   -505.00696    149265.38   -47422.838    4075.2979   -51498.136   0.14294053 
   82500    298.77646    -497.8061    149290.31   -47318.904    4102.9752   -51421.879   0.15976083 
   82600    293.74892   -525.13955    149285.95   -47425.113    4033.9341   -51459.047    0.1469921 
   82700    286.93825    -493.6014    149268.23   -47512.705    3940.4059   -51453.111   0.15012601 
   82800    290.76637   -493.23231    149243.06   -47520.058    3992.9759   -51513.034   0.14860777 
   82900    294.31516   -495.30701    149277.65    -47472.43    4041.7099    -51514.14   0.14567716 
   83000    292.05974   -475.30497    149268.51    -47409.51    4010.7372   -51420.247   0.15088714 
   83100    295.88335    -491.8179    149268.01   -47453.133    4063.2453   -51516.378   0.14664591 
   83200    292.64877   -513.63266    149264.34   -47483.418    4018.8261   -51502.244    0.1459854 
   83300    293.03387   -478.39784    149264.79   -47468.634    4024.1145   -51492.749   0.15083429 
   83400    288.86022   -496.31678    149281.91   -47551.274    3966.7995   -51518.073   0.14779931 
   83500    286.81736   -506.77763    149233.41   -47659.078    3938.7458   -51597.824   0.14280533 
   83600    287.23542     -461.983    149218.19   -47595.677    3944.4868   -51540.164   0.14912612 
   83700    290.10214   -525.00354    149220.66   -47629.054    3983.8544   -51612.909   0.14189136 
   83800    293.30099   -474.75588    149216.91   -47593.324    4027.7828   -51621.106   0.14746618 
   83900    293.87155   -479.23113    149233.42   -47590.071     4035.618   -51625.689   0.14366045 
   84000    291.09144   -524.49852    149230.16   -47611.888    3997.4399   -51609.328   0.14665324 
   84100    291.88684   -481.10967    149248.43   -47533.685    4008.3629   -51542.048   0.15020321 
   84200    295.48637   -469.34916     149261.6   -47484.112    4057.7937   -51541.906   0.14553266 
   84300    290.48885   -488.81519     149275.2   -47545.319    3989.1649   -51534.483   0.15227993 
   84400    292.88651   -486.93934    149278.41   -47540.299    4022.0909   -51562.389   0.13943538 
   84500    288.39771   -499.98202    149260.44   -47600.699    3960.4481   -51561.147   0.15019012 
   84600    294.05385   -524.26682    149303.38   -47512.751    4038.1216   -51550.873   0.14032494 
   84700    293.68382   -482.30867    149290.73   -47518.465    4033.0401   -51551.505   0.15096329 
   84800    291.62625   -533.77305    149281.24    -47513.75    4004.7843   -51518.534   0.14745715 
   84900    293.37056   -491.97921    149299.96   -47439.736    4028.7382   -51468.474   0.15012895 
   85000    289.75111   -527.61655    149264.42   -47511.404    3979.0337   -51490.438   0.15575705 
   85100    294.18744   -492.75449    149276.75   -47535.174    4039.9561    -51575.13   0.14082327 
   85200    288.24952   -517.44054    149245.83   -47568.041     3958.413   -51526.454   0.15425304 
   85300    289.66699   -486.11757    149259.55   -47578.708    3977.8785   -51556.586   0.14286553 
   85400    286.37566   -516.31444    149238.17   -47610.157    3932.6801   -51542.837   0.14980972 
   85500    295.70762   -458.38622    149262.23   -47554.521    4060.8321   -51615.353   0.13999817 
   85600    289.47996   -514.96625    149237.72   -47582.565    3975.3101   -51557.876   0.15209195 
   85700    294.27332   -510.89759    149252.82   -47526.173    4041.1355   -51567.308   0.14556827 
   85800    290.44242   -527.70071    149247.16   -47518.259    3988.5272   -51506.787   0.15397337 
   85900    291.32888   -474.66816     149262.9   -47485.041    4000.7006   -51485.742   0.14330748 
   86000     291.9341   -532.51611    149255.55   -47542.744    4009.0118   -51551.755   0.14978279 
   86100    293.49671   -502.75866    149244.53   -47510.987    4030.4705   -51541.458   0.14919881 
   86200    293.98177   -483.19787    149255.45   -47475.507    4037.1317   -51512.639   0.14719468 
   86300    295.68266   -514.63358    149238.07   -47522.736    4060.4893   -51583.225   0.15234906 
   86400    290.70049   -483.43137    149224.26   -47584.659    3992.0712    -51576.73   0.14543203 
   86500    288.69191   -470.45397    149205.04   -47611.555    3964.4882   -51576.044   0.14601458 
   86600    294.25332   -544.97621    149239.77   -47455.039    4040.8608     -51495.9   0.15022472 
   86700    294.46935   -464.06265    149249.06   -47447.003    4043.8275    -51490.83   0.15124349 
   86800    287.80496   -513.59301    149228.27   -47577.962    3952.3081    -51530.27   0.14036234 
   86900    291.62667   -484.04448    149217.24   -47555.482      4004.79   -51560.272   0.15253523 
   87000    289.21364   -548.52491    149235.04   -47537.156    3971.6529   -51508.809   0.14837338 
   87100    290.79257    -477.0836    149229.25    -47508.61    3993.3357   -51501.946   0.14651965 
   87200     292.6576   -458.94274    149255.74   -47437.254    4018.9474   -51456.201   0.15445361 
   87300    295.16951   -534.30035    149270.45   -47449.092    4053.4424   -51502.534   0.14709921 
   87400    290.54087   -528.45829     149226.8   -47502.291    3989.8792    -51492.17   0.15954824 
   87500    292.82485   -535.43316    149233.28   -47470.964    4021.2442   -51492.209   0.15308263 
   87600    291.48264   -515.30164    149237.86   -47490.264    4002.8121   -51493.076   0.15022499 
   87700    291.71053   -487.48207    149264.26   -47468.388    4005.9416    -51474.33   0.15371191 
   87800    289.02891   -520.62352    149260.93   -47553.447    3969.1161   -51522.563   0.14743665 
   87900    291.70761   -463.20624    149266.56    -47573.64    4005.9015   -51579.542   0.14666184 
   88000    294.53231   -489.49419    149282.93   -47547.307     4044.692   -51591.999   0.14774801 
   88100    286.38165    -488.2675     149253.6    -47508.38    3932.7623   -51441.143   0.14846586 
   88200    287.26762   -519.14581    149264.68   -47620.169     3944.929   -51565.098   0.14642139 
   88300     291.9886   -514.00899    149245.69   -47553.562    4009.7603   -51563.322   0.15184927 
   88400    286.56225   -519.16803    149259.04   -47487.429    3935.2425   -51422.672   0.15310669 
   88500     291.9071   -490.56822    149248.97   -47560.307    4008.6411   -51568.948   0.14881872 
   88600    293.99998   -443.35909    149227.42   -47544.178    4037.3818    -51581.56   0.14496128 
   88700     289.2841   -513.36336    149247.69   -47518.227    3972.6205   -51490.847    0.1490132 
   88800    292.87474    -473.4914    149227.19   -47580.993    4021.9293   -51602.922   0.14564185 
   88900     287.5661   -492.75306    149242.95   -47522.689    3949.0279   -51471.717   0.15826299 
   89000    288.51353   -527.77031    149252.05   -47490.328    3962.0385   -51452.367     0.147937 
   89100    288.03228   -476.72254    149252.07   -47545.888    3955.4298   -51501.317    0.1508367 
   89200    294.38444   -488.30596     149269.2   -47494.733    4042.6613   -51537.395   0.14534821 
   89300    288.02509   -529.08255    149243.73   -47625.759     3955.331    -51581.09   0.14162422 
   89400    294.40162    -519.1174    149273.31    -47526.85    4042.8973   -51569.747   0.15762744 
   89500    289.81405   -498.20145     149249.4   -47622.763     3979.898   -51602.661   0.14009962 
   89600    288.38329   -479.68083    149215.86   -47645.284    3960.2501   -51605.534   0.14954567 
   89700    290.69534   -480.55024    149229.14   -47559.227    3992.0004   -51551.227   0.14893993 
   89800    291.86894   -507.61341     149240.3   -47492.696    4008.1171   -51500.813   0.14684244 
   89900    293.97374    -474.7213    149233.83   -47477.668    4037.0214    -51514.69   0.15229047 
   90000    290.10803   -488.88349    149256.33   -47495.721    3983.9352   -51479.656   0.14908181 
   90100    295.32878   -511.23765    149263.47   -47483.913    4055.6296   -51539.543   0.14797971 
   90200    294.19093   -490.83749    149246.55   -47556.024    4040.0039   -51596.028   0.15195517 
   90300    291.96932   -508.49126     149255.1   -47531.445    4009.4956    -51540.94    0.1433475 
   90400    290.81858   -506.61901    149250.14   -47521.157    3993.6929    -51514.85   0.15397511 
   90500    292.24822   -509.34163    149243.83   -47530.215    4013.3256    -51543.54   0.14965094 
   90600    292.25054   -529.24116    149249.84   -47562.786    4013.3575   -51576.144   0.15073225 
   90700    284.88112    -525.8966    149220.26   -47585.158    3912.1562   -51497.314   0.15494897 
   90800    289.72607   -495.78607    149251.35   -47604.734    3978.6899   -51583.424   0.14380665 
   90900    291.39855   -507.01336    149254.36    -47582.01    4001.6574   -51583.667   0.15113744 
   91000    290.37313   -517.17417    149248.09   -47598.796    3987.5757   -51586.372   0.14442721 
   91100    286.14935   -501.68618    149221.08     -47705.4    3929.5722   -51634.972   0.14885818 
   91200    292.52985   -471.24874    149217.03    -47645.96     4017.193   -51663.153   0.13796127 
   91300    294.27833   -472.07694    149238.28   -47578.466    4041.2042    -51619.67   0.14711733 
   91400     291.1629   -482.52584    149254.54   -47551.946    3998.4213   -51550.367   0.14614175 
   91500    292.71784   -488.93263    149279.47   -47391.146    4019.7747   -51410.921   0.15135736 
   91600    293.27644   -489.09483    149286.82   -47457.617    4027.4456   -51485.062   0.15535668 
   91700    291.65984   -497.14609    149292.85   -47533.494    4005.2456   -51538.739   0.14401108 
   91800    292.69788   -501.02321    149285.26   -47502.612    4019.5006   -51522.113   0.15196144 
   91900    293.75744   -509.40208    149276.51   -47484.099     4034.051   -51518.151   0.14858361 
   92000    290.63177   -520.46379    149283.29   -47541.038    3991.1275   -51532.165   0.14896478 
   92100    288.41066   -500.17067    149269.78   -47521.819    3960.6259   -51482.445   0.15454174 
   92200    288.83215   -533.31428     149270.3   -47556.468    3966.4141   -51522.882   0.14800331 
   92300    299.29251   -495.74969     149298.7   -47433.121    4110.0618   -51543.182    0.1474126 
   92400    297.22269   -489.91153    149299.16   -47479.664    4081.6379   -51561.302   0.15003506 
   92500    295.95753   -495.81985    149306.17   -47472.421     4064.264   -51536.685   0.14426723 
   92600    296.63603   -500.96845    149329.93   -47392.182    4073.5815   -51465.764   0.15323254 
   92700    292.06285    -498.7891    149300.23   -47513.582      4010.78   -51524.362   0.14991165 
   92800    293.89864   -480.35596    149307.21   -47526.646    4035.9901   -51562.636    0.1447601 
   92900    288.96536   -523.74131    149295.04   -47560.821    3968.2434   -51529.064   0.15186466 
   93000    289.34862   -524.41922    149280.57   -47568.632    3973.5065   -51542.139   0.14781582 
   93100    294.28613   -489.95165    149288.53   -47485.022    4041.3113   -51526.333    0.1535725 
   93200    291.86605   -522.37398    149313.01   -47541.307    4008.0774   -51549.384   0.14975217 
   93300    288.31097   -524.67619    149257.98   -47593.409    3959.2569   -51552.666   0.15020857 
   93400    286.01556   -536.49056    149244.81   -47651.777    3927.7349   -51579.512   0.14740131 
   93500    283.94206   -486.67214    149227.08   -47641.705    3899.2604   -51540.966   0.14952656 
   93600    290.08235   -512.42111    149235.77   -47595.722    3983.5825   -51579.305   0.14682441 
   93700    290.83262   -507.62586    149273.76   -47578.775    3993.8857   -51572.661   0.14751106 
   93800    290.00007    -488.2959    149272.72   -47577.156    3982.4527   -51559.609   0.15229706 
   93900    286.07146   -512.14831    149274.03    -47657.42    3928.5026   -51585.923   0.13818589 
   94000    283.11635   -516.79082    149239.09   -47623.348    3887.9213   -51511.269   0.15809106 
   94100    294.07263   -482.23225    149257.29   -47501.106    4038.3795   -51539.486    0.1439567 
   94200    294.81133   -525.39376     149274.3   -47494.923    4048.5237   -51543.446   0.14864327 
   94300    293.47519   -506.75929    149273.93   -47505.558     4030.175   -51535.733   0.15121169 
   94400    288.01545   -521.20865    149275.17   -47499.669    3955.1987   -51454.868   0.14964339 
   94500     296.1921   -509.90366    149284.64   -47508.105    4067.4852    -51575.59   0.14697259 
   94600    290.15403    -512.3254    149273.31   -47510.079    3984.5669   -51494.646   0.15202437 
   94700    289.21858   -516.38981    149259.22   -47550.524    3971.7208   -51522.245   0.14605434 
   94800    290.57043   -511.33477    149278.85   -47596.441    3990.2851   -51586.727   0.14627118 
   94900    290.24667   -476.83282    149278.86   -47618.699     3985.839   -51604.538   0.14387145 
   95000    290.36658   -496.39287    149275.26   -47580.131    3987.4858   -51567.617   0.14282541 
   95100    291.11376    -490.6322    149252.62   -47535.903    3997.7464    -51533.65   0.15415794 
   95200    290.48366    -515.9546    149263.91   -47571.668    3989.0936   -51560.762   0.14366536 
   95300    292.10981   -467.84743    149271.97   -47521.214    4011.4248   -51532.638   0.14832363 
   95400    288.47384   -483.47937    149273.99   -47486.802    3961.4935   -51448.295   0.15128115 
   95500     288.5175   -521.17064    149264.36   -47510.407    3962.0931     -51472.5    0.1536126 
   95600    293.21239    -498.8829    149264.98     -47497.4    4026.5661   -51523.966   0.14583264 
   95700    285.94097   -517.42275    149262.37   -47534.922    3926.7106   -51461.632   0.15414866 
   95800     292.9977   -432.24651    149251.05   -47469.611    4023.6179   -51493.229    0.1456989 
   95900    292.73178   -510.16885    149249.67   -47495.688    4019.9661   -51515.654   0.14823882 
   96000    293.83096   -496.15269    149246.58   -47458.429    4035.0607    -51493.49   0.15732072 
   96100    295.34485   -509.31551    149249.84   -47408.533    4055.8502   -51464.383   0.14607307 
   96200    299.52588   -494.16144    149271.03   -47431.992    4113.2666   -51545.259   0.15664812 
   96300    295.70792   -511.00818    149280.33   -47451.044    4060.8362    -51511.88   0.14561307 
   96400    294.31383   -509.23193    149266.57   -47505.752    4041.6918   -51547.444   0.14986726 
   96500    294.03201   -511.17696    149265.56     -47503.7    4037.8216   -51541.522   0.15595825 
   96600    293.05101   -517.41281    149250.19   -47551.449    4024.3499   -51575.799   0.14463649 
   96700     287.6225   -492.31124    149231.93   -47515.706    3949.8024   -51465.508   0.15327493 
   96800    286.62192   -530.01307    149241.23   -47536.246    3936.0619   -51472.308   0.15389121 
   96900    297.65789   -502.26538    149220.57    -47544.08    4087.6144   -51631.694   0.14575026 
   97000    289.49123   -496.23534    149220.46   -47620.184     3975.465   -51595.649   0.14627506 
   97100    290.07903   -487.56165    149225.95   -47588.925    3983.5369   -51572.462    0.1506052 
   97200    293.85649   -512.36985     149247.4   -47529.731    4035.4113   -51565.143   0.14057181 
   97300    298.65756   -470.33802    149268.43   -47421.396    4101.3424   -51522.739   0.15283103 
   97400    294.28099   -536.62063    149269.33   -47514.067    4041.2408   -51555.308   0.14544825 
   97500    293.01201   -514.38439    149261.79   -47483.489    4023.8143   -51507.303   0.15313187 
   97600    294.21669   -519.39544    149271.32   -47420.205    4040.3578   -51460.563   0.15532621 
   97700    295.91001   -475.91415    149304.32   -47385.992    4063.6113   -51449.604   0.15068986 
   97800    290.73285   -501.21209    149284.92   -47491.691    3992.5156   -51484.206   0.15214646 
   97900    292.34429   -522.23415    149285.87   -47454.768    4014.6448   -51469.413   0.14915346 
   98000     290.1441   -524.69792    149262.24   -47545.374    3984.4305   -51529.805   0.15151942 
   98100     293.7267   -502.67388    149276.79   -47528.714    4033.6289   -51562.343   0.14236862 
   98200    292.35977   -497.05944    149263.08   -47520.489    4014.8574   -51535.346   0.15491632 
   98300    290.89269   -479.46661    149265.29   -47458.371    3994.7106   -51453.082   0.14519758 
   98400    295.28792   -480.24685       149280   -47505.014    4055.0686   -51560.083   0.15237752 
   98500    294.25829   -496.37398    149266.35   -47479.933    4040.9291   -51520.862   0.14742502 
   98600    289.36025   -487.97201    149272.07   -47486.262    3973.6662   -51459.928   0.14916506 
   98700    294.33721   -490.10199    149284.36   -47456.167    4042.0128    -51498.18   0.15269688 
   98800    296.75409   -507.64336    149271.76   -47465.294    4075.2028   -51540.497   0.14805831 
   98900     292.4576    -508.5468    149263.07   -47527.126    4016.2009   -51543.327   0.14751207 
   99000    294.63802   -507.33057    149233.22   -47518.885    4046.1437   -51565.029   0.15162849 
   99100    286.67696   -546.59755    149237.89   -47583.458    3936.8177   -51520.276   0.15156042 
   99200    291.41974   -500.06576    149229.03   -47584.876    4001.9484   -51586.824   0.14565974 
   99300    292.75165   -481.50057    149252.69   -47507.671    4020.2389    -51527.91   0.15064141 
   99400    294.10774   -490.58906     149235.3   -47552.037    4038.8616   -51590.899   0.14505523 
   99500    292.79415   -495.75972    149228.77   -47503.401    4020.8226   -51524.224   0.15560936 
   99600    287.81548   -482.95046    149247.06   -47496.902    3952.4525   -51449.355   0.14703947 
   99700     286.1086    -500.8139    149223.72   -47545.051    3929.0126   -51474.064   0.15062467 
   99800    287.80992   -520.09423    149214.51   -47557.883    3952.3762   -51510.259   0.15133197 
   99900    285.03236   -497.65304    149219.72   -47613.234    3914.2331   -51527.467   0.14342747 
  100000    288.66584   -498.70149    149235.34   -47525.791    3964.1302   -51489.921   0.15426569 
Loop time of 53.5745 on 6 procs for 100000 steps with 4608 atoms

Performance: 806.354 ns/day, 0.030 hours/ns, 1866.560 timesteps/s
97.8% CPU use with 6 MPI tasks x no OpenMP threads

MPI task timing breakdown:
Section |  min time  |  avg time  |  max time  |%varavg| %total
---------------------------------------------------------------
Pair    | 38.805     | 39.227     | 39.716     |   5.4 | 73.22
Neigh   | 6.2725     | 6.3634     | 6.4852     |   3.6 | 11.88
Comm    | 4.8342     | 5.2537     | 5.6449     |  14.0 |  9.81
Output  | 0.1748     | 0.17597    | 0.18117    |   0.6 |  0.33
Modify  | 1.8968     | 1.9218     | 1.9631     |   1.6 |  3.59
Other   |            | 0.6323     |            |       |  1.18

Nlocal:        768.000 ave         784 max         754 min
Histogram: 1 0 1 0 2 0 0 1 0 1
Nghost:        1394.17 ave        1407 max        1371 min
Histogram: 1 0 0 0 0 0 3 0 1 1
Neighs:        0.00000 ave           0 max           0 min
Histogram: 6 0 0 0 0 0 0 0 0 0
FullNghs:      21868.7 ave       22360 max       21449 min
Histogram: 1 0 1 1 1 0 0 1 0 1

Total # of neighbors = 131212
Ave neighs/atom = 28.474826
Neighbor list builds = 6279
Dangerous builds = 0

undump              1
unfix               2
unfix               3
unfix               4




################################################
#######         Run Simulation         #########
################################################

reset_timestep      0
log                 log.run_${NAME}
log                 log.run_ice_292K_-500atm_ML
