
# Import phase coexistance setup
#
read_data           data.coexist_${TEMP}K_${PRES}atm_ML
read_data           data.coexist_292K_${PRES}atm_ML
read_data           data.coexist_292K_-500atm_ML
Reading data file ...
  orthogonal box = (-0.1465431 -0.16187959 -0.16187959) to (104.55948 51.140955 51.140955)
  3 by 1 by 2 MPI processor grid
  reading atoms ...
  8530 atoms
  reading velocities ...
  8530 velocities
  read_data CPU = 0.023 seconds

# Define potential
#
pair_style 	    sw
pair_coeff	    * * /data/emrosky-sim/Freezing_Simulations/Melting/MLmW_fancy/ML_mW.sw mW
Reading sw potential file /data/emrosky-sim/Freezing_Simulations/Melting/MLmW_fancy/ML_mW.sw with DATE: 2019-02-27

# Reset velocity/set timestep
#
velocity	    all create ${TEMP} 120598 rot yes dist gaussian
velocity	    all create 292 120598 rot yes dist gaussian
timestep	    10.0

# Define output
#
compute	            1 all msd
compute             2 all orientorder/atom nnn NULL degrees 2 4 12
thermo              1000
thermo_style        custom step temp press vol etotal ke pe c_1[4]

# Neighbor lists
#
neigh_modify        delay 0 every 1 check yes

# Set fixes
#
fix                 1 all momentum 10 linear 1 1 1 rescale
fix                 2 all nph iso ${PRES} ${PRES} ${PCOUPL}
fix                 2 all nph iso -500 ${PRES} ${PCOUPL}
fix                 2 all nph iso -500 -500 ${PCOUPL}
fix                 2 all nph iso -500 -500 10000.0
fix                 3 all temp/csvr ${TEMP} ${TEMP} ${TCOUPL} 837492
fix                 3 all temp/csvr 292 ${TEMP} ${TCOUPL} 837492
fix                 3 all temp/csvr 292 292 ${TCOUPL} 837492
fix                 3 all temp/csvr 292 292 5000.0 837492

# Run very short equilibration
#
dump		    1 all atom 50 eq.${NAME}.dump
dump		    1 all atom 50 eq.melt_292K_-500atm_ML.dump
run	            500
Neighbor list info ...
  update every 1 steps, delay 0 steps, check yes
  max neighbors/atom: 2000, page size: 100000
  master list distance cutoff = 6.0032907
  ghost atom cutoff = 6.0032907
  binsize = 3.0016454, bins = 35 18 18
  2 neighbor lists, perpetual/occasional/extra = 1 1 0
  (1) pair sw, perpetual
      attributes: full, newton on
      pair build: full/bin/atomonly
      stencil: full/bin/3d
      bin: standard
  (2) compute orientorder/atom, occasional, copy from (1)
      attributes: full, newton on
      pair build: copy
      stencil: none
      bin: none
Per MPI rank memory allocation (min/avg/max) = 4.596 | 4.598 | 4.599 Mbytes
Step Temp Press Volume TotEng KinEng PotEng c_1[4] 
       0          292   -409.32511    275584.25   -76639.686     7423.612   -84063.298            0 
     500    340.23166   -468.89157    271608.92   -78236.087    8649.8215   -86885.909    15.585246 
Loop time of 1.24662 on 6 procs for 500 steps with 8530 atoms

Performance: 346.536 ns/day, 0.069 hours/ns, 401.083 timesteps/s
99.7% CPU use with 6 MPI tasks x no OpenMP threads

MPI task timing breakdown:
Section |  min time  |  avg time  |  max time  |%varavg| %total
---------------------------------------------------------------
Pair    | 0.39206    | 0.67556    | 1.0078     |  29.5 | 54.19
Neigh   | 0.12776    | 0.1507     | 0.16596    |   3.8 | 12.09
Comm    | 0.032396   | 0.37985    | 0.68643    |  41.5 | 30.47
Output  | 0.0086743  | 0.0092656  | 0.0098267  |   0.4 |  0.74
Modify  | 0.023887   | 0.0255     | 0.026806   |   0.6 |  2.05
Other   |            | 0.005744   |            |       |  0.46

Nlocal:        1421.67 ave        1444 max        1387 min
Histogram: 1 0 0 0 1 1 0 0 2 1
Nghost:        1989.83 ave        2054 max        1931 min
Histogram: 1 0 0 2 1 0 0 1 0 1
Neighs:        0.00000 ave           0 max           0 min
Histogram: 6 0 0 0 0 0 0 0 0 0
FullNghs:      40000.0 ave       40527 max       39509 min
Histogram: 1 1 0 0 1 1 0 1 0 1

Total # of neighbors = 240000
Ave neighs/atom = 28.135991
Neighbor list builds = 84
Dangerous builds = 0

reset_timestep      0
undump              1
unfix               2
unfix               3


################################################
#######         Run Simulation         #########
################################################

log                 log.run_${NAME}
log                 log.run_melt_292K_-500atm_ML
