LAMMPS data file via write_data, version 29 Oct 2020, timestep = 200000

4608 atoms
1 atom types

-0.10679651940985835 57.37730651940835 xlo xhi
-0.09493023947483437 51.002050239476375 ylo yhi
-0.09493023947483437 51.002050239476375 zlo zhi

Masses

1 18.015

Atoms # atomic

5 1 1.6545195530718624 1.4186432608209598 1.3562742628311533 0 0 0
809 1 12.448921397620502 6.293954480529996 25.395333033773625 0 0 0
13 1 8.010973986555806 1.1132418145766299 1.8316361832311066 0 0 0
21 1 14.559575452984593 1.3068407151228385 1.2217504854135934 0 0 0
19 1 16.0311031134631 50.66402487859883 3.055547895801299 0 -1 0
8 1 4.55061023108009 4.462206478470261 1.1891837028956693 0 0 0
745 1 -0.08794158788218454 44.348985622847565 19.424711531174886 0 0 0
10 1 6.52611317703571 3.136899782823145 3.1038638380941324 0 0 0
16 1 11.074786544450525 4.539758990504421 1.3479997635639873 0 0 0
18 1 12.867563654723142 3.195186816735564 2.999147091832817 0 0 0
24 1 17.548257118596926 4.616400391873909 1.5143474332728473 0 0 0
29 1 1.4765439569858763 7.9879203977459134 1.2832179564288284 0 0 0
218 1 0.09231006768105901 8.854550832755335 9.976405664905927 0 0 0
27 1 3.124908315923728 6.150672865336115 2.7378651173262423 0 0 0
37 1 7.887147091809059 7.573533765339888 1.7206396037861158 0 0 0
35 1 9.923980850834939 6.315529674553653 3.141701416589161 0 0 0
45 1 13.950327442011211 7.571884404003205 1.3300960972136275 0 0 0
43 1 16.059159970594994 6.522077077311599 2.9400277503345897 0 0 0
32 1 4.711272294274454 11.12105020326968 1.5008050821444103 0 0 0
34 1 6.005077010181343 9.130013649498881 3.079448894275113 0 0 0
40 1 10.88345411688967 10.893579866174479 1.39409471248971 0 0 0
42 1 12.30731763854718 9.395701394613305 3.1615547157232338 0 0 0
48 1 17.529651496978907 10.870986837431836 1.5010838479823188 0 0 0
554 1 0.09639780985465565 47.56080416774315 15.830753215796378 0 0 0
53 1 1.4785768534141788 14.519693796716902 1.4276594005797314 0 0 0
33 1 6.1657249899146604 6.379333369589209 0.026261250482439075 0 0 0
61 1 8.103544022454455 14.384587754777034 1.5358070223453433 0 0 0
59 1 9.39765807653972 12.807892887919035 3.1598686101731706 0 0 0
69 1 14.69240437582646 14.369374823498227 1.3786589059882632 0 0 0
362 1 -0.1005725487414395 47.98249342922709 9.814965826092036 0 0 0
56 1 4.71956713497525 17.71289268804497 1.2130602464139684 0 0 0
185 1 12.605884603916882 44.77010767468642 0.16037055690745916 0 0 0
58 1 6.390254726615929 16.216478919435456 3.078682488087187 0 0 0
66 1 13.020776532967416 15.731683391157713 2.8942848106259578 0 0 0
64 1 11.388870576639013 17.311832159516907 1.1368850032638997 0 0 0
72 1 17.470479390314857 17.36152775680187 1.3996241278114212 0 0 0
77 1 1.8907250491736305 20.597879296868868 1.335205397706245 0 0 0
75 1 3.406029739856323 19.12387215501093 3.151848654801387 0 0 0
83 1 9.88719869416066 18.91324577665754 2.786759330621883 0 0 0
892 1 2.66586211999612 34.95413730013154 25.40413782977306 0 0 0
93 1 14.382786335065788 20.647885217445495 1.3636200219643744 0 0 0
82 1 6.1809827656403975 22.004466066905856 2.918242576554059 0 0 0
868 1 2.8806890146614936 28.91861682675089 25.03753721990566 0 0 0
85 1 7.72543699423206 20.456405938079367 1.6765102273312664 0 0 0
96 1 17.43420076100165 24.009674083076646 1.709918736302575 0 0 0
766 1 14.607624493847087 49.95134674776334 23.140059008314083 0 0 0
99 1 3.2020154040682396 25.233219962224922 3.060627667602552 0 0 0
80 1 4.875344673332331 23.625273716585596 1.3337820354712557 0 0 0
107 1 9.35968533953365 25.31044858871799 3.375481292273849 0 0 0
88 1 11.069539917300633 23.722257950024844 1.5295407555536749 0 0 0
117 1 13.997638842180052 27.506423655510325 1.2642086617785926 0 0 0
115 1 15.662814610433013 25.770698356844893 2.755964080214049 0 0 0
101 1 1.544814829187021 26.812282560564295 1.5114411581192082 0 0 0
409 1 -0.06080259556838891 6.322687801320578 12.688581914862473 0 0 0
106 1 6.425581547456223 28.615053031732888 3.3747608785721073 0 0 0
109 1 8.366864942629185 27.024108496288676 1.6637239650973972 0 0 0
114 1 12.556387704655403 28.910119753131138 3.1931000867956074 0 0 0
74 1 0.016960830870957566 21.906822344644834 2.897436838311761 0 0 0
2 1 0.23208349237809778 3.106896262537917 2.8567078398557935 0 0 0
123 1 3.0494441393436817 31.578618057746855 3.128785366757338 0 0 0
104 1 4.717009116449441 30.011901068863043 1.6099864380176432 0 0 0
26 1 0.2974184385935987 9.66542230618543 3.0456514145224136 0 0 0
131 1 9.334805202161046 32.00854977185869 3.180988430197025 0 0 0
112 1 11.171144100223191 30.549847529159692 1.414453614119437 0 0 0
139 1 15.814876523829122 31.7688592878497 2.8787305299498454 0 0 0
120 1 17.596647182574763 30.057917053526086 1.4847372679116726 0 0 0
125 1 1.5003496208372473 33.165834567643515 1.199100465868736 0 0 0
530 1 0.1379727974280746 41.9459500375164 15.807073795419848 0 0 0
241 1 -0.044222693762009865 12.673476813306014 6.205916158698536 0 0 0
133 1 7.6211644819428965 33.62489444982834 1.6374514017355657 0 0 0
130 1 6.130096586675779 35.161937524025596 3.4876356306307548 0 0 0
141 1 14.475899893596559 33.82058631182455 1.5711138445238635 0 0 0
170 1 0.03800645438696662 47.879576710717316 3.511657587563823 0 0 0
626 1 0.0020384121872460553 16.024306781159783 22.305550482091412 0 0 0
758 1 7.86981640944379 49.6842539835479 23.706501555604547 0 0 0
128 1 4.583707937933628 36.271337618495636 1.6153629488080663 0 0 0
132 1 9.13932831252723 35.50206022648677 0.19022923668486497 0 0 0
155 1 9.456190086732821 38.39746763931091 3.2413659180162466 0 0 0
136 1 10.906849502399771 36.61859095466261 1.7821509360078012 0 0 0
144 1 17.619299529982243 36.416820476349365 1.2363824714750635 0 0 0
163 1 16.03559204778105 37.638791010298064 2.8378755169192624 0 0 0
289 1 0.06778002165742619 25.441537955187425 6.25784138885668 0 0 0
149 1 1.3253184354386616 40.058874357145825 1.5701589126376991 0 0 0
457 1 -0.06450738294885061 19.03914443020801 12.848760056214415 0 0 0
157 1 7.732346412466246 39.554243271595574 1.3726926762669411 0 0 0
165 1 14.706247478265933 39.795535787225255 1.4345133574243683 0 0 0
162 1 12.986481029692241 41.10205374663059 3.312308064883147 0 0 0
553 1 -0.10308510050466592 44.479170674901916 12.522898403156315 0 0 0
152 1 4.869023240446833 43.221797603106154 1.8637675196430263 0 0 0
160 1 11.126239064946432 42.83020862104257 1.5919915454387867 0 0 0
179 1 9.3607950183659 44.409949999621496 3.1509673714709514 0 0 0
750 1 1.8678998300670968 49.43499492081698 24.12030168337469 0 0 0
168 1 17.520853897225027 43.31625759707413 1.5967408311809748 0 0 0
173 1 1.4685045759645279 46.10177136103135 1.914936822357221 0 0 0
181 1 7.940094606760251 46.06524047834627 1.4740315826269523 0 0 0
189 1 14.26131695771621 46.23024385960717 1.4845567018996395 0 0 0
186 1 12.779045000134797 47.598424493034564 3.466830261878225 0 0 0
625 1 0.051410974306981716 12.640604258403386 19.141545351062316 0 0 0
146 1 0.041580739974690306 41.3353855925391 3.601745046002601 0 0 0
176 1 4.9840498751279885 49.25983156725549 1.7243566582666081 0 0 0
177 1 6.3710094155347745 44.62027663458231 0.02564061567420868 0 0 0
11 1 9.804989885021564 50.85684447771867 2.954210573623483 0 -1 0
184 1 11.35827420729748 49.07544188977409 1.6077498066338902 0 0 0
192 1 17.57759559215402 49.03908260820147 1.601962024603818 0 0 0
3 1 3.4299234426641347 0.2116795115498426 3.237937193762432 0 0 0
7 1 4.781735236698882 1.8812243124121113 4.981138660320109 0 0 0
196 1 3.046277453923898 3.214886089922263 6.608579413120828 0 0 0
15 1 11.166362032903015 1.2210709585527149 4.714990324656733 0 0 0
23 1 17.204541986147113 1.6071083848073526 4.575615400911789 0 0 0
6 1 1.599264265154294 4.758925982781597 4.604961249928458 0 0 0
14 1 7.922433583815611 5.072767953869189 4.937311847598628 0 0 0
204 1 9.112112097987945 2.8910763356885494 6.222108728870132 0 0 0
22 1 14.429227033852035 4.876062696656364 4.741272645953681 0 0 0
649 1 0.08881573931092257 18.860746204220277 19.31578235780422 0 0 0
31 1 4.842437878474309 7.457022136121431 4.463143245264011 0 0 0
225 1 5.896945643954774 6.07692973188041 6.349326764786923 0 0 0
39 1 11.070944836076325 8.204699515198584 4.973279339298935 0 0 0
233 1 12.355350386121739 6.009636133912607 6.082951713553758 0 0 0
47 1 17.561718528195616 8.120918951356286 4.673680590266508 0 0 0
529 1 0.020868356869694626 38.4211779742503 12.626777000292792 0 0 0
30 1 1.849397498800133 11.388460215616231 4.74519134212696 0 0 0
38 1 7.512248470720934 11.070103147591622 4.480292368249814 0 0 0
228 1 9.138248908744465 9.727263320544118 6.136334215337141 0 0 0
46 1 14.43397250649507 11.266733688402562 4.122243200956406 0 0 0
236 1 15.676839952989464 9.632014826907895 6.079182469632117 0 0 0
51 1 3.335542610968835 12.924222067797507 2.8052980446472797 0 0 0
55 1 4.935454346052493 14.285024719390483 4.845660726796734 0 0 0
249 1 6.374471425639313 12.743125509826523 6.335899868694563 0 0 0
63 1 11.409349452586461 14.41203875116971 4.7167428390768915 0 0 0
67 1 16.170127727038853 12.660960885841067 2.869483750552427 0 0 0
71 1 17.53091768731845 14.349649276669924 4.748068722347977 0 0 0
54 1 1.8719707840570747 17.541896329520583 4.9390867661150075 0 0 0
244 1 3.1436332589424127 15.785041908735392 6.44939931699944 0 0 0
62 1 8.349712139531155 17.40523091577414 4.659954195281162 0 0 0
252 1 9.995551167221334 16.063468031806458 6.2958037458428935 0 0 0
70 1 13.924302820311093 17.54894601606774 4.648043768870861 0 0 0
767 1 17.54357168752106 46.2548136323322 24.320804689629135 0 0 0
79 1 5.033420200079588 20.736241370135097 5.068779713853219 0 0 0
87 1 11.09522821304087 20.854146509957783 4.460954124743423 0 0 0
281 1 12.48077559514703 19.384571656870566 6.30955126366827 0 0 0
91 1 15.80075990117956 19.072372226578064 2.937209269544284 0 0 0
95 1 17.283224782085494 20.66514622341614 4.8419657642945 0 0 0
148 1 3.4607439128219504 41.60764073748966 0.016099561147792624 0 0 0
755 1 9.840310986647971 44.70348444721163 22.593567710492117 0 0 0
268 1 3.1674749030415987 22.315496544837224 6.381346097986538 0 0 0
90 1 12.761368118544109 22.20899459622386 3.194601812514204 0 0 0
276 1 9.534531403778965 22.09705900371201 6.420466154436276 0 0 0
94 1 14.13547519577251 23.79780629050818 4.8793126687496935 0 0 0
78 1 1.4400213900821428 23.608210572473514 4.578331197392973 0 0 0
86 1 7.621116895883451 23.704931898291207 4.741725825457503 0 0 0
297 1 6.234712362435646 25.251499939622477 6.551125412605063 0 0 0
305 1 12.718192496347614 25.57610219358469 6.27043654651035 0 0 0
119 1 17.072923158708566 27.353774613098402 4.55075607189253 0 0 0
292 1 2.9284687446304374 28.49273596126957 6.226389914568095 0 0 0
103 1 4.912253590709086 26.978516415118698 4.734062128750802 0 0 0
300 1 9.403909543605753 28.699178632502925 6.426081864746581 0 0 0
111 1 10.91609622554438 27.124396446438375 4.758974691338019 0 0 0
759 1 11.084461118897394 46.58116752808828 24.093762670566058 0 0 0
762 1 12.678045120229145 48.05068162278647 21.982646992194564 0 0 0
102 1 1.3888544568918568 29.92573247894646 4.737941325051383 0 0 0
110 1 7.882206111093762 30.39408228261636 4.96305011166019 0 0 0
321 1 6.390487492104605 32.057564567200636 6.091817216246234 0 0 0
118 1 14.526437630256568 30.404038306668784 4.633525006140807 0 0 0
746 1 -0.015869935792289264 47.9770051830547 22.436948734486155 0 0 0
127 1 4.689129685140509 33.184470190537155 4.520189186268834 0 0 0
324 1 9.46125622533379 35.279818513203544 6.335720234625886 0 0 0
138 1 12.650402397690021 35.09538859021573 3.1602815171057004 0 0 0
135 1 11.134216370498743 33.6109452604274 4.919456224740908 0 0 0
332 1 15.61974809233573 34.821682635195884 6.431275705506782 0 0 0
143 1 17.263479911561284 33.32334961555461 4.929510382440558 0 0 0
126 1 1.4800956718346474 36.388805778761636 4.328468285757549 0 0 0
147 1 3.1365306050810946 38.21765101466269 2.8503083507342897 0 0 0
134 1 7.89873818586749 36.759420867479115 4.636055386741775 0 0 0
142 1 14.453973183123233 36.4303030031571 4.688743347689962 0 0 0
340 1 3.264994911514081 41.301148853924495 6.473451988797937 0 0 0
151 1 4.52753587367701 39.66720657554152 4.692849570885904 0 0 0
154 1 6.116017463503113 41.31526301940036 3.4206891220135627 0 0 0
159 1 11.19425828738093 39.6738452822582 4.995499208934801 0 0 0
167 1 17.608152350983 39.596393529548415 4.601144026692446 0 0 0
171 1 2.923784895640118 44.490801985348384 3.3156569762077406 0 0 0
150 1 1.5046929199312309 43.0547464302142 5.231685620388215 0 0 0
158 1 7.80971069378427 42.91074510115493 4.626479153116893 0 0 0
377 1 12.859099179130304 44.63625834347939 6.740101834995521 0 0 0
166 1 14.355166237633824 42.885470750010775 4.720624667708706 0 0 0
187 1 15.845003101476733 44.882175581956666 3.224083663555629 0 0 0
364 1 3.239946404069803 47.52130394710274 6.39365381180456 0 0 0
178 1 6.48500395110561 47.695520618294005 3.2446902235479818 0 0 0
175 1 4.9245294611029395 45.9376542351978 4.6487646617837 0 0 0
183 1 11.232734689499203 45.79880716600127 5.083181829168928 0 0 0
191 1 17.649990250182288 46.35080993713681 4.758677726711816 0 0 0
174 1 1.8815572430755938 49.61865007506601 4.898817170600433 0 0 0
182 1 7.912540543369412 49.181637124499204 4.729701931769609 0 0 0
190 1 14.191383666047752 49.50626040406209 4.780356570182941 0 0 0
197 1 1.080422641052035 1.5894882634108616 7.749453116079973 0 0 0
202 1 6.359900816643071 3.324031625578255 9.77495650572133 0 0 0
205 1 7.488167225465646 1.3580094636590767 8.094750141426642 0 0 0
213 1 13.912460928972173 1.5590716361286587 7.713452803163602 0 0 0
219 1 3.1037428887256016 6.53072703941871 9.540391383907723 0 0 0
804 1 9.827035186378431 9.59621466402883 25.260570778799714 0 0 0
200 1 4.590817088148501 4.8380804533087876 8.217151767190844 0 0 0
210 1 12.405959274940686 2.919687869389469 9.583669099523053 0 0 0
208 1 10.813038433690142 4.395286032486914 7.870078133828383 0 0 0
212 1 15.794332641801851 3.3041562206847335 6.373638091610732 0 0 0
216 1 17.42277689734356 4.914343211582555 7.930625676744828 0 0 0
221 1 1.5737870359426693 8.153784434238217 7.85393284592363 0 0 0
229 1 7.832613093389304 7.92540681414026 7.526839231559368 0 0 0
227 1 9.283190205227513 6.294404337338566 9.174378812563843 0 0 0
237 1 14.155550047195982 7.5816737404119365 7.580795476711872 0 0 0
235 1 15.922791598297088 6.411130872393696 9.736433367265064 0 0 0
220 1 3.4850944670198674 9.440275428707753 6.068827847586378 0 0 0
224 1 4.620049161748501 11.38069920335024 7.8395414457174795 0 0 0
226 1 6.2009535375311 9.640239454235173 9.250712987436032 0 0 0
232 1 11.121925549810287 11.162884552310627 7.60021593800771 0 0 0
240 1 17.418378579632453 11.208442159185722 7.5448740247107295 0 0 0
245 1 1.4968799614789285 14.139254329795827 8.01035152244381 0 0 0
253 1 7.985124511908779 14.419854425244306 7.587594639236408 0 0 0
251 1 9.53995960136419 12.77391588086182 9.188955828181689 0 0 0
257 1 12.711514072592248 12.556520642303944 5.724571540966914 0 0 0
261 1 14.484949914181792 14.258422599647432 7.295629834811765 0 0 0
36 1 9.264070743968057 8.979310907724862 0.10765942286368155 0 0 0
248 1 4.796648438250803 17.56277346168602 7.893843226912159 0 0 0
250 1 6.263402219450257 16.110163160119757 9.645103608890366 0 0 0
256 1 11.127371761524078 17.71038156488066 7.997255151561506 0 0 0
260 1 15.85967445052848 16.037053498350453 5.962395838944082 0 0 0
264 1 17.469385346428204 17.479258412288775 7.622673267679513 0 0 0
269 1 1.58124232490362 20.6655087262826 7.962586069418613 0 0 0
273 1 6.535023947306218 18.90167541690134 6.275744663721858 0 0 0
285 1 14.098704981655604 20.673063582394466 8.014496465262193 0 0 0
274 1 6.490452438432387 22.11191254537552 9.440297294949772 0 0 0
277 1 7.836098398613861 20.404072983513437 7.894264783314796 0 0 0
282 1 12.285407148378166 22.374812213342924 9.440061002461304 0 0 0
284 1 15.986829297217472 22.468675178089033 6.483357169230557 0 0 0
288 1 17.50261258082634 24.17400846566417 7.855179486583484 0 0 0
293 1 1.3357966535421697 26.942836447722595 8.165530044374433 0 0 0
844 1 3.072722419782944 22.358634467081984 25.084327732191145 0 0 0
272 1 4.598582430853038 23.76433814266634 8.185259604399148 0 0 0
280 1 10.926939406176967 23.866390322377697 7.735601647957543 0 0 0
299 1 9.28416377421726 25.42936743571056 9.42715086158565 0 0 0
309 1 14.11300494051039 27.31009699661312 7.958060944373175 0 0 0
301 1 7.756651352357745 27.020586332866937 8.230852273004931 0 0 0
306 1 12.428722032189448 28.8106202667647 9.841408528589538 0 0 0
308 1 15.822395729623011 28.734722785166024 6.465322335995144 0 0 0
296 1 4.594247984417486 30.42242188755342 7.549140451574102 0 0 0
329 1 12.887301410738939 32.013157968398396 6.578061968506319 0 0 0
323 1 9.366267332572718 31.87325407443697 9.116221862642021 0 0 0
304 1 11.3552787553104 30.115490298874043 7.905355783760017 0 0 0
312 1 17.44980843915815 29.881175921626504 8.2602261052534 0 0 0
317 1 1.4035952357662043 33.28524440606673 7.804169736679693 0 0 0
316 1 3.202891345554009 34.83048942190827 5.950887519221792 0 0 0
325 1 7.77902782065683 33.71665423517026 7.659650044769136 0 0 0
333 1 14.480979481740668 33.25608836322715 8.482249967555687 0 0 0
751 1 4.660778481457024 45.98018532439044 24.095676393436165 0 0 0
339 1 2.3192961375781347 37.745295527440895 9.283506443768822 0 0 0
320 1 4.568416463218152 36.45678902881443 7.6774344470244555 0 0 0
345 1 6.298138773030697 38.13058190989361 6.222784963986738 0 0 0
353 1 13.162036716122637 38.191780128737975 6.547060497939295 0 0 0
328 1 11.428796122789253 36.31022356833752 7.967218009749953 0 0 0
355 1 15.992085823092058 37.93871206238337 9.66136432061359 0 0 0
336 1 17.306623315783472 36.18463322746549 8.129443880187422 0 0 0
386 1 -0.04527504937668781 3.2020556872978854 15.943063697367286 0 0 0
341 1 1.111164262979964 39.72179148488685 7.572459901376896 0 0 0
349 1 8.017491249855398 39.60009999624035 7.846143878193428 0 0 0
348 1 9.519250965828034 41.50295481781567 6.487358772756871 0 0 0
354 1 12.586691473209001 41.71519715897001 9.72266381654373 0 0 0
356 1 16.12164166044999 41.28644168692609 6.324367138761221 0 0 0
357 1 14.4935785244914 39.84224509862489 8.057681848087993 0 0 0
161 1 12.8260651564433 38.11015977731078 0.3751490080476379 0 0 0
344 1 4.749762013293736 43.118894702146314 8.058883679273865 0 0 0
369 1 6.47247568516663 44.40250457774369 6.484559669865569 0 0 0
352 1 10.97251980454476 43.38311840759952 8.189207562152669 0 0 0
360 1 17.484213692896258 42.833858338714286 7.972785778847518 0 0 0
2209 1 18.881469270029065 25.44194468093911 18.69082073281728 0 0 0
365 1 1.3735728066045247 46.10075287123268 8.04646453900171 0 0 0
370 1 6.25709764452861 47.682328418783385 9.86630164748657 0 0 0
373 1 7.943982487724506 46.15937893967054 8.154142628933073 0 0 0
372 1 9.573426708832297 47.816662753140704 6.396425822777688 0 0 0
378 1 12.883510234838306 47.755158437445004 9.505346253444964 0 0 0
381 1 14.38219678243578 46.541679329202964 8.046747812372654 0 0 0
380 1 15.898833033624548 47.98990077757675 6.5069326847372695 0 0 0
742 1 14.182725783300025 43.19704079614009 23.647107792537795 0 0 0
368 1 4.631681791419139 49.23690143672282 8.13160572021883 0 0 0
201 1 5.98762040593994 50.94771303237389 6.18047521889843 0 -1 0
376 1 11.002083215270321 49.28878455002657 8.2433909073906 0 0 0
209 1 12.697805587266338 50.77081955195577 6.363794413756129 0 -1 0
50 1 0.10060327303246164 15.952899692485325 3.0404973742234676 0 0 0
384 1 17.310136550659838 49.66830773913298 8.24427645036428 0 0 0
734 1 7.9326132181687115 42.880719927709464 24.054846019205826 0 0 0
388 1 2.9428578115637083 3.3509361282855865 12.489970950911088 0 0 0
199 1 4.723009444292204 1.6383069966096997 11.207967427379806 0 0 0
207 1 10.8565508257837 1.3505389556809808 11.206737443510423 0 0 0
211 1 15.60640351625278 0.20898225412586863 9.67656926628842 0 0 0
404 1 15.644806573685953 3.364392602390051 12.657239552331507 0 0 0
215 1 17.299631764395293 1.731323659072673 11.230268296259373 0 0 0
198 1 1.3968657347411566 4.9333071784627 10.867792639122367 0 0 0
206 1 8.278541281152437 4.872683173334242 11.188584753666646 0 0 0
214 1 14.013392819726853 4.67824118749089 11.118368736319391 0 0 0
223 1 4.684260067356914 7.898537192268333 11.188133597882889 0 0 0
417 1 6.46609300360637 6.201540031193908 12.663916249459348 0 0 0
231 1 11.193717139542626 8.120191655483177 10.498831635656009 0 0 0
239 1 17.542204279745107 8.337527224358281 11.093307085896337 0 0 0
222 1 1.5770582726082092 11.020212419129933 11.267257148974824 0 0 0
412 1 3.2360774222334836 9.29864300320147 13.109693313506924 0 0 0
230 1 8.069160793941542 11.006624108978814 10.732451996296962 0 0 0
234 1 12.744437721586145 9.606043443347735 9.18446131928629 0 0 0
420 1 9.620979440801342 9.48719677773675 12.502660682238753 0 0 0
238 1 14.116403126511829 11.251323684202255 10.894269709034702 0 0 0
243 1 3.0734666392681023 12.736664041729496 9.446172375587619 0 0 0
247 1 4.779377342214416 14.379359652515667 10.980728287661238 0 0 0
441 1 6.394171705341229 12.479022542493729 12.34045172953157 0 0 0
255 1 11.373796670951355 14.25474598630007 11.024178792834372 0 0 0
449 1 12.660078662367802 12.556001181984684 12.835329454129361 0 0 0
259 1 15.926266371527571 12.823288861379194 9.158978924092583 0 0 0
263 1 17.274487576273717 14.675160108043018 10.95082526051921 0 0 0
172 1 3.291940245680074 47.660539042577206 0.09308315669257233 0 0 0
246 1 1.4984644254189616 17.280004992990044 11.316429197783759 0 0 0
436 1 3.134154036166823 15.646307199431833 12.688952056640094 0 0 0
254 1 7.8762418750614795 17.34069113951178 11.312919481590077 0 0 0
258 1 12.769903807713936 15.683200162154757 9.060320038763345 0 0 0
444 1 9.680968549463207 15.882466525057678 12.692354005753863 0 0 0
262 1 14.252004661948892 17.524231829152104 10.698052957798597 0 0 0
1634 1 18.903851277807828 28.85143059040602 3.3777667037687094 0 0 0
267 1 2.93141810406941 18.85066340208171 9.675449847725657 0 0 0
465 1 6.532858424661924 19.340825700581615 12.553045962806731 0 0 0
275 1 9.296017313219117 18.91919388168232 9.64287928824544 0 0 0
283 1 15.849495529740304 19.068504401511017 9.129466630411855 0 0 0
287 1 17.312742323957607 20.779964343629807 10.63298343011399 0 0 0
788 1 15.691533522145226 3.0819948446309584 25.244328921595805 0 0 0
270 1 1.1017015725212018 23.37584912840965 11.289861252869574 0 0 0
460 1 2.846516506864496 22.05596951731164 12.72421126780087 0 0 0
271 1 4.6639402799436525 20.698826354937797 10.94134517123134 0 0 0
468 1 9.73357722132484 22.13350049585272 12.73234037963147 0 0 0
279 1 10.769401408944672 20.642032706313152 10.979029503579076 0 0 0
286 1 14.18183325622848 23.51990411915335 11.100098506711173 0 0 0
833 1 12.93127320662336 12.605872146761628 25.018412180458867 0 0 0
291 1 2.5928102751993163 25.035732336365143 9.425314101768429 0 0 0
278 1 7.857800552753377 23.520284744276882 11.159958588068381 0 0 0
307 1 15.768497578444048 25.476660474139763 9.243730863307755 0 0 0
311 1 17.3808492175202 26.786306462456142 11.294164705648969 0 0 0
295 1 4.211223477096961 26.901422770030464 10.86057176223206 0 0 0
298 1 5.85972511676595 28.74782246672881 9.364408446023326 0 0 0
492 1 9.20349265119506 28.972083167961262 12.706341914437633 0 0 0
303 1 10.745142450096218 27.23244058613762 11.142754277228 0 0 0
315 1 3.0538850805611215 31.65775277048073 9.599339047865962 0 0 0
294 1 1.0705725451775738 30.359698193670372 10.884149309002852 0 0 0
302 1 7.585159955413927 30.292833040578117 10.736583444546156 0 0 0
310 1 14.210222365343329 30.45348181272996 11.130399706869214 0 0 0
331 1 16.201833144167548 31.423533045237164 10.000449763181551 0 0 0
508 1 3.4527960753972455 34.98619594519241 12.697403031978105 0 0 0
322 1 6.190619255424265 35.09327088819105 9.551497520503363 0 0 0
319 1 4.790782761682506 33.48922970032678 11.03893219425034 0 0 0
330 1 12.612833707070543 34.88107804079746 9.871692136504606 0 0 0
327 1 10.681939226842388 33.36770335955519 11.294434778014946 0 0 0
747 1 2.967389540882257 44.41243157556622 22.350950607447412 0 0 0
335 1 17.52078921368146 33.022757912619646 11.430855302076841 0 0 0
318 1 1.4818921438934602 36.37045756101547 11.21024745306019 0 0 0
537 1 6.382752820961722 38.209410280983604 12.497591351117178 0 0 0
326 1 8.212341972832427 36.576849752980095 10.928716000331876 0 0 0
347 1 9.902409785580684 38.11604589226035 9.50630272157228 0 0 0
334 1 14.216875758784006 36.45390036528863 11.116371847646592 0 0 0
532 1 3.318308698549306 41.19901786847744 12.978033541352165 0 0 0
343 1 4.323406197737227 38.95577228067247 10.95935971520802 0 0 0
346 1 6.437355648793192 41.08778452727958 9.488923520407477 0 0 0
351 1 10.954599124117443 39.81963284173837 11.25917815791903 0 0 0
359 1 17.49190482278201 39.69065397053451 11.139423113561758 0 0 0
1658 1 18.620811668713877 34.76518377419355 3.1228347401899597 0 0 0
342 1 1.8855312159962112 42.68391073118019 11.302281070899534 0 0 0
363 1 3.0193749921470396 44.55349963207229 9.87866716357003 0 0 0
350 1 7.829681814095604 42.663657359372834 11.286293483312969 0 0 0
561 1 6.157917748688511 44.228195316964886 12.977214343767498 0 0 0
371 1 9.324318817816906 44.53076419403489 9.941622984650254 0 0 0
379 1 16.157937726619302 44.84429291310295 9.611829128024237 0 0 0
358 1 14.552772805040393 43.07040234766795 11.090223901778831 0 0 0
108 1 10.163162451433628 28.307755032479083 -0.05732386512321284 0 0 0
367 1 4.737115475791525 46.13659584435898 11.379003209518046 0 0 0
375 1 11.271439155333994 46.10208984581672 11.207424175673458 0 0 0
572 1 16.02000992456933 47.68759717133455 12.679635086119655 0 0 0
383 1 17.662270061534 45.965771322899755 11.186534869344625 0 0 0
195 1 2.739879409420453 0.23463846316526504 9.406866793549263 0 0 0
366 1 1.499992978818006 49.49692488221144 11.20773391955851 0 0 0
556 1 3.1367886620082097 47.856863282042504 12.64973849199492 0 0 0
393 1 6.450345137791962 -0.051486838108435025 12.729502776186706 0 0 0
374 1 7.916531634437426 49.42621357447802 11.200361609993697 0 0 0
203 1 9.235884433856818 50.95150240959918 9.513935288321433 0 -1 0
382 1 14.390035154467162 49.386545357747714 11.03034038660013 0 0 0
389 1 1.2207624761996334 1.9667397160621785 13.982048114514248 0 0 0
394 1 6.076844984189661 2.893443033752426 16.17670230675075 0 0 0
397 1 7.8860693924159175 1.391624548683601 14.479907597232012 0 0 0
405 1 13.806563207762753 1.5284489451378784 14.083062962823943 0 0 0
392 1 4.628729468185554 4.692442572516274 14.417553492153043 0 0 0
396 1 9.565291581560224 3.106058201798838 12.869426726623196 0 0 0
400 1 11.14555110004039 5.176073515906362 14.229477985360957 0 0 0
2186 1 18.85257245209886 22.190543258679398 22.00116355736916 0 0 0
408 1 17.515981817023516 4.8686280243020645 14.194328722341869 0 0 0
413 1 1.2662912452241133 7.873945505133132 14.333980687349836 0 0 0
421 1 8.140169542127442 7.8714025768517315 13.94974368261447 0 0 0
425 1 12.57832202446392 6.961978232561368 12.475853888642481 0 0 0
429 1 14.483998995155053 8.05467761248748 13.98995544825087 0 0 0
180 1 9.600935058461992 47.5257372970093 0.04505565830815364 0 0 0
416 1 4.788173278054216 11.194508665767183 14.299060789898178 0 0 0
418 1 6.337378760160625 9.227801565562464 15.565615877959932 0 0 0
424 1 11.138081527752632 11.039556571893705 14.18741508477218 0 0 0
426 1 12.980378313173382 9.497455930072174 15.683887258296167 0 0 0
428 1 15.944714928623142 9.957752996625356 12.64911385539804 0 0 0
432 1 17.007488288351798 11.5383621809474 14.518345885179754 0 0 0
437 1 1.2048303211949534 14.305081153512175 14.373431096746874 0 0 0
445 1 7.885365728737098 14.111987885424407 14.190255907364842 0 0 0
453 1 13.72563287645019 14.480299240366072 14.133381800428564 0 0 0
726 1 1.4440244400507296 43.0132348491129 24.04547361140019 0 0 0
440 1 4.5417472638148455 17.728217943708575 13.699209062783954 0 0 0
442 1 6.025719957121054 16.10244048943682 15.531847723457407 0 0 0
448 1 11.194595750841907 17.990240529091793 14.206403294413548 0 0 0
452 1 15.511715919935668 16.07782868941387 12.579816096858245 0 0 0
456 1 17.301462904209966 17.97701467292024 13.9127690239444 0 0 0
459 1 3.2065562494488336 19.010278183953847 15.952775940793792 0 0 0
467 1 9.424379330721212 19.24653151762129 15.74766217555489 0 0 0
473 1 12.643208251083752 19.271111403988836 12.598626927673601 0 0 0
477 1 14.263550274191104 20.788328724990535 13.859763583973017 0 0 0
461 1 1.3367554789312321 20.44681800328165 14.600588551300088 0 0 0
466 1 6.308014788908259 22.645453227618265 15.791846127831063 0 0 0
469 1 7.886174713834886 20.97268800687758 14.361728915097533 0 0 0
476 1 16.002013070891852 22.212575620114425 12.427523536654544 0 0 0
480 1 17.578942983821488 23.680832640487267 14.148446655997379 0 0 0
485 1 1.1125691882074271 27.07413657103404 14.227705411731897 0 0 0
483 1 2.844893737215303 25.618903536207405 15.646622263815091 0 0 0
489 1 6.420824869624214 25.49059624813265 12.429501194540611 0 0 0
464 1 4.725426751765891 23.908271842433738 14.003009548124107 0 0 0
472 1 11.669249117911091 23.736512578207204 14.262365556322335 0 0 0
497 1 12.74857663944546 25.31726375790406 12.244770544770391 0 0 0
785 1 13.016881625718957 0.2547599385737154 25.16922882808347 0 0 0
484 1 2.6325227708879027 28.89956123451924 12.743593444664743 0 0 0
490 1 6.194868666890143 28.447591524400842 16.142575631644704 0 0 0
493 1 7.928864936123805 27.06764077992057 14.276615139100667 0 0 0
501 1 14.269418543947461 26.808481577777098 14.13259040775907 0 0 0
500 1 15.806840638399303 28.893289907906144 12.433492260495322 0 0 0
1969 1 18.722107759314806 12.860680056696442 12.810430750079373 0 0 0
507 1 3.342562299697435 31.882851608286586 15.78231288434962 0 0 0
488 1 4.670423730700957 30.090879487618004 14.205625842871685 0 0 0
513 1 6.182938966133442 31.868280358978662 12.67365466031956 0 0 0
521 1 12.514057068406766 32.042762965912225 12.74092105251839 0 0 0
496 1 10.984364084554498 30.199966099321266 14.457577263942301 0 0 0
515 1 9.528510160268773 32.23563797705376 15.847690370194535 0 0 0
504 1 17.212565775820952 30.256716538924994 14.34835806048475 0 0 0