LAMMPS data file via write_data, version 29 Oct 2020, timestep = 200000

4608 atoms
1 atom types

-0.21771970907841975 53.61771970908024 xlo xhi
-0.29049784345897933 51.19761784345945 ylo yhi
-0.29049784345897933 51.19761784345945 zlo zhi

Masses

1 18.015

Atoms # atomic

1895 1 1.353761491815709 4.025917872045559 0.7029716411309173 1 1 0
4339 1 10.466416625854 1.638712824349847 1.645970677499453 1 -1 1
2743 1 8.897530883853943 50.70448760592343 4.738558809333469 1 1 1
1723 1 4.764360542722132 41.93140189219884 0.7658371207270203 0 0 1
2647 1 14.137916916380592 1.6201572422670625 3.71099359759224 0 1 0
1638 1 16.27537612759209 3.485257064435522 3.57267027579825 -1 1 0
3444 1 0.3694843188882102 4.520472387009731 4.686602907266365 1 0 1
2643 1 5.031703923655924 1.9373221205890117 4.152801662820338 1 0 0
585 1 7.6612703835663805 2.83039103058309 3.1640518705995975 0 0 0
2714 1 1.4273048568910913 18.226810369415258 10.020215391993661 1 0 0
3395 1 6.408844244642504 40.578956072313126 24.913411257247834 1 -1 -1
544 1 14.74634940685726 48.81770696113029 22.741130235678153 -1 0 0
3116 1 2.8287451597893423 4.102614804107715 3.8299182670488694 1 -1 1
1887 1 7.855110814367109 5.398590963341855 2.4672174034394403 0 0 0
1007 1 1.1416791219216489 16.551760298736767 13.055393852322887 1 0 1
4161 1 2.662144656134342 11.428689657577436 23.81490251818369 1 0 0
379 1 4.837844712733301 10.181514001336874 4.122110256594415 0 0 0
615 1 6.958311638493231 9.352990212857058 1.7799144084188097 0 -2 -1
2748 1 -0.20061981731483058 28.933693855479802 13.10358096791173 2 -2 1
1067 1 0.3305091500974854 2.2725513396782073 24.952729494123663 0 0 0
737 1 9.406623883658577 9.84104530474709 2.6155907553618767 -1 1 1
865 1 2.688647076644961 41.71759048554956 15.753120176362959 0 -1 0
4011 1 0.4714044777597979 13.756697548804256 1.7727646471580707 1 0 0
190 1 1.2029921434812505 36.22769751644952 20.947793709359935 -1 1 0
2545 1 7.201963137686122 35.02584151563275 25.208453779280635 -1 0 0
1415 1 11.807480587186715 10.219671867081775 7.920309295058594 0 0 1
2516 1 3.005676677978865 14.017570091471477 25.04807544570975 1 1 1
1027 1 7.28636174713 7.930114829967891 23.760592474163655 0 0 0
1158 1 9.01851225262144 13.907118321760674 1.4234808569041695 0 0 0
1204 1 1.9769320688744467 46.07353852653382 1.3293535355524682 0 0 1
4567 1 -0.01569863214025702 23.522237012127274 8.038763364917148 0 -1 -1
229 1 1.5658679153563249 46.24672236652156 10.039813613869958 0 -1 0
2116 1 4.779307764130623 24.12301995861768 0.7524661537488189 1 0 -1
3429 1 16.392063699336877 12.614625312078157 9.256560184722069 0 -1 -2
4552 1 8.806314086518402 21.48900272608351 1.6653806452900857 0 -1 1
4008 1 4.174007272250805 13.178306101905081 0.7647204203529601 1 0 1
4006 1 14.904673093754628 15.692409512099655 1.4093216188679019 1 2 0
1714 1 5.344713348341329 19.227630860993177 22.990579642681304 1 0 0
2473 1 1.7756381334121487 3.000626779000058 19.98354759195654 0 0 1
4180 1 3.5975639730329814 32.01918893999653 25.248847689708704 1 0 1
1127 1 6.9866398789880915 34.50996607918632 22.219860738676708 -1 -1 -1
3928 1 12.073027274615221 24.752208192200534 25.227532776795023 0 0 0
3754 1 15.616998640924457 22.45605445748027 1.31465758492208 1 0 0
3776 1 0.7380755774253389 28.210363601510338 3.6053170542770556 1 0 0
1636 1 0.9195164274967798 25.636302190070968 2.842852447539351 0 0 0
2885 1 7.822582028734178 23.979011891181443 2.1796973277414717 1 -1 2
2236 1 0.05274206537144871 23.540768048034824 13.332004564260766 0 0 0
3240 1 17.06950311868868 7.943536207136393 1.2219774112660238 1 1 1
558 1 0.7312128360088926 20.732482651442087 1.8928520358894554 0 -1 1
4583 1 10.552002172735373 25.25913831045916 0.47180728774506697 1 0 1
4026 1 13.80437471462505 25.785494284011772 1.4761265832261825 0 0 1
3937 1 -0.055336711766814844 34.156302383268766 7.359545273806346 1 -1 1
2851 1 3.7754688684990088 17.072867342431078 24.854708828308418 1 -1 0
702 1 2.037488737706826 50.10947708702919 11.770727949531173 0 -1 -1
2509 1 1.05015900617396 27.018308967123353 6.208811356793767 0 0 0
4418 1 11.872069206577342 42.96418975555589 25.156071499471945 0 1 1
1652 1 0.8208618518008219 46.175225392905375 17.574073228485805 1 0 0
748 1 16.59625524731314 34.46103474770228 12.26425151293437 -1 0 -1
3413 1 4.10463026975154 20.831093412888563 24.995257091493578 0 0 -1
624 1 16.864682231015085 50.81768874164685 0.2315160122245853 -1 -1 0
3811 1 16.360015209123567 50.81076927032614 10.653220962497143 0 0 0
1775 1 3.167702330219776 10.530593092421531 1.8002502923772985 2 0 0
2028 1 14.115745107035854 32.07819968961599 1.17624056417523 0 0 1
746 1 0.7854504549347618 40.42308185173046 3.336455721707422 0 1 0
4416 1 16.53562707722968 20.5066961347251 3.9071606005008874 0 -1 -1
3083 1 0.01642644307472252 38.277215037682396 19.74630525043182 1 2 0
606 1 7.358313635191893 1.1433319735981151 1.282756804772216 0 1 0
4254 1 15.13424449705012 16.115247635313448 25.268167882266955 0 -1 0
4147 1 8.642200861471087 39.01936126199726 2.2246606316769157 2 0 1
1240 1 11.422378974608732 30.832708033015635 2.9750122546669675 -1 0 1
421 1 0.9465193774657239 35.20191422799859 1.3320682489040212 0 0 1
2763 1 16.022859823380493 38.37112400044043 24.963927454153488 0 -1 0
400 1 9.843052140089931 0.525844468382173 23.0562091624643 0 1 0
3846 1 17.139515238847764 17.13268834004446 13.826979312385726 0 0 1
2101 1 0.18131273503980505 48.19116587372227 11.34542917252305 1 0 -1
1218 1 17.320712919107894 30.030102854767033 8.44143818171855 0 1 0
1159 1 9.552117547365105 36.57157154885286 24.372582181036318 -1 0 0
1154 1 3.1904471951876867 43.790501506740256 2.3547255899150157 2 -1 0
4247 1 15.563829570845805 24.19292303168333 13.654441986036018 0 1 0
3547 1 7.173741160675392 41.932694029321894 2.105999964295684 1 0 0
2164 1 1.101716443028319 8.4435777877279 2.211841107517184 1 2 1
492 1 10.673513362031564 50.465757063658835 1.1039136895027364 0 -1 1
2417 1 3.1802661242128836 45.609527664143684 5.813782326012741 1 0 1
1161 1 6.867954844397923 46.56856984848541 4.069710226180939 0 -1 1
2224 1 9.507057146000006 46.542563276564245 6.357171739019232 0 -1 0
249 1 15.132502303504237 46.826014310815765 5.182587306548828 -1 1 0
2496 1 10.768611530349421 47.20693047964496 2.0274842376997975 0 -1 0
1033 1 5.606163813585954 38.14886418821419 24.481698956615666 1 -1 0
2393 1 1.2102516013924094 11.287443174315698 5.676675256613187 0 2 1
1167 1 8.225707348421752 50.13759963211737 2.061684618518621 0 0 1
2105 1 12.577104022496627 49.35739278659573 3.0122957222213804 -1 -1 0
1531 1 15.504147254813141 48.1826186529138 2.879235679041581 -1 -1 0
3276 1 15.896393449489658 48.768148399403586 6.766328877440282 1 0 0
405 1 5.896389690036351 0.7479000202531385 6.192754230326237 1 1 0
2688 1 2.34451600025497 1.611506376457484 2.2345832462255175 0 0 2
3434 1 5.032185902639431 49.74858814727478 5.93371599547908 1 -2 0
2479 1 13.746782774473244 -0.23995474771295022 7.353549278798121 0 0 1
608 1 15.93058729903965 51.1828592012292 5.167529251771701 0 -1 0
809 1 16.027140192794242 33.29570085278484 20.2767500967955 0 0 0
1400 1 2.9469217400640924 4.150991642261401 8.626618512422535 0 0 0
402 1 8.674901608948915 1.7073733297568725 5.937143835400482 1 1 2
882 1 11.367845180566404 1.4277919629679463 4.403345613144035 0 0 0
3517 1 12.948232826736971 5.89496517688284 3.192764158656753 1 1 -1
2502 1 13.189764642732358 2.451613232014052 6.87049429553532 0 2 0
3363 1 15.76224340298102 6.110194856878361 3.018406073584721 1 0 1
1078 1 3.6936533900654513 9.884157901689713 6.5241509288855255 0 0 0
4490 1 3.4130028218145267 6.420275518285982 2.545335719861357 0 0 0
1377 1 6.2105294060847624 7.406941526914058 6.54623035585954 0 1 0
3667 1 11.26806787727563 4.163394034714609 4.906787423396748 0 1 0
4367 1 12.013602898090353 7.984210874774341 1.5550323902178094 0 0 1
2015 1 13.048363178735878 7.532357990993928 8.858903287067378 0 2 0
2200 1 16.1471104572151 25.234373919063348 5.91011398746336 1 1 1
4386 1 16.795784046450006 21.72241851401012 14.83721454023765 0 1 1
1716 1 5.786446679349435 7.158080107226681 3.52432259339821 1 -1 -1
2650 1 9.893949017982317 7.045958154772084 3.386932255479616 0 0 3
2557 1 -0.1908593825093778 9.036676450571223 4.979669304142381 2 0 0
577 1 6.429406665251321 12.289034605157484 4.59816256078572 0 1 0
2307 1 8.774693866737593 11.645052418590643 5.993740094681653 0 1 1
3674 1 5.682924737200775 14.988932060506716 3.9358579112019756 0 -1 0
1642 1 1.6727912979863442 50.57366134590913 0.22357905186191052 1 0 0
943 1 2.181828751932355 16.90466593503686 3.6801557756251855 0 1 2
870 1 3.8376837166177387 15.737045458855139 1.9492891605091058 1 1 0
3214 1 5.5457618499520365 17.70558679045108 0.7543188880213358 0 0 1
401 1 3.695399775654963 16.160200951409987 6.056877384630732 0 1 1
2973 1 9.944919205816564 12.169318780941069 3.5456975517911395 1 0 1
1997 1 11.802760381572774 16.868815213570226 4.206718341998104 0 0 1
2108 1 12.5479702515712 12.415318777018246 2.516747659303106 1 0 1
2534 1 7.510972760625266 17.00068417445199 4.4625350056593245 0 1 2
4065 1 11.470082641126057 19.46728234522825 3.158851618286009 1 0 1
996 1 13.86738041676694 21.260831237132095 3.7445869306273574 0 0 0
2528 1 2.2904474662404795 19.999100245276967 3.814456682902689 0 0 0
168 1 3.3221729511514835 21.69278388289372 1.1532688131745963 0 -1 1
3733 1 4.935594799002135 21.420921635739433 4.05406206440683 1 -1 -1
1892 1 6.940490760016152 19.466841840578624 3.029163302717659 1 0 1
1096 1 10.635739120570358 22.37883870932397 0.11165424307008065 0 1 1
184 1 13.35372729191392 21.05672658769213 6.321843420118688 -1 1 0
1679 1 12.549279979908947 23.21656442471993 2.4957691414335037 1 0 1
2389 1 2.3215364883521565 21.458324303768933 6.064682749269956 1 -1 -1
1741 1 3.8133018870415567 26.469146216661173 2.5691256108456595 0 2 0
1113 1 6.9420244667252256 23.273696972253568 4.608166113128815 1 1 0
3295 1 9.872475551353267 25.35954698095153 3.37790801992882 1 -1 0
4394 1 11.245227044817993 23.38639230061677 5.194247258669019 1 0 0
2916 1 13.468576332663758 25.868097748173273 4.4148955160119145 1 -1 1
2999 1 7.65199671997258 50.152499183439375 24.60748719333049 0 0 0
3716 1 1.2630256591617892 33.02721873194858 2.9606070953618393 2 -1 0
983 1 5.559377677324397 29.07413402287144 0.6444848344469963 0 0 1
2176 1 3.6457579601079138 29.033155419958135 3.649951540838051 0 0 -1
2800 1 4.6262260779952005 24.6748603604669 4.348619558210975 1 1 0
1613 1 9.563142011354515 27.504469218914075 8.230522769270147 0 0 1
4530 1 13.79219253507093 26.38798964378976 7.410705055510375 1 0 0
1261 1 16.02578342298305 30.062364414154448 0.6536418586243082 -1 0 1
3266 1 6.327750448728327 30.511645956610987 7.357224222271302 2 0 -1
1922 1 6.924016007536235 26.723030850040452 1.87618625345451 -1 0 1
877 1 6.17598751483477 30.366588317593102 4.49955017985704 0 0 2
4357 1 8.482294316167636 27.762634356528984 3.974109858387072 1 0 0
2685 1 13.583768634448505 28.68220728728331 1.5361922887595223 0 0 -1
4219 1 16.563106981510504 27.689155423129094 23.462695708454095 0 0 1
2801 1 12.813384629304613 28.502354653147115 4.3007351598902925 0 0 0
3089 1 2.4828321609985817 36.57869697001741 4.955252710618496 0 -1 0
4113 1 5.160940162663687 33.908582619615785 1.6687038696892458 1 0 1
2037 1 11.413281915815935 31.57125064989803 0.08543814833931934 1 0 0
1784 1 8.551491819383433 30.181740143742108 2.170722520271137 1 0 1
4351 1 8.963862432686083 32.04984425889466 4.257101221734357 0 0 0
4366 1 13.924853114481762 33.81042170937113 3.351198904653501 1 0 0
108 1 17.146666246994712 10.290478049077276 21.28658109767183 0 1 0
1864 1 3.3480262898932938 36.02611490251011 2.118583506124736 2 -1 0
3554 1 0.036798581856195445 7.7805230663838785 23.942585847458815 1 1 0
2380 1 1.34035537618007 17.63976718314043 23.91472902799194 0 1 0
43 1 2.0428815720750917 40.58216849147028 0.8546589437410637 0 0 0
2989 1 8.217863988653676 36.455875423721984 3.753832249822567 1 -1 0
1143 1 13.649200817193115 40.98960719426795 1.0095216614996319 0 -1 0
4107 1 3.3324089959249745 48.38593238466087 20.58911281600523 0 1 0
560 1 13.487340985185458 17.110940182518053 15.273088753719328 0 0 -1
2729 1 10.818855118712522 40.52505026679636 3.1076086306490662 0 0 1
148 1 11.732145066085431 42.73199154668779 1.841754442224608 0 -1 1
44 1 13.007324396667961 38.783396888736846 3.8538334659603644 0 -1 -1
3260 1 15.260786026429603 40.80649687987207 2.992408810079643 1 -1 -1
1375 1 14.763608049422073 42.340248118677195 4.98285357721551 0 0 1
1879 1 7.813992980338057 44.30994564390541 6.783491338995428 1 0 -1
1549 1 5.536983776643889 44.13869292661267 4.470455926014368 1 -1 1
1485 1 11.08310803888947 48.6213487556118 7.1470137086147085 0 0 0
2735 1 13.396058541641104 47.74919138362335 8.038095239852778 -1 1 2
1393 1 9.422143418246693 45.21632297351002 3.7915414002004635 -1 0 1
1693 1 15.517499601670668 31.975484457686314 6.3330859365674215 1 0 0
1493 1 2.980163805276494 49.625962096505795 3.9057706929538654 0 -2 0
296 1 3.746545721281041 48.11806918892125 1.0243700741980721 -1 0 -1
3764 1 7.6263945763097745 48.79554259887541 6.087217081260873 0 0 1
165 1 11.858714577778706 50.35640604202254 5.270120227238133 1 0 0
1964 1 7.942299417912205 50.61710868876011 8.041251906679687 1 1 1
2991 1 5.263136082314105 1.1088288528196624 11.023954642423398 0 0 1
3804 1 4.531263035240205 49.02231490639895 12.395109704946345 2 -1 0
2565 1 17.062608072342886 33.52221173120155 4.617106727729034 1 0 1
320 1 6.2030440931522035 4.893917849360677 8.325887354920253 0 0 1
2721 1 5.330288950775542 1.9794412042752825 13.433952131487283 1 0 0
1541 1 12.235715501227277 0.7861519111052191 10.1426835947697 0 1 1
2719 1 8.329943499802326 3.2126834755281837 8.368288681659283 0 0 1
3447 1 0.6515996431893446 6.865416982436654 6.235004041615665 1 0 1
247 1 8.540479548132458 5.127699137894101 5.711090090289892 0 0 -1
3139 1 10.698059420765553 6.513417938146014 7.047017506117295 0 1 1
1314 1 10.406483086998596 5.145997271714026 9.478310088510842 0 1 1
510 1 0.8394338272245998 0.2075394741664417 4.146940877551086 1 0 0
2964 1 3.302945120760647 6.863071205784239 7.45979675814331 1 1 1
1838 1 5.088016907047535 10.071769596686641 9.273543370161276 1 -1 1
3454 1 4.766376014066293 2.20275188350487 8.353597435073265 0 0 -1
3984 1 5.12216761696953 12.123943816049293 11.228335720277837 1 0 2
1397 1 7.770291711876038 11.133598630726908 8.991294183978765 0 0 1
2149 1 16.04872546618868 31.77283444081067 16.04018279994933 1 -1 0
4221 1 6.760718267394215 13.435409956779175 8.443006166180094 1 0 1
3179 1 4.676143036495137 13.566133937267859 6.573136819821162 2 -1 0
2592 1 8.321590709576657 8.263297473091091 7.887951809038377 1 1 -1
4298 1 10.162224409868395 9.42412228645333 5.777064298137922 0 1 1
2628 1 17.044356069101678 45.91508849026561 20.32268453266156 0 0 0
4601 1 6.688757321416907 47.94659872721865 1.544065911305149 0 -1 1
3320 1 9.395499030835484 14.482425256052027 7.596419324293846 0 0 1
1180 1 11.555262762003352 16.453909307645837 8.509106232998032 -1 1 1
1187 1 11.427529829181506 12.896059201564059 8.975403331760917 -1 0 1
611 1 17.027123620826664 10.808726258536192 5.559631123935364 0 0 -1
2061 1 1.8620302479331943 15.833711021941827 8.010813239451817 1 0 -1
1817 1 5.887524218173996 17.58260957582696 6.6690134207865475 0 0 0
1121 1 10.01507760896105 17.31336720331551 6.011075758940598 1 1 0
1355 1 5.4262555056165205 18.33853692849209 10.410163607458841 0 0 1
640 1 10.042770361492705 19.876781014838535 6.938626990253709 0 0 0
1928 1 13.68020896521364 13.750286521229356 7.5617456431514345 1 0 0
1126 1 13.551917855666032 14.371768489480674 4.642027364471586 0 0 0
2268 1 9.396010006771329 16.47682485905216 2.3951057091963364 1 1 1
2311 1 14.187219123387393 17.875481826527068 5.316276890803642 1 0 0
1628 1 0.7216265076719565 42.372266894575446 17.925003233166056 1 0 0
3154 1 16.541491543643268 16.945932760215555 7.042312593425578 0 0 1
3631 1 0.22647222740271483 15.139921035472035 24.18101920217089 0 2 -1
4050 1 2.2560388061441827 24.760533693487407 9.232204165237146 1 -1 0
3480 1 16.15074402958988 1.8602432830424425 8.970446095139645 0 0 0
4214 1 5.556536618174714 20.072095583856953 6.6380763359004895 1 -1 1
3770 1 9.800034019098243 21.280608433341925 4.433511729405789 1 -1 0
3673 1 13.620770677194301 18.24663094483363 8.023111597089613 0 0 0
1524 1 12.629095818643977 37.01270179303634 21.771273040239883 0 0 -1
444 1 7.778107047878034 21.032390774729432 8.100001041538398 0 0 1
2240 1 7.925767419681069 23.74679100974554 7.289258714863646 0 0 0
1562 1 10.157465740727538 24.76083026254638 8.653121498068591 1 0 0
1288 1 12.681636401938263 23.783778574694068 7.812901273469805 -1 1 0
1311 1 3.78859649557901 25.22633092883758 6.725562537746746 0 0 1
1943 1 3.2192617349108414 28.602712789305844 6.328394302074342 0 -1 0
2584 1 6.801696347535785 27.760797408440727 7.982145078270831 1 0 0
773 1 10.179607615174724 28.89833505785887 5.80038517784801 0 0 0
4562 1 12.537866668179824 31.08814435664423 8.002859351288718 0 0 0
1890 1 15.131665321348436 26.321818097474523 10.327455387044582 1 0 0
894 1 1.5498920489869523 50.876557530220104 9.197150051768196 -1 0 0
4264 1 6.034601599118526 27.018433756569607 5.2953984301618515 0 0 0
3347 1 12.556213929515225 32.51906711110476 5.511795781422795 1 1 0
602 1 14.524541669713647 29.107659598479785 8.812164508817572 0 -1 1
1724 1 12.425556573727588 1.299541632315456 24.192289833718302 0 0 -1
4045 1 2.0937485988737645 33.668946762066994 5.58714344113124 1 0 1
1177 1 9.218083627043331 31.148549416756627 6.950266824950961 0 0 0
4365 1 13.302180595081351 36.52950236279107 2.3728366755785033 0 -1 0
6 1 14.387398609240911 33.89158240943476 8.135556422909875 1 -1 -1
2211 1 0.2232719232121682 38.806277127763686 8.409508324139367 1 -1 0
268 1 4.9538471859971125 33.671881451918466 6.2627219727968075 0 -1 0
2504 1 6.6279585363346385 34.14348881162262 4.10257207873424 1 0 1
1300 1 15.799637285378072 36.74661266417354 8.182001290562818 0 0 1
574 1 10.775735930974193 34.465509277256885 3.2458164168080472 -1 -1 0
2199 1 16.597940703816683 38.1560172071674 19.998410655652922 0 0 1
1079 1 2.5922148888423613 39.169388392627816 5.4415653729561635 1 0 0
1019 1 1.2213012493871331 41.514275246577945 8.533620850112856 1 1 0
828 1 6.845807720315911 38.975152387951965 4.69338968078369 1 0 0
657 1 10.949777534605673 36.679419039559576 5.25487884997282 0 1 0
3286 1 7.784916801930624 37.28086550543921 7.737872092868672 2 0 1
2012 1 13.932519066488068 38.50130275514245 6.551288539124689 0 -1 1
3624 1 12.209514084646786 39.892709556122824 8.35499890863328 0 0 0
367 1 15.896821383984253 40.4742551325789 7.062174910644058 0 -1 1
2792 1 0.9444260136637195 2.248519795475694 8.720452769617122 1 1 0
4547 1 1.152175656626936 43.892343305495764 6.565135133765246 1 -1 0
3523 1 7.389676454878027 41.66727930777658 4.889720384707275 1 0 -1
3535 1 10.176739378559523 41.88649118303871 5.525548558111859 0 0 0
628 1 3.7415023736294413 31.477936762711177 2.1010460277663423 0 -1 -1
3136 1 6.079065716406341 45.40853651017374 8.550427595636226 1 0 -1
2392 1 12.219803740285467 46.534266508613335 4.77542283928572 0 0 0
1728 1 10.695170420793724 42.19046796518792 8.386505349630529 1 0 0
3681 1 12.18208828915093 43.62403655949303 4.614577991095893 1 0 -2
233 1 15.375285183414093 44.933581534331125 10.39823134351025 0 -1 1
3687 1 3.6930405339148002 47.03961042578791 8.449999634612027 1 -1 0
727 1 1.7981752328747715 47.18426115275539 4.166219689284716 0 0 -1
2930 1 4.045947728385983 49.78243966156233 8.356739567251953 1 -1 1
720 1 5.8838273573877276 50.05201214412318 10.425424244466646 1 -1 0
2289 1 15.076643381826706 48.202693838093964 10.46630033393329 0 0 0
4417 1 14.051723836910407 0.09860948053338658 11.956148893887255 1 0 1
869 1 1.213790997168072 0.39981909832234375 13.498722069654278 1 1 1
134 1 12.812672639990568 3.3156171742888882 9.756916677348348 1 1 0
3467 1 9.566216571141688 0.04166283613122962 11.047783824148382 1 0 0
4119 1 11.240158199110144 1.5568516300835118 14.327418922611537 0 0 1
598 1 2.5588830245586567 7.794627970343193 10.010810552894263 1 1 -1
4358 1 0.9897955648232766 24.046390984271447 5.443843441086667 1 -2 2
4433 1 5.858111978437096 7.989592791967318 10.996012631226904 1 0 1
3084 1 5.62365018034026 5.440702302197655 11.064783095556814 1 0 0
1506 1 8.769743678852343 7.60978760064504 10.926381657313042 1 0 1
2755 1 13.980955268422226 2.509534038680783 13.202877866563092 0 0 0
1418 1 15.915343339592638 42.511476663425974 9.535304475006308 -1 0 1
3108 1 15.499012186381226 28.04948632950067 12.86511542088291 0 0 0
4525 1 6.943001000248384 10.343498356902822 14.986596862603475 1 0 1
584 1 15.336524872702324 3.644289573345529 11.097863285467941 -1 1 0
278 1 14.282634788620346 51.04791303961715 1.5540677173025896 0 -1 0
326 1 4.144876613439464 13.372259398944468 14.21502567234738 -1 1 0
4408 1 7.577531248860419 12.397556722359555 13.06305670304505 1 1 1
3349 1 9.134550218975562 8.553206016777864 13.989581362642808 1 0 0
3854 1 15.025952869030087 9.29612021259317 7.402076862387464 1 1 1
782 1 10.63411266518199 13.306937983761877 13.908305134795574 1 0 0
1142 1 8.497060582238126 16.084916688543977 21.700162037380025 1 0 0
1635 1 0.6830961077827705 12.37949495898459 10.694716600296427 1 0 0
4157 1 1.612779213841643 13.790059533959715 13.01918307909562 1 -1 0
916 1 2.9163432208189453 13.229974162878124 9.15062314473744 0 1 0
1835 1 8.328331309653903 15.022058033298 13.12392578048825 1 0 0
413 1 9.272660846569382 10.67739219723323 11.538768857734128 1 -1 0
994 1 12.83165651153984 15.100622553067005 10.640600210855935 0 0 1
4222 1 11.728685198091405 12.158892706068308 11.743915280300834 0 0 1
4145 1 13.75661467417811 10.314106441641929 12.473201249450522 -1 0 0
1846 1 15.245153193940661 12.827271464789225 13.370712448258516 1 0 1
3263 1 13.901550560128026 10.137319138095851 1.4061466122107062 0 1 0
213 1 3.5638120883528166 18.22858547616669 12.40730905000273 0 0 0
1915 1 7.533469043381556 16.74414649844188 8.700429699944989 1 -1 -1
1392 1 6.080712166522982 19.260686724537464 15.777710906893887 -1 -1 1
2076 1 16.489870448129526 17.226832668273996 9.924924122214858 1 0 0
1596 1 3.3124300325896776 19.858418066299006 8.594542013623867 1 -1 -1
3718 1 12.57830862885011 3.3483568325269535 1.403592694363501 0 1 0
3293 1 0.46896929116315755 21.416779879625448 9.67382340771231 1 -1 1
2770 1 9.20009760198695 21.172766539804886 10.816265628590918 0 0 1
820 1 9.10847835517748 19.340075224257184 14.944043404852499 1 0 0
3807 1 9.711358982618197 18.27796246996676 9.576130793724335 1 0 0
1615 1 14.64893809202092 19.441161709689172 10.454245531432608 1 0 0
1542 1 10.779946507844354 33.27391280747378 23.651920961779304 1 0 0
115 1 4.880033659708724 22.340654850744986 9.89601779332215 0 0 0
3042 1 8.832822410706626 23.759632852052984 10.940009213871432 1 -1 0
410 1 9.64596776729673 21.814468218876495 13.65589074129912 -1 1 0
3 1 12.603899118666847 22.13209459071086 13.558917310968392 0 -1 1
4591 1 15.391528951819488 22.246504133625642 9.850653420370097 0 0 1
4443 1 7.907582310992945 17.94937854131498 23.855087452642582 1 0 0
2924 1 5.824133861193752 25.032978365612742 8.358728278663506 1 -1 0
1459 1 4.862268139632266 26.843941151379518 11.930867276254416 0 1 1
1840 1 6.465109188063627 24.552460034018697 11.398453351116084 -1 0 0
4226 1 12.969263827850666 28.54936489274046 11.378154182679566 0 0 1
2538 1 10.974421099614762 24.699058272284613 12.443138333278972 0 0 0
40 1 1.8522178417933235 27.402272734915414 9.48190283063714 0 -1 0
738 1 6.985576096997239 31.15605633110705 9.885373742263083 1 0 1
3949 1 10.24053186112327 29.05676416213686 10.212843527027228 -1 1 1
3855 1 16.38689208376565 30.680431098339973 12.032968121273251 0 0 1
4423 1 -0.04206666413458632 30.846689516094237 9.267990236236907 1 0 1
4087 1 4.568964225090708 28.894449652517128 9.521793824531876 1 -1 0
178 1 3.075629418207303 33.6858753948306 10.496581748658485 -1 0 -1
2190 1 10.23978108824516 31.869524069375615 9.566088160175655 0 -1 -1
2352 1 12.461989394034033 38.68377942827107 19.26461176020645 -1 0 0
2724 1 2.28061521271613 45.94778441979687 24.96090074131095 0 -1 0
3782 1 4.121900584288617 31.825523584032908 8.699595283669181 1 1 0
3896 1 0.3322186764020846 35.04192632329124 9.958855603335486 1 -1 0
4488 1 7.934816383006165 34.09335976616667 7.0736017759799354 0 1 0
703 1 7.242145239641482 34.08670045953421 9.92488479383364 0 1 1
3559 1 10.963645227603305 34.20678279931303 7.249038497154476 2 -1 0
2154 1 12.135602978470581 35.77396515531928 9.750515779460468 1 -2 0
4300 1 2.5385958382035256 37.13610746812553 8.813960254839314 1 0 2
3258 1 3.960585415741357 39.69898791168037 7.8770291446541485 1 -1 -1
1897 1 4.604986078623428 36.577626382938966 6.991005309448962 0 -1 0
2963 1 14.838726358657789 37.2732064180061 11.132264596628065 0 0 1
2794 1 0.8658904735130584 50.16721671254208 15.803257617154046 0 0 -1
1593 1 6.813736789027812 39.925130859931016 7.391778682508984 1 0 0
306 1 0.6216509946502682 43.08656604562271 10.977373369850461 0 0 1
3852 1 7.440206329714502 36.94001588158583 10.744883743248648 1 0 0
3464 1 10.52035616135165 37.33769024413727 7.869343545929761 0 -1 0
1454 1 12.228969939528518 41.18622243438505 12.750561425531629 -1 1 0
4350 1 15.317783292899342 40.38359584564639 11.28634811277087 1 1 1
1189 1 5.5772327910391315 43.45979831182556 10.048146044805645 1 0 -1
2487 1 7.934781216070466 42.02247393424207 8.863720556200121 -1 -1 1
2601 1 8.40238108838847 40.9706577062039 11.48967151521032 0 0 0
1457 1 16.20454245329702 35.44156915677575 2.6238518463664504 0 -1 1
237 1 13.982072561340614 11.262120346498024 5.83910591933191 -1 1 1
952 1 7.470146276548847 47.14239427166559 10.288687989367123 1 0 0
94 1 5.629456306114241 46.3534804168865 12.119733617551963 0 0 1
3419 1 9.667213355881206 48.937551005899074 9.783285045750189 1 0 0
2992 1 9.53497170869422 45.20506589805944 11.568866947359046 0 -1 0
1473 1 10.519146537476175 42.60474928886411 11.089688622222434 -1 -1 0
678 1 2.983880496792719 44.63655691640566 11.797019700695545 1 -1 0
3164 1 4.700541650403177 0.04938442610357513 1.6955400679417472 0 0 0
2142 1 9.521015648904314 50.277543645814035 13.723917867026618 1 -1 1
1772 1 7.714700572905468 2.1384071227944195 10.913886757158098 0 -1 -1
2826 1 10.726726591498224 34.455182181843035 0.5102427913872125 1 0 0
1998 1 16.2350384802469 32.598353580495946 9.774801728718588 1 0 0
636 1 3.150843764640215 29.214145079335495 24.78795498345268 1 0 0
1681 1 3.5245900883302426 3.993290296460435 11.840845048243919 1 1 0
3669 1 2.1266878465732595 2.7988725879005862 14.355252388966894 1 0 -1
2914 1 7.456092894124463 3.739398936210687 14.584560389388004 0 -1 1
3851 1 8.815032064136 1.8759118357445006 16.455134729593816 0 1 -1
4184 1 11.421354356195836 2.3640779935993685 16.8782697311549 1 0 0
4135 1 15.809843174805067 2.5013485424814337 15.2692639343165 1 1 1
3391 1 16.626779288718737 -0.013352901151036933 15.528198868649545 1 1 0
1089 1 0.7161667734141184 9.856440369119813 11.518014736991955 0 1 0
851 1 4.3488084833565965 4.37371759677961 15.436854858999691 0 1 1
3371 1 8.040768598991981 4.9227350361605255 11.943886323679138 0 1 -1
1972 1 3.1518984527270812 6.335773408165152 13.891284657819156 1 0 1
1194 1 10.820252937352212 3.6237902057384557 12.233791501165404 0 0 0
852 1 15.124574804760563 4.9041661414034685 16.49318888906443 0 -1 1
336 1 4.887935132611278 8.545289498228573 13.496186356653318 0 1 -1
4331 1 16.388539684028263 10.949448698022076 2.8193475285044056 1 1 1
1081 1 8.222446361352409 6.2720755783309405 15.913039631435133 0 1 0
368 1 11.072116493054473 6.287752392726195 14.036416077212438 -1 0 1
1130 1 13.388429556146054 8.363611255529815 19.822377909880117 -1 -1 0
3274 1 15.75020991406103 7.322118700630883 14.975256458917562 1 2 0
849 1 16.08995417169046 8.752235187206663 11.402287233533107 0 0 -1
1911 1 16.899138870120304 43.29660491003941 1.9268840681502373 0 -1 0
980 1 12.072593225468411 16.25903466170069 24.905106026475597 0 1 1
824 1 2.8705677109112973 10.740128902146298 13.15128707623901 -1 1 1
3255 1 4.2939189260967625 13.222850643398527 17.086340681952947 2 0 0
2543 1 11.087835147505052 10.61862776860937 15.254686484152048 0 0 -1
648 1 12.004650305358803 8.435854791351604 17.466180583803098 0 1 0
2312 1 13.038739971174072 8.742616647619668 14.367559160052927 1 1 0
3379 1 3.808881871689726 15.430576915579088 11.390598964163885 1 0 0
2549 1 6.707169592434867 15.202576180988828 10.957748945322065 0 0 1
3185 1 4.7906769078015445 16.307038603514307 14.558621995535786 1 1 0
2466 1 6.3519834376573066 20.59762313132112 11.11773141612787 1 -1 -1
2025 1 7.339769570418355 16.368982161192097 15.582545795183384 0 0 0
3734 1 12.05895161608621 14.852685755824 15.769410483619357 1 0 0
845 1 4.333241016083148 35.41889069317938 21.055521408913247 0 -1 1
4326 1 5.03781206263379 20.806257839336126 13.494221115247102 1 0 0
186 1 11.390873521782007 16.190291832123716 12.583394276214513 0 1 -1
1561 1 1.3371569524696347 7.266487667433243 21.357936261158432 1 1 0
4486 1 1.8985029151882018 44.77594746277403 21.378222792497425 0 -1 0
927 1 1.6627086179472386 20.351950121623734 13.059485707857824 1 0 0
3567 1 5.783265564551368 23.250238835927462 14.60412673275474 1 0 -1
3370 1 13.278653435989769 19.365914402294795 12.941541175834697 1 -1 0
4261 1 15.395183578270892 14.554190724919964 11.15015390868771 1 0 1
3662 1 17.342203638411704 8.710330545468349 25.174777770862686 0 -1 -1
594 1 2.4600468937369526 22.40035170634634 11.490246699120036 0 0 0
2387 1 8.147735344378534 24.50954786879356 14.210148124660504 0 1 1
501 1 12.482729793169755 21.761734731707893 17.902201796194397 1 1 0
103 1 11.427267431965596 24.839274195751745 15.631504847051396 0 1 0
2695 1 16.358877084522035 15.325323213917699 3.974887834868759 0 0 0
2398 1 13.676138445117296 23.302247190438344 15.91921644762693 0 -1 1
1800 1 1.5912737371443173 32.250652244392086 21.31253331930288 1 0 0
3882 1 9.321050287798576 28.712605297539813 12.695937379155854 0 0 1