LAMMPS data file via write_data, version 29 Oct 2020, timestep = 100000

8526 atoms
1 atom types

-0.1947307776323015 104.70770420677988 xlo xhi
-0.23879989367890175 51.33578037263028 ylo yhi
-0.23879989367890175 51.33578037263028 zlo zhi

Masses

1 18.015

Atoms # atomic

59 1 0.1231049674161907 -0.22070045629763216 0.08201291169960101 0 0 0
110 1 1.492581662443326 1.4341035362805614 1.8332021836453145 0 0 0
8 1 6.4277042878447626 -0.1906465507590607 0.3295839618219204 0 0 0
111 1 7.826369551395446 1.748472545766553 2.166110901461301 0 0 0
10 1 12.779804035581092 -0.132261634766255 0.224691363535099 0 0 0
113 1 14.344089933817617 1.5514369591737909 1.9697424889511272 0 0 0
731 1 18.866948673495344 -0.20164161846470346 0.27976260302417166 0 0 0
859 1 20.327568778195275 1.3125387655678658 1.8519458326352822 0 0 0
770 1 25.1427187062265 51.24504226146665 0.39513766711268705 0 -1 0
860 1 26.766164752812195 1.1066288546857876 2.0684034812439553 0 0 0
857 1 31.902274420416866 51.29738827713486 0.9195121671537629 0 -1 0
861 1 33.34677260197785 1.776148211768065 2.3292818257832537 0 0 0
115 1 4.741201574169048 4.1367306332359615 1.6911460223892576 0 0 0
14 1 3.0207877446522073 2.828187595234417 -0.03702938476943626 0 0 0
16 1 9.83127803954738 2.993321250370193 0.367485081393664 0 0 0
117 1 10.98016813447991 4.88566359545561 2.202138793780162 0 0 0
18 1 15.976760035514967 3.200215510535454 0.1654727422528568 0 0 0
119 1 17.48184185682276 4.801742337957955 1.9020369251548361 0 0 0
863 1 22.116473656356558 2.8017931924790385 0.19453154373834158 0 0 0
864 1 23.827713976596943 4.557870155416852 1.720020020360938 0 0 0
866 1 28.324818391592316 2.7576336901092984 0.4222054573690426 0 0 0
867 1 30.21130556615123 4.24593419552327 1.9446990417393253 0 0 0
62 1 0.1885496313513652 6.3488393948706525 0.27127378146399495 0 0 0
121 1 1.7431349476786928 8.074770821497136 1.9736677658355335 0 0 0
20 1 5.905793139018293 5.812531620325251 0.30512801770903575 0 0 0
122 1 7.415495609766097 7.755879132820608 1.7083239440929674 0 0 0
22 1 12.21861719188652 6.078665537898435 0.3873717203992034 0 0 0
124 1 14.348843375586725 7.952839877539086 1.3496735007526435 0 0 0
903 1 19.09373246181879 6.007330104675073 0.3147318828998642 0 0 0
868 1 20.65260031365493 7.941295803672967 1.8036798591678136 0 0 0
784 1 25.2401951793394 5.909875756956925 0.047593314968381595 0 0 0
870 1 26.515368033317493 7.821709195723603 1.7471996901971558 0 0 0
872 1 31.342887224972145 6.243064014068978 0.24950462360813597 0 0 0
873 1 33.153853233800355 7.618315945965751 2.1454677178612984 0 0 0
127 1 4.834374245361041 10.976199559049293 2.0743058698878816 0 0 0
126 1 3.231775760269343 9.613111696056405 0.030516783434776096 0 0 0
28 1 9.304071405420322 9.496587163260463 0.38568278335244344 0 0 0
129 1 11.31914103771825 11.103426886939902 1.9451714888898994 0 0 0
130 1 16.087914141378064 9.349408416597639 0.0948102771278424 0 0 0
131 1 17.45098929174272 11.040932641084277 1.976549978073932 0 0 0
874 1 22.093226097632314 9.682985522227403 0.45233199297948246 0 0 0
875 1 23.748023167364508 10.92237672032624 2.0073594495859783 0 0 0
876 1 28.49424992065975 9.115535349782766 0.1831238383075473 0 0 0
877 1 29.993916929076768 10.727640377571184 2.0155009409851856 0 0 0
285 1 -0.008596048160033593 12.64687541359153 0.26611108592643307 0 0 0
132 1 1.765746140510876 14.238540470786452 2.1678888006184494 0 0 0
33 1 6.291617688781298 12.910897272141762 0.30436032448724737 0 0 0
134 1 8.254365640858381 14.101645553254484 1.8882874792778872 0 0 0
34 1 12.933274205957773 12.42528762120892 0.11965298590395429 0 0 0
136 1 13.838317795291127 14.245601995953725 1.8763570515528007 0 0 0
821 1 19.248352010682016 12.407008498402227 0.4741306232037008 0 0 0
878 1 20.651492165221864 14.167132372630729 1.8579690479086501 0 0 0
795 1 25.369508826498624 12.491567715313353 0.35080641107149113 0 0 0
880 1 27.067947117076404 13.985705935032225 1.8466918901275755 0 0 0
881 1 31.79822869137821 12.47418017628061 0.5169101528835732 0 0 0
882 1 32.97840355866559 14.589312662575228 2.205058854596042 0 0 0
38 1 3.302381258995389 15.823172926307688 0.37764935997912596 0 0 0
138 1 4.932504614563004 17.438249811428495 2.2977995432016622 0 0 0
39 1 9.794434114178523 15.612192840677066 0.011946937136827485 0 0 0
139 1 11.004492290795728 17.55635295069602 1.6889532256537685 0 0 0
141 1 15.71792603191863 15.771586513457638 0.1626495283559179 0 0 0
142 1 17.20288043299172 17.367035273818363 2.0706047023929757 0 0 0
884 1 22.486887849858384 15.908307270086453 0.39688466426343216 0 0 0
885 1 24.047749225370474 17.598866235276468 2.1687597119075193 0 0 0
803 1 28.67337415753822 15.847935368580142 0.3273409501022143 0 0 0
886 1 30.452468306134467 17.36863448576062 2.008375844228983 0 0 0
887 1 34.58144235369544 15.934562129291631 0.20297697239704343 0 0 0
58 1 -0.09237895202755207 18.610796555907307 0.12281030682624394 0 0 0
149 1 1.3330713689964873 20.31504194437636 1.8065274109589033 0 0 0
42 1 6.081994295017115 18.708604252383463 0.14365098438185347 0 0 0
150 1 7.524546858915708 20.411925695418216 1.9701964294843664 0 0 0
146 1 12.673430164028161 18.91347624879113 0.4204743135563689 0 0 0
148 1 14.049844794929472 20.50495605265906 2.1080143239302456 0 0 0
1024 1 19.25006364842767 19.040083840596225 0.5905981065823636 0 0 0
807 1 25.175218254509726 19.208913565888942 0.30386488312008286 0 0 0
892 1 26.807429327547077 20.586871508755387 1.910517701774046 0 0 0
890 1 31.57647639727262 19.18944049921562 0.3693485041630499 0 0 0
893 1 33.63570802608838 20.489841168513628 1.6564160158537955 0 0 0
47 1 3.0980243196086814 21.94278023091322 0.2862751843375516 0 0 0
155 1 4.811134528724644 23.69100758002628 1.962519863044565 0 0 0
49 1 9.26603490036376 22.020138548318037 0.6016575462871229 0 0 0
157 1 10.825059484911778 23.837132589346982 1.9874742615821903 0 0 0
52 1 15.579749088073246 22.481161219124925 -0.018900028085644976 0 0 0
888 1 20.64601573022082 20.944968169709377 2.1212625134752923 0 0 0
891 1 22.25297505687716 22.678075270720573 0.29638623443984946 0 0 0
814 1 28.495561053262666 22.23839372778681 0.012516172210580545 0 0 0
897 1 30.165108665444862 23.71061816159036 1.5016148803531733 0 0 0
160 1 1.2818185105922324 26.64317293737542 1.966405573723374 0 0 0
3546 1 34.752068293415235 25.01188750618384 22.491377449017058 0 0 0
55 1 6.327003834354357 25.330292451230736 0.6009359227866213 0 0 0
57 1 12.468105524194968 25.625854681535685 0.41897006597230335 0 0 0
153 1 16.992225647702597 24.06689595337519 1.7789059782361694 0 0 0
321 1 18.8262284652568 25.567066961432253 0.6039467957002 0 0 0
895 1 23.927958747639565 24.14598478049513 2.225038232061483 0 0 0
896 1 25.48609666900726 25.478925555867562 0.4382796594733005 0 0 0
898 1 32.01198114676856 25.516633698641215 0.13104728308323826 0 0 0
60 1 2.9451968402206257 28.29883422576261 0.354547341491516 0 0 0
165 1 4.587635928638973 29.907383084338054 1.7482877612930598 0 0 0
161 1 7.786074524220078 27.11230924620612 2.191892388082757 0 0 0
63 1 9.24111298149348 28.729487929100266 0.40683807013095885 0 0 0
163 1 14.441463777085305 27.122281989523252 1.8618139072985374 0 0 0
65 1 15.7320663607735 28.489394930131517 0.1040725847465474 0 0 0
894 1 20.48610548809283 27.194434503491753 2.187687945770371 0 0 0
900 1 22.151381250537582 28.54321572427804 0.28127839027696033 0 0 0
901 1 27.201657365340065 27.12856037932918 1.845883081362936 0 0 0
822 1 28.653565163830265 28.86640336063157 0.14024937539389198 0 0 0
902 1 33.643608602150515 27.28093410336868 1.8594151562710253 0 0 0
71 1 6.03102266231232 31.888171201251005 0.7140002267025163 0 0 0
168 1 11.043545921510704 30.334574338672454 2.1482252934526263 0 0 0
167 1 12.562278097174257 31.821510511062925 0.3860963836846971 0 0 0
170 1 17.183102404680746 30.046495731155545 2.158296335213859 0 0 0
365 1 18.54271354452148 31.490751178326708 0.34858672196985374 0 0 0
904 1 23.942797173462104 30.18417982628917 1.7992433389123854 0 0 0
905 1 25.570366001164345 31.726646407310692 -0.09646112021412145 0 0 0
908 1 30.396524048875595 30.52387604044706 1.6687723644571706 0 0 0
907 1 31.891422917535102 32.05828882376486 0.04076670386114334 0 0 0
171 1 1.3732129479469588 33.117099749830594 1.5562449016885795 0 0 0
172 1 3.032429551252053 34.94901618637397 0.07560267584178804 0 0 0
173 1 7.802634361495139 33.488337216688926 1.864348537196669 0 0 0
78 1 9.36270170908485 35.12913477912787 0.4673169505534457 0 0 0
174 1 14.368877639580086 33.158666660986434 1.9171249776382138 0 0 0
81 1 15.953152534818226 34.36918409580891 0.06314896342775367 0 0 0
910 1 20.37896085873754 33.06008959941089 1.785107927327516 0 0 0
909 1 21.843704505805842 34.96536344275249 0.19626713261668494 0 0 0
911 1 26.79426379855779 33.45347735862774 1.945256190269058 0 0 0
831 1 28.22291434466642 35.306772093438425 0.21229672570181934 0 0 0
912 1 33.531149176802735 33.64109812240501 1.5822767203102106 0 0 0
99 1 -0.06771769843013575 38.07198641145542 0.8283012673161452 0 0 0
176 1 4.42577075084667 36.40100600242407 1.9212380964613045 0 0 0
177 1 6.016919895907517 38.05183004625031 0.6469412940509767 0 0 0
178 1 11.103688667468054 36.40765585759827 2.2243959774963074 0 0 0
87 1 12.898921109852331 37.8382627287186 0.5383782313758384 0 0 0
179 1 17.528353656459167 36.330074039278294 1.829378550102561 0 0 0
1341 1 19.0438834449758 38.48490442293814 0.3431497398595752 0 0 0
914 1 23.488916584985834 36.461393200893035 1.4729931774955647 0 0 0
837 1 25.257443059200668 38.20395076433583 0.17502683752244247 0 0 0
915 1 30.491855388388597 36.52724872188927 1.3779091555598482 0 0 0
841 1 31.955369734924865 38.51773271057538 0.10715663772684719 0 0 0
181 1 1.3978515024825875 39.794234591380615 2.460979019482051 0 0 0
180 1 2.819326575517205 41.23270173097213 0.5417327665657622 0 0 0
182 1 7.713457364529611 39.649991439246485 1.8547562220935925 0 0 0
91 1 9.267146442692894 41.15171396958428 0.37676659669905566 0 0 0
184 1 14.26990476646085 39.6246746445952 1.949059836320838 0 0 0
185 1 15.762243530326657 41.62473256571886 0.45000567380558687 0 0 0
917 1 20.48140356423971 39.881111968166415 2.093826105404357 0 0 0
844 1 22.116949270666648 41.60332107157128 0.6467231829284378 0 0 0
918 1 27.09537967714478 39.47097755351289 1.9600338281886858 0 0 0
846 1 28.35872593197261 41.28377816062314 0.47160116154517884 0 0 0
919 1 33.515930618147 40.00917712596355 1.9049606313555327 0 0 0
73 1 -0.0712979863563738 44.627167264353005 0.738062523981962 0 0 0
188 1 4.823431014127975 42.68198369628695 1.877079155069251 0 0 0
187 1 6.386526026722815 44.44280208443457 0.4706468386293228 0 0 0
189 1 11.142229683446955 42.54290345962721 2.3122258441538563 0 0 0
97 1 12.691136730607395 44.345542904545546 0.693159919257681 0 0 0
190 1 17.570261814518364 43.09583321530852 1.9871767982598487 0 0 0
811 1 19.240622140924206 44.47319924929338 0.3695880924587428 0 0 0
920 1 23.934091066144425 43.18831387131622 2.2738686676632143 0 0 0
848 1 25.623599328624053 44.63411445580075 0.5635050664174236 0 0 0
921 1 30.163818271805937 43.100329500460276 1.95812071366265 0 0 0
851 1 32.01035096100762 44.63228336422169 0.7184934150962284 0 0 0
191 1 1.775348698179217 46.36916107441773 2.1275515799132902 0 0 0
192 1 7.816459897452985 45.931414243019844 1.9581523439349429 0 0 0
102 1 9.712087250849448 47.60943479103848 0.17967938291924573 0 -1 0
193 1 14.105847152935848 46.256582666159204 2.0088920472596836 0 0 0
5 1 15.948656062183442 47.41629138776973 0.2811868820164748 0 -1 0
922 1 20.724350857819353 46.36148510700551 2.0165032216518575 0 0 0
926 1 26.980547790810693 46.57783511522538 2.290956244154039 0 0 0
925 1 28.65401235282848 47.67990039617167 0.19576617450767192 0 -1 0
927 1 33.52251895007467 46.24098595144497 2.3200772219377868 0 0 0
106 1 4.680396993755496 50.12614957501283 2.210011313048571 0 -1 0
105 1 3.3263150867706015 48.45380108854298 0.46388246840341785 0 -1 0
108 1 11.075745566491435 49.46488761810524 1.9434160314522395 0 -1 0
109 1 17.124065504139047 49.85157332140709 1.8038070538095519 0 -1 0
855 1 23.507678572793548 49.975712667685215 2.3646007256073203 0 -1 0
923 1 22.457463718633893 48.307748344821 0.7357471706160843 0 -1 0
856 1 30.40244541887964 49.434540401293035 1.9732864706290418 0 -1 0
107 1 2.942024836949818 -0.11252928036561169 3.8401850456503706 0 0 0
200 1 4.489158234182467 1.5133909318119818 5.451458693604647 0 0 0
202 1 10.721828626932997 1.0698529212734842 5.1038022155342455 0 0 0
203 1 15.7114879791705 -0.023109237255069776 3.6048491845018003 0 0 0
204 1 17.34266689970709 1.5897817590047492 5.164451436629812 0 0 0
935 1 21.866831553044825 0.15818241469676797 3.6228385238986505 0 0 0
936 1 24.042836764535252 1.3298836188751149 5.1344934414366366 0 0 0
937 1 30.201700756566673 1.1724426376898407 5.081641798350961 0 0 0
205 1 1.4670616490304502 4.8346630122199 5.087629814663667 0 0 0
116 1 5.797480186556211 2.7543206240941527 3.580497031389759 0 0 0
206 1 7.7363982243956135 4.6059018749817335 4.75998690826581 0 0 0
118 1 12.266730601401003 2.686914019220568 3.313674653498075 0 0 0
208 1 14.069953358278804 4.261591566386074 4.814033762755695 0 0 0
740 1 18.891806783133365 2.8315183920699343 3.5609036160068337 0 0 0
940 1 20.765046664030237 4.559766148393309 5.111514377469214 0 0 0
865 1 25.432029987698346 3.075275300426173 3.4326852901456513 0 0 0
942 1 26.931100124764917 4.851899740725816 4.923498742912378 0 0 0
944 1 31.4690390391816 3.0198824601946725 3.9335205945639027 0 0 0
945 1 33.351913866607326 4.563747761392368 5.518196103775072 0 0 0
210 1 3.381578760456233 6.1233144256762015 3.2995270691615857 0 0 0
211 1 4.518439397536724 8.066996776074575 5.073214246815605 0 0 0
123 1 9.044226608853359 6.410784259548981 3.367146801125002 0 0 0
213 1 11.031234460707054 7.848816346409812 4.833486837053423 0 0 0
125 1 15.593797983547443 6.315375814032226 3.309899079842066 0 0 0
214 1 17.338261195851842 7.894450458692754 4.778051987450968 0 0 0
947 1 22.04898659101151 6.164678619644566 3.316841362580746 0 0 0
948 1 23.697179238533373 7.555089318079919 4.899521822635934 0 0 0
871 1 28.62681905674852 6.32111960973066 3.261889669915145 0 0 0
949 1 30.079933426718302 7.8290364961920655 5.396065880080915 0 0 0
69 1 -0.15366522284740128 9.361945362202595 3.436845594236555 0 0 0
215 1 1.3900254236401615 10.830184375578307 5.244311166850194 0 0 0
128 1 6.275807882727635 9.431711020572841 3.5670475873580383 0 0 0
216 1 7.8891657570779845 11.11125568596502 4.820844343191141 0 0 0
218 1 12.623492397608821 9.24479278536956 2.954692649003396 0 0 0
219 1 14.399906390214964 10.949552766064173 4.528389238943443 0 0 0
817 1 19.38783908287537 9.667562139540939 3.513824840810452 0 0 0
950 1 20.75512102480319 11.283751223797799 5.107800547197889 0 0 0
952 1 25.186135232435323 9.362053680771659 3.6491102364014685 0 0 0
953 1 26.717368504198983 11.107123026559947 4.991133136739945 0 0 0
954 1 31.51567418567832 9.346843909291644 3.6297061257625423 0 0 0
955 1 33.15747268179289 10.937068491342282 5.194758125824316 0 0 0
133 1 3.039544132681077 12.478735744354056 3.6807376365795976 0 0 0
221 1 4.695335239216458 14.25945266215874 5.127607217610077 0 0 0
135 1 9.902968544782048 12.757629431585586 3.5268841306304344 0 0 0
223 1 11.036689818306431 14.407308645323075 5.231192803083131 0 0 0
224 1 15.776939517140761 12.731170539902584 3.192916328034294 0 0 0
225 1 17.38935361889201 14.17579736498804 4.855981879574869 0 0 0
956 1 22.300260054649044 12.72431792038179 3.5348321522250132 0 0 0
957 1 23.930308244438496 14.197974479705644 5.2035464112618355 0 0 0
959 1 28.702480775158612 12.578069569709454 3.5575504445183754 0 0 0
960 1 30.17039186729632 13.916364636385056 5.559491260504493 0 0 0
883 1 34.64379412583621 13.13883811267658 3.6839238416798152 0 0 0
226 1 1.4745294577430559 17.36739838544067 5.196465500755255 0 0 0
260 1 -0.15471934569571916 -0.1253812292313803 13.190344835723527 0 0 0
227 1 6.436630022073206 15.600603050683642 3.5067913630641834 0 0 0
230 1 7.739889382533381 17.105523610649875 5.128029481936923 0 0 0
140 1 12.392366438408985 16.08431022381182 3.5406547348193014 0 0 0
228 1 14.01301283217364 17.374965928509315 5.248463070318011 0 0 0
828 1 19.151025449628907 15.966319359844668 3.401857666929703 0 0 0
963 1 20.77365387721948 17.59961227012195 4.878224127525687 0 0 0
964 1 25.593422471684814 15.85795973040496 3.666794703324942 0 0 0
965 1 27.158700034757953 17.424925638994672 5.2430458086143235 0 0 0
966 1 31.684549144876012 15.820064818079874 4.251724575754881 0 0 0
971 1 33.52209529359679 17.55488202300218 5.480548639425479 0 0 0
145 1 3.0634258143248165 19.020157047341215 3.612570135020761 0 0 0
236 1 4.496936617315459 20.471431701375828 5.419512973940313 0 0 0
147 1 9.441174585597697 18.80135268156447 3.651755886227149 0 0 0
237 1 10.835920874621124 20.573655258475334 4.969099901768285 0 0 0
232 1 15.904307896414288 19.173592915216055 3.7147525146189184 0 0 0
967 1 22.300157045842205 19.383235381510527 3.7108463780845073 0 0 0
969 1 24.306681632960846 20.687622783669855 5.83136966014367 0 0 0
889 1 28.59296843463033 18.6801538812597 3.4867006710470787 0 0 0
970 1 29.9933756163344 20.657170952055026 5.142504232525889 0 0 0
54 1 -0.1702729674708057 3.0004913978609986 9.930397764876517 0 0 0
82 1 -0.0414744199951293 22.151448054653613 3.4888580230255712 0 0 0
234 1 1.2286716066687844 23.65526769485526 5.399750281840917 0 0 0
151 1 6.135814120536503 21.961090906083538 3.7826345619770745 0 0 0
240 1 7.660308919947014 23.733148146266892 5.465182206834515 0 0 0
152 1 12.630182036517331 22.286238268309777 3.5014743318709645 0 0 0
233 1 17.42263665216254 20.881789988415633 5.08887854882169 0 0 0
741 1 18.80388881866042 22.576927862069258 3.4680248413487678 0 0 0
976 1 20.67326277220663 23.818498450737067 4.988362329136849 0 0 0
974 1 25.367927514409125 22.156458851570136 3.6989705786974496 0 0 0
980 1 27.22747234283777 23.504575330583055 4.877123342062076 0 0 0
975 1 31.894550722016128 22.172174277654964 3.418264415666215 0 0 0
981 1 33.386644990176116 23.59703572007724 5.274426156811403 0 0 0
154 1 2.8240182901486257 25.2077699723149 3.4573537319175256 0 0 0
156 1 9.310333370645802 25.414559325079583 3.6573810270634666 0 0 0
246 1 11.264979538903948 26.833249419770354 5.139139107625963 0 0 0
239 1 14.027336805111446 24.023144988570525 5.191932776615868 0 0 0
242 1 15.739598193655112 25.450163167443637 3.6966873952827455 0 0 0
247 1 17.36974383589811 26.598541555721578 5.494605366893674 0 0 0
977 1 22.096564168547584 25.746433308556778 3.7885650446112287 0 0 0
979 1 28.591528286912833 25.349556517148578 3.2591587013798415 0 0 0
583 1 -0.15308542305118952 38.3859974528703 6.73836293717506 0 0 0
243 1 4.492594891994722 27.140696442166302 4.782325578973259 0 0 0
162 1 6.291850845155538 28.778585035547632 3.3225550441301976 0 0 0
244 1 12.799574937435615 28.734103864236523 3.8096163527431006 0 0 0
686 1 18.751811063320307 28.608788055742075 3.854642876794589 0 0 0
984 1 23.99429393857463 26.89284230065117 5.165479594302409 0 0 0
983 1 25.413706736823883 28.422758861053925 3.29580386947284 0 0 0
990 1 26.69403189141017 29.85861300198071 5.152289941182869 0 0 0
986 1 30.022919902275124 27.081199800676398 5.130266924507779 0 0 0
985 1 31.547138999089416 28.81927208947307 3.717318035806088 0 0 0
248 1 1.296584043824532 30.008326531155795 5.037783137663315 0 0 0
249 1 3.098901732072735 31.556166494561243 3.181388682259367 0 0 0
250 1 7.682722965304222 30.440460831699447 4.893020752187839 0 0 0
166 1 9.367776355310388 32.006250149321005 3.5668676516277977 0 0 0
251 1 14.395929290181776 29.979121526242224 5.717002076398461 0 0 0
169 1 15.536610247880864 31.54734491850938 3.662583589899743 0 0 0
259 1 17.226318260113697 32.91258432923959 5.363603517746852 0 0 0
988 1 20.69681091570428 30.061841320634656 5.223709147206176 0 0 0
987 1 22.21626996334601 31.609315470970145 3.312692927008765 0 0 0
906 1 28.38249698880474 31.87890880513676 3.591239535904713 0 0 0
992 1 33.52428213728307 30.312704644760633 5.037177963119591 0 0 0
254 1 4.466719991627494 33.185197164928674 4.910835019992326 0 0 0
255 1 6.199347043825686 34.861800865465135 3.4537427275014316 0 0 0
257 1 11.338620364936427 33.03838557540438 5.2011052195566405 0 0 0
256 1 13.074771608947485 34.92310185518016 3.778562821053719 0 0 0
737 1 18.853163528126565 34.396492634854106 3.557594373454543 0 0 0
994 1 23.464609224197048 33.63079060627248 4.898481314457319 0 0 0
993 1 25.07179554582644 34.79674176333538 3.3718481490771266 0 0 0
995 1 30.012045979649248 33.696863860373725 4.851197725922768 0 0 0
997 1 31.879869531486264 35.26037170879157 3.3011514359007923 0 0 0
261 1 1.0036619883734392 36.45568257683102 4.805684189393822 0 0 0
175 1 3.1611095892588024 38.03769217869573 3.704830700304031 0 0 0
262 1 7.921586848856899 36.33378673027934 5.079827766831839 0 0 0
263 1 9.425868487033194 38.23983703764255 3.7187608380837363 0 0 0
266 1 14.40854949064923 36.57633846969432 5.291720974849708 0 0 0
265 1 16.039346651584175 38.02296031378446 3.555495490379897 0 0 0
999 1 20.46614404639784 36.36628114367807 5.05413423621724 0 0 0
998 1 22.12135664728319 38.19394979430697 3.454397930576329 0 0 0
1000 1 26.811173019629834 36.40216686615193 4.824934961863037 0 0 0
916 1 28.870861218235937 37.76718837751639 3.0477245657662095 0 0 0
1001 1 33.68673452771692 36.58074269752728 5.040350915487597 0 0 0
2163 1 20.476983739091875 50.04991135365184 24.417552100853452 0 -1 0
268 1 4.648370077351817 39.85849058823341 5.292924824284001 0 0 0
269 1 6.373976721924547 41.144256044520745 3.715957034627226 0 0 0
270 1 10.881577816670676 40.12315800756591 5.4234675615445225 0 0 0
183 1 12.771325345498267 41.3784023556227 3.971928334626867 0 0 0
271 1 17.404206866772338 39.57297555998733 5.206682338672538 0 0 0
743 1 18.887336843920966 41.210184393575 3.5353262594223076 0 0 0
1003 1 23.675581211925238 39.988904740491805 5.091020856116572 0 0 0
1004 1 25.534508856171318 41.36937497590521 3.620545794452058 0 0 0
1006 1 30.02078824873917 39.34852909528873 5.098252708504431 0 0 0
1005 1 31.61695237405915 41.12540031508513 3.4453625482007615 0 0 0
273 1 1.266511197655444 42.84535622572045 5.280484828408397 0 0 0
186 1 3.136019017570668 44.268292849203114 3.6248985173227517 0 0 0
275 1 7.847954642624442 42.90408074558536 5.388343743382969 0 0 0
276 1 9.480135207979597 44.56414765464753 3.6276751833653607 0 0 0
278 1 14.296980703964321 43.28702313651756 5.2807685774835065 0 0 0
279 1 15.816163859692512 44.7376765996769 3.738367620757813 0 0 0
1008 1 20.346350141424477 43.058106466764585 5.185144075012769 0 0 0
1007 1 22.077840968840757 44.68526046180693 3.7450288688281255 0 0 0
1011 1 27.217001322508533 42.92624263841711 5.154142481806314 0 0 0
1010 1 28.682773578069433 44.67574921555418 3.560475604850536 0 0 0
1013 1 33.26001342787226 42.80064683375207 5.020766015170801 0 0 0
429 1 12.929372757947027 48.49695386101794 22.43200357067649 0 -1 0
281 1 4.530091562014715 45.98677136123635 5.365768988181308 0 0 0
282 1 5.888307219702495 47.70045594229522 3.4113619311766334 0 -1 0
283 1 10.911190873569007 46.038741602440595 5.477741897491225 0 0 0
284 1 12.609760891467426 47.52326540264055 3.594988976047119 0 -1 0
286 1 17.22983739480607 46.41890212916658 5.478628927567532 0 0 0
719 1 18.78522880682556 47.631537801419434 3.5657770805405575 0 -1 0
1014 1 23.704900574986365 46.1532030363402 5.181009467644804 0 0 0
1015 1 30.06753666780268 46.200895802455584 5.4588301966104495 0 0 0
931 1 31.767870764042712 47.746625036054496 4.153248258750473 0 -1 0
194 1 0.9728687416893886 49.83392361033989 4.9829746308193315 0 -1 0
112 1 9.018045906252212 51.13769745430039 3.4530653567761145 0 -1 0
196 1 7.39137392460079 49.60205608560139 5.328851517395894 0 -1 0
197 1 13.82645601772886 49.80345590406963 4.946913862167545 0 -1 0
928 1 20.531402798339613 49.587650882106125 5.15376537380522 0 -1 0
924 1 25.066218797403973 48.40376977550722 3.843580742398103 0 -1 0
930 1 26.905739014172095 49.71487319269328 5.349038000908415 0 -1 0
932 1 28.60037249685883 51.118094260365424 3.5553187962917145 0 -1 0
933 1 33.61156555341387 49.89845369737439 5.258048985873437 0 -1 0
294 1 1.289843241871735 1.6087775722905968 8.106550816956844 0 0 0
195 1 6.26121280514125 -0.003200455367864591 7.011879471384145 0 0 0
295 1 8.183075264445552 1.548051760579524 8.427881641355018 0 0 0
201 1 12.317424478303645 51.16635703567568 6.820270834065005 0 -1 0
296 1 13.927557404558403 1.3532832460934785 8.357547709449385 0 0 0
774 1 19.13515212733657 -0.2338629126504188 6.713331670518902 0 0 0
1020 1 20.902892458529436 1.2610642705079051 8.423866700382787 0 0 0
929 1 25.206945227586598 51.31921429684472 6.945293335164154 0 -1 0
1021 1 26.717471788824593 1.454214713050509 8.666789889426642 0 0 0
938 1 31.854335561147224 -0.14749383615761746 7.071576100593579 0 0 0
1023 1 33.27720541956244 1.587238885897749 8.805759004458077 0 0 0
13 1 -0.016903180385686112 5.536606215735138 7.213666926437454 0 0 0
198 1 2.9995867741110622 3.208879998622202 6.776920441688528 0 0 0
297 1 4.582758133250795 4.578987130647408 8.427429727939826 0 0 0
207 1 9.189411306907296 2.9721604371352233 6.410293221262911 0 0 0
299 1 11.103146610874186 4.801013820728714 7.7369702130732865 0 0 0
209 1 15.84016265825483 3.0890829923909715 6.973291640582242 0 0 0
300 1 17.462294837872783 5.018714363700976 8.332443972711369 0 0 0
941 1 22.239717807720446 2.9832079983603212 6.782646004447971 0 0 0
1025 1 23.473300710578776 4.815565446914308 8.21164528601723 0 0 0
943 1 28.28598173680403 2.904776201708947 6.6976228981318275 0 0 0
1027 1 30.22083570386699 4.471280543970471 8.374495396815501 0 0 0
301 1 1.4703383791209486 7.705904622289807 8.506686152113257 0 0 0
212 1 6.1019986040524286 6.323614253070383 6.4867555849847545 0 0 0
303 1 7.973343162197622 7.692293493134615 7.970982895047458 0 0 0
304 1 12.656471335661443 6.289360816432216 6.420392659653903 0 0 0
306 1 14.030740697725365 7.937403995143841 8.133072350114315 0 0 0
1307 1 19.219056562360784 6.394188683628297 6.400856526711061 0 0 0
1028 1 20.159767695447588 8.241460568066383 8.277799253976912 0 0 0
1030 1 25.453411562128014 6.0767388533796485 6.760808088641275 0 0 0
1031 1 27.132464715574404 7.621542370064081 8.375164362603327 0 0 0
1032 1 31.75462385121138 6.3345368520060195 7.026083198451698 0 0 0
1033 1 33.45205852517881 7.7893318917028775 8.266049578364735 0 0 0
307 1 2.9692596814027286 9.42523870165909 6.682543210314367 0 0 0
308 1 4.678035139631868 11.070692909902892 8.21967611961797 0 0 0
217 1 9.446611898816414 9.462553098228184 6.424894716229404 0 0 0
310 1 11.283528551891427 10.945869978537187 8.26319959171901 0 0 0
312 1 15.843643266712416 9.512008991355318 6.394867471583289 0 0 0
313 1 17.19412855469035 11.366990106505593 8.189722875981346 0 0 0
1036 1 22.022079248707712 9.166431893779912 6.514204636705861 0 0 0
1037 1 23.70071213063822 10.441515339081372 8.337538977118653 0 0 0
1038 1 28.23893068304157 9.52406425277761 6.719222578676522 0 0 0
1039 1 30.0560934959723 10.768608242678027 8.559549463308944 0 0 0
315 1 1.3916125483884851 13.976209337151378 8.555940776103835 0 0 0
2166 1 33.1084862683924 49.68267263328443 24.32904031395403 0 -1 0
222 1 6.164552156754618 12.80440297556039 6.881808511103749 0 0 0
317 1 7.780100272377852 14.036997394609902 8.552425166003443 0 0 0
318 1 12.681980187277857 12.376722973766421 6.2960429072635895 0 0 0
320 1 14.166569950365679 14.220846306222061 7.936526089852343 0 0 0
739 1 18.9423789801273 12.68482382989021 6.5834976954254865 0 0 0
1041 1 20.654249416642404 14.165828588449909 8.148391709255893 0 0 0
958 1 25.45149127455462 12.359023944435828 7.016566522023142 0 0 0
1042 1 27.0360261053833 14.313571237942494 8.574014709785784 0 0 0
961 1 31.97945092816459 12.211192164805738 7.168404016893104 0 0 0
1044 1 33.5631337247819 14.14232701645134 8.600332099084826 0 0 0
322 1 2.826972602480234 15.549505370806875 6.912205710723781 0 0 0
330 1 4.562404222587081 17.400771964770012 8.180226866671699 0 0 0
324 1 9.202259955607724 15.61815093442187 6.879580455132382 0 0 0
332 1 10.67811832203389 17.343882941923667 8.217974482747797 0 0 0
325 1 15.766743502774894 15.767712193109428 6.365305617571871 0 0 0
326 1 17.232447544008192 17.482046209410967 7.871347290168423 0 0 0
1045 1 22.21758134724038 15.755263199802236 6.591740445657754 0 0 0
1049 1 23.446474386412643 17.316474765168465 8.385901141428445 0 0 0
1047 1 28.59611733579368 15.76610964534218 6.950220132219042 0 0 0
1051 1 30.326474416313353 17.231237176385836 8.480474072418346 0 0 0
328 1 0.9941834071106568 20.082290293090168 8.52932821533693 0 0 0
229 1 6.391983663756586 18.816231166949223 6.676658263586349 0 0 0
336 1 7.761627981347324 20.22696846133335 8.399207403510314 0 0 0
231 1 12.196669907181558 19.07957232532448 6.6764215742891215 0 0 0
333 1 14.096280705004052 20.226587197021313 8.339246798437053 0 0 0
842 1 19.024005976667656 19.265656394540812 6.606066603546413 0 0 0
1048 1 20.60760020480505 20.73224743754537 8.157568068397445 0 0 0
968 1 25.430130493427956 18.769445473779893 7.101144190907478 0 0 0
1050 1 27.047672251045977 20.3266889066599 8.889496593007932 0 0 0
1052 1 31.3754632068475 19.055026320837502 6.678394197205641 0 0 0
1053 1 33.42609029022913 20.457979564029635 8.106522079045522 0 0 0
335 1 2.4877961456247553 21.744960961831072 6.661649908957771 0 0 0
339 1 4.108927167254284 23.6137844707009 8.099317813966174 0 0 0
238 1 9.190386510822368 22.139257097084737 6.663489753266995 0 0 0
337 1 15.685609530697112 22.186629555252114 6.479761735695744 0 0 0
338 1 17.30066881025365 23.49847484700085 8.533638894953361 0 0 0
1054 1 22.185293823202954 22.28761754267638 6.607410669461618 0 0 0
1055 1 28.081627104946232 21.81866771395858 7.0479304131384435 0 0 0
1060 1 29.750086152578977 23.58391218229209 8.200168362965362 0 0 0
340 1 5.76019715451196 25.46328484745065 6.600641973651284 0 0 0
342 1 10.65381862483962 23.945358168801317 8.3819742012754 0 0 0
241 1 12.340225461309831 25.52618810454805 7.078443087891815 0 0 0