

read_data data.ice_${TEMP}K_${PRES}atm_ML group ice
read_data data.ice_294K_${PRES}atm_ML group ice
read_data data.ice_294K_-1000atm_ML group ice
Reading data file ...
  orthogonal box = (-0.10679652 -0.094930239 -0.094930239) to (57.377307 51.002050 51.002050)
  3 by 1 by 2 MPI processor grid
  reading atoms ...
  4608 atoms
  reading velocities ...
  4608 velocities
  read_data CPU = 0.033 seconds
read_data data.liq_${TEMP}K_${PRES}atm_ML add append shift ${X_HI} ${YZ_LO} ${YZ_LO} group water
read_data data.liq_294K_${PRES}atm_ML add append shift ${X_HI} ${YZ_LO} ${YZ_LO} group water
read_data data.liq_294K_-1000atm_ML add append shift ${X_HI} ${YZ_LO} ${YZ_LO} group water
read_data data.liq_294K_-1000atm_ML add append shift 51.0020502394764 ${YZ_LO} ${YZ_LO} group water
read_data data.liq_294K_-1000atm_ML add append shift 51.0020502394764 0.0949302394748344 ${YZ_LO} group water
read_data data.liq_294K_-1000atm_ML add append shift 51.0020502394764 0.0949302394748344 0.0949302394748344 group water
Reading data file ...
  orthogonal box = (-0.10679652 -0.1955676 -0.1955676) to (104.61977 51.292548 51.292548)
  3 by 1 by 2 MPI processor grid
  reading atoms ...
  4608 atoms
  reading velocities ...
  4608 velocities
  read_data CPU = 0.030 seconds

write_data data.icewater_test
System init for write_data ...
WARNING: Communication cutoff is 0.0. No ghost atoms will be generated. Atoms may get lost. (../comm_brick.cpp:167)

# Define potential
#
pair_style sw
pair_coeff * * /data/emrosky-sim/Freezing_Simulations/Melting/MLmW_fancy/ML_mW.sw mW
Reading sw potential file /data/emrosky-sim/Freezing_Simulations/Melting/MLmW_fancy/ML_mW.sw with DATE: 2019-02-27

# Delete water and ice atoms that are overlapping
#
delete_atoms overlap 2.5 water ice
System init for delete_atoms ...
Neighbor list info ...
  update every 1 steps, delay 10 steps, check yes
  max neighbors/atom: 2000, page size: 100000
  master list distance cutoff = 6.0032907
  ghost atom cutoff = 6.0032907
  binsize = 3.0016454, bins = 35 18 18
  2 neighbor lists, perpetual/occasional/extra = 1 1 0
  (1) command delete_atoms, occasional, copy from (2)
      attributes: full, newton on
      pair build: copy
      stencil: none
      bin: none
  (2) pair sw, perpetual
      attributes: full, newton on
      pair build: full/bin/atomonly
      stencil: full/bin/3d
      bin: standard
Deleted 690 atoms, new total = 8526

# set timestep
#
timestep 10.0

# Define output
#
compute 1 all msd
thermo 50
thermo_style custom step temp press vol etotal ke pe c_1[4]

# Neighbor lists
#
neigh_modify delay 0 every 1 check yes

# Set fixes
#
fix 1 all momentum 10 linear 1 1 1 rescale
fix 2 all nph iso ${PRES} ${PRES} ${PCOUPL}
fix 2 all nph iso -1000 ${PRES} ${PCOUPL}
fix 2 all nph iso -1000 -1000 ${PCOUPL}
fix 2 all nph iso -1000 -1000 10000.0
fix 3 all temp/csvr ${TEMP} ${TEMP} ${TCOUPL} 837492
fix 3 all temp/csvr 294 ${TEMP} ${TCOUPL} 837492
fix 3 all temp/csvr 294 294 ${TCOUPL} 837492
fix 3 all temp/csvr 294 294 5000.0 837492


# Fix ice atoms in place
#
velocity ice set 0.0 0.0 0.0
fix 4 ice setforce 0.0 0.0 0.0

# Run 1.0 ns equilibration of water
#
dump 1 all atom 1000 eq.all.${NAME}.dump
dump 1 all atom 1000 eq.all.coexist_294K_-1000atm_ML.dump
run 100000
Neighbor list info ...
  update every 1 steps, delay 0 steps, check yes
  max neighbors/atom: 2000, page size: 100000
  master list distance cutoff = 6.0032907
  ghost atom cutoff = 6.0032907
  binsize = 3.0016454, bins = 35 18 18
  1 neighbor lists, perpetual/occasional/extra = 1 0 0
  (1) pair sw, perpetual
      attributes: full, newton on
      pair build: full/bin/atomonly
      stencil: full/bin/3d
      bin: standard
Per MPI rank memory allocation (min/avg/max) = 4.590 | 4.598 | 4.605 Mbytes
Step Temp Press Volume TotEng KinEng PotEng c_1[4] 
       0    137.56797   -1659.5873    277632.86   -83258.384    3495.7954    -86754.18            0 
      50      164.051   -1408.9432    276282.68   -82920.624    4168.7666   -87089.391   0.83389631 
     100    163.98215   -777.88692    273749.73   -82646.213    4167.0171    -86813.23    1.8248639 
     150    177.03913   -535.43982    272244.65   -82339.127     4498.813    -86837.94    2.8794739 
     200    183.14529   -653.83723    272343.52   -82041.418    4653.9794   -86695.397    3.8920857 
     250    182.44231   -687.34011    273549.12   -81747.829    4636.1155   -86383.945    4.9934464 
     300    191.17862   -1323.1153     275014.9   -81439.838    4858.1175   -86297.956    6.2304116 
     350    194.39001   -1378.2709    275285.24   -81116.753    4939.7234   -86056.476    7.6254172 
     400    196.66852    -1087.226    274383.02   -80940.558    4997.6236   -85938.181    9.0788626 
     450    200.46585   -518.27167    273319.47    -80732.16     5094.119   -85826.279    10.546482 
     500    205.21939   -683.16729    273369.42   -80520.821    5214.9132   -85735.734    12.287577 
     550    208.78381   -759.44673    274556.44   -80321.721    5305.4902   -85627.211    13.924117 
     600    215.82131   -1353.5373    275713.11   -80088.329    5484.3227   -85572.651    15.902809 
     650    216.39951   -1273.3411     275903.7   -79913.276    5499.0157   -85412.292    17.861589 
     700    219.46745   -1071.4781    275404.06   -79689.009    5576.9765   -85265.986    19.827726 
     750    224.87865   -895.24557    274997.69   -79541.308    5714.4826   -85255.791    21.698867 
     800     227.4918   -822.31234     275023.8   -79373.867    5780.8864   -85154.754    23.695081 
     850    226.79276   -856.09788    275285.56   -79233.189    5763.1228   -84996.312     25.75022 
     900    230.14909   -1061.4016    275536.26   -79081.896    5848.4118   -84930.308    27.720109 
     950    234.75068    -923.6308    275602.32     -78940.1    5965.3448   -84905.444    30.025688 
    1000    239.89793   -1068.8687    275959.95   -78757.581    6096.1436   -84853.725     32.38977 
    1050    236.63935   -1090.4415    276515.18   -78623.474    6013.3386   -84636.812    34.491044 
    1100    239.62815   -1311.9659    276705.37   -78455.733    6089.2882   -84545.021    37.088575 
    1150     246.4316    -760.1285    276508.29   -78302.692    6262.1733   -84564.865    39.405736 
    1200    246.81794   -920.99725    276400.77   -78219.249    6271.9909    -84491.24    41.731229 
    1250    251.63339   -898.72009    276564.26   -78111.545    6394.3582   -84505.903    44.174724 
    1300    250.37995   -888.27184    277083.65   -78033.894    6362.5064     -84396.4    46.472454 
    1350    253.73749   -952.87009    277639.25   -77861.896    6447.8262   -84309.722    49.060908 
    1400    253.46223   -997.54185    277850.59   -77749.148    6440.8315    -84189.98    51.364801 
    1450    256.98198   -1088.0433    277602.87   -77623.153    6530.2734   -84153.427    53.777626 
    1500    256.03982   -926.00095    277121.66   -77598.379    6506.3317   -84104.711    56.405447 
    1550    259.12507   -973.13627    276904.46   -77480.501    6584.7322   -84065.233    58.872751 
    1600    259.96154   -781.23507    277214.35   -77396.318    6605.9881   -84002.306    61.722158 
    1650    263.98736   -938.24238    278006.64   -77328.711    6708.2899   -84037.001    64.764769 
    1700    261.58268   -1405.8423    278542.79   -77248.575    6647.1835   -83895.758    67.737332 
    1750    266.24432   -1230.8237    278095.96   -77146.964    6765.6425   -83912.607    70.579039 
    1800    267.41814   -910.29244    277512.24   -77116.003    6795.4708   -83911.474    73.434953 
    1850    269.81763   -848.09331    277354.99   -77017.707    6856.4452   -83874.152    76.398559 
    1900     273.3753   -806.38769    277710.78   -76957.041    6946.8507   -83903.891    79.156995 
    1950    270.20234   -1087.4664    278397.57   -76879.937    6866.2213   -83746.159    82.263689 
    2000    273.53567   -1435.5886    278766.14    -76767.02    6950.9258   -83717.945    85.548006 
    2050    275.55232   -1105.0992    278433.74   -76730.518    7002.1719    -83732.69    88.697647 
    2100    275.59603   -726.00273    278106.14   -76690.993    7003.2824   -83694.275    91.882919 
    2150    277.17807   -859.68545    278178.96   -76585.301    7043.4844   -83628.786    94.786311 
    2200    279.34924   -885.78624    278801.81   -76515.894    7098.6567   -83614.551    97.800192 
    2250    279.46747   -1116.6349    279232.01   -76483.324    7101.6612   -83584.985    100.94453 
    2300    277.34949    -1207.794    279244.84   -76455.737    7047.8405   -83503.578    103.75451 
    2350    277.54814   -1023.5151    278885.32    -76391.43    7052.8884   -83444.319    106.85196 
    2400    278.63609   -985.14321    278330.26   -76404.877    7080.5348   -83485.412    109.41838 
    2450    281.47874   -887.50018    278179.15   -76423.834    7152.7704   -83576.604    111.91532 
    2500    278.64716   -1206.3836    278567.89   -76425.005    7080.8161   -83505.821    115.07234 
    2550    279.75187   -953.37228    278921.16    -76335.72    7108.8883   -83444.608    118.38886 
    2600     284.4652   -1045.8333    279232.21   -76338.199    7228.6606   -83566.859    121.64871 
    2650    281.99097    -983.2538    279207.43    -76344.71    7165.7869   -83510.497    124.16819 
    2700    285.73224   -982.35253    279015.71   -76303.945     7260.858   -83564.803    126.27867 
    2750    284.29857   -1041.8801    278782.02   -76258.291    7224.4262   -83482.717    128.30089 
    2800    280.85253   -1197.8945    278818.72   -76282.434    7136.8575   -83419.292    130.70499 
    2850     285.4078   -863.12476    278779.18   -76249.414    7252.6134   -83502.027    132.69473 
    2900    283.34271   -1100.2264     278735.4   -76215.255    7200.1365   -83415.392    135.15671 
    2950    285.90877   -672.03931    278684.01   -76206.861    7265.3438   -83472.205    137.79416 
    3000    287.84798    -1280.003    278965.84   -76206.587    7314.6219   -83521.209    140.80237 
    3050    284.61864   -1108.4234    279088.83   -76170.584    7232.5598   -83403.144    143.77709 
    3100    289.78243   -1304.2852    279104.93   -76100.861     7363.779    -83464.64    146.32997 
    3150    289.35561   -785.25545    278892.08   -76058.407    7352.9328    -83411.34    149.84732 
    3200    286.12976   -708.32934     278735.3   -76027.125    7270.9594   -83298.085    153.27052 
    3250    287.54398   -946.98025    279209.98    -75984.47    7306.8967   -83291.367    156.30339 
    3300    288.38207   -1063.9852    279582.48   -75994.711    7328.1938   -83322.905    159.42328 
    3350    285.23369    -1119.289    279699.17   -76003.403    7248.1891   -83251.592    162.96863 
    3400    284.73052   -1017.7122    279345.46   -76021.086    7235.4028   -83256.488    166.05956 
    3450    284.07392   -809.11751    278781.91   -76075.592    7218.7176    -83294.31    168.93444 
    3500    286.12523   -871.77994    278568.59   -76088.347    7270.8442   -83359.191    172.03581 
    3550    285.95995   -1113.3715    278914.09   -76063.349    7266.6443   -83329.993    175.36794 
    3600    286.07319   -1208.4729    279500.96   -76031.146    7269.5219   -83300.668    178.66984 
    3650    287.59353    -917.5524     279594.5   -75995.771    7308.1558   -83303.927    182.01094 
    3700    285.65218   -930.83415    279324.29   -75954.722    7258.8235   -83213.545    185.23425 
    3750    293.89936    -1064.783    279017.35   -75865.374    7468.3958    -83333.77    188.76318 
    3800    289.95055   -802.87482    278916.79   -75863.717    7368.0509   -83231.768    191.98887 
    3850    288.61075   -883.66341    279195.91   -75809.275    7334.0047    -83143.28    195.33251 
    3900    294.23761   -935.20897    279636.71   -75769.001    7476.9912   -83245.992     198.7785 
    3950    290.45601   -934.95152    279836.83   -75761.155    7380.8954    -83142.05    202.07839 
    4000    287.42805   -1159.0072    279720.01   -75822.077    7303.9507   -83126.028    204.31652 
    4050    289.74033   -698.88187    279285.96   -75829.814     7362.709   -83192.523    206.44578 
    4100    288.42731   -742.34014     279067.2   -75817.808    7329.3434   -83147.152    209.75575 
    4150    292.31755   -971.37421    279217.39   -75854.418    7428.1998   -83282.618     212.5929 
    4200    293.73299   -773.49605    279210.17   -75826.282    7464.1682    -83290.45    216.26156 
    4250    291.66347   -1161.1037    279348.99   -75795.661    7411.5788    -83207.24    220.19028 
    4300    295.03526   -1353.1148    279496.37   -75774.681    7497.2606   -83271.942    223.37989 
    4350    292.93325   -918.52713    279481.07   -75777.792    7443.8458   -83221.638    226.30705 
    4400     289.3843    -974.6746    279553.68    -75799.16    7353.6618   -83152.821    229.41828 
    4450    291.58058   -1294.2888       279734   -75768.568    7409.4723    -83178.04    232.61144 
    4500    289.85879   -1007.3183    279529.54   -75753.855    7365.7193   -83119.574    235.37996 
    4550    292.63806   -891.12654    279246.76   -75754.082    7436.3446   -83190.427     237.5843 
    4600    296.25905   -1124.6549    279217.81   -75726.149    7528.3588   -83254.508    240.45141 
    4650    289.29021   -781.45947    278985.63    -75732.73    7351.2709   -83084.001    242.63357 
    4700    295.02687    -511.4885    278944.05   -75733.479    7497.0474   -83230.527    245.23131 
    4750     293.8038   -1153.5046    279695.71    -75757.95    7465.9674   -83223.918    249.18063 
    4800    292.04933   -1051.6243    280195.77   -75720.494    7421.3841   -83141.878    252.45552 
    4850    291.57757   -1138.1004    280201.77   -75663.422    7409.3959   -83072.818    255.66453 
    4900    294.28423   -985.02137    279643.37   -75680.834     7478.176    -83159.01    259.00017 
    4950    293.43638   -587.80228    279196.61   -75695.221    7456.6308   -83151.852    262.17272 
    5000    297.68603   -636.61215    279160.16   -75689.392    7564.6204   -83254.012    264.45396 
    5050    294.10736   -1003.9057    279688.74   -75693.067    7473.6814   -83166.748    267.81894 
    5100    293.91064   -1409.0157    280011.44   -75662.437    7468.6826    -83131.12    270.39291 
    5150    293.52279   -1032.2878    279866.02   -75686.397    7458.8267   -83145.223    272.51153 
    5200    295.03408    -1334.603    279743.05   -75632.991    7497.2306   -83130.222    275.03041 
    5250    295.60067   -774.42642    279348.31   -75618.358    7511.6286   -83129.986    277.51754 
    5300    295.33779   -913.28388    279306.07   -75578.338    7504.9485   -83083.287     280.0582 
    5350     296.3452   -966.69867    279620.12   -75561.845     7530.548   -83092.393    282.47708 
    5400    295.07847   -1166.7284    280035.41   -75567.831    7498.3586    -83066.19    285.90019 
    5450    296.26421   -950.06275    280038.14   -75548.405    7528.4901   -83076.895    288.68691 
    5500    294.44291   -879.63958    279711.21   -75559.855    7482.2083   -83042.063    291.72838 
    5550    294.75298   -1016.9624    279388.07   -75600.216    7490.0874   -83090.303    294.50095 
    5600    294.84727   -1006.2571    279256.15   -75571.159    7492.4837   -83063.643    298.12602 
    5650    301.85725   -1012.3498    279215.15   -75571.385    7670.6169   -83242.002    300.38285 
    5700    298.64411   -730.36691    279388.58   -75520.947    7588.9665   -83109.913    303.27105 
    5750    298.93026   -928.85503    279919.36   -75544.048    7596.2381   -83140.286    306.55878 
    5800    293.40228   -1034.7412    280270.46   -75553.127    7455.7645   -83008.891    310.45902 
    5850    296.59274   -840.27556    280131.42   -75544.594    7536.8385   -83081.433    313.98221 
    5900    296.06458   -1099.4075    279730.04   -75514.019    7523.4171   -83037.436    317.09673 
    5950    301.09843   -1125.2794    279231.69   -75498.125    7651.3344   -83149.459    319.37967 
    6000    296.20427   -815.77757    279136.96   -75548.867    7526.9668   -83075.834    322.76593 
    6050    296.78502   -1255.4017    279566.83   -75596.505    7541.7246    -83138.23    326.74047 
    6100    292.40796   -1125.2912    279839.07   -75588.969    7430.4973   -83019.466    330.25326 
    6150    296.09345   -975.31021    279709.82   -75556.821    7524.1507   -83080.972    332.98494 
    6200    291.30786   -568.28854    279629.69   -75552.229    7402.5422   -82954.772    335.47023 
    6250    304.88003   -1049.2361    279885.95    -75510.85      7747.43    -83258.28    337.91969 
    6300    298.61417   -1290.6521    280028.29    -75503.11    7588.2059   -83091.316    340.81925 
    6350    296.42497   -1027.7765    279907.26   -75544.796    7532.5752   -83077.371    343.57499 
    6400    300.01781   -644.28961    279656.08   -75485.045    7623.8742   -83108.919    346.29905 
    6450    298.53965   -1041.3481    279467.86    -75488.22    7586.3122   -83074.533    348.57164 
    6500    296.07064    -816.8862    279533.55   -75486.009    7523.5712    -83009.58    351.33305 
    6550    298.16109    -1035.204    279935.72    -75488.66    7576.6924   -83065.352    354.14944 
    6600     294.8012   -1222.6608    280159.42   -75577.073    7491.3129   -83068.386    357.98121 
    6650     295.4727   -974.65023    279779.25   -75606.468    7508.3767   -83114.845     361.0726 
    6700     292.9712   -861.18642     279238.5   -75628.744    7444.8099   -83073.554    362.33134 
    6750    301.82004    -757.3113    279056.18   -75669.448    7669.6714    -83339.12    366.24311 
    6800    292.54322    -1056.187    279377.82   -75667.837    7433.9345   -83101.771    370.35418 
    6850    290.30706   -1263.2535    279784.52   -75671.255    7377.1104   -83048.366    374.81086 
    6900    292.56051   -1180.4101    279880.37   -75678.253    7434.3737   -83112.627    377.13157 
    6950    293.26138   -840.67464    279631.69   -75654.582    7452.1839   -83106.766    379.86959 
    7000    294.74688   -1127.0452    279687.76   -75642.214    7489.9324   -83132.146    382.89571 
    7050     291.7096    -1201.003    279682.15   -75626.226    7412.7509   -83038.977    385.60635 
    7100    294.57667   -552.62617    279472.21   -75581.104    7485.6073   -83066.711     388.2476 
    7150    293.32162    -897.2862    279564.76    -75586.72    7453.7147   -83040.435    391.16107 
    7200    294.64986   -947.46775    279677.81    -75562.27     7487.467   -83049.737    394.68035 
    7250    298.56962   -856.42826    279558.26   -75526.381    7587.0736   -83113.455    397.16696 
    7300     299.1543   -953.02697    279528.08   -75526.165    7601.9314   -83128.097    398.91752 
    7350    300.67598   -945.44527    279543.39   -75552.689    7640.5993   -83193.288     401.8997 
    7400    297.83609   -1045.7022    279609.99   -75552.194    7568.4336   -83120.627    404.95311 
    7450    298.31541   -954.35642     279656.5   -75526.714     7580.614   -83107.328    407.57466 
    7500    294.06166   -1073.7234    279852.02    -75551.05    7472.5201    -83023.57     411.2142 
    7550    292.50252   -1098.3165    280102.75   -75591.861    7432.9002   -83024.761    415.52067 
    7600    294.29921   -1142.5738    280099.22   -75595.969    7478.5566   -83074.525    417.76535 
    7650    297.63719    -1188.803    279625.09    -75582.81    7563.3793    -83146.19    421.46917 
    7700    296.08983   -989.28215    279332.32   -75576.364    7524.0588   -83100.423    424.80385 
    7750    295.19455   -1086.5675    279375.53   -75600.359    7501.3084   -83101.667    428.78826 
    7800    295.01474   -678.59324    279756.06   -75643.151    7496.7393    -83139.89    431.54148 
    7850    292.07397   -1286.1529    280233.86   -75613.539    7422.0101   -83035.549    434.91435 
    7900    299.22095   -1051.8679    279856.28   -75579.215     7603.625    -83182.84    437.82344 
    7950    293.65347   -750.74399    279526.87   -75599.014    7462.1473   -83061.162    440.40908 
    8000    296.15667   -1050.6011    279700.12   -75595.941    7525.7573   -83121.698    443.31133 
    8050    297.07733   -1171.2155    280020.59   -75606.684    7549.1525   -83155.837    445.56243 
    8100    294.01224   -1123.4424    279947.81   -75645.554    7471.2643   -83116.819    448.85194 
    8150    291.84741   -865.73768    279277.07    -75692.93    7416.2528   -83109.183    450.11408 
    8200    299.08125   -868.07441    278910.98   -75666.992     7600.075   -83267.067    452.85498 
    8250    296.21274    -978.8154    279228.33   -75668.915    7527.1821   -83196.097    456.78381 
    8300    294.91106   -965.44931    279693.35    -75643.27    7494.1046   -83137.375    461.22665 
    8350    292.79318   -1445.1607    280028.05   -75709.032    7440.2862   -83149.319    464.99077 
    8400    295.40062    -1274.922    280083.33   -75717.621    7506.5451   -83224.166     467.3778 
    8450    294.47423   -1132.6405    279592.15    -75722.96    7483.0042   -83205.964    469.54412 
    8500    295.24312   -934.25662    279052.71   -75678.722    7502.5426   -83181.264    471.86421 
    8550    293.26321   -555.01758    278881.33   -75633.193    7452.2305   -83085.424    474.34995 
    8600    291.05777   -1245.4035    279190.77   -75630.245     7396.187   -83026.432    476.17569 
    8650    295.16234   -900.70574    279545.39   -75578.879      7500.49   -83079.369    479.11671 
    8700    299.84888   -1189.6386    279893.84   -75545.259    7619.5815    -83164.84    482.62467 
    8750     296.1745   -1103.7095    280121.25   -75521.781    7526.2103   -83047.991    486.05502 
    8800    292.49835    -947.9966    280189.47   -75496.371    7432.7941   -82929.165    488.96994 
    8850     300.2396   -1089.9403    280176.79   -75481.993    7629.5102   -83111.504    491.46259 
    8900    300.21729      -1070.6    280325.89   -75488.088    7628.9434   -83117.032     493.8916 
    8950    293.19997   -1542.2018    280211.77   -75466.321    7450.6233   -82916.944    495.53672 
    9000    302.71746   -1042.7603     279333.5   -75502.253    7692.4762   -83194.729    497.94865 
    9050    299.80074   -849.96525    278942.63   -75485.672    7618.3582    -83104.03    499.92218 
    9100    298.57106   -1131.1795    279534.53   -75495.946    7587.1103   -83083.057    503.29511 
    9150    299.02324   -851.07869    280295.29   -75500.762    7598.6008   -83099.362    507.55196 
    9200    295.77529   -912.56185    280267.07   -75451.874     7516.066    -82967.94    510.41967 
    9250    295.50141   -1006.9561    279687.67   -75439.217    7509.1062   -82948.323    511.93537 
    9300    303.19035   -1077.0155    279252.71   -75516.432    7704.4931   -83220.925    513.86242 
    9350     295.6011   -808.98151    279201.27   -75519.081    7511.6396    -83030.72    515.62672 
    9400    294.50343    -970.7758    279688.29   -75559.628    7483.7462   -83043.374    519.83928 
    9450     290.1067   -1032.9554    280444.26   -75550.588     7372.019   -82922.607    522.31838 
    9500    294.55388   -1361.8629    280485.36    -75539.87    7485.0281   -83024.898    524.93181 
    9550    297.85724    -1083.056    279732.27     -75546.2    7568.9711   -83115.171    527.59562 
    9600    297.36124   -952.44219    278904.89    -75565.15    7556.3671   -83121.517    529.47786 
    9650    302.56358   -833.69776    278600.92   -75536.568    7688.5659   -83225.134    531.81504 
    9700    297.45116     -750.989    279215.31   -75538.943    7558.6522   -83097.595    535.93976 
    9750    296.06832   -1237.5684    280175.94   -75608.459    7523.5121   -83131.972    539.48202 
    9800    294.23397   -1242.2814    280408.42   -75578.326    7476.8987   -83055.225    542.00289 
    9850    295.98157   -1075.3536    279843.48   -75585.335    7521.3077   -83106.643    544.22578 
    9900    301.53069   -812.48832    279159.97   -75559.849    7662.3188   -83222.168    546.67459 
    9950     300.1773   -913.88635    278963.24   -75573.958    7627.9271   -83201.885     549.1468 
   10000    297.84109   -974.81971    279334.61   -75597.974    7568.5607   -83166.535    553.04938 
   10050    300.29397    -1019.526    279875.94   -75587.936    7630.8919   -83218.827    558.27493 
   10100    294.52613   -1202.6711    280271.44   -75568.197     7484.323    -83052.52     563.1704 
   10150     294.8388   -1102.1723    280230.27   -75566.337    7492.2684   -83058.605     566.8868 
   10200    297.21557    -879.8803    279687.05   -75609.635    7552.6655   -83162.301    568.92145 
   10250    297.42785   -976.19188    279157.16   -75559.638    7558.0597   -83117.698    571.11177 
   10300    298.17745   -867.74953    279157.48   -75528.259    7577.1082   -83105.367    573.80689 
   10350    296.79855   -1008.5688    279538.82    -75545.66    7542.0684   -83087.728    577.91813 
   10400    294.54511   -955.71895    280028.48   -75563.241    7484.8053   -83048.047    581.23236 
   10450    300.63826   -913.53447    280182.72   -75543.512    7639.6408   -83183.153    584.49138 
   10500    297.30549   -973.10679       280010   -75525.547    7554.9504   -83080.497    587.01504 
   10550    300.97447   -824.89686    279599.01   -75512.409    7648.1843   -83160.594    588.80154 
   10600    294.96731   -836.92352    279554.94   -75500.119     7495.534   -82995.653    591.74083 
   10650     297.3353   -1068.9851    279806.43   -75525.158    7555.7078   -83080.866    594.41169 
   10700    299.56867   -1057.4892    279772.26   -75577.237     7612.461   -83189.698    598.17151 
   10750    296.26785   -1024.6713    279639.21   -75565.431    7528.5825   -83094.014    601.37438 
   10800    293.21614   -1083.7694    279642.77    -75568.24    7451.0344   -83019.275    604.36031 
   10850    299.04109   -904.90455    279372.08   -75586.744    7599.0545   -83185.799     605.5542 
   10900    298.86486   -1030.1494    279495.04   -75586.905    7594.5763   -83181.481    608.70558 
   10950    294.40728   -854.63656     279691.2   -75620.518    7481.3029   -83101.821    612.06256 
   11000    297.10622    -1305.438    279663.29    -75650.74    7549.8866   -83200.627    613.97158 
   11050    291.55328   -750.68326    279272.35   -75644.447    7408.7786   -83053.226    615.81664 
   11100    295.97446   -847.91681    279225.41   -75677.544     7521.127   -83198.671     618.7742 
   11150     298.0036   -1239.6991     279380.2    -75674.72    7572.6904    -83247.41    622.03324 
   11200    290.10459   -981.01442    279470.71   -75683.649    7371.9654   -83055.614    625.63989 
   11250    298.04333   -875.86696    279623.66   -75682.327       7573.7   -83256.027    629.10318 
   11300    291.20073   -689.85246    279572.79   -75698.781      7399.82   -83098.601    631.76872 
   11350    294.67334   -908.98764    279440.85   -75708.331    7488.0637   -83196.395    633.81595 
   11400     293.4069   -962.95216    279233.39   -75722.944    7455.8816   -83178.826    636.68489 
   11450    293.32343   -849.34702    279204.87   -75679.533    7453.7607   -83133.293    640.14695 
   11500    299.86424   -1051.1297    279534.77   -75608.378    7619.9718    -83228.35     641.0845 
   11550    295.74292   -1213.7669     279828.3   -75598.183    7515.2432   -83113.426    644.81407 
   11600    295.08331   -920.41351    280008.44   -75633.534    7498.4816   -83132.016    649.78317 
   11650    293.18946   -992.39028    280099.14    -75719.65    7450.3563   -83170.006    652.20697 
   11700    292.37651   -1169.4398    279884.58   -75677.225    7429.6981   -83106.923    654.96498 
   11750    292.12942   -592.71468    279522.56    -75729.75    7423.4192   -83153.169    657.80525 
   11800    289.89364   -702.61301    279004.35   -75771.651    7366.6049   -83138.256    659.80935 
   11850    293.22263   -937.60096    278962.97   -75787.929    7451.1992   -83239.129    662.21003 
   11900    290.92671   -1083.4267    279424.03   -75768.386    7392.8566   -83161.243    666.24609 
   11950    291.64202   -1072.5254    279814.69   -75747.112    7411.0337   -83158.145    669.19282 
   12000    291.64825   -1243.2027    279799.57   -75762.574    7411.1919   -83173.766    672.74217 
   12050     289.8168   -986.43321    279141.29   -75799.492    7364.6522   -83164.145    674.61699 
   12100    296.35524   -872.79515    278720.18   -75776.006    7530.8032   -83306.809    677.91985 
   12150     294.1494   -876.12021    278939.54   -75727.481    7474.7497    -83202.23    680.48256 
   12200     295.7775   -976.94061    279392.78   -75685.655    7516.1219   -83201.777    683.64833 
   12250    293.49282   -994.84213    279641.35   -75719.277    7458.0651   -83177.342    687.16319 
   12300     296.6165   -1154.7478    279767.98   -75622.495    7537.4422   -83159.937    690.74643 
   12350    298.22658   -964.23585    279729.98   -75671.112    7578.3566   -83249.468    693.42741 
   12400    294.94856   -852.95552    279726.85   -75637.674    7495.0576   -83132.731    696.75929 
   12450    293.87739   -1059.4197    279721.08   -75612.928    7467.8375   -83080.766    699.55779 
   12500    295.07885   -841.84642    279388.74   -75641.229    7498.3683   -83139.598    702.44867 
   12550    295.35792   -860.74858    279273.77   -75631.011    7505.4599   -83136.471    704.79337 
   12600    295.43011   -1287.7347    279327.62   -75658.341    7507.2943   -83165.635    706.47205 
   12650    294.99981   -882.46699    279220.84   -75669.014    7496.3598   -83165.374    709.20206 
   12700     297.1799   -1033.4574    279718.05   -75683.158     7551.759   -83234.917    712.85297 
   12750    295.15707   -1129.1958    280210.15   -75663.299    7500.3561   -83163.655     717.5202 
   12800    291.45487    -1251.315     280268.3   -75683.239    7406.2779   -83089.517    720.40012 
   12850     291.2894   -1235.7869    279691.75   -75718.697    7402.0731    -83120.77    721.83694 
   12900    293.97334   -917.48202    278918.44   -75701.174    7470.2759    -83171.45    722.30296 
   12950    290.73348   -641.04005    278546.79   -75707.736    7387.9465   -83095.682    725.54512 
   13000    297.16327   -859.77618    278992.38   -75672.089    7551.3365   -83223.425    728.94751 
   13050    294.92446   -1319.4802    279801.62   -75636.742     7494.445   -83131.187    733.53626 
   13100    291.44838   -1368.6981     280210.2   -75583.001    7406.1129   -82989.114    737.78906 
   13150    299.74735   -1252.8976    279880.42   -75616.584    7617.0016   -83233.586    740.93463 
   13200    295.14496   -836.10864    279325.12   -75641.587    7500.0482   -83141.636    743.00153 
   13250    300.70433   -975.55233    279060.32    -75621.88    7641.3198     -83263.2    745.00532 
   13300    299.98196   -1076.7186    279455.91   -75625.008    7622.9634   -83247.971    748.25234 
   13350    296.13068   -1146.6247    279997.31   -75620.834    7525.0968   -83145.931    752.28756 
   13400    295.00029     -1056.42    280326.56   -75651.129     7496.372   -83147.501    756.14446 
   13450    296.45497   -1270.5067    280121.96   -75614.958    7533.3374   -83148.296    758.37765 
   13500    293.47019   -1080.0213    279499.16    -75603.85    7457.4901    -83061.34    758.50549 
   13550    297.06352   -797.43106    278893.81   -75602.935    7548.8017   -83151.737    759.68008 
   13600    295.23894   -848.60553    279178.69   -75623.056    7502.4365   -83125.492    763.31699 
   13650    293.40631    -1089.395    279861.88   -75630.495    7455.8666   -83086.362    768.22168 
   13700    294.86549   -1083.9151    280102.24   -75639.131    7492.9467   -83132.078    773.10824 
   13750    294.22479   -1172.5441    279954.28   -75630.781    7476.6656   -83107.446    776.11437 
   13800    292.42737   -906.88742       279579   -75614.093    7430.9904   -83045.083    778.36371 
   13850    292.21707   -955.55941    279452.16   -75610.675    7425.6465   -83036.321    780.98346 
   13900    293.92796   -1014.2135    279363.21    -75639.02    7469.1226   -83108.143    782.95468 
   13950    297.57003   -885.43902    279534.52   -75659.967    7561.6728    -83221.64     785.9044 
   14000    294.05651   -903.28918    279697.65   -75662.347    7472.3893   -83134.737     787.1117 
   14050    294.56051   -1079.2364    279998.47   -75665.644    7485.1967   -83150.841    788.37575 
   14100    295.35286   -1079.4459    280165.81   -75625.812    7505.3314   -83131.143    791.07288 
   14150    289.39283   -1074.9343     279995.4   -75639.854    7353.8786   -82993.733     793.6941 
   14200    289.30286   -1039.1185    279535.12   -75680.379    7351.5925   -83031.972    794.48827 
   14250    297.77995   -778.14915    279120.49   -75723.848    7567.0071   -83290.855    796.16038 
   14300    294.65768   -901.01725    279355.21   -75721.723    7487.6659   -83209.389    799.32497 
   14350    297.15818   -1175.2526     279655.1   -75743.024     7551.207   -83294.231    802.23971 
   14400    295.61483   -1087.1359    279645.91   -75733.134    7511.9884   -83245.122    805.25893 
   14450    292.54048   -1108.4277    279589.67   -75724.456    7433.8647    -83158.32     809.5761 
   14500    295.49118   -922.39507    279267.11   -75678.661    7508.8461   -83187.507    811.89782 
   14550    293.50815   -1066.4759    279145.26       -75709    7458.4546   -83167.455    814.59011 
   14600    292.47689   -909.13837    279252.81   -75728.389    7432.2489   -83160.637    818.85233 
   14650    288.51269   -1130.7545    279556.06   -75695.165     7331.513   -83026.678    820.82826 
   14700     296.6752   -1042.0004    279719.32   -75650.139    7538.9339   -83189.073    821.95665 
   14750    292.53978   -1121.0173     279877.5   -75652.753    7433.8471     -83086.6    823.11614 
   14800    295.18221   -1092.4699    279792.43    -75653.13    7500.9949   -83154.125    823.93375 
   14850    299.05643   -991.75516    279394.14   -75667.203    7599.4442   -83266.647    824.98171 
   14900    293.54156   -817.21943    279232.97   -75664.455    7459.3038   -83123.759    828.51357 
   14950    292.44527   -1069.0084    279482.97   -75724.352    7431.4455   -83155.798    831.30717 
   15000    291.49685   -926.71719    279693.31   -75720.986    7407.3447   -83128.331    834.07068 
   15050    292.51088   -889.65229    279765.63   -75760.863    7433.1127   -83193.975    836.48757 
   15100    288.00059   -1241.9908    279904.85   -75764.026    7318.4999   -83082.526      840.415 
   15150    293.55593   -1165.6119    279589.02   -75793.221    7459.6688    -83252.89    842.76341 
   15200     294.0455   -764.57432    278868.08   -75842.057    7472.1095   -83314.167     844.9365 
   15250    283.95326   -1047.1772    278769.88   -75819.738    7215.6516   -83035.389    847.17868 
   15300    290.06423   -814.57095    279302.74   -75813.757    7370.9397   -83184.697    852.01808 
   15350    291.77356   -1136.3858    280021.63   -75806.871    7414.3763   -83221.247     855.2324 
   15400    289.21035   -1104.8366    280360.65    -75817.81    7349.2415   -83167.052    858.86502 
   15450     291.1444    -1121.176    279972.26   -75925.993    7398.3885   -83324.382    861.60934 
   15500    290.65681     -947.126    279120.55   -75946.286    7385.9981   -83332.284    861.26195 
   15550    288.84033   -838.50726    278441.14    -75978.58    7339.8389   -83318.419    862.01746 
   15600    293.56905   -842.45452    278537.98   -75929.627    7460.0023   -83389.629    865.61856 
   15650    290.31033   -891.89791    279212.88   -75866.086    7377.1937    -83243.28    869.74907 
   15700    287.29064   -1160.4327    279825.54   -75807.601    7300.4591    -83108.06    874.50568 
   15750    294.33798   -1037.2221    279913.25   -75772.817    7479.5418   -83252.359    876.92905 
   15800     290.1677    -1528.059    279686.92   -75784.219    7373.5692   -83157.788    878.35182 
   15850    290.94935    -870.9914    278867.94   -75800.766    7393.4319   -83194.198    878.97268 
   15900    296.95881   -812.10721    278568.09   -75814.272    7546.1407   -83360.413    881.27437 
   15950    293.84149   -1019.4559    279066.89   -75828.039    7466.9254   -83294.965    885.54243 
   16000    291.27573   -1062.7276    279765.51   -75783.072    7401.7258   -83184.798    888.64287 
   16050    295.57143   -1324.9947    280314.24   -75793.569    7510.8856   -83304.455    892.21498 
   16100    292.75324   -1131.0089    280000.07   -75806.408    7439.2712   -83245.679    894.96879 
   16150    288.61716   -1211.6327    279495.36   -75793.605    7334.1677   -83127.773     897.4847 
   16200    297.51309   -853.37961    278885.79   -75723.014    7560.2258    -83283.24    898.99564 
   16250    295.10897   -842.62938    278859.38   -75722.456    7499.1336    -83221.59    901.54002 
   16300    295.76775   -753.09375    279262.76   -75695.847    7515.8743   -83211.721    904.24792 
   16350    290.95357    -1007.377    280048.68   -75638.528    7393.5391   -83032.067    909.49875 
   16400    290.07247   -1232.8858    280376.84   -75681.253    7371.1492   -83052.402    913.62623 
   16450    295.05671   -906.36543    279848.25   -75674.394    7497.8058     -83172.2     916.2001 
   16500     289.9405   -822.60657    279160.17   -75689.278    7367.7956   -83057.074    916.08122 
   16550    292.58759    -917.2102    278661.86   -75767.347     7435.062   -83202.409    917.17444 
   16600    294.60322   -762.91833    278747.21   -75752.528    7486.2819    -83238.81    919.70658 
   16650    296.67772   -756.03604    279193.06   -75791.944     7538.998   -83330.942    921.96719 
   16700    291.76495   -1106.4361    279747.98   -75754.343    7414.1574     -83168.5    926.97648 
   16750    288.82635   -1462.3924    280260.97   -75709.301    7339.4837   -83048.785    930.50481 
   16800     297.1542   -964.93521    279822.91   -75684.894    7551.1059       -83236    930.71743 
   16850    293.04166   -1008.7671    279392.35   -75673.537    7446.6005   -83120.138    932.10662 
   16900    292.52268   -826.68108     279238.9    -75697.69    7433.4126   -83131.103    934.82382 
   16950    296.10837   -712.62645    279249.75   -75696.114      7524.53   -83220.644    938.69751 
   17000    296.42934   -987.83824    279492.12   -75702.275    7532.6861   -83234.961    942.18278 
   17050    291.99031   -846.64131    279480.86   -75684.711    7419.8843   -83104.595    945.23186 
   17100    296.05931   -942.76916    279654.96   -75675.228    7523.2833   -83198.511    950.14053 
   17150    291.73504    -1326.878    279682.73    -75690.77    7413.3974   -83104.168    952.56537 
   17200     294.1551   -1231.8045    279500.19   -75715.291    7474.8945   -83190.185    954.71365 
   17250    294.45349   -941.76568     279455.2   -75733.164    7482.4771   -83215.641    956.42817 
   17300    294.86706   -898.26817    279591.99    -75743.15    7492.9866   -83236.137    959.94332 
   17350    287.76313    -1122.927    279919.07   -75760.094    7312.4656    -83072.56    962.35068 
   17400    292.86948   -901.70873    279896.64   -75778.367    7442.2251   -83220.592    965.73478 
   17450    285.69864   -912.93645    279831.01   -75762.114    7260.0041   -83022.118     967.5065 
   17500    288.21763   -1139.9189    279423.39   -75832.159    7324.0152   -83156.174    967.79926 
   17550    291.20551   -839.04649    279099.46   -75841.399    7399.9413    -83241.34    969.97775 
   17600    289.48096   -835.03661    279205.61    -75844.75    7356.1181   -83200.868    971.84217 
   17650    296.00111   -1200.2523    279382.89   -75816.919    7521.8043   -83338.723     974.9155 
   17700    289.49699    -1061.418    279525.93    -75843.92    7356.5255   -83200.445    979.13452 
   17750    289.76061   -1241.7294    279561.19   -75852.518    7363.2245   -83215.743    982.68189 
   17800    290.05101   -903.68824    279455.51   -75868.658    7370.6038   -83239.262    984.34815 
   17850    285.80874   -965.59029    279307.35   -75904.794    7262.8017   -83167.596    986.23974 
   17900     292.1138   -1164.2398    279090.63   -75859.562    7423.0222   -83282.584    987.57743 
   17950    283.65284   -974.22642     278897.2   -75886.692    7208.0173   -83094.709    989.52974 
   18000     288.7534   -1052.2857    279054.48   -75884.242    7337.6297   -83221.872    991.95418 
   18050    295.59068   -984.27563    279437.09   -75922.164    7511.3746   -83433.539    996.06608 
   18100    290.16435   -1307.3027    279903.56    -75919.53    7373.4839   -83293.014    999.27711 
   18150    288.83856   -1051.8752    279556.48   -75933.035    7339.7938   -83272.828    1000.9118 
   18200    288.72506   -931.25444    279012.71   -75928.519    7336.9095   -83265.429     1000.958 
   18250    287.63908   -771.65093    278628.58   -75972.332    7309.3134   -83281.646    1001.2772 
   18300    287.59172   -782.39779    278666.15    -75944.74    7308.1099    -83252.85    1005.1136 
   18350    285.22928   -748.04956       279175   -75910.199     7248.077   -83158.276    1009.3059 
   18400    284.62222   -1189.8806    279779.19   -75930.301    7232.6508   -83162.952     1012.803 
   18450    284.71338   -1113.6365    279918.04   -75907.942    7234.9671   -83142.909    1016.5053 
   18500    289.71388   -1217.8502    279415.38   -75873.039    7362.0369   -83235.075    1017.4004 
   18550    294.20769   -858.75868    278901.81   -75855.473    7476.2309   -83331.704    1018.6811 
   18600    294.31755    -795.9926    279028.34   -75852.796    7479.0226   -83331.818    1019.9403 
   18650    290.30126   -1107.8311     279463.8   -75814.793    7376.9631   -83191.757    1024.6853 
   18700    293.85694   -1221.3914    279692.35   -75750.414    7467.3178   -83217.732    1027.4071 
   18750    293.46214   -1092.3793    279662.77   -75739.444    7457.2854   -83196.729    1028.7371 
   18800    294.32783   -806.65424    279363.62   -75676.466     7479.284    -83155.75    1030.3622 
   18850    293.78345   -850.13831    279516.72   -75681.548    7465.4504   -83146.998    1031.5676 
   18900    296.09677   -1070.7581     279882.6   -75725.082    7524.2351   -83249.317     1034.807 
   18950     292.0657   -1086.0981    279598.45    -75772.99       7421.8   -83194.789    1036.0903 
   19000    290.52722    -841.9891    279062.69   -75753.891    7382.7052   -83136.596    1038.2854 
   19050    296.30747   -507.04302    278902.31   -75798.889    7529.5894   -83328.478    1040.2148 
   19100    292.57351   -1076.8208    279337.99   -75771.975    7434.7041   -83206.679    1043.0828 
   19150    290.69618   -882.23908    279755.75   -75741.409    7386.9986   -83128.407    1045.4118 
   19200     293.7933   -1207.4789    279917.64   -75723.075    7465.7007   -83188.776    1047.8569 
   19250    289.63856   -993.83483    279577.29    -75713.71    7360.1228   -83073.833    1049.4691 
   19300    292.66109   -476.20779     278964.8   -75724.263    7436.9297   -83161.193    1050.4137 
   19350    290.84147    -639.2665    278912.73     -75710.8    7390.6905   -83101.491    1052.2339 
   19400    289.14331    -717.7801     279583.2   -75684.663    7347.5379   -83032.201    1056.5209 
   19450    294.56736   -1217.9094    280208.59    -75646.33    7485.3708   -83131.701    1060.9574 
   19500    294.27517   -955.10165    280028.92   -75634.687    7477.9456   -83112.633    1062.4437 
   19550    291.97693   -974.64647    279278.59   -75689.539    7419.5442   -83109.083    1061.3077 
   19600    294.53792   -818.67141    278734.76   -75715.811    7484.6225   -83200.434    1062.0581 
   19650    296.04906   -878.28617    278926.91   -75712.463    7523.0228   -83235.486    1065.9994 
   19700    297.18819   -1192.2826    279483.43   -75710.664    7551.9697   -83262.634    1070.7663 
   19750    298.72922   -1185.3306    279844.78   -75690.957    7591.1294   -83282.087    1073.3802 
   19800    298.01935   -1067.1723    279773.28   -75689.448    7573.0907   -83262.538    1075.6879 
   19850    298.08877   -921.85612    279581.29   -75709.327    7574.8546   -83284.181     1077.712 
   19900    291.73348   -786.42118     279522.8   -75691.848    7413.3579   -83105.206    1080.5418 
   19950    294.86703   -1094.2868    279426.27   -75697.248    7492.9856   -83190.234    1081.2044 
   20000    297.77019   -769.10605     279239.3   -75721.785    7566.7592   -83288.544    1083.7753 
   20050    296.74306   -972.70952       279405   -75739.006    7540.6583   -83279.664    1086.6838 
   20100    289.35122   -908.69151    279538.49   -75754.929    7352.8212   -83107.751    1091.2212 
   20150    297.08081    -1139.545    279496.31   -75814.559     7549.241     -83363.8    1093.2021 
   20200    289.27699   -642.60318    279209.37   -75795.961    7350.9349   -83146.896    1093.7559 
   20250    292.49268   -1000.1951    279242.24   -75786.563    7432.6502   -83219.213    1097.2074 
   20300    288.97768   -1015.1475    279391.78   -75781.876     7343.329   -83125.205    1100.1134 
   20350    293.86057   -948.50962    279761.74   -75742.314    7467.4103   -83209.724     1103.896 
   20400    296.09848   -1211.0267    280052.35   -75734.785    7524.2786   -83259.064    1107.7886 
   20450    286.38926   -1165.3017    279779.63   -75748.405    7277.5535   -83025.959    1111.0478 
   20500    291.77034   -1009.9999    279018.64   -75784.967    7414.2945   -83199.262     1111.133 
   20550    296.53751   -746.84491    278668.76   -75763.039    7535.4351   -83298.474    1113.3089 
   20600    296.01516    -1082.056    279205.52   -75753.205    7522.1613   -83275.367    1119.2577 
   20650    290.90882   -1219.8025    279866.69   -75760.306    7392.4022   -83152.708    1123.1164 
   20700    294.09513   -965.46297    279803.38   -75780.072    7473.3705   -83253.443    1123.6939 
   20750     292.0981   -1065.7479    279438.11   -75741.174    7422.6232   -83163.797    1125.7159 
   20800    298.71816    -902.9634    279080.05    -75779.69    7590.8483   -83370.538    1127.4413 
   20850    290.49405   -897.17277    279142.95   -75745.759    7381.8621   -83127.621    1128.2227 
   20900    292.98673    -1094.351     279413.2   -75742.833    7445.2046   -83188.038    1131.8239 
   20950     288.6606   -876.81146     279471.1   -75780.983    7335.2716   -83116.255    1134.6163 
   21000    293.14864    -1048.165    279581.25   -75755.681    7449.3189       -83205    1138.6872 
   21050    289.24797   -1040.4114    279627.01   -75765.496    7350.1975   -83115.693    1140.5127 
   21100    292.40935   -1158.7567     279557.2   -75764.791    7430.5325   -83195.323     1143.267 
   21150     292.2531   -1168.5727    279454.18   -75763.125    7426.5621   -83189.687    1144.6047 
   21200    294.30616   -821.51749     279158.5   -75746.988    7478.7333   -83225.722    1146.0807 
   21250    294.05895   -1005.5811    279109.23   -75761.406    7472.4513   -83233.858    1149.0041 
   21300    290.37662   -602.77241    279190.93   -75744.614    7378.8782   -83123.492    1152.3092 
   21350    289.73133   -1105.2742    279707.84   -75738.449    7362.4803   -83100.929    1155.7711 
   21400    289.80606   -1126.2298    279905.97    -75714.34    7364.3793   -83078.719    1158.5504 
   21450    296.29677   -1286.6027    279909.98   -75671.766    7529.3174   -83201.083    1161.6414 
   21500    295.90904   -870.14711    279708.54   -75675.353    7519.4646   -83194.818    1164.3472 
   21550    291.66199   -983.13392    279629.62   -75655.995    7411.5411   -83067.536    1166.7475 
   21600    293.88534   -1217.1236    279725.81   -75634.514    7468.0396   -83102.554    1168.7491 
   21650    297.00484   -896.25999    279722.98   -75604.483    7547.3105   -83151.793    1170.9083 
   21700    298.94578   -990.71129     279540.3   -75576.337    7596.6326   -83172.969    1172.8577 
   21750    298.73691   -1001.1516    279301.76    -75613.57    7591.3249   -83204.895    1174.6901 
   21800    299.98306   -770.89856    279196.61   -75593.669    7622.9911    -83216.66    1176.3743 
   21850    299.80493   -725.38123    279461.26   -75567.958    7618.4646   -83186.422    1180.5514 
   21900    298.15378   -1320.3232    280051.86   -75579.577    7576.5066   -83156.083    1186.4573 
   21950    294.09008   -1329.2179    280203.25   -75577.478    7473.2422    -83050.72    1189.5158 
   22000     296.3775   -975.33557    279356.21   -75592.584    7531.3688   -83123.952    1190.7738 
   22050     298.3167   -539.28429    278533.11   -75579.934    7580.6467   -83160.581    1189.6997 
   22100    297.54295   -881.73556     278938.1   -75563.403    7560.9846   -83124.388    1193.3098 
   22150    290.71693   -886.06654    279995.09   -75564.294    7387.5258    -82951.82    1201.3523 
   22200    297.40979    -1374.118    280789.72   -75496.679     7557.601    -83054.28    1207.5197 
   22250    297.48403   -1188.7533    280501.13   -75500.816    7559.4875   -83060.304    1209.8457 
   22300    297.88226   -1223.0412    279421.03   -75455.594     7569.607   -83025.201     1208.895 
   22350    304.06681   -497.62518     278586.5    -75480.92    7726.7651   -83207.685    1208.9783 
   22400     300.0214   -897.58627    278834.07   -75513.178    7623.9654   -83137.143    1211.9816 
   22450    299.11811   -1012.2179    279714.48   -75508.879    7601.0117   -83109.891      1217.39 
   22500     296.4504   -1185.3962    280655.03   -75463.894    7533.2214   -82997.115    1222.7066 
   22550    292.89414   -1179.5335    280730.63   -75467.468    7442.8519    -82910.32     1225.534 
   22600    292.40258   -820.68847    279957.75   -75535.068    7430.3606   -82965.428    1224.9467 
   22650    299.28268   -490.68129    279120.61   -75514.301    7605.1935   -83119.494    1223.6115 
   22700     302.4401   -812.25701    279120.43   -75541.127     7685.428   -83226.555    1226.4928 
   22750    297.58835   -868.25006    279571.42    -75528.24    7562.1382   -83090.378    1229.8136 
   22800    299.42651   -1205.4036    280057.62   -75533.847    7608.8484   -83142.696    1233.3471 
   22850    295.00077   -1346.5575    279997.39   -75544.861    7496.3843   -83041.246    1234.8575 
   22900     296.3102   -800.54273    279720.97   -75579.154    7529.6587   -83108.813    1236.6927 
   22950    297.30037   -1047.8255    279536.28   -75594.655    7554.8203   -83149.475     1238.745 
   23000     301.3499    -1010.288    279330.06   -75630.319    7657.7245   -83288.043    1242.0159 
   23050    291.86107   -700.08282    279381.26   -75573.128    7416.6001   -82989.728    1244.0569 
   23100    298.06892   -698.20034    279654.73   -75551.569    7574.3504    -83125.92    1245.8187 
   23150    295.52665   -898.12757    280371.41   -75545.202    7509.7476   -83054.949    1249.3013 
   23200    291.71533   -1287.2691    280820.35   -75541.988    7412.8967   -82954.885    1253.4667 
   23250     297.4107   -987.79663     280096.8   -75569.638     7557.624   -83127.262     1253.779 
   23300    298.03785   -920.87342    279375.18   -75589.399    7573.5608    -83162.96    1254.8805 
   23350    298.72846   -632.30695    279213.71   -75606.329    7591.1101   -83197.439    1256.4462 
   23400    295.55749   -1289.0553    279570.82   -75616.572    7510.5313   -83127.103    1260.1683 
   23450     294.2311   -1015.0641    279795.67   -75626.501    7476.8258   -83103.327    1262.6699 
   23500    291.19922    -1000.995    279835.56   -75671.477    7399.7814   -83071.258    1264.7418 
   23550    294.48434   -1130.3383    279550.86    -75666.54    7483.2609   -83149.801    1265.4662 
   23600    295.51906   -1232.4251    279356.53   -75637.264    7509.5548   -83146.819     1266.237 
   23650    297.96353   -894.01083    279259.47   -75609.268    7571.6721    -83180.94      1268.22 
   23700    297.11734   -982.38907    279642.95   -75555.489    7550.1693   -83105.658    1271.5837 
   23750    295.17046   -1190.6814    279906.57   -75557.538    7500.6962   -83058.234    1274.9265 
   23800    292.34853   -833.28344    279909.04   -75515.664    7428.9871   -82944.652    1278.0568 
   23850    296.32931   -801.63386    279841.07    -75535.36    7530.1444   -83065.504    1279.6736 
   23900    296.80191   -891.08898    279492.37   -75549.989    7542.1537   -83092.143    1280.3191 
   23950    289.27369   -848.81925     279344.5     -75599.3    7350.8512   -82950.152    1282.5974 
   24000    298.33737   -856.41626    279368.85   -75623.906    7581.1719   -83205.078    1284.4032 
   24050    295.48069   -974.21864    279579.69    -75588.04    7508.5797    -83096.62    1290.0528 
   24100    298.68145    -802.8853    279464.49   -75551.243    7589.9155   -83141.158    1293.8644 
   24150    296.46356   -1063.4902    279456.26   -75571.091    7533.5559   -83104.646    1294.3295 
   24200    296.50733   -1197.4237    279709.61   -75584.137    7534.6681   -83118.806    1299.1747 
   24250     300.2875   -909.11564    279707.74   -75623.095    7630.7276   -83253.823    1302.8417 
   24300    302.47971   -1137.6204     279693.2   -75603.515    7686.4345    -83289.95    1304.3967 
   24350    300.48354   -1243.4231    279425.45   -75631.424    7635.7092   -83267.133    1305.0818 
   24400    294.33109   -775.75697    279181.25   -75598.013    7479.3668    -83077.38    1307.5118 
   24450     293.0336   -1009.8209    279339.72   -75658.741    7446.3956   -83105.137    1311.0979 
   24500     293.7384   -845.03094    279592.22   -75668.707    7464.3057   -83133.013    1314.0236 
   24550    290.88639    -971.0988     279963.1   -75634.438    7391.8321    -83026.27    1317.2016 
   24600    295.74227   -1132.5351    280149.92   -75613.865    7515.2269   -83129.092    1320.7175 
   24650    293.69903   -909.29878    279932.36   -75605.862    7463.3053   -83069.167    1321.3779 
   24700    298.38856   -799.32087     279499.5    -75562.24    7582.4726   -83144.712    1321.2865 
   24750    295.55714   -862.61932    279429.84   -75545.714    7510.5224   -83056.236    1322.1862 
   24800    296.23095   -1285.1755    279783.96   -75476.774    7527.6449   -83004.418    1325.7337 
   24850    297.94965   -680.06599    279925.93   -75453.112    7571.3194   -83024.432    1330.3922 
   24900    301.18709   -1134.7877    280307.33   -75427.193    7653.5874   -83080.781    1336.1897 
   24950    295.77382   -1183.6341    280299.87   -75465.197    7516.0284   -82981.226    1339.2854 
   25000    296.54359    -1049.267    279690.61    -75510.72    7535.5895   -83046.309    1337.4962 
   25050    300.22989   -1113.8262    279354.64   -75548.972    7629.2636   -83178.235    1336.8628 
   25100    297.97698   -699.87244    279245.72   -75507.893    7572.0139   -83079.907    1337.4314 
   25150    300.00769   -1072.6144    279582.23   -75542.043    7623.6171    -83165.66    1342.1213 
   25200    302.33243   -909.47874    280079.39   -75563.871    7682.6919   -83246.563    1347.2545 
   25250    292.93827   -1172.9843    280284.27   -75608.075    7443.9732   -83052.048    1349.4119 
   25300    294.48631   -1289.9449    279703.86   -75661.794    7483.3112   -83145.105    1350.6075 
   25350    295.62189   -601.97042    279091.59   -75717.294    7512.1677   -83229.462    1352.8803 
   25400    289.77745   -663.41683    279075.72   -75736.898    7363.6524   -83100.551    1357.5497 
   25450    295.39972   -1043.9644    279535.55   -75676.511    7506.5222   -83183.033    1360.2807 
   25500    291.54039     -1149.07    279824.82   -75665.289    7408.4511    -83073.74    1362.7869 
   25550    293.05648   -1106.2475    279784.34   -75700.485     7446.977   -83147.462    1366.9103 
   25600    287.70953   -1170.3008    279671.07   -75715.254    7311.1036   -83026.358    1368.7303 
   25650    294.53193   -840.52876    279243.13   -75729.142    7484.4703   -83213.612    1369.6477 
   25700    298.72081   -686.46243    279008.07   -75714.573    7590.9157   -83305.489    1371.8118 
   25750    295.70818   -1072.1179    279324.96   -75704.959    7514.3604    -83219.32    1377.6814 
   25800    293.37882   -981.05793    279437.54   -75710.882    7455.1681    -83166.05    1382.2863 
   25850    291.07717   -875.67283    279735.28   -75689.368      7396.68   -83086.048    1386.4553 
   25900    292.84479   -948.53817    279932.78   -75637.697    7441.5979   -83079.295    1389.7505 
   25950    295.69401   -998.19801    279742.61   -75669.616    7514.0006   -83183.616    1390.5102 
   26000    294.67888   -1074.8496    279395.38   -75660.235    7488.2045    -83148.44    1392.0691 
   26050    296.17278   -1032.4173    279113.32   -75743.659    7526.1666   -83269.826    1395.9025 
   26100    296.58356   -1010.9794    279176.51   -75771.319    7536.6052   -83307.924    1400.9915 
   26150    291.43648   -1119.7801    279387.24   -75766.256    7405.8107   -83172.066    1403.2297 
   26200    291.71598   -1091.2171     279522.4   -75757.638    7412.9131   -83170.551    1405.5055 
   26250     292.7412   -986.20315    279514.59    -75746.78    7438.9654   -83185.746    1406.5201 
   26300    293.47791   -844.11872    279220.64   -75778.325    7457.6861   -83236.011     1408.152 
   26350    286.44582   -699.54837    278986.71       -75795     7278.991   -83073.991    1410.8076 
   26400      293.196   -624.41287    278999.34   -75795.646    7450.5225   -83246.168    1415.4192 
   26450     288.7713   -922.60977    279609.24   -75740.747    7338.0846   -83078.831    1419.8101 
   26500    291.87645   -1384.2002    279796.51   -75742.935    7416.9908   -83159.926    1422.7378 
   26550    291.72189   -1151.8888    279214.73   -75739.434    7413.0632   -83152.497    1421.1695 
   26600    296.61389   -857.33146    278822.48   -75757.051    7537.3758   -83294.427    1421.9171 
   26650    294.56015   -738.77028    279178.57   -75739.271    7485.1874   -83224.459    1425.7812 
   26700     293.8087   -1247.4081    279868.42   -75696.941    7466.0921   -83163.033    1429.9602 
   26750    289.51423   -1008.0353    280002.62   -75697.945    7356.9634   -83054.908    1433.0145 
   26800    292.63825   -856.84766     279760.7   -75747.933    7436.3493   -83184.283    1434.7617 
   26850    296.15674   -934.21445    279419.55   -75744.536     7525.759   -83270.295    1435.6657 
   26900    298.25584   -583.80757    279346.15   -75703.738    7579.1001   -83282.838    1438.4431 
   26950    294.06037    -1061.838     279723.8    -75733.93    7472.4873   -83206.417    1442.1319 
   27000    292.37312   -1076.8563    279801.77   -75735.897     7429.612   -83165.509    1445.0946 
   27050    292.13438   -1069.5476    279621.39   -75753.979    7423.5453   -83177.525    1446.3727 
   27100    288.15028   -1188.5094    279440.32   -75713.269    7322.3035   -83035.573    1449.7227 
   27150    291.17889   -1144.1649    279218.35   -75748.646    7399.2648   -83147.911    1450.9087 
   27200    297.72869   -844.03959    278978.24   -75737.509    7565.7045   -83303.213    1452.4313 
   27250    294.45211   -765.95172    279292.42   -75721.271    7482.4419   -83203.713    1453.8537 
   27300    291.97306   -911.66614    280053.89   -75703.567    7419.4459   -83123.013    1459.7163 
   27350    291.63756   -1185.9247    280442.14   -75671.628    7410.9202   -83082.548     1464.229 
   27400    291.86352   -1152.4366    279933.18   -75631.454    7416.6623   -83048.117    1464.9282 
   27450     293.4915   -752.85079    279235.47   -75669.813    7458.0316   -83127.844    1464.9294 
   27500    296.82631   -1043.3041    278997.88    -75661.27    7542.7739   -83204.044    1467.2686 
   27550    295.17545   -1069.9688    279125.21    -75660.76    7500.8232   -83161.583    1471.1152 
   27600    291.68197   -969.38834    279294.34   -75658.112     7412.049   -83070.161    1474.3338 
   27650    295.64026   -1122.5862     279614.9   -75679.166    7512.6346     -83191.8    1479.9331 
   27700    298.83289   -1344.5362    279784.07   -75693.932    7593.7637   -83287.695    1483.3034 
   27750    293.88696   -1020.5653    279602.47   -75657.685    7468.0808   -83125.766     1486.177 
   27800    292.39061   -814.78716    279371.57   -75667.822    7430.0564   -83097.878    1485.6119 
   27850    296.22919   -1007.5069     279531.2   -75631.223    7527.6002   -83158.823    1488.1827 
   27900    295.63576   -990.24051    279690.48    -75645.81    7512.5202    -83158.33    1490.3672 
   27950    294.74252   -950.23161    279616.59   -75656.693    7489.8218   -83146.515    1494.3987 
   28000    293.38404   -1185.5475    279507.35   -75664.917     7455.301   -83120.218    1494.3263 
   28050     298.7787   -818.38677    279220.35   -75661.574    7592.3866   -83253.961    1496.5443 
   28100    294.76981   -1182.6684    279085.47   -75680.263    7490.5151   -83170.778    1498.8453 
   28150     296.7659   -846.26238    279108.17   -75668.754    7541.2388   -83209.993    1500.8948 
   28200    290.20528     -980.009    279533.47   -75666.384    7374.5242   -83040.908     1504.632 
   28250    297.05726   -846.59997    279875.01   -75729.304    7548.6427   -83277.946    1510.6667 
   28300    289.26126   -1239.0691     279925.9   -75714.982    7350.5353   -83065.517    1514.6481 
   28350    296.71503   -975.28232    279396.54   -75727.342    7539.9459   -83267.288    1515.8905 
   28400    295.82645   -966.76801    279107.78   -75684.587    7517.3659   -83201.953    1517.0854 
   28450    295.96723   -632.67173    279215.24   -75681.831    7520.9432   -83202.774    1520.2771 
   28500    296.70718   -904.41798    279398.51   -75689.975    7539.7465   -83229.721     1524.623 
   28550    297.10865    -987.1648    279558.35   -75708.409    7549.9485   -83258.357    1529.6393 
   28600    294.86587   -1173.7474    279783.63   -75690.255    7492.9561   -83183.211    1533.3431 
   28650    293.20077   -1052.0501    279716.22   -75706.139    7450.6438   -83156.783    1533.8639 
   28700    292.50705   -969.66882    279472.84   -75715.194    7433.0153    -83148.21    1536.8392 
   28750    289.21692   -797.55982     279295.9   -75720.634    7349.4085   -83070.043    1537.6105 
   28800    292.12836   -1096.9567    279352.91   -75739.731    7423.3924   -83163.123    1540.1183 
   28850    293.69577    -903.3362     279487.9   -75713.876    7463.2223   -83177.098    1544.2077 
   28900    288.49833   -1203.7097    279625.15    -75757.45     7331.148   -83088.598    1548.2365 
   28950    293.81267   -866.66443    279499.97   -75779.553     7466.193   -83245.746    1547.5587 
   29000    294.44909   -1087.0338    279227.64   -75808.948    7482.3653   -83291.313    1549.2638 
   29050    290.69183   -753.37936    278913.82   -75800.933    7386.8881   -83187.821    1549.3044 
   29100    293.26435   -756.41114    278887.57   -75827.024    7452.2594   -83279.284    1550.1139 
   29150    291.09899   -1054.8674    279579.07   -75816.909    7397.2345   -83214.144    1555.3528 
   29200    292.52747   -1233.8291    280186.14   -75812.114    7433.5341   -83245.648    1558.8568 
   29250    289.43966   -1302.9905    280014.41   -75819.048    7355.0687   -83174.116      1559.13 
   29300    292.01107   -685.37231    279313.45   -75851.446    7420.4118   -83271.858    1558.1931 
   29350    297.19529   -772.21049     278966.5   -75855.528      7552.15   -83407.678    1558.8331 
   29400    294.72745   -1096.6518    279019.27   -75834.503    7489.4388   -83323.942    1559.6481 
   29450    295.25791   -1145.9717    279470.81   -75798.667    7502.9184   -83301.585    1562.8289 
   29500    292.82299   -1071.9305    279987.35   -75771.737    7441.0438   -83212.781    1567.0298 
   29550    291.82798   -1354.7648    280245.34   -75703.357    7415.7592   -83119.116    1571.0146 
   29600    296.97381   -805.51701    279726.09    -75713.18    7546.5219   -83259.702    1570.8585 
   29650    294.22557   -851.24231    279224.34   -75699.102    7476.6852   -83175.788    1570.9654 
   29700    293.31127   -1122.6741    279410.06    -75698.38    7453.4516   -83151.831    1574.6717 
   29750    294.72685   -983.65219    279648.18   -75650.181    7489.4236   -83139.604    1576.3278 
   29800    292.47811   -862.78779    279853.72   -75620.065      7432.28   -83052.345     1580.267 
   29850     297.1046   -1104.2096    279941.34   -75578.884    7549.8454    -83128.73     1582.785 
   29900    294.97792   -1201.7641    279804.03   -75591.242    7495.8035   -83087.045    1584.0137 
   29950    298.92931   -989.64955     279605.3   -75601.768    7596.2141   -83197.982    1587.1186 
   30000    296.85534   -680.08062     279591.2   -75578.953    7543.5114   -83122.465    1587.5137 
   30050    291.40017   -801.15742    279786.44   -75568.947    7404.8879   -82973.835    1588.9182 
   30100    300.70013   -980.70978    280063.03   -75575.778     7641.213   -83216.991    1592.0075 
   30150    296.36476   -1385.1131    280018.53   -75557.629    7531.0451   -83088.674    1595.1054 
   30200    295.49142   -980.39509     279449.6   -75597.271    7508.8524   -83106.123    1594.7694 
   30250    297.49991   -858.25148    278996.44   -75628.626    7559.8908   -83188.517    1595.1783 
   30300    298.19135   -928.53045     279385.9   -75678.708    7577.4613   -83256.169    1599.1616 
   30350    293.42462   -1004.4435     279974.4   -75691.495     7456.332   -83147.827    1604.5135 
   30400    291.92779   -1278.5521    280215.79   -75714.326    7418.2954   -83132.622    1607.6664 
   30450    291.34236   -803.36769    279920.44   -75744.302     7403.419   -83147.721    1608.0747 
   30500    289.84243   -907.77296    279470.25   -75742.909    7365.3035   -83108.213    1607.1662 
   30550    296.64924    -875.8939     278940.1   -75684.939    7538.2742   -83223.213     1606.336 
   30600    299.67758   -971.48525    278778.34   -75668.035    7615.2285   -83283.264    1607.5285 
   30650    294.65752   -1183.1168    279236.83   -75624.163    7487.6618   -83111.825    1612.3013 
   30700     293.9705   -1075.0161    279737.19   -75619.287    7470.2037    -83089.49     1618.751 
   30750    295.55748    -1220.838    280062.14   -75596.741    7510.5311   -83107.272     1621.967 
   30800    293.09107    -1285.366    280138.09   -75603.796     7447.856   -83051.652    1625.1601 
   30850    295.69768   -1039.1405    279765.55   -75565.689    7514.0936   -83079.783    1626.1125 
   30900    294.46874   -923.45869    279378.88     -75560.2    7482.8647   -83043.065    1626.8598 
   30950    296.49397   -720.03545    279403.95   -75595.694    7534.3286   -83130.022    1629.7947 
   31000    295.31483   -1254.0674    279834.52   -75593.538     7504.365   -83097.903    1633.2877 
   31050    297.62206   -946.77728    279882.95   -75620.411    7562.9949   -83183.406    1637.4309 
   31100    297.21647    -821.0658    279881.75   -75592.405    7552.6882   -83145.094     1640.933 
   31150    295.08037   -1055.9806    279866.36   -75561.416     7498.407   -83059.823    1642.0374 
   31200    293.88963   -1251.1826    279626.95    -75599.28    7468.1486   -83067.428    1644.6817 
   31250    289.78546   -871.78581    279375.53   -75615.762    7363.8559   -82979.618    1646.9124 
   31300    295.04075    -1033.454    279490.35   -75603.589    7497.4003    -83100.99    1649.9831 
   31350     296.6367   -1224.1466    279734.59   -75615.059    7537.9554   -83153.014    1655.5907 
   31400    290.99351   -1259.4765    279723.59   -75617.773    7394.5541   -83012.328    1657.4675 
   31450    293.94753   -835.56242    279434.38   -75631.321    7469.6198   -83100.941    1660.0198 
   31500    292.33244   -885.24969    279332.17   -75673.828    7428.5782   -83102.406    1662.8022 
   31550    288.25358   -922.35182    279557.18   -75733.986    7324.9288   -83058.915    1667.4413 
   31600    286.18645   -980.73599    279724.19   -75676.397       7272.4   -82948.797    1670.6216 
   31650    296.16276   -1149.6954    279647.09   -75651.068    7525.9119    -83176.98    1675.2185 
   31700    292.66416   -1011.4324    279533.55   -75616.526    7437.0076   -83053.533    1676.5491 
   31750    303.70528   -868.37117    279332.17   -75601.869    7717.5781   -83319.447    1677.3338 
   31800    295.45602   -882.64285     279635.3   -75649.586    7507.9527   -83157.539    1683.1549 
   31850    294.85134   -953.82809    279905.68   -75625.596    7492.5871   -83118.183    1687.1949 
   31900    296.16122   -1090.2992    279957.68   -75606.399    7525.8729   -83132.272    1689.4166 
   31950    295.89571   -1245.7148    279732.89   -75593.912     7519.126   -83113.038    1689.9679 
   32000    298.59828   -961.18803    279110.47   -75590.785    7587.8021   -83178.587    1690.0425 
   32050    298.66308   -1185.6502    279104.55   -75615.182    7589.4487    -83204.63    1692.6711 
   32100      296.596   -1062.7724    279710.27    -75631.04    7536.9213   -83167.961    1697.9675 
   32150    288.52226   -1174.4233    280305.93   -75649.645    7331.7562   -82981.401    1700.8844 
   32200    296.91575   -1147.4511    280186.06   -75653.511    7545.0465   -83198.557    1700.9822 
   32250    296.33482   -914.12611    279603.03   -75596.688    7530.2842   -83126.973    1699.6126 
   32300    294.40235   -806.39253    279158.21   -75602.036    7481.1775   -83083.213    1700.3956 
   32350    298.11104   -826.10239    279445.66   -75648.063    7575.4206   -83223.484    1702.8774 
   32400    291.83265   -1115.3862    280074.15   -75672.622    7415.8779     -83088.5    1708.1362 
   32450    295.83188   -1171.0171    280204.48   -75625.362     7517.504   -83142.866    1713.9033 
   32500    296.34361   -1047.7219     279624.3   -75613.173    7530.5078   -83143.681    1716.9974 
   32550    293.68637   -1130.0391    279142.91   -75608.586    7462.9835    -83071.57    1717.3803 
   32600    296.68686   -807.63352    278994.74   -75633.983    7539.2301   -83173.213    1719.8296 
   32650    296.27498   -1182.6334    279556.32   -75619.579    7528.7637   -83148.342    1727.0905 
   32700    303.14344    -974.1865    279885.04   -75625.301    7703.3009   -83328.602    1732.3616 
   32750    293.77179   -1185.0098    280021.38   -75628.327    7465.1542   -83093.482    1736.1837 
   32800    300.32235   -1083.5776    279897.47   -75610.991    7631.6132   -83242.604    1738.2758 
   32850    294.99344   -776.95431    279431.55   -75609.067    7496.1979   -83105.265    1739.2341 
   32900    299.88169   -1071.3733     279048.2   -75592.177    7620.4154   -83212.592    1741.9061 
   32950    299.49964    -806.2962    279142.46   -75615.827    7610.7068   -83226.534    1744.5999 
   33000    294.48199   -1296.3809    279489.12    -75615.71    7483.2013   -83098.911     1748.971 
   33050    296.60501   -987.42174    279681.36   -75603.722    7537.1503   -83140.873    1753.2298 
   33100    292.22893   -917.13323    279864.58   -75604.822    7425.9478    -83030.77    1758.4508 
   33150    297.56786   -1035.1873    279901.61   -75589.119    7561.6176   -83150.736    1761.6264 
   33200    290.88911     -923.065    279667.48   -75611.606    7391.9013   -83003.508    1763.7899 
   33250    296.27417   -836.15832    279340.22   -75573.255     7528.743   -83101.998    1765.8847 
   33300    296.84114   -1008.7531    279371.36   -75554.851    7543.1506   -83098.002    1767.7433 
   33350    293.51893   -1062.6851    279877.39   -75544.942    7458.7287    -83003.67    1771.8659 
   33400    292.45025   -1030.3236    280398.84    -75542.73     7431.572   -82974.302     1778.548 
   33450    297.95942   -1140.3089    280431.31   -75518.151    7571.5678   -83089.719    1782.3301 
   33500    298.42438   -1009.7962    279907.36   -75486.821    7583.3831   -83070.204    1783.4614 
   33550    297.93198    -874.0881     279260.4   -75433.218    7570.8705   -83004.089    1783.4868 
   33600    301.26022   -909.30718     279127.5   -75452.301    7655.4456   -83107.746    1786.5938 
   33650       294.96   -911.62454    279497.12   -75442.656    7495.3483   -82938.004    1792.2413 
   33700    299.59857   -1387.1176    280092.07   -75446.954    7613.2209   -83060.175    1797.3865 
   33750    293.18753     -1135.68    280266.82   -75479.763    7450.3074    -82930.07    1801.0226 
   33800    295.13592   -903.36425    279833.64   -75515.806    7499.8187   -83015.625    1802.0219 
   33850    296.27222   -946.63691    279461.55   -75571.286    7528.6936    -83099.98    1801.6292 
   33900     296.4554   -1045.5619    279484.24   -75572.208    7533.3483   -83105.556    1803.2289 
   33950    297.93275   -871.92031    279664.45   -75569.254      7570.89   -83140.144     1805.672 
   34000    299.83365   -1235.9704    279992.65   -75567.941    7619.1945   -83187.136    1808.8608 
   34050    294.37777   -1184.4932    280133.49   -75606.898    7480.5529   -83087.451    1810.8991 
   34100    292.46058   -1168.7178    279898.44   -75616.163    7431.8344   -83047.997    1811.6569 
   34150    294.58384   -918.54323    279396.98   -75654.937    7485.7895   -83140.726    1812.8848 
   34200    294.99813   -712.37114    279003.39   -75645.438    7496.3171   -83141.755    1812.5622 
   34250     292.9935   -1008.3784    279073.99    -75728.77    7445.3768   -83174.146     1815.282 
   34300    293.39267   -852.47221    279504.88   -75750.532    7455.5203   -83206.053    1819.7207 
   34350    293.64634   -1093.9154    279871.23   -75714.564    7461.9663    -83176.53    1823.0394 
   34400    294.69879   -1329.8294    279920.71   -75764.672    7488.7105   -83253.382     1824.641 
   34450    293.70744   -1146.6791    279499.77   -75740.294    7463.5189   -83203.813     1825.587 
   34500    293.81283     -1133.36    279233.73   -75786.765    7466.1971   -83252.962    1829.2541 
   34550    292.38713   -1045.1504    279056.01   -75729.621    7429.9681   -83159.589     1829.725 
   34600    296.69004   -824.20305    279056.12   -75714.575     7539.311   -83253.886    1830.3298 
   34650    294.67223   -1341.5686    279635.02   -75706.531    7488.0356   -83194.567    1833.4565 
   34700    291.30237   -1050.1253    279956.06   -75673.105    7402.4028   -83075.508    1837.2245 
   34750    297.06875   -1056.2839    279573.41   -75775.345    7548.9345    -83324.28    1835.9458 
   34800    291.84662   -927.54137    279158.74   -75759.617    7416.2329    -83175.85    1836.2813 
   34850    294.98738    -812.6571    279319.72   -75796.596     7496.044    -83292.64    1839.2416 
   34900    294.44355   -1095.9563    279643.57   -75770.104    7482.2245   -83252.328    1843.8039 
   34950    291.70195   -1052.9538    279855.66   -75790.563    7412.5565   -83203.119     1846.528 
   35000    292.52214   -766.08264    279729.58   -75776.902    7433.3987     -83210.3    1850.1813 
   35050     292.8295   -1150.1365    279544.32   -75808.607    7441.2091   -83249.816    1851.7608 
   35100     294.4347   -1024.0943    279172.78   -75807.955    7481.9997   -83289.955    1850.2974 
   35150    292.70048   -962.54258     278693.9   -75803.872    7437.9305   -83241.803    1848.0235 
   35200    293.85396   -937.19363    278854.52   -75778.964    7467.2422   -83246.206    1849.7477 
   35250      292.572   -1132.2732    279612.55   -75779.198    7434.6657   -83213.864    1853.4571 
   35300    290.58487   -1188.6888    280013.68   -75704.242    7384.1699   -83088.412    1857.7022 
   35350    293.55582    -1134.423    279865.05   -75702.149    7459.6661   -83161.815    1859.5732 
   35400    296.79034   -953.23093    279435.78   -75689.493    7541.8596   -83231.353    1861.0778 
   35450    294.02352   -919.56105    279321.29   -75723.512    7471.5509   -83195.063    1863.3826 
   35500     298.8085   -1134.1877    279502.05   -75731.156    7593.1441   -83324.301    1867.8013 
   35550    294.51578   -747.00776    279661.31   -75733.214    7484.0599   -83217.274    1871.9352 
   35600    289.75499    -832.2721    279866.07   -75669.587    7363.0817   -83032.669    1874.7792 
   35650    297.20544   -958.27444    279958.34   -75672.942    7552.4079    -83225.35    1878.4596 
   35700     294.4132    -1080.009    279818.76   -75683.621    7481.4532   -83165.074    1879.4066 
   35750    299.00926   -1312.4188    279823.53   -75662.453    7598.2457   -83260.698    1881.2035 
   35800    297.71761    -1100.932    279677.46    -75667.36    7565.4231   -83232.783    1886.9757 
   35850    293.91529   -1013.5534    279351.08   -75670.029    7468.8006    -83138.83    1886.5071 
   35900     298.2592   -1301.4422    279224.54   -75628.279    7579.1855   -83207.465    1888.4988 
   35950    290.88827   -1016.9181    279265.54   -75650.364    7391.8798   -83042.243    1891.3917 
   36000    296.38372   -1086.6092    279598.59   -75644.184     7531.527   -83175.711    1894.9752 
   36050    294.73133   -1112.8071    279804.84   -75697.115    7489.5375   -83186.653    1895.4597 
   36100    289.85764   -957.32018    279639.42   -75646.923      7365.69   -83012.613    1897.9785 
   36150    297.39295   -540.39163    279239.89   -75674.059    7557.1728   -83231.232    1898.7831 
   36200    294.07784   -949.60727    279507.05   -75701.044    7472.9312   -83173.975    1901.4722 
   36250    296.30258   -1201.5693    279993.39   -75711.803    7529.4651   -83241.268    1907.7008 
   36300    288.13643   -756.41822    279833.55   -75725.506    7321.9517   -83047.457    1910.2914 
   36350    295.26739   -1059.1797    279669.66   -75753.853    7503.1595   -83257.012    1910.2931 
   36400    292.08686   -808.99367    279493.41   -75752.918    7422.3378   -83175.255    1912.2372 
   36450    295.96535   -723.49619    279246.75   -75705.848    7520.8955   -83226.743    1912.9786 
   36500    294.41062   -953.28648    279439.76     -75642.8    7481.3877   -83124.188    1914.5845 
   36550    295.62097   -906.91411    279814.66   -75644.046    7512.1444    -83156.19    1920.3466 
   36600    293.62271   -1125.0754    280080.56    -75701.13    7461.3657   -83162.496    1923.6997 
   36650    293.32953   -916.68017    279785.54    -75717.53    7453.9157   -83171.446    1924.1745 
   36700    296.49592   -788.57707    279086.18    -75768.93    7534.3781   -83303.308    1925.8062 
   36750    295.70571   -1117.8715    278912.01   -75762.905    7514.2978   -83277.203    1927.0149 
   36800    292.25751   -798.48617    279235.41   -75755.673    7426.6742   -83182.347     1929.179 
   36850    298.36192   -1260.9858    279785.29   -75740.993    7581.7957   -83322.789     1933.198 
   36900    291.46277    -1227.713    280052.31   -75719.574    7406.4786   -83126.053    1936.8649 
   36950    295.99303    -1313.811    279894.11   -75730.045    7521.5989   -83251.644    1937.0319 
   37000    291.31028   -983.49909    279333.11   -75745.334    7402.6036   -83147.938    1937.2406 
   37050    292.34804    -715.4347    278752.35   -75748.006    7428.9747   -83176.981    1938.3874 
   37100    295.06444    -776.7921    278757.89   -75682.971    7498.0021   -83180.974    1941.7339 
   37150    294.54895   -893.70015    279192.88   -75667.623    7484.9028   -83152.526    1945.7926 
   37200    296.03024    -881.6673    279924.29   -75664.522    7522.5444   -83187.067    1954.5386 
   37250    292.69592   -1315.9961    280531.36    -75675.12    7437.8148   -83112.934    1961.9367 
   37300    295.99527   -753.83629    279842.18   -75719.937    7521.6559   -83241.593     1959.878 
   37350    297.80856   -1097.2708    278870.78   -75710.435    7567.7342   -83278.169    1956.1694 
   37400    301.76403   -692.37667    278724.21   -75683.751    7668.2483   -83351.999    1957.0768 
   37450    296.67221    -1243.656    279566.27   -75659.121     7538.858   -83197.979    1965.6919 
   37500    296.05278   -1247.9932     280435.2   -75607.826    7523.1174   -83130.943    1973.4503 
   37550    291.38336   -1299.6134    280607.02   -75659.789    7404.4607    -83064.25     1976.422 
   37600    291.37133   -1129.5433    280044.25   -75688.111     7404.155   -83092.266    1974.8426 
   37650    290.13014   -970.65569    279251.84    -75696.81    7372.6146   -83069.424    1972.9406 
[...]
   90850    294.75731   -1168.4326    279574.27   -75809.936    7490.1976   -83300.134    4599.8328 
   90900    294.00533   -1203.4125       279598   -75798.391    7471.0888   -83269.479    4600.1934 
   90950    291.19531   -1102.2822     279440.8   -75797.274    7399.6821   -83196.956    4601.3766 
   91000    289.70135    -1054.655    279419.84    -75819.82    7361.7184   -83181.538     4605.641 
   91050    292.48148    -1150.909    279561.99   -75849.432    7432.3655   -83281.798    4610.0043 
   91100    294.75659   -1018.3363    279834.61   -75793.312    7490.1792   -83283.491    4614.8918 
   91150    291.99026   -921.05382    279740.12   -75762.369     7419.883   -83182.252    4616.0893 
   91200    292.72701   -899.49987    279556.81   -75788.415    7438.6048    -83227.02    4614.8841 
   91250    296.24217   -1067.5178    279307.51   -75749.312      7527.93   -83277.242    4614.5887 
   91300    289.52965   -876.92598    279081.54   -75760.378    7357.3553   -83117.733    4613.7719 
   91350    293.24045   -915.24745    279210.84   -75771.845     7451.652   -83223.497    4617.7604 
   91400    292.82201   -928.31577    279373.65   -75792.486    7441.0188   -83233.505    4626.1648 
   91450    289.32442   -1167.1468    279538.66   -75734.431    7352.1403   -83086.571    4630.0351 
   91500    291.69188   -924.69298    279395.89   -75781.485    7412.3006   -83193.785    4628.4858 
   91550    291.47344   -819.00363    279064.28   -75751.267    7406.7497   -83158.017    4627.3805 
   91600       292.78   -766.22412    278918.89   -75765.347    7439.9514   -83205.298     4626.613 
   91650    295.71854   -1087.0149    279249.51   -75733.855    7514.6238   -83248.479    4634.3429 
   91700    294.41156   -966.22151    279500.92   -75744.059    7481.4116    -83225.47    4642.8763 
   91750    290.07188   -973.35674    279691.13   -75712.398    7371.1343   -83083.532     4648.606 
   91800    296.02584    -1087.848    279592.61   -75742.543    7522.4327   -83264.976    4649.7552 
   91850    292.44812   -1031.6308       279512   -75742.411    7431.5177   -83173.929    4651.5952 
   91900    290.27426    -1012.398     279392.2   -75716.756     7376.277   -83093.033    4654.2159 
   91950    288.03455   -752.76721    279309.07   -75706.122    7319.3628   -83025.485    4656.4158 
   92000    291.78871   -879.30593    279204.12   -75768.556    7414.7612   -83183.317    4656.8145 
   92050    296.56744   -1236.2613     279317.2   -75782.075    7536.1955   -83318.271    4658.2272 
   92100    294.58438   -957.36378    279505.67   -75745.864    7485.8031   -83231.667     4660.918 
   92150    289.43974   -1207.4381    279889.79   -75767.539    7355.0707    -83122.61    4667.7557 
   92200     287.2688   -963.47948    279646.24   -75738.698    7299.9041   -83038.602    4668.4138 
   92250     294.4864   -882.46818    279073.73   -75727.368    7483.3133   -83210.682    4666.1992 
   92300     296.5579   -809.70301    278882.76   -75724.186    7535.9531    -83260.14    4668.0733 
   92350    290.66525   -1063.5342    279157.57   -75680.764    7386.2126   -83066.976    4673.7127 
   92400     291.7889   -948.17435    279511.09   -75702.777     7414.766   -83117.544    4680.0201 
   92450    292.05296   -971.30627    279643.36   -75710.149    7421.4764   -83131.626    4686.0815 
   92500    292.72527   -1208.0774    279761.16   -75755.177    7438.5605   -83193.737    4689.3594 
   92550    287.62845   -1023.1591    279647.32   -75785.784    7309.0432   -83094.827    4688.4217 
   92600    293.14928    -1002.699    279204.37   -75775.636    7449.3353   -83224.972    4685.5865 
   92650    293.42774   -544.96095    278730.89    -75753.17    7456.4114   -83209.581    4686.7438 
   92700    294.87584   -787.47666    278960.91   -75753.854    7493.2095   -83247.063    4693.1068 
   92750     293.6945   -984.60808    279427.51   -75722.471    7463.1901   -83185.661    4701.5418 
   92800    291.19803   -1028.4408    279515.97   -75710.991    7399.7513   -83110.742    4701.7942 
   92850    294.48248   -736.60093    279458.92   -75672.361    7483.2139   -83155.575    4704.9886 
   92900    295.25464   -1085.3591    279383.26   -75663.072    7502.8354   -83165.908    4705.0666 
   92950     289.8216   -917.83565    279079.67   -75640.347    7364.7742   -83005.121    4703.7074 
   93000    296.84311    -999.0224    279284.25   -75576.101    7543.2006   -83119.302    4704.7198 
   93050    300.06184    -1071.797    279914.11   -75551.919    7624.9932   -83176.912    4711.8204 
   93100    297.05331    -1023.349    280239.16   -75578.293    7548.5421   -83126.835    4715.9068 
   93150     297.8587   -1068.7292    280233.19   -75612.523    7569.0082   -83181.531       4720.5 
   93200    295.22329   -1205.4607    279538.89   -75675.201    7502.0389    -83177.24    4716.9322 
   93250    297.28817   -825.10546    278849.41   -75683.598    7554.5102   -83238.108    4714.4109 
   93300    291.55662   -701.72229    278892.45   -75669.193    7408.8636   -83078.056    4718.9483 
   93350    292.78662   -1018.4192    279625.22   -75669.513    7440.1197   -83109.632    4727.8279 
   93400    293.79533   -1248.7591    280162.52   -75621.774    7465.7524   -83087.526    4737.9045 
   93450    298.45963   -874.76308    279912.62   -75640.151    7584.2786    -83224.43    4735.5311 
   93500    295.60809   -993.71831    279497.12   -75670.976    7511.8172   -83182.793    4736.1419 
   93550    294.07979   -975.06701    279450.06   -75632.652    7472.9808   -83105.633    4741.0787 
   93600    294.28988     -1118.22     279802.6   -75617.352    7478.3196   -83095.671    4749.9681 
   93650    296.15444   -942.91125    279910.32   -75597.662    7525.7007   -83123.363    4749.6678 
   93700    295.54618   -662.06392    279740.59   -75561.291     7510.244   -83071.535    4746.7482 
   93750    294.23231   -851.86664    279409.15   -75605.923    7476.8566    -83082.78    4744.1688 
   93800    297.95566   -1150.0473    279192.58   -75638.244    7571.4723   -83209.716    4743.5214 
   93850    293.06991   -818.65962    279400.87   -75636.086    7447.3183   -83083.404    4748.1888 
   93900    290.63875   -869.80005    279740.63   -75619.355    7385.5393   -83004.894    4753.3801 
   93950     298.4833   -743.57627    279568.85   -75635.104    7584.8803   -83219.984    4753.3113 
   94000     296.5171     -1055.03    279504.55   -75679.696    7534.9162   -83214.612    4755.3134 
   94050    287.92529   -984.33743    279605.59   -75740.761    7316.5864   -83057.347    4758.0295 
   94100    293.50695   -1053.8119     279542.3   -75751.641    7458.4241   -83210.065    4762.8184 
   94150    294.55643   -963.58377     279265.5   -75788.151    7485.0929   -83273.244    4761.5001 
   94200    293.93785   -904.78011    279413.11    -75752.46    7469.3739   -83221.834    4766.4634 
   94250    292.84211   -1054.0623    279828.28    -75695.66    7441.5296    -83137.19    4777.9191 
   94300    292.37689   -975.28781    280045.49   -75690.714    7429.7078   -83120.422    4780.8485 
   94350    295.82246   -1135.2686    279907.77   -75715.541    7517.2644   -83232.806    4783.5373 
   94400    290.71923   -793.09191    279491.41   -75715.717    7387.5842   -83103.302    4783.5018 
   94450    292.24274   -1037.5586    279013.61   -75709.811    7426.2989    -83136.11    4781.6234 
   94500    293.32735   -854.77862    278738.27   -75743.013    7453.8604   -83196.873    4785.7543 
   94550     289.5407   -1242.9779    279107.88   -75719.458    7357.6362   -83077.094    4792.4642 
   94600    295.59725   -1094.2006    279498.29   -75707.148    7511.5416   -83218.689    4800.0654 
   94650    293.03221   -1014.7519    279648.65   -75720.633    7446.3602   -83166.994    4806.2145 
   94700     293.1273   -969.58697    279334.75   -75716.328    7448.7767   -83165.105    4807.4631 
   94750    295.86065   -945.61569    279136.28   -75768.869    7518.2349   -83287.104    4811.4324 
   94800    292.72753   -909.88846    279203.56   -75811.179    7438.6179   -83249.797    4814.7856 
   94850    288.39052   -1078.7363    279558.74   -75839.124    7328.4086   -83167.532    4822.0385 
   94900    289.12504   -1051.2417    279789.77   -75835.667    7347.0738    -83182.74    4827.4637 
   94950    292.26598   -1186.5245    279752.83   -75788.003    7426.8893   -83214.892    4831.4479 
   95000    289.89236   -712.59776    279451.96   -75858.008    7366.5722    -83224.58    4830.5495 
   95050    294.31455   -1006.2257    279321.01   -75876.182    7478.9465   -83355.129    4834.5997 
   95100    292.25252   -1394.1348    279696.49   -75827.606    7426.5472   -83254.153    4840.4272 
   95150    292.89054   -812.05465    279633.92    -75797.47    7442.7602   -83240.231    4841.3079 
   95200    289.51485   -874.15053     279635.1   -75810.201    7356.9794   -83167.181    4842.2524 
   95250    289.79898    -769.2363    279482.57   -75830.739    7364.1996   -83194.939    4843.1991 
   95300    294.70937   -868.90929    279177.56   -75864.634    7488.9793   -83353.613    4839.7821 
   95350    287.34639   -709.02571    279063.66    -75859.78    7301.8756   -83161.655    4840.3548 
   95400    292.39378   -855.96596    279270.24    -75801.01     7430.137   -83231.147    4843.6272 
   95450    296.35618   -808.91059    279409.38   -75793.782     7530.827   -83324.609     4848.653 
   95500    289.40567   -984.64981    279548.04   -75768.322    7354.2049   -83122.527    4853.1953 
   95550     291.4891    -1146.761    279910.42   -75701.281    7407.1478   -83108.429     4862.051 
   95600    297.97338   -1003.5863    279980.12   -75721.891    7571.9225   -83293.813    4863.1056 
   95650    300.57368   -977.61459    279529.85   -75697.614    7637.9997   -83335.613    4860.5173 
   95700    293.39198   -735.45999    279050.09   -75694.689    7455.5026   -83150.192    4857.8116 
   95750    296.42396   -1143.7146    279093.57   -75692.757    7532.5495   -83225.306     4855.694 
   95800    295.19966   -825.68329    279540.26   -75680.589    7501.4384   -83182.028     4864.812 
   95850     295.2968   -1002.7179    279928.49   -75663.696    7503.9068   -83167.603    4867.3139 
   95900     292.3305   -1193.2075     279900.6   -75666.886    7428.5289   -83095.415    4867.2092 
   95950    297.20281   -1091.0161    279380.25   -75652.564    7552.3412   -83204.905    4862.1002 
   96000    294.25374   -880.24323    279237.87   -75653.276    7477.4012   -83130.677    4864.4315 
   96050    300.28428   -992.97732    279594.49   -75646.982    7630.6457   -83277.628    4870.3086 
   96100    294.00571   -1244.5225    280072.88   -75701.078    7471.0983   -83172.176    4877.9177 
   96150    294.28463    -1160.642    280215.09   -75714.986    7478.1862   -83193.172    4881.0274 
   96200    293.26056    -1025.232    279950.29   -75695.431    7452.1631   -83147.594    4880.5363 
   96250    296.40122   -948.46101     279477.2   -75738.476    7531.9716   -83270.448    4877.1016 
   96300    293.93417     -1026.23    279319.31   -75702.157    7469.2805   -83171.437    4876.6538 
   96350    294.34829   -1002.2036    279366.27   -75723.985    7479.8037   -83203.789    4879.6162 
   96400    298.31085   -1151.8796    279741.59   -75750.067     7580.498   -83330.565    4886.4919 
   96450    293.72536   -944.98587    279724.96   -75712.038    7463.9743   -83176.012    4888.9178 
   96500    293.08167    -1177.738    279433.59   -75697.642    7447.6173   -83145.259    4886.5467 
   96550    295.56883    -689.5172    279066.56   -75736.439    7510.8195   -83247.258    4885.2678 
   96600    292.99129   -1039.9014    279193.65   -75802.971    7445.3205   -83248.292    4889.8382 
   96650    296.49065   -1089.0185    279530.16   -75820.448    7534.2441   -83354.692    4891.0725 
   96700    291.92425   -921.26779    279712.07   -75823.771    7418.2055   -83241.976    4895.2396 
   96750    291.33181   -1249.8522    279466.18   -75860.967    7403.1508   -83264.117    4892.3867 
   96800    289.29736   -520.78404    278953.54   -75893.965    7351.4527   -83245.418    4892.0318 
   96850    292.09717   -1052.7025     279095.6   -75881.747    7422.5997   -83304.347    4896.1148 
   96900    291.96032   -968.83841    279348.63   -75850.147    7419.1221   -83269.269    4899.0924 
   96950    291.58812   -1192.7575    279490.38   -75847.336    7409.6639       -83257    4901.9839 
   97000    290.68307   -1141.1887    279398.75    -75758.26    7386.6654   -83144.926    4900.7455 
   97050    293.29351   -879.41405     279354.7   -75760.739    7453.0004    -83213.74    4901.1582 
   97100    293.50787   -1168.4264    279273.81   -75769.579    7458.4476   -83228.027    4901.9711 
   97150    296.10271   -1007.1072    279205.17   -75812.159     7524.386   -83336.545    4905.1773 
   97200    295.92423   -865.64667    279422.35    -75789.38    7519.8507   -83309.231    4910.8357 
   97250     293.6682    -1037.951    279749.09       -75779    7462.5218   -83241.521    4918.8129 
   97300    293.11947   -1025.7544    279716.25   -75725.422    7448.5777       -83174    4920.6943 
   97350    292.29336    -992.4898    279490.54    -75694.39    7427.5851   -83121.975    4919.0836 
   97400    298.85166   -1021.8986    279194.08   -75673.518    7594.2409   -83267.759    4919.5584 
   97450    293.37138   -1013.9729    279117.51   -75663.487    7454.9791   -83118.466    4918.8019 
   97500    294.07339   -1021.2285    279479.15   -75672.808    7472.8183   -83145.626    4923.8895 
   97550    290.45879   -1117.2102    279846.85   -75661.402    7380.9662   -83042.368    4930.6946 
   97600    298.19714   -815.43314    280066.61   -75646.343    7577.6084   -83223.951    4932.8972 
   97650    294.93571    -1448.564    280177.98   -75622.047    7494.7309   -83116.778    4933.2728 
   97700    298.38179   -1227.2901    279674.16   -75637.766    7582.3008   -83220.067    4926.4663 
   97750    300.35384   -872.20418    279052.53   -75640.519    7632.4132   -83272.932    4923.4081 
   97800    296.38806   -744.49756    278902.78   -75667.562    7531.6372   -83199.199    4926.2197 
   97850    296.79124   -955.39336    279180.87   -75689.027    7541.8826   -83230.909    4929.5813 
   97900    292.89911   -1015.0576    279885.87   -75666.512    7442.9782    -83109.49    4941.2746 
   97950     290.2196   -996.28435     280265.8   -75645.022    7374.8881    -83019.91    4950.1777 
   98000    293.69888   -1484.1603    280009.55   -75627.956    7463.3015   -83091.257    4948.2236 
   98050    295.74563   -1015.8677    279259.24   -75662.315    7515.3121   -83177.627     4940.395 
   98100    297.27861   -869.40259    278751.11   -75672.548    7554.2673   -83226.815    4938.5545 
   98150     290.6177   -742.61968    278911.59   -75697.372    7385.0044   -83082.377     4942.403 
   98200    293.11604   -1260.5171    279491.63   -75652.124    7448.4905   -83100.614     4953.368 
   98250    292.98539   -1014.5846    279994.22   -75587.466    7445.1706   -83032.637    4960.4548 
   98300    296.57357   -1139.7875    280272.64   -75575.206    7536.3513   -83111.557    4966.5889 
   98350    293.47688   -1042.2386    280136.07   -75526.031      7457.66   -82983.691    4967.9395 
   98400     292.9786   -804.33447    279667.31   -75564.064     7444.998   -83009.062    4965.0121 
   98450    296.32206   -1151.7692    279464.39    -75596.39      7529.96    -83126.35    4967.8851 
   98500    295.80702   -1061.2021    279249.68    -75649.65    7516.8721   -83166.522    4965.0792 
   98550    293.19935   -751.07211    279179.83   -75651.448    7450.6077   -83102.056    4965.1831 
   98600    299.89753   -1132.5815    279646.43   -75634.951    7620.8177   -83255.769    4972.8499 
   98650    296.31568    -794.6848    279806.88   -75578.999    7529.7978   -83108.797    4978.3398 
   98700     300.0746   -1205.5084    279971.59   -75589.382    7625.3175     -83214.7    4981.8958 
   98750    293.66744   -963.53493    280072.63   -75545.894    7462.5024   -83008.396    4984.3168 
   98800    294.04715   -1163.5752    280081.95   -75569.467    7472.1514   -83041.619    4986.2667 
   98850    300.74046    -1079.078     279595.8   -75599.092    7642.2377    -83241.33    4980.4741 
   98900    296.83405   -930.36815    279079.63    -75607.38    7542.9705   -83150.351    4973.8329 
   98950     296.8504   -749.15648    278997.08   -75594.425    7543.3858   -83137.811    4973.1338 
   99000    294.85855   -1004.0891    279394.76   -75595.029    7492.7703   -83087.799    4979.6947 
   99050    296.45508   -819.63772    279804.58   -75639.927    7533.3402   -83173.267    4984.8938 
   99100    294.55778     -1449.57    280177.65   -75584.395    7485.1272   -83069.522    4988.8725 
   99150    294.16844   -1118.7849    279766.73     -75666.1    7475.2336   -83141.334    4983.9363 
   99200    293.90676   -989.30953    279250.41   -75735.428    7468.5838   -83204.012    4984.0563 
   99250    293.52463   -1040.8697    279062.18   -75766.963    7458.8735   -83225.837    4984.1666 
   99300    296.63798   -1204.9553    279044.26   -75786.962    7537.9881    -83324.95    4984.0095 
   99350    288.77524   -704.77408    279157.23   -75824.593    7338.1848   -83162.778    4990.0566 
   99400    287.06402   -818.68865    279509.26   -75851.788    7294.7002   -83146.488    4996.7858 
   99450    288.34294   -709.53604    279893.61   -75831.579    7327.1993   -83158.778    5003.1806 
   99500    288.92417   -1200.0406    280210.79   -75815.695    7341.9693   -83157.664    5009.2759 
   99550    291.71436   -1155.5373    279945.87   -75855.338    7412.8719   -83268.209    5006.7812 
   99600    287.36311   -901.50552    279167.91   -75873.696    7302.3004   -83175.996    5000.4491 
   99650    295.48552   -746.49738    278647.68   -75833.155    7508.7024   -83341.857    4996.1153 
   99700    289.59992   -910.23241    279035.22   -75811.534     7359.141   -83170.675    5008.4148 
   99750    295.65135   -1203.4071    279615.13   -75784.363    7512.9163   -83297.279    5018.4122 
   99800    286.17536   -1164.3803    280097.72    -75786.53    7272.1181   -83058.648    5024.9131 
   99850    292.10201   -1314.7713    279924.14   -75832.305    7422.7228   -83255.028    5021.6954 
   99900    293.10213   -963.70506    279102.67   -75821.435    7448.1371   -83269.572    5014.3424 
   99950    295.63536   -841.32794    278831.72   -75804.411      7512.51   -83316.921    5011.1552 
  100000    289.89073   -784.22426     279033.9   -75802.729     7366.531    -83169.26    5018.6819 
Loop time of 246.848 on 6 procs for 100000 steps with 8526 atoms

Performance: 350.013 ns/day, 0.069 hours/ns, 405.108 timesteps/s
99.4% CPU use with 6 MPI tasks x no OpenMP threads

MPI task timing breakdown:
Section |  min time  |  avg time  |  max time  |%varavg| %total
---------------------------------------------------------------
Pair    | 72.112     | 126.63     | 190.45     | 431.9 | 51.30
Neigh   | 32.808     | 38.353     | 42.166     |  63.4 | 15.54
Comm    | 8.0594     | 75.622     | 135.71     | 600.0 | 30.63
Output  | 0.13683    | 0.13911    | 0.14828    |   1.1 |  0.06
Modify  | 5.0094     | 5.0707     | 5.1295     |   1.6 |  2.05
Other   |            | 1.03       |            |       |  0.42

Nlocal:        1421.00 ave        1442 max        1394 min
Histogram: 2 0 0 0 0 1 0 1 0 2
Nghost:        1974.50 ave        2024 max        1925 min
Histogram: 1 1 0 0 1 1 0 0 1 1
Neighs:        0.00000 ave           0 max           0 min
Histogram: 6 0 0 0 0 0 0 0 0 0
FullNghs:      39424.3 ave       40082 max       38956 min
Histogram: 1 0 1 1 1 1 0 0 0 1

Total # of neighbors = 236546
Ave neighs/atom = 27.744077
Neighbor list builds = 22086
Dangerous builds = 0

# Create data file for import to other simulations
#
write_data data.${NAME}
write_data data.coexist_294K_-1000atm_ML
System init for write_data ...

Total wall time: 0:04:06
