
# Set production fixes - Nose/Hoover
#
fix                 2 all nph iso ${PRES} ${PRES} ${PCOUPL}
fix                 2 all nph iso -1000 ${PRES} ${PCOUPL}
fix                 2 all nph iso -1000 -1000 ${PCOUPL}
fix                 2 all nph iso -1000 -1000 10000.0
fix                 3 all temp/csvr ${TEMP} ${TEMP} ${TCOUPL} 837492
fix                 3 all temp/csvr 294 ${TEMP} ${TCOUPL} 837492
fix                 3 all temp/csvr 294 294 ${TCOUPL} 837492
fix                 3 all temp/csvr 294 294 5000.0 837492

# Define Order parameter
#
compute             2 all orientorder/atom nnn NULL cutoff 3.5
thermo              200
thermo_style        custom step temp press vol etotal ke pe c_1[4]

# Run 1ns simulation
dump		    1 all custom 400 prod.${NAME}.dump id type x y z vx vy vz c_2[*]
dump		    1 all custom 400 prod.ice_294K_-1000atm_ML.dump id type x y z vx vy vz c_2[*]
run                 200000
Neighbor list info ...
  update every 1 steps, delay 0 steps, check yes
  max neighbors/atom: 2000, page size: 100000
  master list distance cutoff = 6.0032907
  ghost atom cutoff = 6.0032907
  binsize = 3.0016454, bins = 20 18 18
  2 neighbor lists, perpetual/occasional/extra = 1 1 0
  (1) pair sw, perpetual
      attributes: full, newton on
      pair build: full/bin/atomonly
      stencil: full/bin/3d
      bin: standard
  (2) compute orientorder/atom, occasional, copy from (1)
      attributes: full, newton on
      pair build: copy
      stencil: none
      bin: none
Per MPI rank memory allocation (min/avg/max) = 5.821 | 5.821 | 5.822 Mbytes
Step Temp Press Volume TotEng KinEng PotEng c_1[4] 
       0    292.84372   -974.72365    149913.28     -47443.2    4021.5033   -51464.703   0.15476733 
     200    293.75102   -999.12747    149913.13   -47432.828    4033.9629   -51466.791   0.15715404 
     400    295.11309   -996.63012    149910.98   -47427.239    4052.6677   -51479.906   0.15811198 
     600    294.03373   -1013.7671    149893.11   -47465.137    4037.8453   -51502.982   0.15233054 
     800    291.74961   -962.85742    149855.23   -47479.824    4006.4783   -51486.302   0.15178283 
    1000    290.63454   -983.50467    149886.02    -47492.25    3991.1656   -51483.416   0.15779182 
    1200    293.06994   -1037.4241    149941.68    -47517.51    4024.6099    -51542.12   0.14897963 
    1400    294.55806   -1021.2095    149927.36   -47507.963    4045.0456   -51553.008   0.15450019 
    1600    291.39557   -995.68033    149860.18   -47511.771    4001.6165   -51513.388   0.15741538 
    1800    291.77194   -1006.2287     149871.8   -47517.412    4006.7849   -51524.197   0.14958651 
    2000     287.5389   -1008.4136    149919.47   -47469.851    3948.6543   -51418.506   0.15219362 
    2200    289.05106   -1005.5448    149946.46   -47437.738    3969.4202   -51407.158     0.157004 
    2400    295.11285   -991.67427    149906.49    -47457.33    4052.6643   -51509.994   0.15427864 
    2600    290.57345   -949.72367    149845.49   -47503.284    3990.3266   -51493.611   0.15238456 
    2800    291.73227   -975.37393    149888.81   -47519.137    4006.2402   -51525.377   0.15104643 
    3000    288.27436   -1060.3724    149958.56   -47529.414    3958.7542   -51488.168   0.15709982 
    3200    293.31136   -963.82392    149890.91   -47476.048    4027.9252   -51503.973   0.14826016 
    3400    290.90522   -960.44155    149875.17   -47516.881    3994.8827   -51511.764   0.15154575 
    3600    288.91103    -1021.639    149962.36    -47544.81    3967.4972   -51512.307     0.159709 
    3800    293.19165   -1021.1354    149953.94   -47470.919    4026.2812     -51497.2   0.15105507 
    4000    293.20594   -1000.3795    149903.75   -47465.733    4026.4775   -51492.211   0.15126721 
    4200    296.26931   -983.86767    149928.49   -47482.897    4068.5456   -51551.443   0.14958777 
    4400    290.82677   -1001.2683    149955.34   -47469.378    3993.8053   -51463.183    0.1559954 
    4600    294.96365   -998.27922    149959.28   -47449.519    4050.6154   -51500.134   0.15316294 
    4800    296.84053   -987.17517    149928.64   -47440.748    4076.3898   -51517.138   0.15188682 
    5000    294.75245   -1003.3663    149955.79   -47418.462    4047.7151   -51466.177   0.15494748 
    5200    297.47064   -1018.0371    149988.92   -47421.211    4085.0429   -51506.254   0.15181442 
    5400    292.42559   -1007.0521     149976.2   -47381.408    4015.7612   -51397.169   0.15708318 
    5600    296.26729   -972.68884    149968.38   -47365.902    4068.5177    -51434.42   0.15964517 
    5800    298.48079    -1011.625    149950.14   -47355.524    4098.9149   -51454.439    0.1545196 
    6000    290.81362   -1042.1094    149961.21   -47340.273    3993.6248   -51333.898   0.15743516 
    6200    304.13823   -967.40958    149950.92   -47335.421    4176.6062   -51512.028   0.15494645 
    6400    296.51061   -979.71945    149969.42   -47300.807    4071.8592   -51372.666   0.15723183 
    6600    292.73354   -1034.4468    150022.21   -47341.205    4019.9902   -51361.196   0.15610288 
    6800    294.77806   -1042.2981    149982.94   -47382.089    4048.0667   -51430.156   0.15370966 
    7000    296.02921   -926.49278    149872.28   -47387.159    4065.2483   -51452.407   0.15411159 
    7200    298.92762   -977.47831    149977.99   -47334.059     4105.051    -51439.11   0.15251184 
    7400    298.25232   -1137.1983    150171.65    -47315.64    4095.7773   -51411.418   0.15563864 
    7600    293.65664   -1055.3472    149997.83   -47352.036    4032.6668   -51384.703    0.1613422 
    7800     297.5941   -853.87543    149788.01   -47384.676    4086.7383   -51471.415   0.15150059 
    8000    298.64914   -1009.4118    150019.84    -47347.16    4101.2268   -51448.387   0.15250708 
    8200     293.0689   -1169.7297    150179.18   -47380.503    4024.5957   -51405.099   0.15697616 
    8400    298.26283   -901.66355    149856.71   -47411.245    4095.9217   -51507.166   0.14773646 
    8600    298.32699   -845.22863    149727.25   -47372.165    4096.8029   -51468.967   0.14965897 
    8800     297.7232   -1107.8915    150126.58   -47295.445    4088.5112   -51383.956   0.15657809 
    9000    299.57734   -1180.7933    150230.53   -47272.533    4113.9733   -51386.507   0.15997997 
    9200    298.74593   -860.87337    149788.48   -47262.739     4102.556   -51365.295   0.15355071 
    9400    293.74993   -825.46789    149708.38   -47314.627     4033.948   -51348.575   0.15250642 
    9600    298.20789    -1208.907    150168.61   -47298.038    4095.1672   -51393.205   0.16042512 
    9800    294.46816   -1224.1955    150201.15   -47313.403     4043.811   -51357.214   0.16487002 
   10000    296.44261   -803.80335    149697.75   -47316.379    4070.9253   -51387.305   0.15636879 
   10200    301.22689   -858.69217    149754.64   -47309.748     4136.626   -51446.374   0.15393652 
   10400    298.71905   -1214.8886    150301.18   -47286.101    4102.1869   -51388.288   0.15552034 
   10600    300.78276   -1112.3118    150177.46   -47269.727    4130.5268   -51400.254   0.14962806 
   10800    301.51934   -696.76859    149616.46   -47310.566     4140.642   -51451.208   0.15030478 
   11000    294.96983   -912.32248    149854.23   -47350.586    4050.7003   -51401.286   0.15662102 
   11200    292.90404   -1299.9006    150384.35   -47358.533    4022.3317   -51380.864   0.16066165 
   11400    297.34418   -1036.6906    150008.76   -47392.275    4083.3063   -51475.582   0.15034702 
   11600    294.71559   -637.52802    149513.75   -47369.666     4047.209   -51416.875   0.14822506 
   11800    291.06386   -1044.4008    150010.77   -47438.215    3997.0612   -51435.276   0.15532988 
   12000    289.89881   -1347.4343    150425.37    -47431.37    3981.0621   -51412.432   0.16286924 
   12200    293.74722   -895.60983    149867.08   -47418.005    4033.9107   -51451.916   0.16030837 
   12400    296.29181   -664.05212    149574.42   -47389.986    4068.8545    -51458.84    0.1482998 
   12600    295.90704   -1141.1525    150170.07   -47393.182    4063.5707   -51456.753   0.14743456 
   12800    296.97335   -1221.0974    150344.13   -47399.926    4078.2138   -51478.139   0.15216688 
   13000     295.1451   -816.30231    149722.74     -47389.3    4053.1072   -51442.407   0.15279931 
   13200    298.10914   -796.02035    149660.17   -47363.066    4093.8111   -51456.878   0.15535434 
   13400    299.11625    -1198.402    150269.53   -47373.546    4107.6414   -51481.187   0.15329291 
   13600    296.78297   -1209.0322    150236.03   -47363.871    4075.5994   -51439.471   0.15862257 
   13800    297.13279   -735.04562    149636.45   -47366.211    4080.4034   -51446.615   0.15166626 
   14000    295.16176   -889.10075    149759.69   -47387.313     4053.336   -51440.649   0.15343551 
   14200    293.68427    -1246.594    150276.11   -47405.464    4033.0463    -51438.51   0.16061893 
   14400     295.2355   -1044.9086    150027.81   -47433.805    4054.3487   -51488.153    0.1551508 
   14600    294.23289   -710.70347    149606.82   -47435.425    4040.5803   -51476.005   0.14902461 
   14800    292.20152   -969.97182     149889.7    -47414.91    4012.6843   -51427.594   0.15061332 
   15000     291.3191   -1192.8504    150204.59   -47461.854    4000.5663    -51462.42   0.15475508 
   15200    294.90436   -982.78275     149930.3    -47521.02    4049.8012   -51570.821   0.14794097 
   15400    287.99505   -861.48022    149695.88   -47540.665    3954.9184   -51495.583    0.1496911 
   15600    288.52169   -1011.1546    149902.76   -47575.364    3962.1507   -51537.515   0.15197004 
   15800    291.91278   -1141.8264    150078.46   -47522.949    4008.7191   -51531.668   0.15400002 
   16000    293.74354   -928.64883     149924.6   -47510.646    4033.8602   -51544.506    0.1444486 
   16200    293.77812   -903.16099    149784.12    -47460.44    4034.3351   -51494.775   0.14864511 
   16400    290.52387    -1027.215    149952.45   -47454.565    3989.6457   -51444.211   0.15157954 
   16600    291.73038   -1166.1575    150082.78   -47470.391    4006.2142   -51476.605     0.154273 
   16800    293.72518   -945.81704    149891.39   -47426.304    4033.6081   -51459.912   0.15073573 
   17000    295.38586   -906.98051    149821.34   -47452.488    4056.4135   -51508.902   0.14813012 
   17200    290.88185   -1085.4024     150028.7   -47431.635    3994.5618   -51426.197   0.15279993 
   17400    300.79191   -1051.4304    150059.12   -47478.384    4130.6526   -51609.037    0.1461812 
   17600    291.48815   -944.39572    149831.56   -47519.633    4002.8878   -51522.521   0.15058449 
   17800    287.85007   -905.33284    149796.69   -47538.474    3952.9275   -51491.402   0.15534849 
   18000    286.62131   -1090.4333    150004.79   -47568.754    3936.0535   -51504.807    0.1541507 
   18200    289.64083   -1046.6243    149988.86   -47594.451    3977.5193    -51571.97   0.14794302 
   18400    286.90544   -889.59479    149770.88   -47618.146    3939.9553   -51558.101   0.14524798 
   18600    285.48427   -955.28861    149836.85   -47572.289     3920.439   -51492.728   0.14933285 
   18800    293.69996   -1081.9851    150072.87    -47504.36    4033.2616   -51537.622   0.15165383 
   19000    293.55482   -1081.1412    150018.39     -47534.1    4031.2685   -51565.368   0.15154792 
   19200    293.38328   -854.46883    149750.22   -47510.716    4028.9128   -51539.629   0.14504732 
   19400    292.01113   -936.46356    149841.59   -47499.918    4010.0697   -51509.988   0.14584681 
   19600    290.77876   -1129.4529    150140.14   -47524.727     3993.146   -51517.873   0.14969036 
   19800    291.65449   -1068.8428    150039.94    -47524.21    4005.1721   -51529.383    0.1505067 
   20000    289.36866   -863.48375    149777.59   -47517.323    3973.7818   -51491.105   0.14536126 
   20200    289.80184   -978.34803     149941.7    -47543.13    3979.7303    -51522.86   0.14843731 
   20400    290.56395    -1158.875    150178.84   -47517.451    3990.1961   -51507.647   0.15246643 
   20600     290.5802   -993.61951    149941.84   -47517.336    3990.4193   -51507.755   0.14508086 
   20800    290.86981   -783.09794    149674.51   -47522.309    3994.3963   -51516.706   0.14239245 
   21000    292.50059   -1046.4246    149988.43   -47513.357    4016.7912   -51530.148   0.15296326 
   21200    295.34454   -1235.8937    150246.71   -47499.645     4055.846   -51555.491   0.14988473 
   21400     295.7045   -926.35599       149854   -47500.569    4060.7892   -51561.358    0.1453185 
   21600    291.91731   -815.44991    149668.55   -47459.159    4008.7813   -51467.941   0.15102498 
   21800    295.02462   -1147.8225    150173.49   -47402.391    4051.4527   -51453.843   0.15467729 
   22000    293.04137   -1236.6294     150294.3   -47406.255    4024.2175   -51430.472   0.15270724 
   22200    295.24088   -799.00542    149679.46   -47372.819    4054.4226   -51427.241   0.15228862 
   22400    295.31516   -736.90656    149624.69   -47351.495    4055.4426   -51406.937   0.15535085 
   22600    292.15895   -1269.9256    150336.29   -47347.366    4012.0997   -51359.465   0.15776023 
   22800    290.38906   -1272.5825    150273.99   -47384.606    3987.7944     -51372.4   0.16065177 
   23000    295.69852    -654.2069    149451.74   -47413.779     4060.707   -51474.486   0.14999874 
   23200    298.27245   -789.71006    149638.42   -47406.939    4096.0539   -51502.993   0.14841046 
   23400    295.51827   -1402.9611    150499.46   -47401.252    4058.2319   -51459.484    0.1592174 
   23600    294.28178   -1209.8307     150180.6   -47423.365    4041.2516   -51464.617   0.15973967 
   23800    299.29761   -571.25579    149336.86   -47373.236    4110.1319   -51483.368    0.1507501 
   24000     292.7225   -904.45916    149789.85    -47406.26    4019.8387   -51426.098   0.15370716 
   24200    295.10172   -1447.4719    150522.22   -47375.488    4052.5115       -51428   0.16681253 
   24400    296.07319   -1032.8867    149980.03   -47390.445    4065.8524   -51456.297   0.16089838 
   24600    295.14886   -593.72844    149389.39   -47397.656    4053.1589   -51450.815   0.15059944 
   24800    299.23629   -1018.0928    149960.29    -47314.64    4109.2899    -51423.93    0.1561531 
   25000    296.13575   -1339.8495    150437.77   -47303.804    4066.7114   -51370.515   0.15990041 
   25200    294.54226   -975.42025    149936.23   -47335.369    4044.8287   -51380.198   0.15602096 
   25400    294.43446   -757.37364    149601.25   -47404.168    4043.3482   -51447.516   0.14785673 
   25600     293.9561   -1025.5062    149985.05    -47422.54    4036.7791    -51459.32   0.15712716 
   25800    297.12954   -1172.7253    150153.86   -47396.081    4080.3587    -51476.44    0.1608838 
   26000    296.21248   -918.26294    149861.44   -47378.229    4067.7652   -51445.994   0.14996683 
   26200    298.10369   -885.81283    149780.95   -47425.848    4093.7363   -51519.584   0.15430919 
   26400     294.7574   -1042.6669    150007.96   -47446.237    4047.7831    -51494.02   0.15668217 
   26600    292.28843   -1116.7126    150024.75   -47454.603    4013.8777   -51468.481   0.15570124 
   26800    294.01343   -943.12552    149791.65   -47463.615    4037.5664   -51501.181   0.15294524 
   27000    292.87719   -970.82701    149810.03   -47463.297     4021.963    -51485.26   0.15208423 
   27200    288.80688   -1097.7653    150011.63   -47453.318     3966.067   -51419.385   0.15246403 
   27400    296.32205    -1038.562    149987.62   -47418.409    4069.2698   -51487.679   0.15078162 
   27600    293.76461   -913.50358    149819.89   -47426.055    4034.1495   -51460.204   0.15447304 
   27800    296.23866   -943.04464    149891.07   -47420.896    4068.1246   -51489.021   0.15024452 
   28000    294.54054   -1094.7062    150067.01   -47406.601     4044.805   -51451.406   0.15076325 
   28200     288.0753   -1020.4269    149957.16   -47426.246    3956.0205   -51382.267   0.15508896 
   28400    295.51155   -912.94638    149765.76   -47425.022    4058.1395   -51483.161     0.157205 
   28600    295.02459   -990.67433    149880.51   -47444.568    4051.4524    -51496.02   0.15205674 
   28800    292.56394   -1043.8499    150041.36   -47451.997    4017.6611   -51469.658   0.15213787 
   29000    295.14933   -1004.6834    149925.38    -47491.26    4053.1653   -51544.425   0.15250037 
   29200    287.67922   -906.42883    149763.79   -47529.883    3950.5813   -51480.465   0.14791421 
   29400    288.91576   -1017.6345    149918.09   -47528.357    3967.5623   -51495.919   0.14898423 
   29600    294.34008   -1079.3737    150112.46   -47486.492    4042.0522   -51528.545   0.14707875 
   29800    295.41413   -989.25795     149941.2   -47410.417    4056.8017   -51467.219   0.14981856 
   30000    290.08102   -855.16333    149783.59   -47402.504    3983.5642   -51386.068    0.1516602 
   30200     294.6037   -1063.7267       150033   -47410.194    4045.6723   -51455.866   0.15350823 
   30400    289.50099   -1118.0595    150128.75   -47461.362    3975.5989   -51436.961   0.15439734 
   30600    297.99413   -887.26788    149816.75   -47413.431    4092.2318   -51505.662   0.14784903 
   30800    297.30664   -907.22148    149839.72    -47380.69    4082.7908   -51463.481   0.15131966 
   31000    296.77279   -1175.8066    150238.91   -47362.221    4075.4596    -51437.68   0.15784208 
   31200    293.96275   -1135.5744    150182.39   -47366.142    4036.8704   -51403.012   0.15617764 
   31400    293.77758   -831.75047    149722.58   -47370.646    4034.3276   -51404.973   0.15080944 
   31600    294.48785   -871.15026    149833.09   -47432.488    4044.0814   -51476.569   0.14784956 
   31800    294.22079   -1219.1446    150287.65   -47396.779     4040.414   -51437.193   0.15503779 
   32000    294.13709    -1090.752    150080.27   -47369.815    4039.2646    -51409.08   0.15229095 
   32200    292.62048   -727.23862     149616.4   -47410.445    4018.4377   -51428.882   0.14820849 
   32400    292.29096   -957.76979    149946.03   -47401.382    4013.9124   -51415.294   0.15339204 
   32600    295.27157   -1319.0044    150408.45   -47379.901     4054.844   -51434.745   0.15996683 
   32800    293.05409   -992.10674    149947.67   -47383.363    4024.3923   -51407.755   0.15357728 
   33000    295.89381   -653.96157    149529.03   -47378.337    4063.3889   -51441.726   0.14937241 
   33200    296.39647   -1090.5996    150123.11    -47365.26    4070.2918   -51435.552   0.15347176 
   33400    297.50881   -1348.1708    150494.29   -47318.412    4085.5671   -51403.979   0.15651913 
   33600    303.07074   -797.24562    149822.84   -47260.804    4161.9468   -51422.751    0.1492604 
   33800    294.71252   -679.80898     149592.3   -47300.573    4047.1667    -51347.74   0.14948551 
   34000    293.67307   -1207.0163    150304.98    -47312.53    4032.8924   -51345.423    0.1516668 
   34200    298.94395   -1287.6505    150421.18   -47342.504    4105.2753   -51447.779   0.15378367 
   34400    298.53745   -713.73499    149656.15   -47420.422     4099.693   -51520.115   0.14429569 
   34600    292.18374   -733.42613    149627.88   -47394.163    4012.4401   -51406.603   0.15113695 
   34800    291.91288   -1312.7554    150332.75   -47424.813    4008.7205   -51433.533   0.15843768 
   35000    292.56308   -1181.2632    150227.24   -47450.781    4017.6494    -51468.43   0.15342916 
   35200    291.95368   -700.72185    149602.48   -47446.719    4009.2807       -51456   0.14315699 
   35400    294.98685    -865.6963    149798.93   -47406.697    4050.9341   -51457.631   0.14674169 
   35600    294.77794   -1290.7864    150365.96   -47392.098    4048.0651   -51440.164   0.15885335 
   35800    296.29162   -1122.0026    150121.63   -47395.611    4068.8519   -51464.463   0.15740366 
   36000    291.30313   -760.15113    149663.62   -47402.971    4000.3471   -51403.318   0.14518128 
   36200    292.82605   -891.88722    149917.24   -47416.547    4021.2606   -51437.808   0.14731097 
   36400    299.54883   -1202.3705    150289.53   -47439.135    4113.5819   -51552.717   0.15144645 
   36600    295.68901   -1006.9258    150047.73   -47416.603    4060.5765   -51477.179   0.15172284 
   36800    294.39417   -842.98256    149790.38   -47465.537     4042.795   -51508.332   0.14911941 
   37000    291.47894   -996.44671    149989.27   -47452.339    4002.7614     -51455.1   0.15092928 
   37200    293.64907   -1141.1049    150148.12   -47411.261    4032.5628   -51443.823   0.15377763 
   37400    299.00641   -1015.5974    149989.61    -47405.89     4106.133   -51512.023   0.14926146 
   37600    296.63205    -933.7936    149904.11   -47434.622    4073.5269   -51508.149   0.15348851 
   37800    297.73454   -986.47186     150038.5   -47397.574     4088.667   -51486.241   0.15219431 
   38000    289.17353   -1113.3584    150077.95   -47450.423    3971.1021   -51421.525   0.15056773 
   38200    293.46797   -939.85967    149897.38   -47447.391    4030.0759   -51477.467   0.14757802 
   38400    296.39863   -921.73643     149879.7   -47412.296    4070.3214   -51482.618   0.14827102 
   38600     296.5733   -1083.6161    150055.54   -47408.094    4072.7201   -51480.814   0.15475346 
   38800    292.84066   -1055.8823    150039.14   -47458.169    4021.4612    -51479.63   0.15029677 
   39000    289.20404   -916.60308    149858.67   -47487.857     3971.521   -51459.378   0.14855649 
   39200    292.65513   -951.69766    149858.58   -47508.955    4018.9135   -51527.869   0.14560697 
   39400    293.64459   -1040.7292     150049.2   -47495.597    4032.5014   -51528.099   0.14749642 
   39600    292.96787   -1042.8337    150013.25   -47567.766    4023.2082   -51590.974   0.14714063 
   39800    288.47296   -881.25218    149792.41   -47559.162    3961.4814   -51520.643   0.14836772 
   40000     287.6097   -913.40444    149848.79   -47569.757    3949.6266   -51519.384   0.14662013 
   40200    290.52168   -1083.8148    150083.95    -47541.21    3989.6157   -51530.825   0.14960805 
   40400    290.48865   -1056.1903    150008.24   -47536.631     3989.162   -51525.793   0.15080297 
   40600    292.23366   -817.23858    149752.92   -47569.042    4013.1256   -51582.167   0.14189727 
   40800    291.53775   -962.62542    149848.57   -47587.386     4003.569   -51590.955   0.14669066 
   41000    284.97715   -1114.6301     150107.2   -47538.129    3913.4749   -51451.604     0.152421 
   41200    289.35747    -1058.546    149997.66   -47572.839    3973.6281   -51546.467    0.1521393 
   41400    291.07978   -879.52219    149748.99   -47541.149    3997.2798   -51538.429   0.15138536 
   41600    290.10013   -967.11353    149912.29   -47534.153    3983.8268    -51517.98   0.14445109 
   41800    295.85386   -1198.0884    150171.37   -47529.807    4062.8403   -51592.648   0.14789983 
   42000    293.61179   -1019.6383    149950.47   -47503.827    4032.0509   -51535.878   0.14858388 
   42200    286.40346   -881.20015    149692.08   -47533.714    3933.0619   -51466.776   0.15506608 
   42400    286.54381   -1027.5505    149901.23   -47582.505    3934.9892   -51517.494   0.15081849 
   42600    289.29494   -1181.9359    150095.68   -47606.051    3972.7693    -51578.82    0.1470923 
   42800    287.43645   -968.96628    149836.54   -47609.952    3947.2475   -51557.199   0.14623944 
   43000    285.47529   -870.74097    149692.98   -47565.988    3920.3157   -51486.304   0.15077139 
   43200    292.96979   -1020.1784    150028.45   -47565.573    4023.2345   -51588.808   0.15027422 
   43400    288.61608   -1187.0619    150179.13   -47553.366    3963.4469   -51516.813   0.15606361 
   43600    294.72021   -904.17379    149790.39   -47555.293    4047.2724   -51602.566   0.14259636 
   43800    287.88787   -790.25513    149709.79   -47529.609    3953.4466   -51483.055   0.14018542 
   44000    292.33872   -1164.5689    150144.18   -47542.956    4014.5684   -51557.524   0.14953046 
   44200    291.60406   -1202.9376    150131.25    -47586.46    4004.4795    -51590.94   0.15182654 
   44400    292.29831   -779.18029    149624.53   -47567.028    4014.0135   -51581.042   0.14214921 
   44600    290.74909   -862.17523     149753.8   -47502.015    3992.7386   -51494.753   0.14514946 
   44800    295.02422   -1293.6081    150316.84   -47458.483    4051.4472   -51509.931   0.15258116 
   45000    292.11614   -1131.2899    150094.89   -47497.066    4011.5117   -51508.577   0.15542026 
   45200    292.33316   -682.11708    149511.45   -47525.428     4014.492    -51539.92   0.14492604 
   45400    293.94771   -923.41889    149788.54   -47572.385    4036.6639   -51609.049   0.14814059 
   45600    287.26117   -1344.8915    150338.34   -47550.501    3944.8404   -51495.342   0.15876455 
   45800    290.39652   -1048.6316    149964.35   -47529.986    3987.8969   -51517.883   0.15131876 
   46000    289.15577   -681.23976    149436.48   -47533.767    3970.8582   -51504.625   0.14630618 
   46200    290.99229    -983.9765    149899.62   -47562.292    3996.0784    -51558.37   0.14693288 
   46400    293.67109    -1348.917     150395.7   -47535.913    4032.8652   -51568.778   0.15087808 
   46600    295.62279   -990.01258    149867.87   -47542.071    4059.6672   -51601.738   0.14779415 
   46800    293.25361   -640.98861    149422.19   -47511.362    4027.1322   -51538.494   0.14557009 
   47000    289.87021   -1070.9405    150054.61    -47482.28    3980.6693   -51462.949   0.15283439 
   47200    290.91304    -1367.899    150425.92   -47444.239    3994.9901   -51439.229   0.15737657 
   47400    295.42762   -840.22075    149733.26   -47385.646    4056.9869   -51442.633   0.14866654 
   47600    300.22696   -641.44026    149496.48   -47362.781    4122.8943   -51485.676   0.14475252 
   47800    293.10542   -1242.5205    150222.16   -47321.885    4025.0971   -51346.982    0.1631924 
   48000    296.57689   -1280.6304    150359.26   -47323.559    4072.7695   -51396.329   0.15955586 
   48200    298.40762   -797.28616    149715.97   -47332.792    4097.9101   -51430.702   0.14917923 
   48400    298.67676   -807.42408    149703.04   -47314.677     4101.606   -51416.283   0.14765202 
   48600    291.91446   -1180.4782    150248.05   -47370.705    4008.7422   -51379.447   0.15202175 
   48800    293.21247   -1141.9394    150145.41   -47313.452    4026.5671    -51340.02   0.16019892 
   49000    300.02688   -819.57226    149741.63   -47297.118    4120.1467   -51417.265   0.15157334 
   49200    296.62163   -938.33181    149908.05   -47330.155    4073.3839   -51403.538   0.15049758 
   49400    298.95284     -1181.39     150207.6    -47336.42    4105.3973   -51441.817   0.15364147 
   49600    295.13791   -996.82092    150017.83   -47357.085    4053.0085   -51410.094   0.15204798 
   49800    298.77289   -916.15007     149783.5   -47340.859    4102.9262   -51443.786   0.15419351 
   50000    294.41423   -1007.6435    149966.08   -47338.588    4043.0705   -51381.658   0.15795757 
   50200    294.53069   -1137.6832    150144.69   -47373.967    4044.6698   -51418.637   0.15505794 
   50400    293.97736   -990.21474    149952.61   -47379.755     4037.071   -51416.826   0.15038865 
   50600     293.0755   -886.56694    149797.62    -47402.62    4024.6862   -51427.306    0.1487983 
   50800    295.86482   -1021.4973     149970.2   -47411.651    4062.9908   -51474.642    0.1510525 
   51000    295.16511   -1130.1941    150070.72   -47344.572    4053.3819   -51397.954    0.1548852 
   51200    297.45598   -1013.7513    149890.72   -47379.036    4084.8415   -51463.877   0.15061057 
   51400    296.28901   -865.48949    149781.18   -47341.829     4068.816   -51410.645   0.14840198 
   51600     299.0029   -1020.8472    150002.78   -47340.216    4106.0848   -51446.301   0.15183229 
   51800    294.65776   -1103.4525    150121.28   -47333.974    4046.4147   -51380.389   0.15374499 
   52000    296.74377    -999.3114     149895.8   -47297.712    4075.0611   -51372.773    0.1553147 
   52200    297.25988    -933.0247    149832.65   -47270.276    4082.1486   -51352.424   0.15548453 
   52400    300.04086   -995.75652    150057.99   -47247.414    4120.3387   -51367.753   0.15495291 
   52600    298.87718   -1135.5712    150094.75   -47286.608    4104.3583   -51390.966   0.15911613 
   52800    300.42437   -891.33127    149860.51   -47309.228    4125.6052   -51434.834   0.14676874 
   53000    303.03666   -904.59473     149882.6   -47314.387    4161.4788   -51475.865   0.14690774 
   53200    293.89054   -1109.0639    150079.96   -47319.988    4035.8789   -51355.867   0.15841862 
   53400     299.0934   -994.85843    150006.89   -47351.045    4107.3277   -51458.373   0.15430137 
   53600    294.35386   -891.71307    149824.64   -47379.983    4042.2414   -51422.225   0.15629315 
   53800    297.63154   -992.11425    149914.21   -47356.188    4087.2525   -51443.441   0.15425073 
   54000    294.28223   -1126.0502    150129.75   -47342.778    4041.2578   -51384.035   0.15792697 
   54200    300.54545   -1030.1948    150006.09   -47353.129     4127.268   -51480.397   0.15652576 
   54400    294.81658   -869.07019    149759.39   -47383.369    4048.5958   -51431.965   0.15546664 
   54600    298.34706   -966.03902    149921.02   -47376.821    4097.0784     -51473.9   0.15029505 
   54800     299.8702   -1131.2108    150158.57   -47315.676    4117.9951   -51433.671   0.15240107 
   55000    299.78568   -998.03381    149963.85   -47320.935    4116.8344    -51437.77   0.15405488 
   55200    295.51724   -836.71526     149721.4   -47354.088    4058.2177   -51412.306    0.1510181 
   55400    289.93277   -994.43061    149978.54   -47375.338    3981.5284   -51356.867   0.15749526 
   55600    293.43104   -1254.4746    150232.99   -47407.881    4029.5687   -51437.449   0.15729952 
   55800    301.31314   -928.04183    149861.75   -47386.078    4137.8104   -51523.889   0.14953652 
   56000    293.41476   -777.03111     149654.7   -47373.113    4029.3451   -51402.458   0.14894948 
   56200    291.87638   -1169.7518    150145.76   -47401.737    4008.2192   -51409.956   0.15568454 
   56400    295.54382   -1243.1166    150257.97     -47401.5    4058.5827   -51460.082   0.15281316 
   56600    295.16874   -777.97753    149659.92   -47414.869    4053.4319   -51468.301   0.14903918 
   56800    300.80693   -745.28409    149658.11   -47365.479    4130.8588   -51496.338   0.14559319 
   57000    296.64386   -1317.1159    150377.42   -47362.696    4073.6891   -51436.385   0.15722903 
   57200    293.18513   -1223.2868    150257.28   -47393.518    4026.1918    -51419.71   0.15674605 
   57400    299.05826   -616.47245    149469.96   -47423.989     4106.845   -51530.834   0.14894935 
   57600    291.94162   -803.72384    149701.44   -47411.612    4009.1152   -51420.727   0.15548557 
   57800    296.68101   -1405.3186    150515.74   -47411.168    4074.1992   -51485.367   0.15468086 
   58000    291.46193    -1164.078    150143.19   -47429.952    4002.5278    -51432.48   0.15836166 
   58200    296.05843   -600.64069    149344.49   -47481.849    4065.6496   -51547.499   0.14808905 
   58400    295.27919   -901.84553    149776.82   -47469.358    4054.9486   -51524.306    0.1500169 
   58600      290.889   -1421.8167    150518.76   -47434.891    3994.6599   -51429.551   0.15549271 
   58800    294.68653   -1016.6308     149993.2   -47476.629    4046.8099   -51523.439   0.14905539 
   59000    293.47327   -578.74896    149349.08   -47508.908    4030.1487   -51539.056   0.14794368 
   59200    293.02057   -1008.2276    149925.53   -47503.935     4023.932   -51527.867   0.14883946 
   59400    296.54239   -1328.7003    150440.21   -47434.568    4072.2956   -51506.863   0.15528448 
   59600     291.7381    -975.8148     149882.9   -47439.177    4006.3203   -51445.497   0.15330457 
   59800     299.1451   -656.90275    149500.76   -47430.481    4108.0376   -51538.518   0.14500966 
   60000    297.60037   -1056.5752    150054.34    -47410.11    4086.8244   -51496.934   0.15348844 
   60200    295.98894   -1278.6337    150358.72   -47376.792    4064.6953   -51441.488   0.15770228 
   60400    299.88455   -918.17759    149863.16   -47352.969    4118.1922   -51471.161   0.14729946 
   60600     295.5478   -775.91433    149631.35   -47397.202    4058.6373    -51455.84   0.14781785 
   60800    300.22866   -1100.5635    150093.34   -47329.947    4122.9177   -51452.865   0.15650115 
   61000    295.58747   -1232.2505    150277.57   -47366.236    4059.1821   -51425.418   0.15843097 
   61200    295.61753   -909.68277    149813.37   -47377.553    4059.5948   -51437.147   0.15376725 
   61400    298.24461   -789.36323    149674.39   -47377.778    4095.6715   -51473.449   0.14599293 
   61600    293.52505   -1141.7681    150132.85   -47361.227    4030.8597   -51392.087   0.15582193 
   61800    296.35831   -1163.6206    150187.18   -47360.275    4069.7677   -51430.042   0.15433333 
   62000    295.16115   -852.33037    149750.72   -47392.153    4053.3276   -51445.481   0.15413004 
   62200    291.90607   -851.17257    149748.44   -47405.191     4008.627   -51413.818   0.15371958 
   62400    291.68501   -1165.3418    150204.57   -47357.727    4005.5912   -51363.318   0.15071716 
   62600    291.84519    -1168.528    150178.19   -47378.202    4007.7909   -51385.993   0.15648094 
   62800    297.89416   -812.03602    149743.22   -47361.373     4090.859   -51452.232    0.1503351 
   63000    293.96244   -878.16605    149862.51   -47327.727    4036.8662   -51364.593    0.1544089 
   63200    301.81998   -1195.1563    150297.85   -47325.914    4144.7706   -51470.685   0.14923654 
   63400    298.21146   -1040.5038    150132.05   -47282.725    4095.2163   -51377.941   0.15022488 
   63600    301.19097    -795.5864    149765.29   -47269.145    4136.1327   -51405.277   0.14655295 
   63800    297.90417   -998.77565    150001.11   -47296.404    4090.9963     -51387.4   0.15527074 
   64000    294.90456    -1222.912    150314.89   -47283.424    4049.8039   -51333.228   0.16150087 
   64200    300.62836   -1020.9595    150047.42   -47290.128    4128.4066   -51418.535   0.15260196 
   64400    297.73245   -782.15985    149730.29     -47281.5    4088.6382   -51370.138   0.14989327 
   64600    299.58942   -988.93204    150014.51   -47334.924    4114.1393   -51449.063   0.14901807 
   64800    294.47786   -1204.5681    150267.97    -47340.63    4043.9442   -51384.574   0.15948252 
   65000    295.39522   -997.63466    149910.97   -47335.069    4056.5421   -51391.611   0.15764529 
   65200    294.03243   -835.39036    149694.53   -47366.323    4037.8273    -51404.15   0.15096063 
   65400    296.92621   -1052.0787    150060.61   -47388.374    4077.5665   -51465.941   0.15066966 
   65600    292.78332   -1209.0884    150240.85   -47408.779    4020.6739   -51429.453   0.15186186 
   65800     300.1827     -851.115    149836.39   -47389.412    4122.2865   -51511.699   0.14691583 
   66000    295.25957   -777.60866    149708.43   -47388.977    4054.6791   -51443.656   0.15030992 
   66200    293.10015    -1128.049    150150.04   -47408.629    4025.0248   -51433.654   0.16043783 
   66400    295.56336   -1208.6519    150218.26   -47401.752     4058.851   -51460.603   0.15761856 
   66600    293.16733    -822.7134    149736.41   -47420.512    4025.9473   -51446.459   0.15266903 
   66800    294.07422    -813.3982    149717.96   -47402.372    4038.4013   -51440.773   0.14948567 
   67000    297.17428   -1151.3128    150235.02    -47423.67    4080.9731   -51504.643   0.15032647 
   67200     291.8146   -1140.4745    150175.79    -47444.02    4007.3709   -51451.391   0.15225515 
   67400    296.17414   -753.89192    149593.75   -47486.586    4067.2386   -51553.825    0.1482622 
   67600    288.52627   -850.11957    149711.04    -47440.32    3962.2135   -51402.533   0.15393771 
   67800    292.70229   -1282.7091    150340.62   -47377.667     4019.561   -51397.228   0.15338122 
   68000    292.85694   -1125.9754    150135.49   -47375.769    4021.6848   -51397.454   0.15624707 
   68200    292.88672   -633.57576    149453.49    -47459.72    4022.0938   -51481.814   0.14913662 
   68400    295.03378   -848.38809    149777.64   -47399.606    4051.5784   -51451.184   0.15428968 
   68600    293.34664   -1437.6182    150537.17   -47370.981    4028.4097   -51399.391   0.16171434 
   68800    290.94244   -1089.8526    150103.74   -47344.201    3995.3938   -51339.595   0.15633977 
   69000    294.55207   -583.18477    149373.37   -47400.482    4044.9633   -51445.445   0.14805489 
   69200    294.54606    -947.0279    149898.77   -47401.545    4044.8808   -51446.425   0.14885705 
   69400    293.41422   -1455.2411    150582.69   -47428.313    4029.3377    -51457.65   0.16608678 
   69600    294.96715   -978.26725    149900.12   -47452.927    4050.6635    -51503.59   0.15419595 
   69800    293.72485   -530.67137    149288.72   -47426.207    4033.6036   -51459.811   0.15008737 
   70000    297.14058   -1081.3115     150081.9   -47377.887    4080.5103   -51458.397   0.15291877 
   70200     292.8055   -1463.3176     150560.9   -47350.812    4020.9784   -51371.791   0.16408928 
   70400    292.73164   -858.85195    149760.18   -47377.733    4019.9642   -51397.697   0.15725005 
   70600    298.92423   -617.86985    149432.29     -47355.5    4105.0044   -51460.505   0.15194164 
   70800    297.92748   -1183.8318    150214.27   -47370.421    4091.3165   -51461.738   0.15970745 
   71000    290.25069   -1329.7973    150389.84   -47411.614    3985.8943   -51397.508    0.1570246 
   71200    290.07291   -789.02406    149662.15   -47431.379    3983.4529   -51414.832   0.14841426 
   71400    301.08975   -718.08498    149618.13   -47399.961    4134.7426   -51534.703    0.1458072 
   71600     298.6734    -1170.064    150218.26   -47369.036    4101.5599   -51470.596   0.15552097 
   71800     295.3364   -1201.0917    150222.94   -47388.574    4055.7343   -51444.308   0.15690149 
   72000     297.5635   -823.84852    149747.07   -47421.296    4086.3182   -51507.614    0.1493005 
   72200     289.8622   -874.26743    149789.82   -47456.801    3980.5593   -51437.361   0.15253884 
   72400    295.55688   -1112.1597     150180.1    -47433.09     4058.762   -51491.852   0.14838239 
   72600    292.28463   -1118.8292    150108.88   -47399.884    4013.8255   -51413.709   0.15680519 
   72800    288.36572   -888.50675    149747.24   -47481.939    3960.0087   -51441.947   0.15057122 
   73000    293.77443   -925.94492    149828.54   -47479.495    4034.2843   -51513.779   0.15292875 
   73200    290.46535   -1157.2002    150142.99   -47487.483    3988.8421   -51476.325   0.15348083 
   73400    292.32494   -1029.3718    149997.91   -47484.011    4014.3792    -51498.39    0.1504931 
   73600    292.51614   -844.33028    149727.67   -47469.864    4017.0047   -51486.868   0.14464645 
   73800    295.22084   -931.21972    149909.07   -47462.755    4054.1473   -51516.902   0.14759968 
   74000    290.83886   -1165.3903    150192.54   -47507.409    3993.9714    -51501.38   0.15474917 
   74200    289.33505   -1051.1662    149981.18   -47506.093    3973.3201   -51479.413   0.14950468 
   74400    291.56983   -807.63799    149692.06   -47471.905    4004.0095   -51475.915   0.14540303 
   74600    293.82843   -998.99681    149952.89   -47493.526    4035.0259   -51528.552   0.14832672 
   74800    291.67516   -1204.7004    150221.47   -47498.917     4005.456   -51504.373   0.15767056 
   75000    295.88237   -938.60895    149940.68   -47466.077    4063.2319   -51529.308    0.1477756 
   75200    291.13552   -831.65448    149732.99   -47455.948    3998.0453   -51453.993   0.14928013 
   75400    294.38246   -1084.0718    150063.91   -47439.846    4042.6341    -51482.48   0.15085042 
   75600    295.58745     -1190.07    150230.21   -47415.663    4059.1819   -51474.845   0.15454899 
   75800    298.40847   -905.95829    149872.25   -47397.965    4097.9217   -51495.887   0.14739088 
   76000    295.31071   -832.62182    149768.37   -47385.308    4055.3814    -51440.69    0.1514156 
   76200    293.58073   -1134.9456    150154.27   -47407.314    4031.6243   -51438.938   0.15571725 
   76400    301.32261   -1098.3399    150162.06   -47375.298    4137.9404   -51513.238   0.14926845 
   76600    300.38845   -846.51518    149810.04   -47368.242     4125.112   -51493.354    0.1489531 
   76800    295.27039    -892.7361    149861.13   -47366.767    4054.8278   -51421.595   0.15113506 
   77000    299.35095   -1131.4656    150167.64   -47365.244    4110.8644   -51476.108   0.15874008 
   77200    290.80308   -1014.5882    150043.38   -47412.023      3993.48   -51405.503   0.15427389 
   77400    290.74569   -825.64139    149717.48   -47406.706    3992.6918   -51399.397   0.15367734 
   77600    293.44307   -947.40468     149886.2   -47420.961    4029.7339   -51450.695   0.15049919 
   77800    300.38207   -1184.1019    150217.92   -47428.252    4125.0244   -51553.277   0.15324828 
   78000    293.51832   -995.26632    149942.72   -47432.049    4030.7674   -51462.816   0.15401225 
   78200    293.63795   -723.34349    149582.38   -47430.443    4032.4101   -51462.853   0.15512144 
   78400    291.16926    -1009.382    149965.18   -47446.087    3998.5086   -51444.595   0.15689822 
   78600    295.67721   -1249.1759    150327.98    -47458.28    4060.4144   -51518.694   0.15423838 
   78800    293.75225   -899.72476    149820.93   -47451.957    4033.9798   -51485.936   0.15157585 
   79000    293.38135   -697.13713    149493.39   -47438.835    4028.8863   -51467.721   0.14983056 
   79200    291.35668   -1189.2873    150165.08    -47440.39    4001.0824   -51441.473   0.16297949 
   79400    297.87789   -1330.9215    150431.03   -47387.174    4090.6355   -51477.809   0.15776225 
   79600    299.50441   -753.15294     149601.4   -47390.093    4112.9719   -51503.064    0.1477294 
   79800    293.85003    -611.4322    149445.75   -47419.174    4035.3225   -51454.497   0.14363844 
   80000     293.3181   -1319.0026    150407.25   -47376.584    4028.0178   -51404.602   0.16035249 
   80200      291.726   -1330.4311    150422.65   -47338.386    4006.1542    -51344.54   0.16687037 
   80400    299.06192    -594.2033    149446.95   -47322.437    4106.8953   -51429.332   0.15276124 
   80600     291.1528   -710.50047    149580.92   -47342.264    3998.2826   -51340.547   0.15580733 
   80800     293.3435   -1416.7299    150517.47   -47271.314    4028.3666   -51299.681   0.17001184 
   81000    297.50618   -1259.4724    150258.68   -47329.073    4085.5309   -51414.604   0.16047249 
   81200    297.61617   -542.72524    149406.23   -47319.441    4087.0414   -51406.483   0.15020476 
   81400    301.38093   -821.99404    149768.57   -47294.022    4138.7414   -51432.764     0.154204 
   81600    296.16833   -1397.0061    150487.75   -47302.758    4067.1588   -51369.917   0.16346966 
   81800     296.4205   -1051.6588    150072.58   -47313.212    4070.6218   -51383.834   0.15287503 
   82000    302.56793   -645.13703    149521.55   -47287.782     4155.042   -51442.824   0.14842523 
   82200    294.59517   -1023.8994    149967.97   -47327.841    4045.5552   -51373.396   0.16071549 
   82400    301.35122   -1281.4336    150347.69   -47323.428    4138.3333   -51461.761    0.1605358 
   82600    293.20931   -951.01663    149898.39   -47373.218    4026.5238   -51399.742   0.15571037 
   82800    295.08216   -767.66882    149617.65   -47417.954    4052.2429   -51470.197    0.1526146 
   83000    299.41195   -1014.6711    149997.08   -47395.912    4111.7021   -51507.614   0.15366122 
   83200    295.28503   -1156.6529     150201.1   -47411.581    4055.0288    -51466.61   0.15375984 
   83400    292.49238   -930.21349    149866.94   -47437.338    4016.6785   -51454.016   0.15396713 
   83600    290.74555   -885.55827     149717.6   -47456.857      3992.69   -51449.547   0.15382655 
   83800    297.93255   -1049.6888    150056.22   -47401.772    4091.3861   -51493.158   0.15090047 
   84000    289.72076   -1108.1897    150179.87   -47429.062     3978.617   -51407.679   0.15500796 
   84200    292.79226   -926.14408    149879.19   -47421.902    4020.7967   -51442.699   0.15229211 
   84400    294.72168   -913.62616    149809.19   -47428.491    4047.2926   -51475.783   0.15337993 
   84600    291.80329   -1125.6149    150099.55    -47420.25    4007.2155   -51427.465   0.15791225 
   84800    294.12654   -1076.2682    150133.02   -47430.029    4039.1197   -51469.149    0.1545941 
   85000    291.72596   -893.01699    149842.39   -47397.985    4006.1535   -51404.138   0.15211839 
   85200    298.13633   -934.53988    149878.55   -47368.491    4094.1845   -51462.676   0.15117053 
   85400    301.79814   -1124.5403    150211.11   -47350.005    4144.4707   -51494.475   0.15136738 
   85600    292.46426   -1141.8571    150149.44   -47348.274    4016.2923   -51364.567   0.15865927 
   85800    295.78905   -821.02961    149769.09   -47368.083    4061.9503   -51430.033    0.1519251 
   86000    296.70109   -903.83561    149867.43   -47320.528    4074.4749   -51395.003   0.15741167 
   86200    298.73285   -1198.5448    150228.86   -47325.927    4102.3763   -51428.303   0.15734899 
   86400    303.02695   -1084.4293    150076.46   -47322.043    4161.3454   -51483.388   0.14893738 
   86600    298.01514   -824.12546    149737.13   -47324.493    4092.5203   -51417.013   0.15389503 
   86800    296.96341   -1001.6486    149919.49   -47353.493    4078.0774   -51431.571   0.15964734 
   87000    294.40796   -1216.1523    150220.08   -47370.052    4042.9843   -51413.036   0.15800349 
   87200    296.67734   -982.74578    149956.28   -47343.423    4074.1489   -51417.572   0.15095976 
   87400    299.78879   -767.40908    149663.77   -47309.942    4116.8772   -51426.819   0.15190718 
   87600    294.92926   -1063.0181     150037.6   -47372.689    4050.1432   -51422.832   0.15566679 
   87800    295.15629   -1237.6695    150298.46   -47375.034    4053.2609   -51428.295   0.15563924 
   88000     295.9946   -878.11062    149857.23   -47331.646     4064.773   -51396.419   0.15484908 
   88200    299.46219   -767.02259    149626.86   -47348.059     4112.392   -51460.451   0.15177827 
   88400    301.48181   -1148.3683    150144.29   -47327.124    4140.1267    -51467.25   0.15516995 
   88600    300.45864   -1277.6187    150335.73   -47337.475    4126.0759   -51463.551   0.15715215 
   88800     297.9239   -808.70329    149752.83   -47335.729    4091.2674   -51426.997   0.15079058 
   89000    294.95713   -773.16452    149642.24   -47358.617    4050.5259   -51409.143   0.15462478 
   89200     298.5554    -1206.017    150250.02   -47324.031    4099.9394   -51423.971   0.15968837 
   89400    297.01941   -1210.0706    150290.79    -47293.81    4078.8464   -51372.656   0.16255083 
   89600    296.85798   -760.12981    149645.07   -47324.966    4076.6295   -51401.595    0.1530057 
   89800    295.40085   -812.58372    149676.61   -47361.354    4056.6193   -51417.973   0.15592689 
   90000    293.29075   -1301.3758    150351.98   -47367.656    4027.6422   -51395.298   0.16428392 
   90200    291.21464   -1157.3686    150208.72    -47414.19    3999.1319   -51413.321   0.15992387 
   90400    292.26526   -682.28688    149518.59   -47444.426    4013.5596   -51457.985   0.14868129 
   90600    292.37148   -874.84356    149786.73   -47435.325    4015.0183   -51450.343   0.15181929 
   90800    292.91351   -1349.7173    150507.56   -47447.204    4022.4617   -51469.666    0.1533144 
   91000    297.00652   -1056.5955    150096.27   -47456.038    4078.6693   -51534.707   0.14719692 
   91200    290.68482   -601.52542    149389.92   -47478.916     3991.856   -51470.772   0.14911601 
   91400    286.59151   -1002.8493    149934.78   -47463.817    3935.6442   -51399.461   0.15878633 
   91600     288.3743   -1438.7082    150572.23   -47456.801    3960.1265   -51416.927   0.15974386 
   91800    294.87891   -954.31567    149945.52   -47443.575    4049.4518   -51493.027   0.14520255 
   92000    291.32405   -639.27358    149435.75    -47465.71    4000.6343   -51466.345   0.14939985 
   92200     293.5709   -1021.4891    150030.27   -47481.709    4031.4893   -51513.199   0.15117327 
   92400    291.37901   -1355.3996     150387.2   -47453.184    4001.3891   -51454.573   0.15936241 
   92600    289.25557   -904.33695    149810.06   -47520.204    3972.2287   -51492.433   0.15124683 
   92800    285.30223   -747.04191    149588.93   -47491.559    3917.9391   -51409.499   0.15043452 
   93000    292.65504   -1112.2076    150095.06   -47412.739    4018.9122   -51431.652   0.15592152 
   93200    296.35659   -1211.1356    150233.62   -47409.446    4069.7441    -51479.19   0.15815392 
   93400    298.34917   -887.88385    149811.66   -47418.351    4097.1073   -51515.458   0.15644829 
   93600    293.68359   -862.19713    149747.88   -47402.335    4033.0369   -51435.372   0.15620363 
   93800    291.92824   -1159.7301    150103.32   -47386.993    4008.9314   -51395.924   0.15826286 
   94000     298.1118   -1098.7644    150110.65   -47387.837    4093.8476   -51481.684   0.15272853 
   94200    293.92274   -868.47777    149820.53   -47474.735    4036.3211   -51511.056   0.14755732 
   94400    289.26878   -926.27488    149837.64   -47458.748    3972.4101   -51431.158   0.15146709 
   94600    291.61122   -1105.5596    150087.62   -47453.213    4004.5779   -51457.791   0.15415448 
   94800    293.40921   -1078.6032     150060.9   -47506.526    4029.2689   -51535.795   0.15287417 
   95000    291.93532   -893.97039    149787.47   -47516.248    4009.0286   -51525.277   0.15004226 
   95200    288.00344   -921.87378    149818.64   -47521.822    3955.0338   -51476.856   0.15096664 
   95400    285.55909   -1132.6553    150088.01   -47529.441    3921.4664   -51450.908   0.15495682 
   95600    293.32424   -1025.5185    149982.31   -47493.207     4028.102   -51521.309   0.15042813 
   95800    293.59307    -867.2747    149748.63   -47459.115    4031.7938   -51490.908   0.15103647 
   96000    289.25016   -992.80192    149882.13   -47448.198    3972.1545   -51420.352   0.15482801 
   96200    295.24047   -1108.8446    150106.54   -47487.215    4054.4169   -51541.632   0.15193919 
   96400    290.26319   -998.23141    149978.71   -47481.514    3986.0659    -51467.58    0.1491467 
   96600    287.08065   -907.55481     149808.1   -47495.169    3942.3614   -51437.531    0.1510498 
   96800    287.35197   -1039.1636    149900.45   -47546.001    3946.0873   -51492.088   0.15403898 
   97000    291.06526   -1039.3758    149988.01    -47528.88    3997.0805    -51525.96   0.15082375 
   97200    292.84508   -1000.5876    149920.56    -47516.41     4021.522   -51537.932   0.15340784 
   97400    293.18605   -967.80955    149843.91   -47473.049    4026.2043   -51499.254   0.15354154 
   97600    292.78622   -976.83412    149935.66   -47443.971    4020.7136   -51464.685   0.14888174 
   97800    295.96206    -1059.099    150053.08   -47436.986    4064.3262   -51501.313   0.15597342 
   98000    292.66121   -1023.2939    149950.09   -47408.646     4018.997   -51427.643   0.15827386 
   98200    299.29417   -871.44874    149834.36   -47421.917    4110.0846   -51532.001   0.14634557 
   98400    296.63148   -938.75804    149954.53   -47349.009    4073.5191   -51422.528   0.14691021 
   98600    300.63526   -1082.4191    150105.41    -47395.14    4128.5014   -51523.641   0.14948459 
   98800    303.56536   -940.45548    149953.93   -47358.791    4168.7392    -51527.53    0.1518851 
   99000    298.13802   -828.53493    149808.95   -47362.786    4094.2077   -51456.993   0.14975939 
   99200    290.06137   -1044.4333    149988.18   -47426.735    3983.2944   -51410.029   0.15435351 
   99400    295.30544   -1095.7501    150103.11   -47519.574    4055.3091   -51574.883   0.14803863 
   99600    292.02636   -903.78374     149821.4   -47547.425    4010.2788   -51557.704   0.14332782 
   99800    290.98075   -879.64436    149739.54   -47521.053    3995.9199   -51516.973   0.14776184 
  100000    292.06622   -1105.3507    150101.21   -47515.956    4010.8262   -51526.783    0.1516362 
  100200    295.82927   -1190.6515    150202.55   -47471.528    4062.5027    -51534.03    0.1561771 
  100400    291.19009   -859.41361    149766.85   -47475.104    3998.7947   -51473.899   0.14796076 
  100600    295.14683   -801.24335    149716.78   -47425.524    4053.1309   -51478.655   0.14712726 
  100800    295.02295   -1183.8333    150206.41   -47448.134    4051.4298   -51499.564   0.15750927 
  101000     292.4159   -1168.5518    150161.19   -47430.106    4015.6283   -51445.734    0.1576012 
  101200    297.44579    -727.6344    149637.52   -47416.828    4084.7017    -51501.53   0.14784245 
  101400    296.40059   -891.27162    149808.16   -47422.803    4070.3483   -51493.151   0.14933684 
  101600    294.10968    -1314.418    150363.32   -47430.008    4038.8882   -51468.896   0.15843809 
  101800    295.21343   -1061.6223    150073.37   -47400.101    4054.0456   -51454.147   0.14975813 
  102000    293.63672   -700.30109    149557.79   -47408.971    4032.3933   -51441.365   0.15061758 
  102200     293.9853   -1006.4328     149941.1   -47397.655    4037.1801   -51434.835   0.15752695 
  102400    296.30686   -1317.4247     150416.5   -47330.548    4069.0612   -51399.609    0.1611664 
  102600    294.28429   -960.06557    149963.24   -47348.941     4041.286   -51390.227   0.15291702 
  102800    298.78463   -674.10117    149565.28   -47367.703    4103.0874    -51470.79   0.14722775 
  103000    294.75717   -1072.1225    150078.61     -47354.9    4047.7799    -51402.68   0.15046602 
  103200     299.8677    -1281.458    150412.02   -47327.624    4117.9607   -51445.585   0.15017541 
  103400    301.96201   -869.10999    149846.01   -47364.532     4146.721   -51511.253   0.15081173 
  103600    296.22785   -756.68043    149617.51   -47371.201    4067.9761   -51439.177   0.15188328 
  103800    300.17903   -1145.1977    150181.19   -47368.507    4122.2361   -51490.743   0.15124119 
  104000    295.81285   -1223.8462    150316.34   -47374.231    4062.2771   -51436.508    0.1509207 
  104200    294.86045   -846.99184    149744.69   -47396.994    4049.1983   -51446.192   0.15249038 
  104400    289.37455   -793.98894    149659.21   -47415.445    3973.8626   -51389.308   0.15666043 
  104600    295.39069   -1184.0793     150210.5   -47403.916    4056.4798   -51460.395    0.1556765 
  104800    296.42118   -1207.7331    150228.44   -47392.581     4070.631   -51463.212   0.15620426 
  105000    291.23654   -806.83662    149692.56   -47429.434    3999.4325   -51428.866   0.14900544 
  105200    296.20359   -795.14857    149745.19   -47431.146     4067.643   -51498.789   0.14284388 
  105400    290.56055   -1193.3823    150255.51   -47413.932    3990.1494   -51404.082   0.15840077 
  105600    289.68804   -1151.7313    150130.17   -47414.624    3978.1677   -51392.791   0.16202568 
  105800    293.54801   -807.90526    149692.28   -47438.565     4031.175    -51469.74   0.14764699 
  106000    294.96821   -935.74074    149863.91   -47417.812     4050.678    -51468.49   0.14998149 
  106200     294.4747   -1231.0552    150270.84   -47387.441    4043.9009   -51431.342    0.1580959 
  106400    293.91087   -1066.5123    150097.24   -47401.502     4036.158    -51437.66   0.15483591 
  106600    296.18127   -787.62938    149754.19    -47409.29    4067.3365   -51476.627    0.1508261 
  106800     294.5231   -942.00179     149938.6   -47400.163    4044.5655   -51444.729   0.15107985 
  107000    297.04162   -1149.6771    150206.97   -47352.012    4079.1513   -51431.164   0.15170898 
  107200    298.37192   -994.77269    150004.92   -47343.399    4097.4198   -51440.818   0.15032884 
  107400    296.00437   -861.52816    149818.66   -47352.842    4064.9072   -51417.749    0.1520921 
  107600    295.62866   -1031.9603    150029.92   -47327.526    4059.7478   -51387.274   0.15773444 
  107800     295.4908   -1111.2572    150149.94   -47346.924    4057.8546   -51404.779   0.15371571 
  108000    296.17849   -931.64055    149902.15   -47326.064    4067.2983   -51393.363   0.15219323 
  108200    297.99125   -889.89764    149824.08    -47362.88    4092.1923   -51455.072   0.15285401 
  108400    291.57628     -1079.45    150039.26    -47355.49    4004.0981   -51359.588   0.15795981 
  108600    298.21121   -1088.2905    150087.91   -47326.474    4095.2129   -51421.687   0.15482029 
  108800    295.14109   -967.79673     149898.9   -47351.161    4053.0521   -51404.213   0.15638583 
  109000    296.45879   -946.95907    149864.87   -47391.222    4071.1476   -51462.369   0.15369914 
  109200    297.04972   -1034.5512    149991.38   -47390.642    4079.2625   -51469.904   0.15261893 
  109400    297.49436   -1034.7484    149982.64   -47374.848    4085.3686   -51460.216   0.15802944 
  109600    298.23264   -920.78769    149884.99   -47336.439    4095.5071   -51431.946   0.15225986 
  109800    294.17548   -1004.5405    149926.85   -47388.245    4039.7918   -51428.037   0.15523221 
  110000    293.06269     -1034.96    150005.57   -47324.004    4024.5103   -51348.515   0.15893113 
  110200    296.45063   -1017.6528    149988.86   -47310.887    4071.0356   -51381.922   0.15512551 
  110400    296.40792   -989.17155    149930.55   -47364.149     4070.449   -51434.598   0.15038322 
  110600    290.76404   -988.10892    149919.62   -47437.869    3992.9439   -51430.813   0.15087657 
  110800     293.0893   -997.20546    149955.98   -47432.758    4024.8758   -51457.634   0.15646473 
  111000    297.10051   -1031.4374    149939.06   -47435.745    4079.9601   -51515.705   0.15687011 
  111200    291.97144   -984.81714    149875.16   -47423.458    4009.5247   -51432.983   0.15493775 
  111400    290.83462   -975.47605    149878.57   -47477.912    3993.9132   -51471.825   0.15307196 
  111600    288.83501    -1032.618    149930.45   -47531.217    3966.4533    -51497.67   0.14866303 
  111800    285.94628   -989.09188     149888.9   -47563.797    3926.7836   -51490.581   0.15284623 
  112000    285.80044   -1008.3106     149858.1   -47555.961    3924.7808   -51480.742   0.16389862 
  112200    292.12584   -1021.3725    149902.45   -47513.851    4011.6449   -51525.496   0.15268649 
  112400    295.30205   -991.51304    149959.74   -47480.997    4055.2626    -51536.26   0.14707601 
  112600    293.81626   -990.20763    149946.37   -47456.567    4034.8587   -51491.426   0.15019873 
  112800    293.49919   -988.94427    149906.76   -47472.898    4030.5046   -51503.403   0.15636232 
  113000    295.09189   -1003.3848    149927.65   -47450.477    4052.3766   -51502.854   0.15875539 
  113200    292.52058   -1051.3258    149942.47   -47485.623    4017.0657   -51502.689   0.15189374 
  113400    291.31122   -973.85482    149886.85   -47465.639    4000.4581   -51466.097   0.15173199 
  113600    288.05793   -981.25939    149881.21   -47470.352     3955.782   -51426.134    0.1534681 
  113800     291.7247   -1041.0083    149984.26   -47452.256    4006.1363   -51458.393   0.15803055 
  114000    293.67698   -994.83511    149990.42   -47437.135    4032.9461   -51470.081   0.15663813 
  114200    292.47503   -967.08295    149870.66   -47451.537    4016.4402   -51467.978   0.15330483 
  114400    294.64066   -950.80093    149849.04   -47391.906    4046.1799   -51438.086   0.15176442 
  114600    294.96853   -1062.4585    149977.68   -47363.293    4050.6825   -51413.976   0.15981523 
  114800    300.35918   -1040.7049    150026.89   -47348.797      4124.71   -51473.507   0.16036232 
  115000    294.54772   -1004.9938    149934.71   -47379.182    4044.9036   -51424.085   0.15831385 
  115200    297.60631   -951.62306    149884.67    -47394.83     4086.906   -51481.736   0.15125078 
  115400    292.47123   -974.47213     149965.6   -47406.419     4016.388   -51422.807   0.14908405 
  115600    294.90668   -1071.4716     150055.6   -47387.789    4049.8331   -51437.622   0.15631123 
  115800    294.71176   -1001.7758    149985.63   -47404.944    4047.1563     -51452.1   0.15278033 
  116000    293.59886   -961.40206    149887.58   -47391.409    4031.8733   -51423.283   0.15524866 
  116200    294.93793   -962.85355    149941.23   -47409.503    4050.2623   -51459.765   0.15136681 
  116400    293.05334   -1032.6847    149979.62   -47449.348    4024.3819    -51473.73   0.15224777 
  116600    291.31471   -958.59968     149883.2   -47462.463     4000.506   -51462.969   0.15923614 
  116800    294.13956   -908.02232    149858.66   -47418.861    4039.2986    -51458.16   0.15370132 
  117000    294.31022   -998.72797    149963.06   -47424.526    4041.6421   -51466.169   0.15124388 
  117200    293.73741   -1023.0658    149999.61   -47413.752    4033.7759   -51447.528   0.15108276 
  117400    290.35085   -1009.6222    149925.49   -47441.123    3987.2698   -51428.393   0.15754875 
  117600    293.46568   -915.45202    149896.28   -47421.499    4030.0444   -51451.543   0.15503735 
  117800    297.55336   -1042.2359    150001.23   -47380.822    4086.1788   -51467.001    0.1538968 
  118000    297.27978   -1031.0093    150032.06   -47372.048    4082.4218   -51454.469   0.15234661 
  118200    292.17108   -995.29827    149885.53   -47408.492    4012.2662   -51420.758   0.15507914 
  118400    294.73271   -932.24874    149796.67   -47460.275     4047.444   -51507.719   0.15710307 
  118600    291.00987    -1035.541    149930.52   -47484.314    3996.3198   -51480.634   0.16208807 
  118800    284.94177   -1092.6099    149986.66   -47531.634     3912.989   -51444.623   0.15792797 
  119000    290.65267   -930.50032    149810.09   -47532.635    3991.4144    -51524.05   0.15064295 
  119200    289.53578   -909.43338    149761.86   -47534.493    3976.0767    -51510.57    0.1522209 
  119400    286.40228   -1086.4056    149965.02    -47557.77    3933.0456   -51490.815   0.16154826 
  119600    294.53768    -1060.397    149993.83   -47497.275    4044.7658    -51542.04   0.15527594 
  119800    293.72383   -896.79658    149812.23   -47495.662    4033.5895   -51529.252   0.14495033 
  120000    292.17825   -981.61341     149818.4   -47514.974    4012.3647   -51527.339   0.14930769 
  120200      292.843   -1088.9676    150021.31   -47485.292    4021.4934   -51506.786   0.15497375 
  120400    288.72817   -1052.4077     149979.3   -47531.512    3964.9862   -51496.498   0.15796406 
  120600    289.22546   -926.45219    149731.75   -47529.025    3971.8152    -51500.84   0.15720203 
  120800    295.54874   -927.14624     149795.6   -47520.407    4058.6502   -51579.057   0.14832564 
  121000    291.28344   -1129.8848    150057.87   -47500.763    4000.0766   -51500.839   0.15883121 
  121200    291.66287   -1058.7422    149956.84   -47500.078    4005.2872   -51505.365   0.15702155 
  121400    293.28354    -907.6316    149697.04   -47503.738    4027.5432   -51531.281   0.15801064 
  121600    293.69282   -947.81568    149827.17   -47492.684    4033.1637   -51525.847   0.14991537 
  121800    294.80383   -1134.1296     150104.4   -47487.015    4048.4207   -51535.436    0.1488503 
  122000    288.78126   -1045.9738    149980.03   -47464.759    3965.7152   -51430.474   0.15503624 
  122200    295.40685   -871.98467    149746.37   -47436.384    4056.7018   -51493.086   0.15289102 
  122400     294.0791   -971.46098    149946.69   -47386.376    4038.4683   -51424.844   0.15426649 
  122600    294.08804   -1177.4863    150172.13   -47302.825     4038.591   -51341.416   0.16291641 
  122800    300.18047   -967.95232    149951.41   -47306.749    4122.2559   -51429.005   0.15182979 
  123000    298.94892   -867.63045    149767.08   -47357.902    4105.3435   -51463.245   0.15296552 
  123200    292.55312   -1047.3646     150012.8   -47377.752    4017.5126   -51395.264   0.16560685 
  123400    290.87452   -1164.6643    150143.57   -47460.333    3994.4611   -51454.794   0.16129785 
  123600    293.81971   -931.56358    149840.13   -47411.603    4034.9061    -51446.51   0.15564933 
  123800    294.84089   -810.12166    149705.93   -47435.557    4048.9296   -51484.486   0.14987328 
  124000    291.66864   -1081.5458    150017.06   -47413.669    4005.3664   -51419.035   0.15904719 
  124200       295.44   -1136.2172    150114.95   -47395.511     4057.157   -51452.668   0.15772121 
  124400    292.39932   -918.96934    149795.62    -47413.83    4015.4005    -51429.23   0.15431998 
  124600    292.52131   -873.13533    149728.76   -47433.641    4017.0758   -51450.716   0.15504234 
  124800    293.49486   -1098.3902    150054.24   -47432.494    4030.4451   -51462.939   0.15390604 
  125000    292.96895   -1121.4203    150074.02   -47440.787     4023.223    -51464.01    0.1603537 
  125200    293.70402   -855.16268    149707.16   -47436.747    4033.3174   -51470.065   0.15988755 
  125400    290.54533   -923.59744    149747.77   -47506.024    3989.9405   -51495.964   0.15410817 
  125600    288.03683   -1185.1975    150129.47   -47494.086    3955.4922   -51449.579   0.15498818 
  125800    289.21282   -1106.5421    150042.71   -47485.815    3971.6416   -51457.456   0.15731147 
  126000    295.32635   -832.73189    149650.32   -47459.336    4055.5962   -51514.932   0.15591518 
  126200    295.76675   -860.24538    149807.15   -47437.539     4061.644   -51499.183   0.15003307 
  126400    293.30113   -1227.3492    150236.96   -47460.333    4027.7847   -51488.118   0.15291055 
  126600    292.23681   -1087.7671    150005.64   -47489.417    4013.1689   -51502.586   0.15406235 
  126800    293.16899   -752.26216    149554.74   -47466.523    4025.9701   -51492.493   0.15406286 
  127000    290.80273   -944.03037    149841.53   -47480.833    3993.4752   -51474.308   0.15668138 
  127200    288.00847   -1250.7687    150258.24   -47507.503    3955.1028   -51462.606   0.15602181 
  127400    289.27699   -996.54104    149895.43   -47512.663    3972.5228   -51485.186   0.15559261 
  127600    294.20286   -724.76229     149508.8   -47513.181    4040.1678   -51553.349   0.15249671 
  127800    295.26219   -1067.4104    149960.26   -47496.434    4054.7152   -51551.149   0.15482838 
  128000    293.98199   -1272.6419    150302.97   -47487.067    4037.1347   -51524.201     0.156666 
  128200    292.47513   -901.51503    149794.01   -47460.024    4016.4415   -51476.465    0.1548658 
  128400     295.8574   -727.89446    149551.61   -47492.178    4062.8889   -51555.067   0.14657396 
  128600     288.6132   -1155.5628    150089.38   -47517.117    3963.4073   -51480.525   0.15458046 
  128800    292.96212   -1223.6167    150233.55   -47550.648    4023.1292   -51573.777   0.15866494 
  129000    289.51999   -832.92409    149644.41   -47593.145    3975.8598   -51569.005   0.15183285 
  129200     288.8857   -776.75067    149583.57   -47551.378    3967.1495   -51518.528   0.15045386 
  129400     291.3721    -1186.611    150196.68   -47542.814    4001.2942   -51544.108   0.15485652 
  129600    293.25412   -1186.3673    150177.63   -47541.589    4027.1392   -51568.728   0.15417041 
  129800    288.18993   -754.07137    149551.29   -47562.644    3957.5948   -51520.238   0.14838471 
  130000    292.58748   -851.18316    149642.35   -47573.998    4017.9845   -51591.982   0.14991722 
  130200    292.87398   -1269.7766    150254.37   -47581.786    4021.9189   -51603.705   0.15140826 
  130400    290.65557   -1120.1232    150027.38   -47568.395    3991.4543   -51559.849   0.15646484 
  130600    290.58772   -685.32962    149445.13    -47531.88    3990.5226   -51522.402   0.15276188 
  130800    292.40968   -905.34426    149765.06   -47550.749    4015.5428   -51566.292    0.1502517 
  131000     287.0168    -1315.665    150274.14   -47560.728    3941.4845   -51502.212   0.15567137 
  131200    289.65221   -1031.8423    149947.66   -47538.579    3977.6756   -51516.254   0.15164909 
  131400    291.56994   -767.89053    149549.97   -47545.409    4004.0109    -51549.42    0.1514384 
  131600    290.29269   -939.95029    149851.04       -47535    3986.4711   -51521.471    0.1501274 
  131800    291.14324   -1184.8106    150157.74    -47501.72    3998.1513   -51499.871   0.15407207 
  132000    293.34782   -987.67056    149911.43   -47449.316    4028.4259   -51477.742   0.15367917 
  132200    292.37349   -844.22489    149701.59   -47458.662    4015.0458   -51473.708   0.15001247 
  132400    293.96234   -982.83359    149910.78   -47459.731    4036.8648   -51496.596   0.15122457 
  132600    295.97948   -1159.6377     150087.5   -47432.911    4064.5655   -51497.476   0.15960294 
  132800    294.95202   -955.94564     149914.5   -47404.864    4050.4557    -51455.32   0.15206405 
  133000     294.2187   -915.48875    149821.41   -47400.396    4040.3853   -51440.781   0.14950706 
  133200     298.6224   -1025.5413    150004.28   -47346.314    4100.8596   -51447.174   0.15447077 
  133400    295.22196   -1085.6701    150081.27   -47330.906    4054.1627   -51385.069   0.16032264 
  133600    297.63128   -981.50655    149919.62   -47347.202    4087.2489   -51434.451   0.15911487 
  133800    296.42406   -949.42133    149884.57   -47367.793    4070.6707   -51438.463   0.15331851 
  134000    295.84705   -1011.8564    150012.97   -47315.023    4062.7469    -51377.77   0.15633715 
  134200    296.41653   -1071.5745    150034.22   -47328.554    4070.5672   -51399.121   0.15840403 
  134400    296.20487   -966.92676    149906.84   -47329.355    4067.6607   -51397.015   0.15376317 
  134600    294.50464   -976.13958    149939.63    -47345.78    4044.3121   -51390.092   0.15266621 
  134800     294.2188   -1046.2848    150054.98   -47387.408    4040.3867   -51427.795   0.15136031 
  135000    290.83503   -1025.4867    149987.01   -47444.756    3993.9188   -51438.675    0.1503005 
  135200    293.62426   -917.56663    149863.18   -47457.081    4032.2222   -51489.303   0.14626824 
  135400    295.00263    -960.2661    149932.83   -47477.751    4051.1508   -51528.902   0.14836164 
  135600      292.249    -1098.326    150025.91    -47440.09    4013.3362   -51453.426   0.15859416 
  135800    292.32042   -983.33022    149936.33   -47512.985     4014.317   -51527.302    0.1513176 
  136000    294.65502   -901.66604    149801.72   -47546.872    4046.3771   -51593.249   0.14394105 
  136200    288.71893   -998.17978    149880.63   -47556.316    3964.8592   -51521.175   0.15018193 
  136400    290.90514   -1107.6054    150013.27   -47507.529    3994.8815    -51502.41   0.15119443 
  136600    292.51124   -1011.3094    149939.79   -47451.271    4016.9374   -51468.208   0.14851656 
  136800    291.42038   -948.40182    149849.38    -47462.23    4001.9571   -51464.187   0.14616642 
  137000    291.08158   -1030.8809    149946.21   -47465.781    3997.3045   -51463.085   0.15135067 
  137200    289.42048   -1049.0488    150010.75   -47497.472    3974.4933   -51471.965   0.15223826 
  137400    298.32425   -955.32262    149903.93   -47456.832    4096.7652   -51553.597   0.14945144 
  137600    290.52594   -952.67186    149900.54   -47446.732    3989.6741   -51436.406    0.1557166 
  137800     292.3199   -1058.8045     150036.3   -47417.768    4014.3099   -51432.078   0.15352682 
  138000    292.17467   -1008.5363    149994.43   -47415.494    4012.3155   -51427.809   0.15563438 
  138200     293.6527   -923.70303    149856.94   -47469.268    4032.6127   -51501.881   0.14901862 
  138400     294.6289   -971.62357    149912.39     -47454.7    4046.0185   -51500.719    0.1480811 
  138600    292.73789   -1105.4033    150084.71   -47465.606    4020.0499   -51485.656    0.1496526 
  138800    296.17851   -999.81106    150024.34   -47416.123    4067.2986   -51483.422    0.1416172 
  139000    293.54406   -915.82141    149864.19     -47406.2    4031.1207    -51437.32   0.15177089 
  139200    294.04034   -964.21007    149964.98   -47406.342     4037.936   -51444.278   0.14976166 
  139400    290.73696   -1126.7896    150127.97   -47431.407     3992.572   -51423.979   0.15752092 
  139600    294.12218   -1021.8928    149976.59    -47415.87    4039.0599   -51454.929   0.15089011 
  139800    297.12394   -875.52225    149799.23   -47379.234    4080.2818   -51459.516   0.15244318 
  140000    301.36124   -982.07887     150007.1   -47343.459     4138.471    -51481.93   0.15612086 
  140200    291.14457   -1169.6705    150201.01   -47382.242    3998.1696   -51380.412   0.15737546 
  140400    300.27526   -964.86213    149918.38   -47413.433    4123.5576   -51536.991   0.14427255 
  140600    298.76598   -820.11416    149740.52    -47416.58    4102.8313   -51519.412   0.14645551 
  140800    297.60365   -1111.7018    150087.17   -47404.494    4086.8694   -51491.363   0.15210389 
  141000    293.36076   -1187.8299    150201.01   -47439.097    4028.6037   -51467.701   0.15668385 
  141200    291.60224    -878.3722    149815.11   -47395.122    4004.4546   -51399.576   0.15029415 
  141400    294.02681   -816.92212    149791.81   -47402.072    4037.7502   -51439.822   0.15173218 
  141600    296.17874   -1163.2277    150203.77   -47380.452    4067.3017   -51447.754   0.15670345 
  141800    291.84316   -1134.6763    150164.01   -47434.225     4007.763   -51441.988   0.15443546 
  142000    295.04175   -812.62234    149728.58   -47457.698    4051.6879   -51509.386   0.15023306 
  142200    294.92549   -896.75136    149838.92   -47452.962    4050.0913   -51503.053   0.15053903 
  142400    291.94964   -1210.5842    150266.62   -47449.534    4009.2253   -51458.759   0.15031583 
  142600     297.3805   -1065.0663    150094.66   -47443.329     4083.805   -51527.134   0.14801333 
  142800    295.11367   -781.66628    149666.63   -47453.614    4052.6757   -51506.289   0.14587041 
  143000    287.58456   -950.50659    149873.59   -47513.045    3949.2814   -51462.326   0.15159554 
  143200     295.6727   -1224.9798    150263.67   -47473.536    4060.3525   -51533.888   0.15310714 
  143400    295.25976   -1014.6316    149964.78   -47442.239    4054.6818   -51496.921    0.1513367 
  143600    294.32611   -735.80144    149592.05   -47435.852    4041.8603   -51477.712    0.1537324 
  143800    288.88786   -1036.9545     149949.4   -47444.274    3967.1791   -51411.453   0.15645355 
  144000    294.97828    -1226.453    150281.08   -47426.156    4050.8163   -51476.972    0.1564309 
  144200    292.37862   -913.60806    149878.15   -47404.465    4015.1163   -51419.581   0.15266799 
  144400    298.06969   -737.30194    149614.09   -47411.946    4093.2694   -51505.216   0.14669445 
  144600    296.94272   -1076.5204    150092.46    -47378.49    4077.7932   -51456.284   0.15515891 
  144800     297.2651   -1274.0139    150332.58   -47343.575    4082.2203   -51425.795   0.16026294 
  145000    298.49323   -904.20003    149820.43    -47395.76    4099.0857   -51494.846   0.14894428 
  145200    294.99926   -783.75958    149621.44   -47429.215    4051.1044    -51480.32   0.14805928 
  145400    291.87042   -1196.5686    150164.82    -47425.76    4008.1374   -51433.898   0.16087927 
  145600     297.6764   -1234.7272    150248.35   -47441.535    4087.8685   -51529.403   0.15954497 
  145800    291.31638   -785.92247    149611.83   -47466.066    4000.5289   -51466.595   0.15375047 
  146000    295.49999   -765.59014    149624.03   -47453.503    4057.9808   -51511.484   0.14708874 
  146200    290.69316   -1253.7585    150331.88   -47474.317    3991.9705   -51466.288   0.15051697 
  146400    293.96131   -1185.7811     150233.3   -47427.918    4036.8507   -51464.768   0.15397817 
  146600    296.85056   -694.07138    149534.71   -47401.212    4076.5276    -51477.74   0.15193631 
  146800     297.5371   -838.43289    149766.97    -47355.57    4085.9556   -51441.526   0.15541635 
  147000     294.2486   -1394.4096    150513.63   -47356.684    4040.7959   -51397.479   0.15793537 
  147200    296.01795   -1152.8098    150154.86   -47328.859    4065.0937   -51393.952   0.15412698 
  147400    294.06516   -628.42117    149403.66   -47405.581    4038.2769   -51443.858   0.15228559 
  147600    296.55257   -921.45584     149851.2   -47414.406    4072.4354   -51486.842   0.15401605 
  147800    294.55394   -1448.2515    150544.41   -47443.788    4044.9891   -51488.777   0.16136995 
  148000    300.10139   -1025.6679    149981.26   -47418.352    4121.1699   -51539.522   0.15231211 
  148200    293.13301   -600.19996    149362.46   -47468.953     4025.476   -51494.429   0.14833248 
  148400     289.8733   -1034.6892    149924.64   -47512.793    3980.7117   -51493.505   0.15608093 
  148600     294.4481   -1376.1688     150362.3   -47472.851    4043.5355   -51516.386   0.15830415 
  148800    292.70882   -951.87511    149797.85   -47484.899    4019.6507    -51504.55   0.15583374 
  149000    292.71424   -729.41953    149480.09   -47495.247    4019.7253   -51514.972    0.1495504 
  149200    294.72968    -1062.785     150002.1   -47495.332    4047.4025   -51542.734   0.14876638 
  149400    289.71432   -1214.1761    150237.07   -47512.885    3978.5285   -51491.413   0.15255307 
  149600    288.29168   -939.21469       149799   -47519.926     3958.992   -51478.918   0.14957583 
  149800    294.45489   -791.31972    149647.65   -47507.815    4043.6288   -51551.444   0.14739843 
  150000    296.16424   -1045.9166    150034.36   -47461.899    4067.1026   -51529.002   0.15114266 
  150200    289.61038   -1187.5915    150168.54   -47402.735    3977.1012   -51379.837   0.16086069 
  150400    294.37638   -906.59927    149861.36   -47377.971    4042.5507   -51420.522    0.1573975 
  150600    290.93838   -901.92147    149786.18   -47431.928     3995.338   -51427.267   0.15795405 
  150800    289.32202   -1053.2306    150055.71   -47389.438    3973.1412   -51362.579   0.15256261 
  151000    295.87755   -1084.7817    150103.25   -47429.701    4063.1656   -51492.867   0.14946563 
  151200     293.6303   -915.83448    149864.62   -47421.109    4032.3051   -51453.414    0.1513324 
  151400    300.57543    -939.8348    149895.61   -47333.965    4127.6798   -51461.645   0.15160823 
  151600    296.77864   -1092.7972    150128.39   -47316.033    4075.5399   -51391.573   0.15328898 
  151800    299.95741    -986.5395     150044.1   -47329.527    4119.1927   -51448.719   0.14813259 
  152000    298.06609   -874.50526    149839.08   -47334.311    4093.2199   -51427.531   0.15738948 
  152200    297.05588   -997.44394    149948.11   -47353.816    4079.3471   -51433.163   0.15802383 
  152400    295.98923   -1075.6135    150106.65   -47400.368    4064.6992   -51465.068   0.15960504 
  152600    294.85087   -1041.1482    149962.87   -47371.615    4049.0667   -51420.682   0.16140724 
  152800     299.3907   -902.21875    149835.84   -47305.288    4111.4104   -51416.698   0.15054832 
  153000    294.82225   -1060.1699    149982.13   -47373.365    4048.6737   -51422.039    0.1554091 
  153200    306.38653   -1041.4279     150015.9   -47313.388    4207.4812   -51520.869   0.15441783 
  153400    297.94506   -936.31752    149868.92   -47368.747    4091.5579   -51460.304   0.15439748 
  153600    299.84337   -917.40032    149842.56   -47396.265    4117.6267   -51513.892   0.14443205 
  153800    295.94535   -1032.7899    149950.39   -47423.413    4064.0967    -51487.51   0.15205674 
  154000    290.18266   -1049.7127       149962   -47437.245      3984.96   -51422.205   0.15604838 
  154200     294.8993   -944.23745    149847.07   -47383.774    4049.7317   -51433.506   0.15609094 
  154400    296.07978    -946.9906    149883.79   -47377.271    4065.9428   -51443.213   0.15521266 
  154600    288.98044   -1106.1101    150032.32   -47396.306    3968.4504   -51364.756   0.15810008 
  154800    291.29608    -1027.783    149958.57   -47414.385    4000.2502   -51414.636   0.15240527 
  155000    291.47206   -952.52167    149783.36   -47404.767    4002.6669   -51407.434   0.15002279 
[...]
  163200    295.83519   -1151.7561    150195.07   -47472.928     4062.584   -51535.512   0.15506454 
  163400    294.81783   -917.29956    149866.16   -47512.877    4048.6129    -51561.49   0.14620163 
  163600    293.51143   -840.04599     149772.3   -47462.426    4030.6727   -51493.099   0.14339601 
  163800    292.85355   -1083.7839    150074.05   -47519.244    4021.6382   -51540.882   0.14915091 
  164000    292.81536   -1119.0493    150075.87   -47535.346    4021.1139    -51556.46   0.14419159 
  164200     289.1615   -871.53291    149762.75   -47535.798    3970.9369   -51506.735   0.14652275 
  164400    291.89441   -907.85606    149811.12   -47476.806    4008.4668   -51485.272   0.15273152 
  164600    292.77021    -1082.459    150069.14   -47452.411    4020.4938   -51472.905   0.15561818 
  164800    288.16833    -1078.357    149987.34   -47490.224    3957.2981   -51447.522   0.15788835 
  165000    296.15284   -885.35699    149761.88   -47468.925    4066.9461   -51535.871    0.1527463 
  165200    297.06509   -948.04317    149862.23   -47463.585    4079.4736   -51543.059   0.15044972 
  165400     291.7651   -1077.9552    150025.25   -47489.279     4006.691    -51495.97   0.15142384 
  165600    290.42404   -1031.1303    149964.19   -47428.778    3988.2749   -51417.053   0.15444646 
  165800    289.22397   -970.55612    149892.93   -47455.159    3971.7947   -51426.953    0.1535687 
  166000    293.95177   -1021.5434    149962.73   -47412.779    4036.7196   -51449.498   0.14721765 
  166200    293.84201   -1034.2076    149976.66   -47443.716    4035.2123   -51478.929   0.14747228 
  166400    294.58621   -984.37434     149896.5   -47439.545    4045.4321   -51484.977   0.15752901 
  166600    288.84527   -1019.3952    149902.83   -47435.282    3966.5942   -51401.876   0.16007396 
  166800    292.99905   -1028.0051       149984   -47494.717    4023.6364   -51518.354    0.1491702 
  167000    288.98362   -1027.6041    149951.69   -47495.886    3968.4941    -51464.38    0.1538927 
  167200    292.32981   -955.86895    149839.25    -47445.57     4014.446   -51460.017   0.15124521 
  167400    293.62664   -999.49408    149864.14   -47491.219    4032.2548   -51523.474   0.15052727 
  167600     292.5684   -1035.4107    149961.88    -47470.16    4017.7224   -51487.882   0.15024776 
  167800    292.81003   -1026.2233    149926.89   -47540.589    4021.0406   -51561.629   0.15163766 
  168000    288.18671   -961.42492    149815.88   -47530.313    3957.5504   -51487.864   0.14914794 
  168200    294.75133   -940.67922    149853.17       -47527    4047.6998     -51574.7   0.14246187 
  168400     290.2654   -995.49316    149980.95   -47479.797    3986.0963   -51465.893   0.15376678 
  168600    288.00689   -1057.9481    149963.33   -47491.736     3955.081   -51446.817   0.15677085 
  168800    288.86921   -925.99558    149840.43   -47533.472     3966.923   -51500.395   0.14986912 
  169000    295.47336   -996.00328    149869.51   -47519.369     4057.615   -51576.984   0.15040882 
  169200    293.95998    -1062.535    150005.84   -47485.774    4036.8324   -51522.607   0.15309154 
  169400    288.93432    -1057.579    149967.29    -47512.44    3967.8172   -51480.257   0.15361193 
  169600    289.43691   -963.65665    149794.75   -47524.972     3974.719   -51499.691    0.1497483 
  169800     288.4865   -956.79496       149860   -47529.744    3961.6674   -51491.411   0.14868331 
  170000    288.95619   -1153.9708    150050.26   -47565.799    3968.1174   -51533.916   0.15118783 
  170200    288.72942   -1052.9716    149927.79   -47577.214    3965.0033   -51542.217   0.15146283 
  170400    288.21628   -878.03473    149722.73   -47549.959    3957.9565   -51507.915   0.15352768 
  170600    293.59012   -977.35431    149882.99   -47529.551    4031.7533   -51561.304   0.14807535 
  170800    286.19128   -1094.9637    150071.77    -47548.85    3930.1481   -51478.998   0.14659672 
  171000    288.27151   -982.35054    149866.34   -47550.972     3958.715   -51509.687   0.14847196 
  171200    290.87853   -875.67805    149728.73   -47582.578    3994.5162   -51577.094   0.15189005 
  171400    284.41444   -1079.1155    149970.09   -47573.196    3905.7474   -51478.944   0.15005213 
  171600    291.84464   -1119.4048    150059.45   -47536.417    4007.7833     -51544.2   0.14766086 
  171800    289.48204    -953.5529    149826.71   -47517.068    3975.3388   -51492.407    0.1524171 
  172000    288.05766   -906.76689    149778.46   -47523.941    3955.7783   -51479.719   0.15096744 
  172200    292.96829   -1085.2636    150056.72   -47526.767     4023.214   -51549.981   0.15198016 
  172400    294.04169   -1102.0747    150078.88   -47493.713    4037.9545   -51531.667   0.15116624 
  172600     289.0821   -885.25756    149747.91   -47482.653    3969.8465   -51452.499   0.15160094 
  172800    286.72022   -888.89249    149768.19   -47490.206    3937.4118   -51427.618   0.14663231 
  173000    289.73333   -1140.8571    150137.33   -47503.488    3978.7895   -51482.278   0.15932474 
  173200    291.66205   -1075.1508    150064.38   -47542.736     4005.276   -51548.012   0.15204877 
  173400    290.41354   -797.34282    149662.21   -47535.104    3988.1306   -51523.234   0.14478373 
  173600    295.83154   -904.43882    149818.97   -47484.844    4062.5338   -51547.377   0.14753942 
  173800    294.06966   -1215.1777    150221.15    -47477.46    4038.3387   -51515.798   0.15493655 
  174000     292.4162   -1029.1359    149982.25    -47443.52    4015.6324   -51459.153   0.15536482 
  174200    295.25011   -797.88524    149638.82   -47443.075    4054.5493   -51497.624   0.14673929 
  174400     294.0248   -970.59661    149933.98   -47420.639    4037.7225   -51458.362   0.14922635 
  174600    292.58146   -1218.3207    150253.64   -47426.156    4017.9018   -51444.058   0.15822862 
  174800    295.65423   -993.06561    149926.06   -47394.736    4060.0989   -51454.835   0.15474186 
  175000    288.23362   -785.11108     149663.8   -47444.292    3958.1946   -51402.487   0.15012885 
  175200    295.32241   -1079.3062     150040.1    -47437.69    4055.5421   -51493.232   0.15362722 
  175400    292.11176   -1186.1011    150201.81   -47442.371    4011.4516   -51453.823   0.15319053 
  175600    295.69225   -881.23506    149762.34   -47460.722    4060.6209   -51521.343   0.15269987 
  175800    295.70169   -810.24353    149666.05   -47445.178    4060.7507   -51505.929   0.15238445 
  176000    295.94129   -1151.0735    150129.88   -47425.649    4064.0409    -51489.69   0.15499045 
  176200    294.34025   -1209.1825    150176.44   -47373.169    4042.0545   -51415.223   0.15628458 
  176400    292.78505   -855.19672    149716.52   -47420.219    4020.6975   -51440.917   0.15318908 
  176600    295.81769   -842.00978    149715.47   -47400.845    4062.3436   -51463.188   0.15424926 
  176800    299.39829   -1171.2701     150150.7   -47403.054    4111.5145   -51514.569   0.15566777 
  177000    295.33051   -1128.8692     150103.3   -47419.417    4055.6534   -51475.071    0.1586615 
  177200      293.648    -823.3705    149698.57   -47439.458    4032.5481   -51472.006   0.15184372 
  177400    286.96796   -932.44042    149813.12   -47530.209    3940.8138   -51471.022    0.1524563 
  177600     293.1096   -1221.3111    150198.64   -47488.699    4025.1545   -51513.853   0.16265853 
  177800    287.34908   -1095.6822    150013.59   -47470.013    3946.0476   -51416.061   0.16378128 
  178000    293.01338   -807.40974    149632.55   -47433.049    4023.8332   -51456.882   0.15054172 
  178200    294.57719   -969.44352    149915.98   -47467.167    4045.3084   -51512.475   0.14499755 
  178400    296.89632   -1252.0966    150294.71   -47435.953     4077.156   -51513.109    0.1584482 
  178600    287.32478   -1016.3921    149940.87   -47457.009    3945.7139   -51402.723    0.1555054 
  178800    294.35284   -717.77633       149585   -47432.468    4042.2274   -51474.696   0.14925485 
  179000    294.00794   -1038.0957    150005.11   -47401.661    4037.4911   -51439.152   0.15625187 
  179200    295.76286   -1292.7278    150328.74   -47420.271    4061.5906   -51481.861   0.16137848 
  179400    294.61923   -924.38958    149819.94    -47400.98    4045.8856   -51446.866   0.15335296 
  179600    298.69373    -713.5992       149545   -47411.963    4101.8391   -51513.802    0.1527638 
  179800    291.60727   -1142.4436    150143.22   -47432.512    4004.5237   -51437.036   0.16347019 
  180000    297.08849   -1287.2161    150341.74   -47395.481    4079.7949   -51475.276   0.15450278 
  180200    292.95329   -817.68802    149700.28   -47365.951     4023.008   -51388.959   0.15337417 
  180400    301.51769   -680.97351    149589.76   -47323.545    4140.6194   -51464.165   0.15086517 
  180600    297.45574   -1240.4663    150310.09   -47402.699    4084.8383   -51487.537   0.16135461 
  180800    298.82312   -1198.1225     150289.8   -47365.841     4103.616   -51469.457   0.15105009 
  181000    299.09881     -690.762     149550.5   -47419.054    4107.4019   -51526.456   0.15031564 
  181200    298.53672   -831.51737    149699.84   -47401.836    4099.6829   -51501.519    0.1553723 
  181400    295.18234   -1361.3757    150445.62   -47429.393    4053.6186   -51483.011   0.16097885 
  181600    290.38996   -1167.6184    150148.93   -47454.091    3987.8068   -51441.897   0.16054296 
  181800    291.16744   -589.76121    149377.82   -47434.972    3998.4836   -51433.456   0.15254301 
  182000    294.77445   -894.07257    149806.32   -47440.376    4048.0172   -51488.393   0.15436538 
  182200    296.44224   -1405.0759    150530.54   -47443.662    4070.9203   -51514.582   0.15534231 
  182400    292.91502   -1051.1825    149980.25   -47452.977    4022.4824   -51475.459   0.15541718 
  182600    296.80032   -585.25903    149310.72   -47423.761    4075.8377   -51499.599   0.15217601 
  182800    296.59278   -963.91908    149899.61   -47382.181    4072.9876   -51455.168   0.15385983 
  183000    296.88731   -1384.7673    150477.93   -47372.871    4077.0323   -51449.903   0.16253316 
  183200     291.6953   -977.45879    149932.24   -47362.685    4005.7325   -51368.417   0.15674774 
  183400    292.91738   -691.76693    149521.04   -47377.179    4022.5148   -51399.693    0.1546102 
  183600    295.99826   -1057.7789    150024.84   -47401.584    4064.8234   -51466.408   0.15732054 
  183800    294.07023   -1244.2376       150297   -47429.553    4038.3464   -51467.899   0.15890817 
  184000    289.32522   -915.11329    149841.54    -47448.31    3973.1852   -51421.495   0.15178814 
  184200    292.40706   -781.53532    149660.23    -47494.81    4015.5068   -51510.317   0.15447116 
  184400    293.95437   -1105.0588    150028.11   -47499.638    4036.7554   -51536.393   0.15776313 
  184600    293.07837    -1139.129    150104.27   -47506.095    4024.7256    -51530.82   0.14923987 
  184800    293.12316   -882.15136    149759.27   -47498.762    4025.3408   -51524.102   0.15003216 
  185000    294.39471    -830.8977     149726.7   -47490.536    4042.8024   -51533.338   0.15428263 
  185200    287.92964   -1087.5486    150050.94   -47542.231    3954.0203   -51496.251   0.15827513 
  185400    291.90352   -1087.4903    149992.62   -47521.279    4008.5919   -51529.871   0.15001465 
  185600    291.41551   -842.42839    149697.48   -47528.843    4001.8902   -51530.733   0.15357587 
  185800    297.56979    -920.3627    149817.34   -47473.016    4086.4045    -51559.42   0.15498299 
  186000    295.09939    -1129.392    150099.85   -47454.233    4052.4795   -51506.712   0.15350196 
  186200    292.16713    -1052.081    149971.12   -47445.792     4012.212   -51458.004   0.15800145 
  186400    291.91893   -846.23156    149703.03   -47399.276    4008.8036   -51408.079   0.15882107 
  186600    291.68264   -1006.2817    149869.54   -47430.832    4005.5587   -51436.391    0.1569736 
  186800    293.62646    -1209.717    150073.34   -47454.862    4032.2524   -51487.115   0.15346408 
  187000    291.13485   -980.15813    149853.99     -47426.4     3998.036   -51424.436   0.15951262 
  187200    294.64252   -822.52528    149682.87   -47448.998    4046.2054   -51495.203   0.15257382 
  187400    298.43708    -1038.798    149939.22   -47432.558    4098.3146   -51530.872   0.15279379 
  187600    288.53342   -1167.5855    150087.72   -47469.608    3962.3116    -51431.92   0.15998592 
  187800    293.81149   -922.78126    149822.39   -47461.334    4034.7933   -51496.128   0.15189761 
  188000    291.66922   -866.50639     149708.1   -47436.198    4005.3744   -51441.573   0.15453076 
  188200    292.56325    -1066.318     149988.6   -47423.579    4017.6517    -51441.23   0.15338117 
  188400    295.16144   -1122.7194    150096.29   -47410.229    4053.3316   -51463.561    0.1610508 
  188600     292.4186   -974.51971    149842.36   -47419.807    4015.6653   -51435.473   0.15904054 
  188800    294.20133   -892.31639    149758.15   -47435.561    4040.1467   -51475.708   0.15225327 
  189000    294.34372   -1042.0546    150030.26   -47423.959    4042.1022   -51466.061   0.15992528 
  189200    294.72367   -1171.4338     150108.7   -47426.338    4047.3199   -51473.658   0.16072654 
  189400    290.60237   -944.19777       149811   -47391.971    3990.7237   -51382.694   0.16042474 
  189600    297.20205   -903.49457    149808.75   -47408.427    4081.3545   -51489.781   0.15225706 
  189800    297.52078   -1131.2143    150126.01   -47442.519    4085.7315   -51528.251   0.15569189 
  190000    294.98765   -1091.2668    150021.99   -47476.004    4050.9451    -51526.95   0.15894028 
  190200    293.54358   -799.35111    149664.73   -47454.198    4031.1142   -51485.313   0.15409538 
  190400     292.3736   -921.54492    149811.87   -47450.808    4015.0474   -51465.855    0.1505639 
  190600    297.85414   -1234.5161    150243.72   -47387.604    4090.3093   -51477.913   0.15879484 
  190800    296.46383   -1058.9468    150022.39   -47422.462    4071.2169   -51493.679    0.1551417 
  191000    297.80975   -658.95281    149498.75   -47444.183    4089.6997   -51533.883   0.15170806 
  191200    291.48206   -913.34983    149849.89    -47433.75    4002.8042   -51436.554   0.14854776 
  191400    292.72073   -1370.2139    150450.27   -47447.556    4019.8143   -51467.371    0.1533439 
  191600    296.85986   -1039.3714    149965.55   -47410.729    4076.6553   -51487.385   0.16090198 
  191800    295.11727   -558.95404    149341.42   -47453.618     4052.725   -51506.343   0.14920435 
  192000    289.41646   -1061.5303    149973.35   -47446.093    3974.4382   -51420.532   0.15638316 
  192200    291.76662   -1459.0709    150537.24   -47404.281     4006.712   -51410.993   0.16173957 
  192400     292.0207   -908.16163    149772.54   -47423.728     4010.201   -51433.929    0.1563193 
  192600    294.45607   -527.35345    149267.46   -47460.029     4043.645   -51503.674   0.14939638 
  192800     291.9072   -1129.8951    150070.62   -47425.507    4008.6424   -51434.149   0.15868921 
  193000     290.9361   -1414.5982    150430.92   -47407.124    3995.3067   -51402.431    0.1654552 
  193200    299.73319   -788.68426    149631.49   -47374.103    4116.1136   -51490.217   0.14950922 
  193400    291.83895   -697.82196    149445.41    -47378.38    4007.7052   -51386.086   0.14959013 
  193600    294.11329   -1208.7842    150211.46   -47380.986    4038.9378   -51419.924   0.16123787 
  193800    291.26007   -1311.9447    150304.97   -47427.451    3999.7557   -51427.207    0.1646875 
  194000    290.16135   -746.96661    149585.31   -47463.829    3984.6674   -51448.496   0.15034238 
  194200    293.86606   -742.79789    149600.78    -47450.37    4035.5427   -51485.913   0.14631556 
  194400    296.67466   -1248.3811    150284.55   -47421.777     4074.112   -51495.889   0.15580361 
  194600    290.63979   -1237.4989    150216.71   -47446.988    3991.2376   -51438.225   0.15924105 
  194800    292.75982   -746.98314    149622.39   -47441.385    4020.3512   -51461.736   0.14662804 
  195000    298.76853   -864.76955    149785.12   -47423.272    4102.8663   -51526.138   0.14711969 
  195200     293.0614   -1271.2078    150317.16   -47400.115    4024.4926   -51424.607   0.15266231 
  195400    296.31245   -1035.6437    150109.13   -47405.525    4069.1379   -51474.663   0.14677457 
  195600    297.41826    -742.0403    149647.88   -47418.437    4084.3236   -51502.761   0.14845474 
  195800    293.82977   -943.55825    149892.89   -47461.983    4035.0444   -51497.028    0.1503157 
  196000    295.40563   -1214.0507     150312.1   -47425.268    4056.6849   -51481.953    0.1486597 
  196200    292.45048   -1081.2077    150041.14   -47416.931     4016.103   -51433.034   0.15366483 
  196400    294.14017   -750.91029    149657.33   -47422.184    4039.3069   -51461.491    0.1515849 
  196600    289.88116   -986.15683    149927.07    -47485.92    3980.8196   -51466.739   0.15256449 
  196800    295.43662   -1214.7469    150222.86   -47472.787    4057.1106   -51529.898   0.14982329 
  197000    293.85333   -956.26678    149899.36   -47487.424    4035.3678   -51522.792   0.14897953 
  197200    289.71307   -794.02948    149638.25   -47547.595    3978.5114   -51526.106   0.14676227 
  197400    289.65557    -1024.164     149991.6   -47498.899    3977.7218   -51476.621   0.15672302 
  197600    293.26542   -1193.0354    150213.04   -47407.773    4027.2944   -51435.067   0.16138226 
  197800    292.54548   -915.23157    149854.83   -47399.695    4017.4077   -51417.102   0.15009859 
  198000    292.95106   -853.27341    149705.83   -47431.983    4022.9773    -51454.96   0.15217412 
  198200    292.71706   -1062.7417    150026.99   -47452.971    4019.7639   -51472.735   0.15292222 
  198400    298.94983    -1136.874    150144.92   -47377.403     4105.356   -51482.759   0.15850648 
  198600    296.15588   -924.44545    149827.39   -47371.736    4066.9879   -51438.724   0.15340788 
  198800    298.07538    -816.4302    149744.59   -47406.946    4093.3475   -51500.293   0.14171975 
  199000    291.77686    -1132.286    150101.22   -47407.283    4006.8526   -51414.135   0.15687899 
  199200    289.68936   -1175.3942     150134.5    -47400.41    3978.1858   -51378.596   0.15736468 
  199400    291.63081   -860.20057    149723.29   -47417.761     4004.847   -51422.608   0.15181796 
  199600    295.26136   -842.49259    149716.76   -47441.811    4054.7037   -51496.515   0.15086954 
  199800    289.89449   -1162.2582    150127.36   -47414.022    3981.0028   -51395.025   0.15440516 
  200000    293.12274   -1143.4109    150085.33   -47433.686    4025.3349   -51459.021   0.14768064 
Loop time of 112.01 on 6 procs for 200000 steps with 4608 atoms

Performance: 771.361 ns/day, 0.031 hours/ns, 1785.559 timesteps/s
98.0% CPU use with 6 MPI tasks x no OpenMP threads

MPI task timing breakdown:
Section |  min time  |  avg time  |  max time  |%varavg| %total
---------------------------------------------------------------
Pair    | 75.439     | 76.174     | 76.671     |   5.4 | 68.01
Neigh   | 10.592     | 10.943     | 11.426     |   9.8 |  9.77
Comm    | 13.347     | 14.3       | 15.233     |  19.6 | 12.77
Output  | 3.0755     | 3.0767     | 3.082      |   0.1 |  2.75
Modify  | 5.9191     | 6.0155     | 6.0732     |   2.6 |  5.37
Other   |            | 1.5        |            |       |  1.34

Nlocal:        768.000 ave         785 max         758 min
Histogram: 2 0 0 1 2 0 0 0 0 1
Nghost:        1388.00 ave        1400 max        1371 min
Histogram: 1 0 0 0 1 1 0 2 0 1
Neighs:        0.00000 ave           0 max           0 min
Histogram: 6 0 0 0 0 0 0 0 0 0
FullNghs:      21848.3 ave       22346 max       21570 min
Histogram: 2 0 0 3 0 0 0 0 0 1

Total # of neighbors = 131090
Ave neighs/atom = 28.448351
Neighbor list builds = 12743
Dangerous builds = 0
write_data		data.${NAME}
write_data		data.ice_294K_-1000atm_ML
System init for write_data ...
Total wall time: 0:02:47
