
# Define the lattice
#
variable	    lattice_constant equal 6.36339
lattice		    diamond ${lattice_constant}
lattice		    diamond 6.36339
Lattice spacing in x,y,z = 6.3633900 6.3633900 6.3633900

# Define region
# multiples of lattice spacing
#
region 		    simbox block 0 9 0 8 0 8

# Create Atoms
#
create_box          1 simbox
Created orthogonal box = (0.0000000 0.0000000 0.0000000) to (57.270510 50.907120 50.907120)
  3 by 1 by 2 MPI processor grid
create_atoms        1 box
Created 4608 atoms
  create_atoms CPU = 0.001 seconds
mass                1 18.015

# Define potential
#
pair_style          sw
pair_coeff          * * /data/emrosky-sim/Freezing_Simulations/Melting/MLmW_fancy/ML_mW.sw mW
Reading sw potential file /data/emrosky-sim/Freezing_Simulations/Melting/MLmW_fancy/ML_mW.sw with DATE: 2019-02-27

# Add velocity/set timestep
#
velocity            all create ${TEMP} 120598 rot yes dist gaussian
velocity            all create 294 120598 rot yes dist gaussian
timestep            5.0

# Define output
#
compute	            1 all msd
thermo              100
thermo_style        custom step temp press vol etotal ke pe c_1[4]

# Neighbor lists
#
neigh_modify        delay 0 every 1 check yes

# Set fixes
#
fix                 1 all momentum 10 linear 1 1 1 rescale
fix                 2 all nve
fix                 3 all temp/csvr ${TEMP} ${TEMP} 500.0 928347
fix                 3 all temp/csvr 294 ${TEMP} 500.0 928347
fix                 3 all temp/csvr 294 294 500.0 928347
fix                 4 all press/berendsen iso ${PRES} ${PRES} 1000.0 modulus 20000
fix                 4 all press/berendsen iso -1000 ${PRES} 1000.0 modulus 20000
fix                 4 all press/berendsen iso -1000 -1000 1000.0 modulus 20000

# Run 0.5 ns equilibration
#
dump		    1 all custom 1000 eq.${NAME}.dump id type x y z vx vy vz
dump		    1 all custom 1000 eq.ice_294K_-1000atm_ML.dump id type x y z vx vy vz
run                 100000
Neighbor list info ...
  update every 1 steps, delay 0 steps, check yes
  max neighbors/atom: 2000, page size: 100000
  master list distance cutoff = 6.0032907
  ghost atom cutoff = 6.0032907
  binsize = 3.0016454, bins = 20 17 17
  1 neighbor lists, perpetual/occasional/extra = 1 0 0
  (1) pair sw, perpetual
      attributes: full, newton on
      pair build: full/bin/atomonly
      stencil: full/bin/3d
      bin: standard
Per MPI rank memory allocation (min/avg/max) = 4.779 | 4.779 | 4.779 Mbytes
Step Temp Press Volume TotEng KinEng PotEng c_1[4] 
       0          294   -618.79576    148418.52   -51859.802     4037.382   -55897.184            0 
     100    196.39283   -837.39908     148985.3   -50200.463    2696.9826   -52897.445  0.098473182 
     200    227.07101   -904.57234    149350.27   -49219.129    3118.2736   -52337.403   0.10882807 
     300    250.07205   -952.93375    149565.82   -48596.558    3434.1374   -52030.696     0.136968 
     400    265.01897   -967.08666    149714.29   -48184.322    3639.3973   -51823.719   0.14025199 
     500    280.16629   -943.87229    149817.64   -47894.175    3847.4094   -51741.584    0.1373067 
     600    287.16755   -953.29404    149901.85   -47617.382    3943.5548   -51560.936   0.15549551 
     700    290.84876   -1029.1156    149966.47   -47568.768    3994.1073   -51562.875   0.14285534 
     800    288.66234   -1035.4474    149978.11   -47471.706    3964.0821   -51435.788   0.15709089 
     900    296.25458   -1009.4274    149974.97   -47449.911    4068.3433   -51518.254   0.15921711 
    1000    288.60866   -995.75067       149952   -47497.535    3963.3449    -51460.88   0.14979675 
    1100     291.7652   -1002.5616    149979.99   -47440.954    4006.6924   -51447.646   0.14655476 
    1200    289.90576   -982.56666    149993.02   -47429.746    3981.1575   -51410.904   0.15695462 
    1300    289.68723   -1016.1579    149976.82   -47347.745    3978.1566   -51325.901   0.15631754 
    1400    291.54454   -1006.8127    149997.78   -47453.609    4003.6622   -51457.271   0.15200419 
    1500    290.64842   -1020.4113    149955.93   -47478.005    3991.3562   -51469.361    0.1508295 
    1600    297.73037   -977.03651    149961.18   -47418.243    4088.6096   -51506.853   0.15516616 
    1700    290.59764   -970.97891    149968.38   -47440.657    3990.6588   -51431.316   0.15159848 
    1800    296.83692   -968.58291    149954.48   -47433.266    4076.3403   -51509.606   0.15597006 
    1900    297.37308   -1023.1473     149977.3   -47341.093    4083.7031   -51424.796   0.15786205 
    2000    295.73871   -1029.0986    150024.84   -47288.654    4061.2591   -51349.913   0.15186516 
    2100    294.53662   -1054.1408     150004.5   -47452.947    4044.7513   -51497.698   0.15987167 
    2200     294.8019   -978.43739    150000.46   -47376.951    4048.3942   -51425.346   0.14331859 
    2300    296.49591    -1003.709    149981.03   -47311.174    4071.6573   -51382.831   0.16436641 
    2400    295.40911   -991.73046    150009.65   -47339.261    4056.7327   -51395.994   0.15464767 
    2500    299.08964   -986.46485    150014.73   -47390.862     4107.276   -51498.138   0.14401487 
    2600    292.39204    -1007.561    150003.79   -47426.284    4015.3006   -51441.584   0.15950766 
    2700    295.17571   -944.21707    150002.75   -47395.791    4053.5275   -51449.318   0.13902795 
    2800    299.78518   -980.18862    149983.19   -47294.532    4116.8276    -51411.36    0.1592853 
    2900    294.74744   -1002.1024     149982.6   -47313.837    4047.6463   -51361.484   0.16262615 
    3000    294.78432   -985.23669    149968.19   -47373.218    4048.1528   -51421.371   0.15897735 
    3100    298.15124   -979.48263    149981.11   -47347.358    4094.3893   -51441.747   0.15447064 
    3200    294.47188   -986.07463    149949.93   -47460.768    4043.8622    -51504.63   0.15273843 
    3300     293.6866   -973.80586    149924.66   -47530.538    4033.0782   -51563.617   0.13957112 
    3400    286.09266   -997.85501    149897.57   -47458.134    3928.7937   -51386.928   0.15694313 
    3500    288.56664   -1011.9971    149943.88   -47429.299    3962.7679   -51392.067    0.1560738 
    3600    289.69061   -1007.1467    149932.93   -47430.408    3978.2029   -51408.611   0.15460332 
    3700    292.18961   -967.30007    149963.59   -47388.488    4012.5207   -51401.008   0.15284021 
    3800    293.53445    -997.5445    149968.42   -47380.706    4030.9888   -51411.695   0.16048206 
    3900    294.12832   -1000.7109    149953.82   -47384.801    4039.1442   -51423.945   0.15728602 
    4000    294.04027   -958.52877    149944.19   -47433.183    4037.9351   -51471.118   0.14763886 
    4100    291.66292   -1028.6939    149944.28   -47452.571    4005.2878   -51457.859   0.16277101 
    4200    290.28847   -1023.6694    149956.26   -47406.167    3986.4131    -51392.58   0.14897435 
    4300     288.2741   -1018.9715    149917.28    -47541.82    3958.7505   -51500.571   0.16085157 
    4400    296.40342    -973.8569    149944.91   -47429.917    4070.3872   -51500.304   0.14617147 
    4500    285.70016   -1011.2098    149916.27   -47483.866    3923.4038    -51407.27   0.16029525 
    4600    293.54329   -996.86609    149927.03    -47517.06    4031.1102   -51548.171    0.1487053 
    4700    295.00712   -971.80831     149936.7   -47421.845    4051.2123   -51473.058   0.14667441 
    4800    299.79589   -970.21142    149946.03   -47315.922    4116.9747   -51432.896   0.15206966 
    4900    298.48625   -983.51678    149964.97   -47284.896    4098.9898   -51383.886   0.15842313 
    5000    295.48626   -1005.1306    149952.52   -47415.548    4057.7922   -51473.341   0.15745142 
    5100    295.51273   -1015.0452    149932.44   -47342.747    4058.1557   -51400.903    0.1551681 
    5200    292.54524    -998.4803    149942.08   -47415.216    4017.4044    -51432.62   0.16293397 
    5300     293.4644   -972.81068    149906.02   -47520.189    4030.0268   -51550.216   0.14617481 
    5400    289.35961   -992.78455    149870.33    -47482.95    3973.6575   -51456.607   0.15490537 
    5500    295.77406    -997.6542    149898.47   -47450.733    4061.7444   -51512.477    0.1568252 
    5600    294.26303   -997.64616     149895.2    -47493.59    4040.9941   -51534.584   0.15037669 
    5700    293.69658   -995.80384    149919.73   -47478.178    4033.2152   -51511.393   0.15042847 
    5800    301.99619   -954.22058    149936.34    -47421.04    4147.1905   -51568.231    0.1525533 
    5900    288.49365   -1002.4018    149917.41   -47494.746    3961.7656   -51456.511   0.15124052 
    6000     294.8876    -961.3209    149896.62   -47476.607     4049.571   -51526.178   0.15018929 
    6100    290.58761   -982.19354    149892.07   -47555.313     3990.521   -51545.834   0.15275698 
    6200    293.97047   -1010.7994    149881.27   -47531.235    4036.9764   -51568.211   0.15412594 
    6300    291.02479   -1011.8856    149931.72   -47411.152    3996.5246   -51407.677   0.16261139 
    6400    294.18093   -998.53564    149924.38   -47464.985    4039.8667   -51504.851   0.15253229 
    6500    292.91906   -990.88395    149918.61   -47485.048    4022.5379   -51507.586   0.15327183 
    6600    289.07705   -953.11717    149905.03   -47486.476    3969.7771   -51456.253   0.14881163 
    6700    288.04323   -979.13031    149919.28   -47540.366    3955.5801   -51495.946   0.15540351 
    6800    289.00387    -963.8712    149900.43   -47492.808    3968.7722   -51461.581   0.14990008 
    6900    289.28375   -1039.9422    149942.27    -47421.12    3972.6157   -51393.735   0.15474158 
    7000    293.87442   -994.16875    149960.33   -47420.023    4035.6575    -51455.68   0.15891995 
    7100    293.37062   -1001.0417    149948.72   -47423.892     4028.739   -51452.631   0.14482107 
    7200    290.42595   -1002.6088    149926.39     -47543.7    3988.3011   -51532.001   0.16192327 
    7300    291.08431   -990.54548    149914.85   -47598.375    3997.3421   -51595.717   0.13998708 
    7400    292.86228   -981.98998    149959.62   -47477.744    4021.7581   -51499.502   0.14959241 
    7500    297.16702   -980.97572     149951.2   -47408.655    4080.8734   -51489.528   0.15162432 
    7600    292.83174   -1047.5746    149967.67   -47385.616    4021.3388   -51406.955   0.15366457 
    7700    293.37233   -1002.4355    149945.83     -47485.1    4028.7624   -51513.862   0.15425221 
    7800    288.19783   -1035.3797    149930.35   -47544.706    3957.7032   -51502.409   0.16184996 
    7900     291.8269    -1000.691    149934.48   -47481.911    4007.5397    -51489.45   0.14806017 
    8000    294.55783   -1016.9173    149960.81    -47383.45    4045.0425   -51428.492   0.15364033 
    8100    299.50469   -1004.3664    149980.76   -47347.737    4112.9756   -51460.713   0.15502572 
    8200    298.51182   -966.04211    149975.38   -47370.432     4099.341   -51469.773   0.14973558 
    8300    293.41471   -1006.4516    149963.73   -47328.202    4029.3445   -51357.546   0.16487408 
    8400    300.56488   -1005.3525    149982.87   -47309.385    4127.5349    -51436.92   0.15566127 
    8500    294.35413   -996.78553    149959.56   -47396.984    4042.2452   -51439.229   0.16263157 
    8600    293.13037   -995.44226    149974.36    -47408.04    4025.4398    -51433.48   0.14655076 
    8700    292.60221   -1006.5588    149960.43    -47377.79    4018.1868   -51395.977     0.166993 
    8800    291.65352   -986.37867    149979.75   -47420.884    4005.1588   -51426.043   0.14791318 
    8900    293.67859   -1041.9966    149921.61   -47488.424    4032.9682   -51521.393   0.15799276 
    9000    295.53804   -991.37822    149935.08   -47407.043    4058.5033   -51465.547    0.1573449 
    9100    297.03243   -951.70823    149942.43   -47461.684    4079.0252   -51540.709   0.14553285 
    9200    296.18615    -988.7846    149966.68   -47350.147    4067.4036   -51417.551     0.168762 
    9300    294.71992   -979.76085    149942.52   -47509.803    4047.2683   -51557.071   0.14173039 
    9400    292.65486   -1032.9803    149930.71   -47470.946    4018.9098   -51489.856   0.15887008 
    9500    286.58733   -1018.2178    149941.89   -47516.354    3935.5869   -51451.941   0.15871349 
    9600    290.74824   -992.70701    149922.09   -47510.759    3992.7269   -51503.486   0.14823615 
    9700    297.43317   -1011.4618    149945.02   -47381.217    4084.5284   -51465.746   0.15704224 
    9800    302.12931   -1004.3666    149969.61   -47336.758    4149.0185   -51485.777    0.1632046 
    9900    295.23574   -1012.2548    149979.97   -47366.876    4054.3519   -51421.228   0.15407653 
   10000    299.21347   -977.99275    149992.68   -47422.923    4108.9764   -51531.899   0.15035762 
   10100    298.13457   -1001.5682    149994.54   -47367.983    4094.1604   -51462.143   0.15632432 
   10200    299.35529   -1013.9947    150001.86   -47340.113     4110.924   -51451.037    0.1562335 
   10300    295.04255   -1026.0896    150002.33   -47332.958     4051.699   -51384.657   0.16121155 
   10400    300.53714   -999.53083    149989.93   -47336.271    4127.1538   -51463.425   0.15541149 
   10500    293.79723   -1020.1243    149960.93    -47386.61    4034.5974   -51421.207   0.15791266 
   10600    294.69491   -1004.4413    149959.99   -47410.695    4046.9249    -51457.62   0.14975623 
   10700    291.65855   -990.12544    149962.68   -47424.534    4005.2279   -51429.762   0.15736831 
   10800    290.94513   -987.66647    149955.03   -47557.395    3995.4307   -51552.826   0.14765656 
   10900    287.24676   -1015.1168     149932.2   -47549.835    3944.6425   -51494.478   0.15925464 
   11000    288.81505   -1053.9692    149938.37   -47559.321    3966.1792     -51525.5   0.15912492 
   11100     291.7633   -1031.8442    149963.59   -47468.563    4006.6663    -51475.23   0.15289731 
   11200    291.62479   -1022.8236    149936.39   -47581.809    4004.7643   -51586.574   0.15839074 
   11300    287.43105   -976.19867    149913.22   -47486.802    3947.1733   -51433.976   0.14819554 
   11400    291.82729   -1000.6336    149936.36   -47463.683    4007.5451   -51471.228    0.1577095 
   11500    300.25524   -993.16829    149975.95    -47367.26    4123.2827   -51490.543   0.14978906 
   11600    298.68452   -1010.1787     149970.2   -47365.836    4101.7126   -51467.549   0.15677524 
   11700    303.52869   -963.79273    149991.67   -47226.487    4168.2356   -51394.722   0.15569977 
   11800     298.2466   -1009.6805     149986.8   -47307.861    4095.6988    -51403.56   0.16586849 
   11900    298.44835   -983.19753    149956.49   -47353.449    4098.4694   -51451.919   0.15049088 
   12000    298.74874    -986.0272    149933.85   -47316.207    4102.5945   -51418.802   0.15781556 
   12100    295.62623   -972.71905    149917.71   -47377.446    4059.7144    -51437.16   0.15758963 
   12200    293.39557   -1022.7937    149905.64   -47378.387    4029.0816   -51407.468    0.1529764 
   12300    293.51634   -973.98599    149897.77   -47433.424    4030.7401   -51464.164   0.16156773 
   12400    289.10859   -1052.2616    149911.86   -47433.625    3970.2103   -51403.835   0.15694686 
   12500    295.86474   -1013.5377    149915.39   -47359.477    4062.9897   -51422.467   0.16275602 
   12600    302.81199   -935.27931    149959.76   -47325.867    4158.3935    -51484.26   0.14630061 
   12700    298.18585   -990.61602    149959.74   -47404.303    4094.8646   -51499.167   0.15538534 
   12800     293.5785   -1027.7396    149938.18   -47386.251    4031.5938   -51417.845   0.15371917 
   12900    289.95505   -1014.0739    149928.45    -47448.52    3981.8344   -51430.354    0.1574233 
   13000    294.46108   -967.95157    149927.56   -47416.552    4043.7138   -51460.266   0.14992087 
   13100    287.49234   -1030.7752    149887.34   -47494.928     3948.015   -51442.943   0.15822749 
   13200    288.36486   -1009.7697    149876.66   -47522.977    3959.9969   -51482.974   0.15336769 
   13300    287.66332   -1010.6615    149878.21   -47608.478    3950.3629   -51558.841   0.15230684 
   13400    286.65027   -993.82139    149854.04   -47590.688    3936.4511   -51527.139   0.15258534 
   13500    290.59939   -1009.2277    149884.15   -47498.991    3990.6829   -51489.674   0.15574408 
   13600    292.10909   -975.85778     149862.9   -47445.547    4011.4149   -51456.962   0.15816815 
   13700     292.3836   -960.81353    149899.29   -47480.588    4015.1847   -51495.773   0.14462666 
   13800    297.14305   -994.00887    149916.31   -47428.902    4080.5442   -51509.446   0.16082174 
   13900    294.82158   -979.84851    149910.04   -47422.102    4048.6645   -51470.767   0.14881992 
   14000    291.86514   -1029.0112    149952.19   -47307.621    4008.0648   -51315.686   0.16151226 
   14100    293.28741   -979.47358     149933.3   -47402.081    4027.5963   -51429.678   0.16003584 
   14200    291.89534   -990.17046    149905.37   -47404.537    4008.4795   -51413.017   0.14816679 
   14300    297.55628   -987.16855    149916.98   -47445.822     4086.219   -51532.041    0.1569153 
   14400    291.05998   -983.92995    149910.58   -47502.045     3997.008   -51499.053   0.15235436 
   14500    287.49667   -1004.2219    149885.76   -47517.365    3948.0744   -51465.439   0.15347409 
   14600    297.49813   -987.81014    149913.93   -47468.054    4085.4204   -51553.475   0.15166503 
   14700    296.57719   -980.69752    149922.07   -47418.197    4072.7735    -51490.97   0.15241383 
   14800    293.95464   -1007.7487    149937.51   -47392.409    4036.7591   -51429.169   0.15457759 
   14900     294.9105    -994.0377    149941.22   -47408.135    4049.8856    -51458.02   0.15759834 
   15000    294.36722   -995.77962    149913.57    -47467.76    4042.4249   -51510.185   0.15339766 
   15100    290.60183   -1003.2656    149923.25   -47486.431    3990.7164   -51477.148   0.15264745 
   15200    294.62611   -993.13874    149936.93   -47414.444    4045.9802   -51460.424   0.15550615 
   15300    290.52125   -1009.1979    149915.03   -47500.914    3989.6097   -51490.524    0.1549988 
   15400    289.57873    -992.4243    149923.14   -47496.293    3976.6666   -51472.959   0.15490866 
   15500    293.38596   -1012.5293    149928.16   -47426.634    4028.9497   -51455.584   0.15228289 
   15600     296.3328   -1009.4311    149950.18   -47304.216    4069.4175   -51373.633   0.16710546 
   15700      300.253   -1005.0871    149980.17   -47323.975     4123.252   -51447.227   0.14428002 
   15800     294.1815   -1016.2376    149967.35   -47321.402    4039.8745   -51361.277   0.17102124 
   15900    297.64711   -985.73644    149976.74   -47345.496    4087.4663   -51432.962   0.14858722 
   16000    295.54175   -1012.9933       149979   -47394.069    4058.5542   -51452.623   0.15399834 
   16100     293.2077   -976.62165    149926.61   -47423.684    4026.5017   -51450.186   0.15982817 
   16200    296.43572   -981.48894    149961.73   -47439.087    4070.8307   -51509.917   0.14546591 
   16300    293.22536   -1019.7366    149928.32   -47456.344    4026.7442   -51483.088   0.15886422 
   16400    290.43335   -1028.7412    149952.44   -47470.431    3988.4027   -51458.834   0.15613694 
   16500    292.92943   -1003.8468     149949.2   -47388.043    4022.6803   -51410.723    0.1556577 
   16600    301.38102   -988.01709    149964.59   -47310.708    4138.7426    -51449.45   0.15793194 
   16700    297.28867   -994.78224    149950.17   -47350.998     4082.544   -51433.542   0.16278408 
   16800    294.71554   -1022.3526    149960.28   -47408.929    4047.2083   -51456.138   0.14652503 
   16900    287.29632    -1032.235    149950.07   -47432.459    3945.3231   -51377.782   0.16896432 
   17000     296.9725    -972.2755    149944.87    -47482.81    4078.2022   -51561.012   0.14408275 
   17100    293.09429   -1032.8819    149930.71   -47428.181    4024.9442   -51453.125   0.16341345 
   17200    290.11423   -1033.9151    149947.71   -47500.595    3984.0203   -51484.615   0.15491676 
   17300    290.74525   -1006.0965    149928.97   -47591.097    3992.6859   -51583.782   0.14792228 
   17400    286.12459   -998.45339    149904.94   -47578.051    3929.2322   -51507.283   0.15267762 
   17500    292.05698   -986.03779    149941.68   -47472.434    4010.6993   -51483.133    0.1505784 
   17600    291.29273   -1032.6873    149928.14   -47481.775    4000.2041   -51481.979    0.1600067 
   17700    289.27896   -1011.8347    149941.31   -47546.538    3972.5498   -51519.088   0.14864515 
   17800    292.90473   -970.15126    149934.31   -47493.117    4022.3411   -51515.459    0.1570384 
   17900    292.66524   -979.03931    149970.87   -47439.637    4019.0523    -51458.69   0.14806437 
   18000    295.92704   -956.57153    149982.45   -47347.028    4063.8453   -51410.873   0.15327766 
   18100     295.1822   -1016.1285    149977.65   -47350.945    4053.6166   -51404.561   0.16308444 
   18200     292.4757   -1006.7643    149953.27   -47400.809    4016.4494   -51417.258   0.15247317 
   18300    294.32878   -1012.0458    149968.82   -47403.452    4041.8971   -51445.349   0.15883966 
   18400    293.99043   -1010.1901    149961.69   -47505.076    4037.2506   -51542.326   0.15710799 
   18500    295.06177   -1013.7384    149981.79   -47441.211    4051.9629   -51493.174   0.15480514 
   18600    294.60725   -1004.4919    149985.45   -47392.264    4045.7212   -51437.985   0.15595747 
   18700     298.8115   -976.79746    149989.02   -47409.962    4103.4564   -51513.418    0.1542572 
   18800    293.89836   -1019.0084    149981.29   -47428.807    4035.9862   -51464.794   0.15159756 
   18900    292.76851   -1000.3362    149969.26   -47385.099    4020.4705    -51405.57   0.16427162 
   19000     292.3056   -1033.8706     149986.3   -47421.257    4014.1135   -51435.371   0.15636608 
   19100    296.01772   -1029.2382    149969.27   -47331.783    4065.0906   -51396.874   0.15996285 
   19200    296.13208   -968.70462       149975   -47359.788    4066.6609   -51426.449   0.15899245 
   19300    297.53761   -1008.9907    149997.43   -47249.131    4085.9625   -51335.094   0.15559097 
   19400    296.88174   -1002.9559    149979.56   -47314.042    4076.9558   -51390.998   0.16265357 
   19500     292.8947   -998.04596    149972.18   -47313.273    4022.2034   -51335.476   0.16027627 
   19600    295.17467   -1018.6029    149973.36   -47302.908    4053.5133   -51356.422    0.1655268 
   19700    294.05679   -968.54297    149993.09   -47356.576    4038.1619   -51394.738   0.14972287 
   19800    295.28978   -1008.9496    149990.31   -47307.297    4055.0941   -51362.391   0.17143381 
   19900     299.9622   -1012.3897    149991.25   -47398.905    4119.2585   -51518.164    0.1526669 
   20000    295.04872   -1007.5267     149956.6   -47423.618    4051.7837   -51475.402   0.15817373 
   20100    290.15186   -1015.8122    149935.16   -47466.728    3984.5371   -51451.265   0.15439694 
   20200    294.18517   -1005.1566    149919.58   -47441.626    4039.9249   -51481.551   0.15720764 
   20300    294.72408   -1015.8737    149931.65   -47399.298    4047.3255   -51446.623   0.15868651 
   20400    294.37951   -1001.8718    149954.83   -47468.598    4042.5936   -51511.191    0.1591508 
   20500      291.335   -1028.5261    149938.73   -47505.941    4000.7846   -51506.725    0.1557776 
   20600    293.71911   -1005.4833    149950.33   -47528.864    4033.5246   -51562.389   0.14831171 
   20700    293.18525   -1004.2009       149950   -47467.645    4026.1934   -51493.839   0.16326118 
   20800    295.77382   -1005.5952    149973.25   -47328.248    4061.7412   -51389.989   0.15036253 
   20900    296.63774   -1006.5634    149967.89   -47436.954     4073.605   -51510.559   0.16783145 
   21000    296.98485   -1013.9783    149959.86   -47453.033    4078.3718   -51531.405   0.15246657 
   21100    300.87684   -1017.6803    149994.54   -47330.015    4131.8189   -51461.834   0.15773948 
   21200    296.06031   -1022.8581    149995.67   -47348.582    4065.6755   -51414.257   0.16094265 
   21300    293.44278   -1025.3935    149988.76   -47340.541    4029.7299   -51370.271   0.16072274 
   21400    297.08519   -986.41454    149982.16   -47380.598    4079.7497   -51460.348   0.15413667 
   21500    298.32964     -974.265    150008.53   -47286.308    4096.8393   -51383.147   0.16251913 
   21600    299.12322    -997.3575    149994.53   -47288.384     4107.737   -51396.121   0.15696559 
   21700    290.77537   -987.94309    149955.09    -47424.58    3993.0994   -51417.679   0.16198555 
   21800     291.7175   -1023.5512    149941.12   -47456.428    4006.0374   -51462.465   0.16256833 
   21900    295.60137   -1015.6039    149950.22   -47433.066     4059.373   -51492.439   0.15487408 
   22000    291.58878   -994.08637    149941.23   -47462.234    4004.2698   -51466.503   0.15631144 
   22100    293.92837   -995.67217    149934.41   -47509.584    4036.3984   -51545.982   0.15154468 
   22200    289.57208    -1015.884    149892.93   -47591.585    3976.5752    -51568.16   0.15884614 
   22300    289.67624   -1011.8172     149911.6   -47480.252    3978.0056   -51458.258    0.1544124 
   22400    292.29063   -988.54089    149919.97   -47425.008    4013.9079   -51438.915   0.16116967 
   22500    295.09452    -1026.202    149935.72   -47372.992    4052.4126   -51425.404   0.15777079 
   22600    298.12038   -952.30517    149937.79   -47410.771    4093.9656   -51504.736   0.15026964 
   22700    294.44415   -1020.0089    149905.14   -47469.693    4043.4813   -51513.174   0.16117503 
   22800    293.76655   -1018.4656     149944.2   -47397.558    4034.1761   -51431.734   0.15155252 
   22900    295.62345    -973.1061    149929.55   -47435.968    4059.6762   -51495.644   0.15874018 
   23000    291.25723   -1002.6784     149914.7    -47504.43    3999.7167   -51504.146   0.15431882 
   23100    291.29518   -1014.2733    149943.22   -47451.123    4000.2379   -51451.361   0.15670955 
   23200    296.84889    -967.5043    149953.22   -47384.589    4076.5047   -51461.093   0.15877713 
   23300    296.60053   -1016.7774    149970.69   -47387.286     4073.094    -51460.38   0.15486819 
   23400    289.50931   -1021.4768    149942.65   -47431.848    3975.7132   -51407.561   0.15556327 
   23500    292.85737   -1012.6323    149975.81   -47325.933    4021.6908   -51347.624   0.16419408 
   23600    302.68155   -971.81071       150008   -47344.493    4156.6022   -51501.095   0.15167131 
   23700     293.0285    -981.1887    149983.13   -47336.025    4024.0408   -51360.066   0.15503473 
   23800    293.95894   -1044.7889    149995.98   -47349.747    4036.8181   -51386.565   0.16582464 
   23900    298.92318   -1015.5173    149964.41   -47435.486    4104.9901   -51540.476   0.14841555 
   24000    297.26927   -955.00874    149976.54   -47382.063    4082.2775    -51464.34   0.15894843 
   24100    296.74079   -978.40896    149984.16    -47303.22    4075.0202    -51378.24    0.1523339 
   24200    295.22368   -1024.8342     149964.6   -47438.069    4054.1863   -51492.255   0.16075903 
   24300    292.25831   -998.25266    149943.22   -47474.638    4013.4641   -51488.102   0.14783788 
   24400      291.863   -999.96285    149929.02   -47507.006    4008.0354   -51515.041   0.15663895 
   24500    298.05152   -982.32186     149927.1   -47456.558    4093.0199   -51549.578   0.14944321 
   24600    286.68386   -988.64541    149925.13   -47501.058    3936.9124    -51437.97   0.14996237 
   24700    293.83022   -985.50126    149917.68   -47505.366    4035.0505   -51540.417    0.1541848 
   24800    295.16544   -956.67267    149936.29   -47445.937    4053.3865   -51499.324   0.14806323 
   24900    294.90951   -989.11203    149917.11   -47508.382    4049.8719   -51558.254   0.15880456 
   25000     289.5664   -999.47379    149947.09   -47495.352    3976.4971   -51471.849    0.1537931 
   25100    288.81607   -1025.7815    149919.11   -47543.822    3966.1933   -51510.016    0.1546504 
   25200    285.53762    -1038.076    149907.89     -47685.7    3921.1717   -51606.872   0.14632519 
   25300    292.94003   -1012.1875    149896.16   -47513.323    4022.8259   -51536.149   0.15941567 
   25400    292.50978   -1025.6276    149935.95   -47554.368    4016.9174   -51571.285   0.14358798 
   25500     294.8911   -1000.3138    149959.16   -47439.314    4049.6191   -51488.933   0.16038567 
   25600    295.32614   -992.24611    149968.69   -47355.417    4055.5934    -51411.01    0.1489713 
   25700    293.05035   -998.19786    149962.13   -47451.785    4024.3409   -51476.126   0.15522645 
   25800    298.93813   -973.18936    149988.22    -47305.53    4105.1953   -51410.725   0.15862856 
   25900    298.16759   -1030.2915    150006.55   -47335.418    4094.6138   -51430.032   0.15647025 
   26000    297.93469   -995.09318    149998.81   -47381.768    4091.4155   -51473.183   0.16003142 
   26100     297.1238   -993.89063    149989.61    -47368.27    4080.2799    -51448.55   0.15324938 
   26200    291.70809   -1020.2465    149973.79   -47476.727    4005.9082   -51482.635   0.15657643 
   26300    295.16375   -978.49066    149933.98   -47434.139    4053.3634   -51487.503   0.15301986 
   26400    288.25049   -967.15802    149919.85    -47491.13    3958.4264   -51449.556   0.15671257 
   26500    293.01109   -1010.2747    149946.43   -47398.661    4023.8017   -51422.463   0.15668681 
   26600    296.98467   -1015.4975    149941.85   -47347.314    4078.3693   -51425.683   0.15713055 
   26700    297.47191   -994.19842    149964.92   -47345.784    4085.0603   -51430.845   0.16170654 
   26800    293.28964   -1020.9613    149952.64   -47400.449     4027.627   -51428.076   0.15829023 
   26900    298.00094   -1004.8874     149948.8   -47334.188    4092.3252   -51426.513   0.15840359 
   27000     290.7868   -990.02987    149939.38   -47365.248    3993.2565   -51358.504   0.16212256 
   27100    297.42242   -964.69778    149974.83   -47311.571    4084.3808   -51395.951   0.15746792 
   27200    296.69197   -1021.8578     149943.3   -47378.126    4074.3497   -51452.476   0.15645391 
   27300    301.24103   -979.09922    149950.46   -47208.618    4136.8202   -51345.438   0.17079944 
   27400    291.68044   -1001.3846    149972.67    -47335.56    4005.5285   -51341.088   0.15615126 
   27500    288.51323   -1012.7347    149953.21   -47452.326    3962.0345    -51414.36   0.16194229 
   27600    288.87421   -995.03241    149911.55   -47497.586    3966.9916   -51464.578   0.15503306 
   27700    297.36823   -1016.6013    149935.96   -47397.407    4083.6365   -51481.044   0.15275554 
   27800    293.35568   -954.28243    149952.61   -47368.827    4028.5339   -51397.361   0.16500557 
   27900    290.75697   -1014.7008     149939.6   -47434.035    3992.8468   -51426.882   0.15318688 
   28000    294.10424   -993.73696    149915.37   -47505.843    4038.8135   -51544.657   0.15906509 
   28100    295.63093   -991.06518    149948.81   -47487.575    4059.7789   -51547.354   0.15226467 
   28200     295.5836   -1005.0033    149932.92   -47453.442     4059.129   -51512.571   0.16122199 
   28300     292.3929   -1010.6063    149919.89   -47472.944    4015.3124   -51488.256   0.15167094 
   28400    294.33734   -993.11684    149927.25   -47405.492    4042.0146   -51447.507   0.16473077 
   28500     295.3324   -979.82917    149926.57   -47431.018    4055.6793   -51486.697   0.15329006 
   28600    295.73095   -1009.4947     149934.5    -47440.47    4061.1525   -51501.622   0.15987364 
   28700    297.92356   -977.13991    149931.29   -47433.818    4091.2627    -51525.08   0.15341761 
   28800    293.15821   -1016.7807    149925.58   -47484.158    4025.8221    -51509.98   0.15862675 
   28900    295.56384   -999.51994    149921.45   -47446.105    4058.8575   -51504.963    0.1581501 
   29000    295.70519    -990.7545    149940.55   -47395.305    4060.7988   -51456.104   0.15494735 
   29100    297.43175   -981.80573    149941.66   -47390.161    4084.5089    -51474.67   0.16339048 
   29200    298.92184   -1001.9766     149946.9   -47321.247    4104.9716   -51426.218   0.15665431 
   29300    295.29396   -1011.4396    149959.32   -47324.332    4055.1515   -51379.483   0.17101303 
   29400    298.46984   -968.31515    149963.72    -47340.41    4098.7645   -51439.174   0.15103822 
   29500     299.7415   -1002.0497    149922.79   -47382.743    4116.2276    -51498.97   0.16855066 
   29600    295.43573    -992.7109    149918.82   -47343.124    4057.0983   -51400.222   0.16184842 
   29700     296.3365   -984.29949     149914.3   -47420.473    4069.4682   -51489.942   0.16007162 
   29800    293.93504   -965.05915    149867.47   -47513.881      4036.49   -51550.371   0.16007436 
   29900    293.58466    -1028.502    149868.66   -47492.309    4031.6783   -51523.987   0.16308226 
   30000    292.54973   -1010.1455    149875.99   -47455.052     4017.466   -51472.518   0.16103733 
   30100    296.38866   -989.11002    149907.07   -47426.331    4070.1845   -51496.515   0.15835557 
   30200    297.86771   -987.35815    149912.11   -47444.118    4090.4957   -51534.614   0.15928339 
   30300    295.13312   -944.56117     149928.1   -47430.896    4052.9427   -51483.839     0.153887 
   30400    291.37447    -1032.435    149910.42   -47467.087    4001.3266   -51468.414   0.16889053 
   30500    287.92963   -1015.2997    149895.61   -47571.513    3954.0201   -51525.533   0.15340516 
   30600    289.76554   -975.22724    149912.86   -47447.457    3979.2319   -51426.689   0.16446864 
   30700    290.65928   -1008.6174    149932.63   -47479.287    3991.5053   -51470.792   0.16231522 
   30800    294.86188   -963.63536    149928.12   -47410.227    4049.2179   -51459.445    0.1569641 
   30900    290.25848    -965.5473    149898.23   -47384.253    3986.0013   -51370.254   0.16877193 
   31000    289.47563   -1010.0602    149929.75    -47422.14    3975.2507   -51397.391   0.15658419 
   31100    295.58389    -965.7585    149920.04   -47433.192    4059.1329   -51492.325   0.16278317 
   31200    293.11779   -984.10776    149944.56     -47377.8    4025.2669   -51403.067    0.1580703 
   31300    300.53309   -985.75633    149958.53    -47313.32    4127.0983   -51440.418   0.16252692 
   31400    294.38918   -1027.5124    149948.26   -47437.127    4042.7264   -51479.854   0.16144676 
   31500    296.65689   -994.44155    149964.36   -47382.098     4073.868   -51455.966   0.15966087 
   31600    295.15178   -1025.1939    149962.95   -47409.368    4053.1989   -51462.567   0.16348361 
   31700      294.222   -976.13471       149957   -47374.034    4040.4307   -51414.464   0.15895366 
   31800    296.27354   -994.14678    149965.82   -47441.285    4068.6036   -51509.888   0.16161753 
   31900    292.37523   -1022.5139    149953.78    -47434.52    4015.0697    -51449.59   0.16214218 
   32000    292.60156   -986.83523    149943.09   -47379.381    4018.1778   -51397.559   0.16351876 
   32100    291.86576   -1012.2759     149984.4   -47425.467    4008.0734    -51433.54   0.15900221 
   32200    291.21791    -1012.079    149925.15   -47546.196    3999.1767   -51545.373   0.16136312 
   32300    294.23951   -995.01616    149931.16   -47486.905    4040.6711   -51527.576   0.15216428 
   32400    289.82102   -1020.7893    149916.49   -47581.544    3979.9937   -51561.538   0.16803916 
   32500    296.03254   -986.89814    149916.06    -47434.66    4065.2941   -51499.954   0.14862616 
   32600    297.58311   -993.54928    149956.21   -47391.971    4086.5874   -51478.558   0.16733876 
   32700    295.11257    -982.3931    149937.88   -47480.898    4052.6605   -51533.558   0.15235839 
   32800    295.34567   -994.62646    149924.44   -47352.081    4055.8615   -51407.943    0.1634585 
   32900    296.14106   -986.21566    149911.43   -47421.964    4066.7843   -51488.749   0.16128266 
   33000    293.25635   -971.80283    149919.96   -47413.636    4027.1698   -51440.805   0.15641027 
   33100    289.24921   -995.99018    149909.45   -47440.365    3972.1414   -51412.507   0.16831302 
   33200    294.65084   -990.67838    149919.14   -47419.509    4046.3198   -51465.828   0.15467094 
   33300     296.5913   -1020.4281    149910.67   -47419.427    4072.9673   -51492.394   0.16962387 
   33400    297.49031   -969.55811    149914.26   -47439.636     4085.313   -51524.949   0.15120472 
   33500    294.30962   -1006.9986    149919.29   -47464.238    4041.6338   -51505.872   0.16208243 
   33600     289.9034   -990.19563    149916.85   -47480.158     3981.125   -51461.283   0.15849832 
   33700    292.09815   -999.80024    149935.19    -47370.94    4011.2647   -51382.204   0.16537009 
   33800     296.7048   -966.96557    149955.09   -47261.355    4074.5259   -51335.881   0.16299816 
   33900    297.83077   -1013.3477    149964.98   -47291.584    4089.9884   -51381.573   0.16707153 
   34000    294.78993   -1012.8768    149937.96   -47437.226    4048.2298   -51485.455   0.15585454 
   34100    296.98475   -1020.0353     149933.8   -47462.121    4078.3703   -51540.491   0.16314901 
   34200    290.80603    -975.3992    149923.76   -47455.187    3993.5206   -51448.708   0.15736123 
   34300    290.05105     -985.243     149934.8   -47490.791    3983.1527   -51473.943   0.15660312 
   34400    297.97477    -986.2274    149944.98   -47417.573    4091.9659   -51509.539   0.16267406 
   34500    293.94711   -996.74661    149968.95   -47339.601    4036.6557   -51376.257   0.15747749 
   34600    301.30599   -1009.7134    149975.52   -47339.666    4137.7122   -51477.378   0.16495961 
   34700    297.01676   -983.92359    149957.53   -47461.453    4078.8099   -51540.263   0.15459194 
   34800    289.59711   -1000.8945     149917.9   -47446.626    3976.9189   -51423.545   0.16306321 
   34900    291.06633   -1013.2297    149930.43   -47426.758    3997.0951   -51423.853   0.15934416 
   35000    295.45489    -997.9154    149924.99   -47405.696    4057.3614   -51463.057   0.16242331 
   35100    292.71749    -995.9575    149938.86   -47423.272    4019.7699   -51443.042   0.16233888 
   35200    296.06528   -1040.1255    149945.42   -47360.161    4065.7437   -51425.904   0.15819028 
   35300    294.60911   -1013.0047     149955.6   -47443.281    4045.7466   -51489.027   0.16627377 
   35400     292.8376   -998.99165    149979.32   -47449.873    4021.4193   -51471.292   0.15145599 
   35500    297.56257   -1010.0131    149972.67   -47434.014    4086.3053   -51520.319   0.16227478 
   35600    296.21541   -963.45521    149964.08   -47401.982    4067.8054   -51469.787    0.1554806 
   35700    297.73154   -1011.7911    149979.65   -47420.401    4088.6258   -51509.027   0.15410066 
   35800    299.94936   -993.05107    150003.42   -47247.975    4119.0821   -51367.057   0.16455136 
   35900    293.83883    -999.6908    150008.54   -47372.524    4035.1688   -51407.693   0.15653721 
   36000    296.72579   -975.27399    149973.17   -47422.437    4074.8141   -51497.251   0.15558323 
   36100    290.50053   -983.20856    149954.49   -47468.439    3989.3252   -51457.764   0.15793972 
   36200    287.33419   -1022.8678    149944.77   -47500.746    3945.8432   -51446.589   0.16191998 
   36300    290.74719   -1003.0007    149977.39   -47434.363    3992.7124   -51427.076   0.15415359 
   36400      290.531   -996.57095    149967.92   -47490.484    3989.7436   -51480.228   0.16562235 
   36500    290.99298   -1022.9973    149958.05   -47459.824    3996.0878   -51455.912   0.15144733 
   36600    288.62522   -1022.3889    149971.14   -47466.514    3963.5724   -51430.086   0.16089265 
   36700    296.09372   -967.03948    149961.37   -47500.688    4066.1343   -51566.822   0.15002882 
   36800    289.70436   -1043.3404    149926.89    -47578.86    3978.3918   -51557.251   0.15725747 
   36900    292.58552   -988.30763    149954.61   -47493.332    4017.9575    -51511.29   0.15069516 
   37000    288.91467   -996.37275     149936.4   -47478.008    3967.5472   -51445.555   0.15863633 
   37100    290.44644   -979.51062    149966.05   -47522.227    3988.5824   -51510.809   0.14981653 
   37200    289.45324   -1017.5738    149940.49   -47529.721    3974.9433   -51504.665   0.15618852 
   37300    289.38036   -1000.0862    149931.65   -47522.017    3973.9424    -51495.96   0.15934057 
   37400    292.17142   -991.83354    149927.01   -47535.318    4012.2709   -51547.589   0.14440133 
   37500     292.4981    -996.5685     149921.4   -47506.211    4016.7571   -51522.968    0.1620427 
   37600    294.11784   -1028.1302     149929.1   -47560.135    4039.0002   -51599.135   0.14680158 
   37700    287.24895   -1027.8332    149891.65   -47635.807    3944.6726   -51580.479   0.15684766 
   37800    283.78189   -1010.3665    149886.69   -47654.018    3897.0609   -51551.079   0.15152558 
   37900    290.02752    -982.8418    149928.24   -47556.586    3982.8296   -51539.416    0.1534173 
   38000    291.74515   -1017.4756    149974.73   -47492.983    4006.4171     -51499.4    0.1507931 
   38100    298.40279   -972.95433    149981.77   -47432.084    4097.8438   -51529.927   0.15272336 
   38200     296.3715   -1006.2409       149971   -47396.129    4069.9488   -51466.078   0.15813032 
   38300     295.5048   -1033.1158    149966.24    -47452.05    4058.0469   -51510.097   0.15486975 
   38400    298.50738   -1006.3557    149983.34   -47383.365    4099.2801   -51482.645   0.16045034 
   38500     292.5612   -997.51475    149955.12   -47442.386    4017.6235    -51460.01   0.15345397 
   38600    294.03152   -1030.4968    149955.41   -47398.577    4037.8149   -51436.392   0.15946965 
   38700    295.92885   -998.02551    149971.46     -47365.5    4063.8701    -51429.37   0.16322015 
   38800    294.20172   -985.70093    149957.63   -47403.368    4040.1522    -51443.52   0.15944612 
   38900    295.97098   -979.27685    149978.47   -47342.098    4064.4486   -51406.547   0.16004741 
   39000    295.52561   -999.16986    149951.02   -47401.854    4058.3326   -51460.187   0.16072163 
   39100    294.79219   -931.50188    149954.33   -47422.126    4048.2609   -51470.387   0.14864235 
   39200    291.60614    -1030.328    149925.79   -47555.319    4004.5082   -51559.828   0.15521401 
   39300    289.13106   -983.79301    149908.99   -47561.106    3970.5189   -51531.625   0.15762627 
   39400    295.15923   -1013.4165    149965.31   -47440.843    4053.3012   -51494.144   0.15417103 
   39500    295.08053   -985.82135     149931.9   -47421.029    4052.2204   -51473.249   0.16392425 
   39600    292.89329   -991.70343    149944.93   -47417.943     4022.184   -51440.127   0.15132823 
   39700     297.7533   -997.27347    149948.08   -47401.849    4088.9246   -51490.773   0.16045808 
   39800    294.14186   -1022.9957    149914.06    -47422.06    4039.3301    -51461.39   0.15721921 
   39900    296.93132   -999.91567    149937.94   -47386.561    4077.6367   -51464.198   0.15839435 
   40000     291.2297   -959.69305    149933.38   -47454.942    3999.3386    -51454.28   0.15833133 
   40100     289.3575   -1019.2199    149911.58   -47468.422    3973.6285    -51442.05   0.15771181 
   40200    289.25261   -1016.0238    149893.92   -47441.363    3972.1881   -51413.551    0.1627835 
   40300    292.12436   -998.58377       149904    -47452.69    4011.6246   -51464.314   0.15428346 
   40400    288.40895    -985.3909     149872.5   -47532.661    3960.6025   -51493.264   0.16254531 
   40500     292.4595   -962.41438    149894.54   -47392.642    4016.2269   -51408.869   0.15339516 
   40600    295.97799   -1014.0624    149913.93   -47470.279    4064.5449   -51534.824   0.15634044 
   40700    294.72348   -954.42153    149916.59   -47473.334    4047.3173   -51520.652    0.1521145 
   40800    290.40813   -1008.5929     149930.7   -47450.393    3988.0563   -51438.449   0.16293072 
   40900    290.20326   -1017.9654    149922.23   -47437.826    3985.2429   -51423.069   0.15515185 
   41000    292.09735    -1026.401    149917.25   -47508.657    4011.2537   -51519.911   0.16069252 
   41100    294.17825   -989.56242    149912.11   -47474.464    4039.8298   -51514.294   0.15242174 
   41200    296.41525   -1006.5075    149927.16   -47363.721    4070.5497   -51434.271   0.16094136 
   41300     288.8959    -980.6103    149905.56   -47439.114    3967.2894   -51406.403   0.16041745 
   41400    292.36123   -1000.6188    149911.05   -47389.442    4014.8774   -51404.319   0.15943227 
   41500     288.7041   -1039.8894    149932.89    -47402.05    3964.6556   -51366.706   0.16749265 
   41600    297.43339   -1009.4833    149919.99   -47411.424    4084.5314   -51495.955   0.15282135 
   41700    291.19421   -992.02563    149879.76   -47520.144    3998.8512   -51518.995   0.15765072 
   41800    295.38144   -1014.1303     149911.3   -47435.674    4056.3528   -51492.027    0.1522064 
   41900    288.49247    -993.9215    149882.23   -47512.036    3961.7493   -51473.785   0.16297643 
   42000    291.13751   -977.55421    149900.48    -47486.89    3998.0727   -51484.962   0.15272061 
   42100    292.57458   -985.47643    149879.09   -47558.428    4017.8073   -51576.235    0.1566309 
   42200    289.30515   -1028.6066    149879.26   -47518.803    3972.9096   -51491.713   0.15893875 
   42300    293.25587   -1004.7342    149918.39   -47483.917    4027.1632   -51511.081   0.15319526 
   42400    289.32608   -1021.1903    149907.06   -47500.729    3973.1969   -51473.925    0.1649865 
   42500    289.50954   -996.44959    149933.85   -47468.132    3975.7163   -51443.848    0.1549601 
   42600    290.80037   -982.45423    149892.61   -47498.595    3993.4427   -51492.037   0.15692286 
   42700      290.218   -1017.5714    149893.56   -47573.203    3985.4454   -51558.648   0.15706417 
   42800    290.82957   -963.49073    149889.99   -47479.868    3993.8438   -51473.712    0.1550336 
   42900    294.55903   -1028.8905    149909.71   -47503.035     4045.059   -51548.094   0.15670359 
   43000    292.22505   -1006.9692    149928.27   -47526.515    4013.0073   -51539.522   0.15626856 
   43100    293.93866    -1009.583    149935.12   -47445.754    4036.5396   -51482.294   0.15706197 
   43200    290.59495   -1024.9378    149933.32   -47461.254    3990.6219   -51451.875    0.1585482 
   43300     292.2369   -998.76139    149897.35   -47448.246    4013.1701   -51461.416   0.16008125 
   43400    293.76204    -994.0176    149920.06   -47380.524    4034.1143   -51414.638   0.16040264 
   43500    291.34168   -1044.2488    149945.26   -47440.847    4000.8764   -51441.723   0.15982231 
   43600    295.15886   -1017.5137    149923.35   -47484.391    4053.2961   -51537.687   0.15872345 
   43700    290.51169   -990.09409    149890.15    -47526.44    3989.4784   -51515.919   0.15241632 
   43800     293.8149   -1022.4447    149876.46   -47563.739    4034.8401   -51598.579   0.15306052 
   43900    291.60774   -989.05112    149888.29   -47479.351    4004.5301   -51483.881   0.15841514 
   44000    285.28668   -982.82783    149867.81   -47555.294    3917.7256   -51473.019   0.15116122 
   44100    292.74627   -978.84713    149903.91   -47517.796    4020.1651   -51537.962   0.15991318 
   44200       294.95   -951.98633     149893.5   -47470.675    4050.4279   -51521.103   0.15168818 
   44300    292.51468   -1002.1695    149912.59   -47475.401    4016.9848   -51492.386   0.15497518 
   44400    296.92328   -963.81895    149900.47   -47483.871    4077.5263   -51561.397   0.16055759 
   44500    290.98405   -982.28889    149925.36   -47497.535    3995.9652     -51493.5   0.14744352 
   44600    290.57007    -977.6089    149912.73   -47502.595    3990.2802   -51492.875   0.16217656 
   44700    293.88041   -991.25356    149919.89   -47492.982    4035.7397   -51528.722   0.15504183 
   44800    291.98117   -1009.1344    149917.71   -47446.854    4009.6582   -51456.512   0.16002191 
   44900    290.38708   -1001.5014    149934.93   -47429.607    3987.7672   -51417.374    0.1539339 
   45000    291.67711   -1011.2477    149924.64   -47475.633    4005.4827   -51481.116   0.15683904 
   45100    291.19012   -986.66774    149938.97   -47357.811     3998.795   -51356.607   0.16043261 
   45200    294.19517   -1011.1363    149934.91   -47396.318    4040.0622    -51436.38   0.15812465 
   45300    292.37592   -1000.2254     149929.1   -47415.933    4015.0792   -51431.012   0.15864507 
   45400    295.67931   -995.49738    149962.97   -47487.277    4060.4432   -51547.721   0.15237139 
   45500    297.22962   -974.16313    149960.46   -47419.424    4081.7331   -51501.157   0.15413436 
   45600    297.48063   -964.73001    149973.91   -47413.041    4085.1802   -51498.221   0.15598776 
   45700    296.31342   -1005.5236    149975.56   -47361.853    4069.1512   -51431.004   0.15759805 
   45800     293.0577   -1047.2594    149968.84   -47443.332    4024.4419   -51467.774   0.16281539 
   45900    298.64991   -980.38775     149980.2   -47301.765    4101.2373   -51403.002    0.1604936 
   46000    299.70656   -965.43526    149977.78    -47363.96    4115.7479   -51479.708   0.15137068 
   46100    294.71595   -1010.7636     149967.2   -47264.819    4047.2139   -51312.033   0.17251194 
   46200    297.85536   -998.78181     149996.2    -47326.72    4090.3261   -51417.046    0.1531152 
   46300    298.99196   -987.67067    149990.17   -47321.759    4105.9345   -51427.694   0.15776261 
   46400    298.20666   -1008.4665    149973.76   -47367.649    4095.1504   -51462.799   0.15755706 
   46500    296.27254   -1022.7541    149971.53     -47337.7    4068.5899    -51406.29    0.1572241 
   46600    293.55994   -978.87343    149942.25   -47394.575    4031.3388   -51425.914   0.15797802 
   46700     299.5135   -996.02568     149952.1   -47331.642    4113.0966   -51444.739    0.1553597 
   46800    295.72613   -1005.7958     149952.2   -47338.654    4061.0863    -51399.74   0.15869158 
   46900     288.9421   -1062.3269    149936.89   -47400.341    3967.9239   -51368.265   0.15928505 
   47000     291.2399   -1012.9773    149940.41   -47435.133    3999.4786   -51434.611   0.16051567 
   47100    295.92494   -973.94662    149930.67   -47438.635    4063.8165   -51502.452   0.15384389 
   47200    295.93918   -1003.1247    149920.57   -47411.174    4064.0119   -51475.186   0.15845097 
   47300     293.3266     -997.651    149913.82   -47529.519    4028.1345   -51557.654   0.15261206 
   47400    292.23117   -989.15097    149906.86   -47470.064    4013.0913   -51483.155   0.15094335 
   47500    294.56309   -998.54414    149905.21   -47473.929    4045.1146   -51519.044   0.15570571 
   47600    290.52214   -1008.8345       149923   -47472.349     3989.622   -51461.971   0.15507305 
   47700    298.96841   -957.84316    149935.43   -47397.293    4105.6111   -51502.904   0.15196199 
   47800    295.03982   -1042.5131    149909.26   -47451.541    4051.6614   -51503.203   0.15799039 
   47900    293.78903   -1001.7799    149905.97   -47503.724    4034.4849   -51538.208    0.1566741 
   48000    290.55039    -983.9164    149920.03   -47460.467      3990.01   -51450.477   0.15227233 
   48100    291.63143   -1035.6331    149907.01   -47507.712    4004.8554   -51512.568   0.15698334 
   48200    295.88603    -969.5909    149906.44    -47493.98    4063.2822   -51557.263   0.14782084 
   48300    295.12915   -997.30952    149911.55   -47443.656    4052.8881   -51496.544   0.15501048 
   48400    290.81089   -1015.4887    149923.81   -47482.051    3993.5872   -51475.638   0.15386785 
   48500    287.60682   -1007.6638    149868.59   -47566.892    3949.5871   -51516.479   0.15500316 
   48600    286.54352   -968.78437    149884.84   -47562.557    3934.9852   -51497.543   0.15139978 
   48700    290.42382    -977.4854     149922.5   -47450.062    3988.2718   -51438.333   0.15811928 
   48800    294.01081   -971.10585    149922.39   -47440.405    4037.5305   -51477.935   0.15505888 
   48900     296.2895   -999.47742    149959.85   -47467.749    4068.8228   -51536.572   0.14955809 
   49000    293.54875   -1023.6142    149955.04    -47504.14    4031.1852   -51535.325   0.16237379 
   49100    288.89364   -1031.7402    149961.19   -47414.433    3967.2585   -51381.692   0.14949913 
   49200    286.57171   -1040.2331    149933.57   -47447.502    3935.3723   -51382.874   0.16456711 
   49300    292.49059   -1001.8231    149937.44   -47516.047    4016.6539   -51532.701   0.15226221 
   49400    292.17829   -988.44137    149934.82   -47542.089    4012.3652   -51554.455   0.14895234 
   49500    288.21639   -994.84997    149965.82   -47478.967    3957.9581   -51436.925   0.15532037 
   49600    294.38049   -1000.6731    149953.17   -47473.522    4042.6072   -51516.129    0.1494203 
   49700    290.55434   -1006.6501    149949.97   -47478.569    3990.0641   -51468.633   0.15501143 
   49800      293.998   -1013.0583    149938.15   -47489.297    4037.3546   -51526.652   0.15043496 
   49900    297.41023   -979.55125    149921.21   -47468.466    4084.2133   -51552.679    0.1535083 
   50000     292.4962    -987.8317    149927.97   -47474.215     4016.731   -51490.946   0.15049373 
   50100    296.21904   -987.05742    149948.42   -47329.137    4067.8551   -51396.992   0.16448505 
   50200    300.79885   -949.00855    149960.64   -47405.069    4130.7479   -51535.817   0.15183975 
   50300     295.1525   -989.07397    149955.87   -47421.336    4053.2088   -51474.545    0.1544572 
   50400     290.7677    -1017.362    149936.37   -47439.268    3992.9942   -51432.263   0.15804763 
   50500    298.05239   -999.17796    149953.94   -47351.962    4093.0319   -51444.994    0.1558878 
   50600    301.52344   -984.97809    149996.46   -47279.938    4140.6984   -51420.637   0.15453814 
   50700    291.59437   -992.11541    149957.22   -47525.565    4004.3465   -51529.912   0.15421538 
   50800    292.04272   -1003.5876     149917.7   -47499.069    4010.5034   -51509.573   0.15261069 
   50900    289.74926   -996.37427    149912.36   -47526.462    3979.0083   -51505.471   0.15173007 
   51000    290.13965   -994.86595    149891.09   -47479.081    3984.3694    -51463.45   0.16052502 
   51100    292.93423   -993.06088    149911.86   -47489.817    4022.7463   -51512.563   0.14619232 
   51200    287.84939   -971.83106    149910.45    -47549.39    3952.9182   -51502.308   0.15740954 
   51300    289.59539   -993.36213    149896.62   -47558.822    3976.8954   -51535.718   0.15002404 
   51400    293.93337   -1019.4203    149918.07   -47500.552     4036.467   -51537.019   0.15395066 
   51500    291.38318   -1024.9663    149935.75   -47559.197    4001.4463   -51560.643   0.15583868 
   51600    287.77841   -1003.4075     149933.1    -47474.88    3951.9435   -51426.824   0.15879531 
   51700    292.05831   -1025.0618    149951.68   -47370.749    4010.7176   -51381.467   0.16164747 
   51800        297.2   -986.01433    149968.18    -47421.18    4081.3263   -51502.507   0.15568454 
   51900    298.30768   -995.68339    149964.15   -47485.445    4096.5376   -51581.982   0.15370122 
   52000    293.16599   -1009.9114    149958.39    -47469.61    4025.9289   -51495.539   0.14966286 
   52100    288.08381   -1059.4564     149925.2   -47545.914    3956.1374   -51502.051   0.16260302 
   52200    290.73449   -1012.1348    149931.56   -47606.257    3992.5381   -51598.795   0.14649791 
   52300    289.46811   -983.87968    149919.65   -47578.213    3975.1474   -51553.361   0.14978072 
   52400    289.81747   -983.83089    149901.45    -47665.27     3979.945   -51645.215   0.14881896 
   52500    292.74638   -979.93068    149916.02   -47509.085    4020.1666   -51529.252   0.14882419 
   52600    293.09269   -988.32474     149934.3   -47476.502    4024.9223   -51501.424   0.15572288 
   52700    290.45415   -987.71788    149940.76   -47411.365    3988.6883   -51400.053   0.15719731 
   52800    294.63514   -952.88746    149993.66   -47387.644    4046.1041   -51433.748   0.15328359 
   52900    292.49207   -989.61151    149980.22   -47410.299    4016.6742   -51426.973   0.15331762 
   53000    298.91684    -992.6499    149996.03   -47357.002     4104.903   -51461.904   0.15851716 
   53100    298.91127   -951.63401    149932.83   -47493.057    4104.8265   -51597.884   0.14674143 
   53200    290.21463   -1022.8161     149931.7   -47547.374    3985.3991   -51532.773   0.15465862 
   53300    292.73458   -1004.6344    149920.59   -47510.729    4020.0045   -51530.734    0.1525079 
   53400    291.54644   -1037.2603    149935.92   -47439.968    4003.6883   -51443.656   0.15968397 
   53500    293.98078    -1002.652       149926   -47428.039    4037.1181   -51465.157    0.1539212 
   53600     290.5734   -1001.6543    149932.32   -47495.291    3990.3259   -51485.617   0.15659287 
   53700    293.00468     -979.485    149936.97   -47473.003    4023.7137   -51496.717   0.15075066 
   53800    293.62795    -976.5672    149924.41   -47502.148    4032.2728   -51534.421   0.15233215 
   53900    287.68767   -993.74001    149914.93   -47502.447    3950.6973   -51453.144   0.15739835 
   54000    295.47314   -1012.0751    149918.02   -47515.353     4057.612   -51572.965   0.15054016 
   54100     291.2526   -996.07132    149915.35   -47488.521     3999.653   -51488.174    0.1609203 
   54200    291.26712   -996.76414     149934.4   -47437.214    3999.8525   -51437.067   0.15239529 
   54300    296.69263   -1047.1524    149951.65   -47363.243    4074.3588   -51437.602   0.16170706 
   54400    300.01535   -991.84552    149985.96   -47280.815    4119.9884   -51400.803   0.15593304 
   54500    295.32967   -1008.5959    149952.79   -47354.626    4055.6419   -51410.268     0.158126 
   54600    294.67893    -1007.552    149937.39   -47367.915    4046.7055    -51414.62     0.158429 
   54700    296.19122   -1010.5157    149935.77   -47432.367    4067.4731    -51499.84   0.15339487 
   54800    294.05853   -1017.9704    149950.27   -47361.289    4038.1858   -51399.475   0.16075722 
   54900     299.9211   -1014.8013    149947.48   -47375.394    4118.6941   -51494.088   0.15098888 
   55000    296.48092   -995.32377    149960.08   -47408.738    4071.4514    -51480.19       0.1598 
   55100    300.03597   -1016.6195    149954.09   -47427.145    4120.2715   -51547.417   0.15328323 
   55200    289.41738   -1003.8655    149922.06   -47538.492    3974.4507   -51512.943   0.15098349 
   55300    286.50206   -991.01141     149918.4   -47584.646    3934.4158   -51519.062   0.15371132 
   55400    291.52678   -994.84317    149932.52   -47547.745    4003.4183   -51551.163   0.14839573 
   55500    291.66687   -1007.3208     149948.5   -47509.135    4005.3421   -51514.477   0.15253004 
   55600    295.16358   -985.99473    149994.87   -47405.561     4053.361   -51458.922   0.15390924 
   55700    295.82848   -972.86739    149999.01    -47361.65    4062.4918   -51424.141   0.15013014 
   55800     293.2246   -1031.0826    149996.14   -47352.447    4026.7337   -51379.181   0.15996208 
   55900    295.23675   -953.73998    149973.33   -47364.759    4054.3658   -51419.125   0.15604749 
   56000    290.79656   -976.51539    149987.31   -47380.534    3993.3905   -51373.925    0.1556893 
   56100    297.48711   -1012.3154    149962.61   -47363.649     4085.269   -51448.918   0.16305835 
   56200    296.71326    -1015.723    149962.63   -47405.725    4074.6421   -51480.368   0.15265515 
   56300    297.13215   -1021.4151     149942.5   -47471.835    4080.3946   -51552.229   0.15407665 
   56400    291.79098   -1053.9083    149926.72   -47516.434    4007.0464   -51523.481   0.15286125 
   56500    287.79506   -1011.6641     149913.7   -47568.231    3952.1721   -51520.403   0.15478085 
   56600    291.44778   -979.25236    149892.15   -47623.514    4002.3334   -51625.848   0.14452592 
   56700    287.08379   -1035.8464    149906.45   -47603.007    3942.4046   -51545.412   0.15641455 
   56800    290.99767   -1009.5544    149925.33   -47483.265    3996.1522   -51479.417   0.15385587 
   56900    287.20776   -1025.0814     149928.1   -47588.138     3944.107   -51532.245   0.15008397 
   57000    292.86157   -959.58907    149937.28   -47574.096    4021.7484   -51595.844   0.15036401 
   57100    290.93264   -1026.5103    149949.51   -47490.598    3995.2592   -51485.857   0.14941282 
   57200    294.46959    -991.1972     149938.3   -47441.243    4043.8307   -51485.074   0.15242846 
   57300    291.83332   -1002.0372    149913.86   -47573.946    4007.6279   -51581.574   0.14932249 
   57400    296.92384   -974.59055    149938.33   -47456.979    4077.5339   -51534.513   0.15130722 
   57500    294.87269   -997.05652     149977.4   -47421.531    4049.3663   -51470.897   0.15321618 
   57600    292.18267   -1028.7858    149935.46   -47536.153    4012.4254   -51548.578   0.15112997 
   57700     294.7936   -977.86687    149952.97   -47446.097    4048.2802   -51494.377   0.14888354 
   57800    287.83504   -981.45146    149970.92   -47397.527    3952.7211   -51350.248   0.15928203 
   57900    299.16794   -982.12883    149980.51   -47434.562    4108.3512   -51542.913   0.14767512 
   58000    298.68462   -1011.6581       149966   -47394.931     4101.714   -51496.645   0.15570981 
   58100    295.75272   -1001.0099    149966.55    -47445.75    4061.4515   -51507.201   0.15107596 
   58200    298.71544   -974.79529    149999.35   -47338.795    4102.1372   -51440.932   0.15336015 
   58300    293.59152   -1006.4277    149978.82   -47408.866    4031.7725   -51440.639   0.15500938 
   58400    293.30563   -1025.4763    149949.73    -47447.68    4027.8465   -51475.526   0.15678851 
   58500    294.33184   -994.58024    149966.63   -47454.248    4041.9391   -51496.188   0.15256205 
   58600    294.28116    -1013.696    149966.16   -47488.056     4041.243   -51529.299   0.14728317 
   58700    294.25943   -1001.1608    149971.81   -47442.126    4040.9446   -51483.071   0.15888775 
   58800    288.21789   -1021.9319    149966.46   -47483.123    3957.9787   -51441.102   0.15253433 
   58900    293.77799   -974.81933    149967.08   -47402.463    4034.3332   -51436.797   0.15373747 
   59000    295.39364   -1014.1801    149980.72   -47368.751    4056.5203   -51425.271   0.15539162 
   59100    299.92992   -978.66604    149981.22   -47333.147    4118.8152   -51451.963   0.15226483 
   59200    299.09447   -1009.7673    149955.68   -47452.463    4107.3424   -51559.805   0.15692346 
   59300    293.83389   -978.77292    149967.87   -47434.158    4035.1009   -51469.259   0.15113032 
   59400    296.20754   -1005.3058     149973.3   -47419.745    4067.6973   -51487.443   0.15724912 
   59500    296.02481   -1020.7782    149947.92   -47529.052    4065.1879    -51594.24   0.14812751 
   59600    291.08113   -1013.4301    149934.97   -47498.824    3997.2983   -51496.122   0.15419692 
   59700    295.83581   -993.06707    149953.37   -47428.941    4062.5924   -51491.534   0.15611383 
   59800    286.19486   -1030.2043    149929.59   -47547.538    3930.1972   -51477.735   0.15245012 
   59900      292.113   -963.00305    149935.81   -47537.103    4011.4686   -51548.572   0.15016335 
   60000    286.84685   -1030.7403    149946.18    -47504.82    3939.1507   -51443.971   0.15418995 
   60100    292.37304   -1004.7456    149945.89   -47464.742    4015.0397   -51479.782   0.15537703 
   60200    296.38761   -962.96652    149958.38   -47432.821    4070.1701   -51502.991   0.15278038 
   60300    295.50761   -985.78393    149981.88   -47392.227    4058.0855   -51450.312   0.15209492 
   60400    297.64328   -1000.5619    149989.48    -47342.39    4087.4136   -51429.804   0.15536712 
   60500    291.02761   -1019.6628    149987.37   -47366.493    3996.5633   -51363.057   0.15807628 
   60600    290.16548   -1000.4047    149985.74   -47432.911    3984.7241   -51417.635   0.15666558 
   60700    295.38827   -997.19159    149996.84   -47254.868    4056.4465   -51311.315   0.16599278 
   60800     303.4336   -1023.3506    149982.16   -47281.008    4166.9298   -51447.938   0.15405737 
   60900    293.79802   -1000.6925    149961.97   -47373.588    4034.6083   -51408.196    0.1631659 
   61000    293.54056   -1016.7167    149959.15   -47416.322    4031.0728   -51447.395   0.15260068 
   61100    295.27239   -1030.4471     149957.2   -47404.066    4054.8553   -51458.921   0.16142395 
   61200    301.77665   -984.62677    149927.93   -47337.938    4144.1755   -51482.114   0.15638411 
   61300    295.02106   -994.41762    149951.03   -47436.225    4051.4038   -51487.629   0.15070192 
   61400    295.63184   -994.39931    149922.96   -47487.554    4059.7914   -51547.345   0.15901861 
   61500     298.7627   -972.31219    149921.51   -47425.994    4102.7863   -51528.781   0.14763151 
   61600    295.67932   -998.19473    149925.73   -47468.318    4060.4434   -51528.761   0.16071333 
   61700    288.54785   -1028.0785    149909.12   -47531.257    3962.5099   -51493.767   0.15457777 
   61800    290.86037   -1002.4812     149913.5   -47518.334    3994.2667   -51512.601   0.15012171 
   61900    290.17093   -997.58067     149942.6   -47411.554    3984.7989   -51396.353   0.16085701 
   62000    294.28465   -988.49115    149947.99   -47430.449     4041.291    -51471.74   0.15333347 
   62100    285.33882   -1025.8678    149909.43   -47496.943    3918.4416   -51415.384   0.15892099 
   62200    292.38684   -993.06596    149959.13   -47391.639    4015.2292   -51406.869    0.1531826 
   62300    294.76862   -1029.4736    149950.53   -47437.481    4047.9372   -51485.419   0.15260588 
   62400    288.05448    -1000.323    149944.19   -47486.811    3955.7346   -51442.546   0.15886402 
   62500     292.9389   -1007.5376    149942.13   -47478.991    4022.8104   -51501.801   0.15604036 
   62600    288.82055   -999.04378    149937.78   -47508.022    3966.2547   -51474.277   0.15240133 
   62700      287.862   -1001.4185    149937.77   -47542.054    3953.0914   -51495.146   0.15197693 
   62800     292.0029   -977.85124    149934.51   -47512.452    4009.9566   -51522.408   0.14825688 
   62900     296.3486   -959.83044    149948.06   -47419.985    4069.6344   -51489.619   0.15609876 
   63000    293.30185   -972.49558    149966.82   -47448.172    4027.7946   -51475.967   0.15106233 
   63100    289.50564   -1041.3066    149927.88   -47527.754    3975.6629   -51503.417   0.15822643 
   63200    293.12267   -1001.9439    149940.51   -47400.128    4025.3341   -51425.462   0.15481805 
   63300    290.27142   -1003.9832    149947.21   -47502.995    3986.1789   -51489.174    0.1530894 
   63400    290.17544   -1029.8192    149932.23   -47594.407    3984.8609   -51579.268   0.15231549 
   63500    288.08082   -1025.5554    149921.47   -47567.454    3956.0963    -51523.55   0.15104129 
   63600    285.14728   -1026.5705    149909.46   -47618.202    3915.8112   -51534.014   0.15654921 
   63700    293.83428   -996.11755     149909.3   -47578.945    4035.1063   -51614.051    0.1468352 
   63800    287.79528   -994.25467    149902.47   -47652.338    3952.1752   -51604.513    0.1519163 
   63900    292.36074   -980.25383    149912.74   -47536.942    4014.8707   -51551.813   0.15006789 
   64000    289.94722   -1013.8936    149951.46    -47455.24    3981.7269   -51436.967    0.1553211 
   64100    299.65727   -1015.4189    149953.51   -47408.806     4115.071   -51523.877   0.15566907 
   64200    294.76285   -1011.9513    149962.47   -47397.886     4047.858   -51445.744   0.15406529 
   64300    294.26592   -1032.2301    149958.92   -47436.331    4041.0337   -51477.364   0.15317821 
   64400    292.93202   -1018.5544     149926.7   -47496.046    4022.7159   -51518.762   0.14950806 
   64500      291.801   -991.36016    149911.58   -47479.334     4007.184   -51486.518    0.1520139 
   64600    290.66449   -1016.7859    149907.53   -47516.101    3991.5769   -51507.678   0.15130341 
   64700    291.58231   -994.40477    149899.81   -47525.575    4004.1808   -51529.756    0.1560148 
   64800    291.52624   -994.98199    149909.91   -47468.859    4003.4109    -51472.27   0.15106703 
   64900    300.04159   -966.81509    149931.71   -47377.728    4120.3487   -51498.077   0.15440548 
   65000    297.16448   -945.08478    149944.01   -47366.087    4080.8385   -51446.926   0.15264071 
   65100    291.78027   -1031.2159    149956.35    -47437.68    4006.8993   -51444.579   0.15569174 
   65200    291.96339   -979.01377    149921.67   -47455.301     4009.414   -51464.715   0.15489556 
   65300        296.8   -998.71776    149949.37   -47389.044    4075.8333   -51464.877   0.15667753 
   65400    292.69955   -1021.5815    149926.78    -47427.23    4019.5235   -51446.754   0.15218809 
   65500    296.79099   -991.57453    149955.88   -47362.938    4075.7095   -51438.648   0.15570568 
   65600    298.15187   -1022.1549    149947.41   -47377.795    4094.3979   -51472.193   0.15696966 
   65700     298.2268   -1025.4236    149946.74   -47340.793    4095.4269    -51436.22   0.15754974 
   65800    299.53539   -1026.6329    149912.81   -47407.229    4113.3973   -51520.627   0.16051919 
   65900    291.62795   -1040.2392    149900.77   -47413.088    4004.8076   -51417.896   0.15304791 
   66000    290.64879   -1024.2198       149909   -47426.144    3991.3612   -51417.505    0.1624646 
   66100    301.30672   -993.72494    149927.52   -47393.522    4137.7222   -51531.245   0.15236949 
   66200    287.84614    -1018.936     149937.5   -47533.375    3952.8736   -51486.249   0.15260369 
   66300    295.48819   -976.82261    149937.79    -47462.07    4057.8187   -51519.889   0.15310686 
   66400    288.88994   -1013.6929    149938.18   -47469.006    3967.2077   -51436.214   0.15185963 
   66500    287.78346   -1006.3224    149926.65   -47502.967    3952.0128   -51454.979   0.15947013 
   66600    290.34086   -1007.2316    149910.67    -47502.52    3987.1325   -51489.653    0.1522574 
   66700    296.50901   -986.15895    149930.35   -47489.998    4071.8372   -51561.835   0.15480069 
   66800    287.37771   -1006.1171    149933.05   -47515.112    3946.4409   -51461.553   0.15006815 
   66900    286.70935   -994.69439    149903.25   -47525.522    3937.2625   -51462.784   0.14754174 
   67000    286.06706   -1009.0411    149868.78   -47633.592    3928.4422   -51562.035   0.15517421 
   67100    290.80245   -979.33373    149909.66   -47463.436    3993.4714   -51456.908   0.15433057 
   67200    289.13561   -1005.4712    149918.92   -47572.794    3970.5813   -51543.375   0.15407083 
   67300    289.67565   -999.94993    149904.92   -47489.412    3977.9975   -51467.409   0.15648224 
   67400    292.25644   -982.36594    149907.98   -47464.386    4013.4384   -51477.824   0.15375654 
   67500    292.97686   -991.42272    149915.45   -47455.359    4023.3317   -51478.691   0.15819798 
   67600    297.00962   -985.91786    149964.51   -47311.702    4078.7119   -51390.414   0.15412745 
   67700    297.33958   -980.93168    149956.85   -47386.199     4083.243   -51469.442   0.15130767 
   67800    295.35983   -968.75095    149955.93   -47428.471     4056.056   -51484.527   0.15060414 
   67900    290.70057   -1043.9765    149947.32     -47460.8    3992.0723   -51452.873   0.15518478 
   68000    295.83903   -1025.3015    149916.54   -47494.597    4062.6367   -51557.234   0.15884879 
   68100    288.75605   -1021.0391    149915.84   -47499.056     3965.369   -51464.425   0.15071082 
   68200    294.38074   -953.01317    149924.02   -47466.742    4042.6106   -51509.353   0.15712339 
   68300    297.59256   -1023.7436    149947.87   -47415.875    4086.7171   -51502.592   0.15329296 
   68400    300.06224   -967.87512    149977.61   -47385.478    4120.6323    -51506.11   0.15105826 
   68500    295.54101   -1004.2635    149963.54   -47376.838    4058.5441   -51435.382   0.16115001 
   68600    288.91013   -1046.8864    149941.68    -47470.35    3967.4849   -51437.835   0.15390225 
   68700    295.47342   -1023.7871    149916.83   -47444.299    4057.6159   -51501.915   0.15811816 
   68800    293.91638    -992.4571    149908.79   -47439.598    4036.2337   -51475.832   0.14967271 
   68900    294.46261   -1004.4247    149894.86   -47437.784    4043.7349   -51481.519   0.15699541 
   69000    290.74741   -993.32626    149905.18   -47437.139    3992.7155   -51429.854   0.15731987 
   69100    293.68712   -985.28771    149901.24   -47503.449    4033.0853   -51536.534   0.14682307 
   69200     289.9633   -1024.7699    149882.32    -47512.58    3981.9477   -51494.528   0.15661057 
   69300    288.83936   -983.95576    149908.77    -47550.99    3966.5131   -51517.503   0.15422821 
   69400    286.53922   -987.45793    149897.29   -47598.574    3934.9262     -51533.5   0.14941371 
   69500    294.28891   -1008.9008    149905.29   -47458.833    4041.3495   -51500.183   0.15462531 
   69600    295.23872   -1023.9504    149948.02   -47351.434    4054.3929   -51405.827   0.15648824 
   69700    296.24778   -999.31392    149941.54   -47449.335    4068.2499   -51517.584   0.15698305 
   69800    292.73347   -998.82444     149935.1   -47441.668    4019.9893   -51461.657   0.15330244 
   69900    290.67732   -995.07569    149904.85   -47541.321     3991.753   -51533.074   0.14856312 
   70000    292.90329   -979.92132    149918.09   -47469.905    4022.3214   -51492.226   0.15202397 
   70100    290.24053   -1031.8151    149897.79   -47597.142    3985.7548   -51582.897   0.14831505 
   70200    293.71173   -989.68822    149909.01   -47426.505    4033.4233   -51459.928   0.15505693 
   70300    291.72289   -998.43081     149900.7   -47432.687    4006.1113   -51438.798    0.1516741 
   70400     299.8301    -987.0083    149940.41   -47325.093    4117.4443   -51442.537   0.15784984 
   70500    298.59256   -991.65663    149940.15   -47399.948    4100.4497   -51500.398   0.15116536 
   70600    294.56362   -1047.8805    149891.75   -47454.505     4045.122   -51499.627   0.15490742 
   70700    298.25626   -1020.4541    149910.39   -47426.043    4095.8315   -51521.874   0.16013446 
   70800     291.8808   -982.19368    149916.49   -47464.978    4008.2799   -51473.258   0.14888824 
   70900     294.6578   -970.78995    149914.61   -47458.772    4046.4153   -51505.188   0.15330918 
   71000    297.37762   -968.35089    149935.09   -47479.044    4083.7655   -51562.809   0.14879774 
   71100    294.26519   -996.20729    149895.45   -47461.709    4041.0238   -51502.733   0.15273538 
   71200    290.88362   -1047.1861    149906.91   -47501.899    3994.5861   -51496.485   0.15443219 
   71300    286.71066   -1017.1823    149897.97     -47553.7    3937.2804    -51490.98   0.15238136 
   71400    290.22564   -1004.0102    149893.04   -47490.726    3985.5503   -51476.276   0.15545186 
   71500     289.5066   -965.19761     149908.9   -47435.731    3975.6759   -51411.407   0.15346791 
   71600    291.51202     -955.027    149911.06   -47463.678    4003.2156   -51466.893   0.15380639 
   71700    299.68479   -980.42074    149908.55    -47454.55     4115.449   -51569.999   0.14763637 
   71800    284.95563    -1053.112    149847.92    -47627.93    3913.1794    -51541.11   0.15674012 
   71900    284.41222   -1035.9033     149854.8   -47566.146    3905.7169   -51471.863   0.15383011 
   72000    290.66913   -1006.0276    149898.68     -47538.6    3991.6406    -51530.24    0.1491922 
   72100    293.34167   -1024.8115    149933.61   -47399.097    4028.3414   -51427.438   0.15772766 
   72200    301.41351   -994.68479    149993.73   -47292.307    4139.1888   -51431.496   0.15590002 
   72300    300.70819    -993.1222    149999.24   -47269.525    4129.5028   -51399.028    0.1533872 
   72400    296.16243   -976.80277    149955.17    -47390.38    4067.0778   -51457.458    0.1548646 
   72500    292.52311   -1000.6272    149953.93   -47387.624    4017.1004   -51404.724    0.1528782 
   72600    294.99695   -1025.3779    149961.72   -47326.969    4051.0728   -51378.042   0.16032828 
   72700    292.68053   -1018.6903    149938.25   -47490.723    4019.2622   -51509.985   0.15077948 
   72800    291.16067   -1004.6454    149929.89   -47412.818    3998.3907   -51411.208   0.15258031 
   72900       293.21   -1038.1288    149946.11   -47422.783    4026.5333   -51449.316   0.16051377 
   73000    295.33799   -1012.0024     149944.1   -47435.856    4055.7562   -51491.612    0.1508206 
   73100    292.31841   -1000.4432    149922.17   -47386.131    4014.2895    -51400.42   0.15812481 
   73200    294.73298   -1001.5311    149957.47     -47374.7    4047.4477   -51422.148   0.15263295 
   73300    300.90613   -1009.3078    149970.98    -47353.36    4132.2211   -51485.581   0.15785706 
   73400    294.26025   -993.83224    149978.45    -47335.17    4040.9559   -51376.126   0.15623573 
   73500    300.10097   -1011.9051    149984.34   -47340.584    4121.1642   -51461.748   0.15185155 
   73600    292.63185   -993.96351    149952.86   -47375.823    4018.5937   -51394.417   0.15908497 
   73700    290.64713   -1004.9142    149953.36   -47438.798    3991.3385   -51430.137   0.14820114 
   73800    289.23211   -992.40063    149923.99   -47531.449    3971.9065   -51503.355   0.15284025 
   73900    290.40894   -1027.1493    149937.98   -47513.894    3988.0675   -51501.961   0.15271475 
   74000    292.29133    -1010.191    149943.37   -47438.974    4013.9175   -51452.891   0.15183256 
   74100    297.60672   -1025.8593    149972.17    -47273.64    4086.9117   -51360.552   0.16110243 
   74200    297.87271   -1033.0425    149947.28   -47438.668    4090.5644   -51529.233   0.15181231 
   74300     290.1387   -992.21548       149917   -47434.643    3984.3564       -51419   0.15641993 
   74400    289.11264   -1027.3341    149920.57   -47473.084    3970.2658   -51443.349   0.15713462 
   74500    289.24397   -1015.7669    149925.67   -47486.976    3972.0694   -51459.045   0.14819043 
   74600    294.15173   -997.53571    149920.45   -47490.684    4039.4656   -51530.149    0.1531993 
   74700    295.08837   -973.32252    149953.13   -47400.616    4052.3282   -51452.944   0.14900416 
   74800    290.55382   -1002.3626    149949.63   -47461.195    3990.0571   -51451.253   0.15362567 
   74900    290.57816   -1040.1932    149945.38   -47462.551    3990.3912   -51452.943   0.15118802 
   75000    293.74785   -950.32656    149946.47   -47441.699    4033.9193   -51475.618   0.14813976 
   75100    296.51016   -958.90695    149969.61   -47375.641    4071.8531   -51447.494   0.15479005 
   75200    290.87447   -1006.0957    149958.15   -47424.273    3994.4603   -51418.734   0.14672178 
   75300    291.65048   -977.78256    149947.39   -47474.625     4005.117   -51479.742     0.153905 
   75400     291.0729   -998.54924    149962.71   -47489.156    3997.1853   -51486.341   0.14892918 
   75500    290.49366   -963.89438    149942.69   -47483.845    3989.2309   -51473.076   0.14600202 
   75600    295.86109   -971.07403    149970.56   -47408.935    4062.9396   -51471.875   0.15250579 
   75700    296.91797   -992.66659    150012.58   -47365.742    4077.4533   -51443.195   0.14589614 
   75800     293.4112   -1052.5676    149985.26   -47388.352    4029.2962   -51417.648   0.15931248 
   75900    292.11303   -1006.2761    149966.72   -47404.605    4011.4691   -51416.074    0.1491737 
   76000    294.69407   -981.86665    149963.83   -47410.501    4046.9135   -51457.415   0.14874532 
   76100    292.97958   -1006.8173    149957.78    -47504.21     4023.369   -51527.579   0.15025096 
   76200    293.08403   -1016.3546    149942.53   -47555.874    4024.8034   -51580.677   0.14645099 
   76300    293.04676    -990.7208    149930.34   -47487.739    4024.2916    -51512.03   0.14782974 
   76400    289.83045    -1021.709    149941.81   -47480.352    3980.1233   -51460.475   0.15219414 
   76500    291.41434   -1020.9211    149944.83   -47470.633    4001.8743   -51472.507   0.15433669 
   76600    287.91827   -1029.3212    149934.84   -47513.932    3953.8641   -51467.797    0.1547253 
[...]
   81900    287.69571   -1013.1466    149909.11   -47508.031    3950.8078   -51458.838   0.15477269 
   82000    295.29033   -982.70496    149952.39   -47419.809    4055.1015   -51474.911   0.14940938 
   82100    298.57047   -1006.2097    149964.31   -47369.379    4100.1464   -51469.526   0.15492577 
   82200    297.49779   -994.28038    149982.35   -47384.028    4085.4157   -51469.444   0.15664468 
   82300    292.31535   -1017.4355    149943.78   -47457.234    4014.2475   -51471.482   0.15013807 
   82400    292.37637   -985.33177     149986.9   -47334.019    4015.0854   -51349.104   0.15711629 
   82500     300.0776   -1006.1703    149988.51   -47228.543    4120.8432   -51349.386   0.15590259 
   82600     298.8925   -1020.4001    149979.44   -47338.387    4104.5688   -51442.956   0.15711341 
   82700    293.17864   -996.19587     149953.5   -47421.809    4026.1026   -51447.912   0.15576633 
   82800    297.04841   -1007.6818    149951.88   -47435.994    4079.2446   -51515.239   0.14607617 
   82900    296.16463   -996.62624     149955.8   -47383.589     4067.108   -51450.697   0.15552509 
   83000    295.15733   -964.24811    149995.27   -47315.999    4053.2752   -51369.274   0.15235256 
   83100    300.49634   -998.00465    149979.12   -47359.769    4126.5936   -51486.363   0.14976232 
   83200    297.30517   -1001.7503    149973.43   -47390.438    4082.7705   -51473.209   0.15217854 
   83300    297.82638   -1022.6016    149960.08   -47383.664    4089.9282   -51473.592   0.15490492 
   83400    292.18535   -1062.7044    149953.01   -47465.657    4012.4621   -51478.119   0.15183263 
   83500     290.5027   -991.89239    149929.82    -47570.88     3989.355   -51560.235   0.14823965 
   83600    288.61128   -1009.1785    149935.38   -47515.485     3963.381   -51478.866   0.14854372 
   83700    292.79842   -999.37439     149941.8   -47547.202    4020.8812   -51568.083    0.1497575 
   83800    292.87442   -1009.6659    149954.02   -47503.241    4021.9249   -51525.166   0.14974908 
   83900    293.07664   -1025.4082     149956.4    -47506.99    4024.7019   -51531.692   0.14900636 
   84000    290.73341   -1002.6691    149960.19    -47523.09    3992.5233   -51515.613     0.150605 
   84100     291.2517   -1005.8622    149965.82   -47451.403    3999.6407   -51451.044   0.15173915 
   84200    297.46149   -944.34163    149970.64   -47399.089    4084.9172   -51484.007   0.14806522 
   84300    291.70401   -1028.6183    149981.37    -47459.56    4005.8521   -51465.412   0.14851087 
   84400    296.19964   -970.45543    149980.83   -47455.017    4067.5888   -51522.606   0.15231528 
   84500    289.14067   -1022.8238    149966.48   -47511.976    3970.6508   -51482.627   0.14970511 
   84600    294.27317   -993.75943     149983.3   -47422.683    4041.1334   -51463.816   0.15268261 
   84700    291.49531    -1033.047    149990.97   -47433.395    4002.9861   -51436.382   0.15665053 
   84800    293.11239   -1014.1869    149986.23   -47430.109    4025.1928   -51455.301     0.153886 
   84900    295.62871   -991.23427    149983.12   -47344.505    4059.7484   -51404.253   0.14995674 
   85000    295.29193   -996.14839    149969.03   -47421.686    4055.1235    -51476.81   0.15165035 
   85100    294.06747   -986.16832    149955.63    -47437.17    4038.3086   -51475.478   0.14978731 
   85200    290.29563   -977.78831     149968.3   -47481.198    3986.5114   -51467.709   0.15145158 
   85300    287.96611   -1025.0962    149944.05   -47491.831    3954.5211   -51446.352   0.15580977 
   85400    292.60364   -1019.6548    149924.53   -47523.048    4018.2064   -51541.254   0.14995897 
   85500    295.83593    -975.3801    149939.29    -47467.15    4062.5941   -51529.744   0.15371397 
   85600    287.49855   -998.55889     149951.7   -47500.145    3948.1002   -51448.245   0.15030359 
   85700    299.60427   -979.65858    149959.54   -47441.152    4114.3432   -51555.495   0.14842937 
   85800    291.81344   -985.63276    149963.27   -47429.175    4007.3549    -51436.53   0.15606311 
   85900     293.4033   -1010.1303    149972.22   -47400.628    4029.1878   -51429.815   0.15147878 
   86000    291.42327     -999.697    149960.87   -47452.507    4001.9969   -51454.504   0.15171754 
   86100    293.59002   -1035.2009    149952.87   -47428.262    4031.7519   -51460.014   0.15400468 
   86200     296.8964   -1003.1984    149973.81   -47391.773    4077.1571    -51468.93   0.15556036 
   86300    293.43591   -986.30316    149970.65   -47440.029    4029.6356   -51469.665   0.15324961 
   86400    297.38073   -986.75511    149949.09   -47497.053    4083.8082   -51580.861   0.14729523 
   86500    291.04068    -996.4834    149962.67   -47532.418    3996.7428   -51529.161   0.15080492 
   86600    295.75997   -970.72181    149980.02   -47367.089    4061.5509    -51428.64   0.15364157 
   86700    294.77819   -969.93195    150011.94    -47367.97    4048.0686   -51416.038   0.15285026 
   86800    289.21628   -1017.6675    149997.71   -47498.531    3971.6891    -51470.22   0.15194313 
   86900    294.85479   -1007.4711    149965.84   -47478.138    4049.1206   -51527.258   0.14674626 
   87000    291.85128   -1000.1873    149985.55   -47452.566    4007.8745   -51460.441   0.15652505 
   87100    295.33359   -985.16548    149957.94   -47418.032    4055.6957   -51473.728   0.15320852 
   87200    293.62095    -958.2581    149961.91   -47350.588    4032.1767   -51382.765   0.15270201 
   87300    293.54696   -1006.0488    149979.18   -47367.369    4031.1605    -51398.53    0.1622079 
   87400    294.71473   -1002.9837    149974.59   -47427.623     4047.197   -51474.821   0.14716292 
   87500     293.5761   -991.87141    149979.14   -47397.422    4031.5607   -51428.983   0.15420176 
   87600    296.21374   -1018.6967    149966.35   -47416.215    4067.7824   -51483.997   0.15076437 
   87700     297.6426   -1002.3729    149964.39   -47393.655    4087.4043   -51481.059   0.15419902 
   87800     296.7921   -988.10603    149929.57   -47478.945    4075.7247   -51554.669   0.15089107 
   87900    294.09615   -993.35984    149943.08   -47502.266    4038.7024   -51540.968   0.15123807 
   88000    290.51854   -1000.3241    149950.55   -47468.522    3989.5726   -51458.094   0.15526233 
   88100    297.02434   -1017.7908    149972.45   -47440.216    4078.9141    -51519.13   0.15349491 
   88200    288.84931   -1017.1954    149959.54   -47538.657    3966.6497   -51505.307   0.14861082 
   88300    295.13577   -962.84179    149935.18   -47481.129    4052.9791   -51534.108    0.1465332 
   88400    296.34146   -1007.0924    149954.77   -47410.631    4069.5363   -51480.167   0.15376327 
   88500    297.59694   -1034.6028    149936.01   -47484.389    4086.7773   -51571.166   0.15055782 
   88600     293.4201   -1009.9094    149935.84   -47473.451    4029.4185   -51502.869    0.1550923 
   88700    294.47286   -1025.6115    149934.95    -47443.44    4043.8757   -51487.316   0.15516575 
   88800     294.8471   -991.76231    149940.12   -47509.739    4049.0149   -51558.754   0.15420957 
   88900     293.7424   -991.38939    149935.76   -47445.676    4033.8446   -51479.521   0.14983586 
   89000    291.96875    -967.9885    149957.64   -47410.391    4009.4877   -51419.879   0.15747805 
   89100    293.79313   -997.31663    149945.35   -47464.823    4034.5411   -51499.364   0.15002657 
   89200    292.72266   -961.68139    149957.43   -47414.819    4019.8408    -51434.66   0.15116263 
   89300    286.49363   -1013.7382     149910.8    -47534.84    3934.3002    -51469.14   0.15572954 
   89400    297.35443   -1009.3825    149940.56   -47439.927     4083.447   -51523.374   0.15164046 
   89500    294.79851   -1024.1301    149887.69   -47524.545    4048.3477   -51572.893   0.15606474 
   89600    287.47165   -1024.9197    149881.34   -47558.639    3947.7309    -51506.37   0.15228526 
   89700    293.40717   -975.98387    149891.71   -47472.403    4029.2409   -51501.644   0.15152433 
   89800    296.29361   -995.50357    149923.04   -47404.543    4068.8792   -51473.423   0.15662503 
   89900    290.64035   -1024.6223     149934.5   -47394.358    3991.2453   -51385.603   0.15637789 
   90000    297.01282   -995.20707    149914.27   -47413.335    4078.7559   -51492.091   0.14874293 
   90100    297.80745   -998.41306    149912.76   -47395.939    4089.6682   -51485.607   0.15583345 
   90200    294.23295   -971.46191    149911.23   -47472.339     4040.581    -51512.92   0.14855796 
   90300    290.27721   -998.82066    149907.76   -47443.547    3986.2585   -51429.806   0.15659626 
   90400    293.29437   -1005.6941    149913.87   -47430.431    4027.6919   -51458.123   0.15697784 
   90500    296.24121   -999.06852    149927.71   -47439.993    4068.1596   -51508.152   0.15075395 
   90600    294.56313   -1027.9165     149928.1   -47472.394    4045.1152   -51517.509   0.15484427 
   90700    286.97303   -1005.2301     149909.7   -47500.404    3940.8836   -51441.288   0.15443982 
   90800    290.61771   -972.29508    149904.23   -47516.279    3990.9344   -51507.213   0.15130598 
   90900    286.95381   -992.80252    149919.97   -47489.171    3940.6196    -51429.79    0.1521857 
   91000    290.95748     -991.976    149918.92   -47510.113    3995.6004   -51505.714    0.1545525 
   91100    290.22276    -1027.473    149896.81   -47619.549    3985.5107    -51605.06   0.14856494 
   91200     291.2551   -969.39302    149911.96   -47558.067    3999.6874   -51557.754   0.14640448 
   91300    288.07696   -967.82057    149924.63   -47494.244    3956.0434   -51450.287     0.154756 
   91400    293.52297   -1005.2137    149942.19   -47466.365    4030.8312   -51497.196   0.15105455 
   91500     298.7241   -981.85305    149956.63   -47300.834    4102.2562   -51403.091   0.15506892 
   91600    297.51258   -1007.2573    149978.02   -47372.848    4085.6189   -51458.467   0.15732004 
   91700    292.85309    -1010.979    149943.96   -47442.309     4021.632   -51463.941   0.15222728 
   91800    296.34629   -1023.5748    149958.24   -47413.061    4069.6027   -51482.663   0.15310288 
   91900    297.46045   -1024.3017    149977.01   -47404.039    4084.9029   -51488.942   0.15885257 
   92000    292.56543   -981.21308    149953.66    -47451.37    4017.6817   -51469.052   0.15000008 
   92100    291.15284   -1014.1959    149921.56   -47432.458    3998.2831   -51430.741    0.1568387 
   92200    290.85755   -973.72584    149917.36   -47467.453     3994.228   -51461.681   0.15123759 
   92300    298.96412   -959.01218    149940.41   -47342.628    4105.5523   -51448.181    0.1525271 
   92400    293.63826   -990.33789    149921.63   -47386.162    4032.4145   -51418.577   0.16199801 
   92500    298.23426   -1014.2944    149945.49   -47380.586    4095.5294   -51476.116   0.15040449 
   92600     296.6094   -984.53422    149962.31   -47289.619    4073.2158   -51362.835   0.15898325 
   92700    291.81998   -1017.9956    149963.93    -47421.32    4007.4448   -51428.764   0.15669075 
   92800    291.58741   -1040.3442    149957.63   -47429.612    4004.2508   -51433.863   0.15747449 
   92900    290.56584    -1043.648    149940.71   -47465.762    3990.2221   -51455.985   0.15586445 
   93000    292.01447   -969.20255    149928.41   -47471.647    4010.1156   -51481.763   0.15234494 
   93100    296.18103     -1013.98    149961.48   -47389.197    4067.3333    -51456.53    0.1512273 
   93200    291.98235   -984.17058    149943.55   -47447.077    4009.6745   -51456.751   0.15105248 
   93300    292.30079   -980.15586    149923.83   -47499.347    4014.0474   -51513.395   0.15223146 
   93400    287.68159   -1011.9849    149903.39    -47558.63    3950.6139   -51509.244   0.15420299 
   93500    287.05583   -998.73425    149917.19   -47557.524    3942.0206   -51499.545   0.14994335 
   93600    288.95552   -1049.5704     149911.3   -47509.964    3968.1083   -51478.072   0.15780681 
   93700      290.875   -1013.2541    149944.41   -47486.469    3994.4677   -51480.936   0.15232489 
   93800     296.7054   -978.05272    149925.29   -47487.266    4074.5342     -51561.8   0.15141615 
   93900    289.22458    -1029.355    149908.62   -47565.128    3971.8031   -51536.931   0.15545968 
   94000    289.31235    -990.4054    149930.81   -47534.634    3973.0084   -51507.642   0.14702523 
   94100    296.08757   -986.78783    149946.44   -47411.891    4066.0498   -51477.941   0.15694349 
   94200    296.08596     -990.494    149962.92   -47398.702    4066.0277   -51464.729   0.15277646 
   94300    294.29122   -1036.1094    149951.97   -47416.444    4041.3812   -51457.825    0.1558833 
   94400    298.94157   -981.26647    149961.27   -47408.725    4105.2426   -51513.967   0.15471515 
   94500    297.48901   -975.38565     149961.2   -47415.121    4085.2951   -51500.416   0.15124745 
   94600    293.62007   -967.25536    149969.64   -47418.714    4032.1646   -51450.879   0.15059234 
   94700    293.40289   -966.06422    149966.65   -47461.613    4029.1821   -51490.795   0.15248141 
   94800    291.27696   -999.04851    149952.44   -47501.075    3999.9876   -51501.063   0.15011511 
   94900    287.97314   -996.86512    149941.21   -47525.557    3954.6175   -51480.175   0.15234198 
   95000    291.11543   -1006.8317    149930.87   -47489.059    3997.7693   -51486.828   0.15619791 
   95100    293.94831   -1008.7519    149931.56   -47447.331    4036.6722   -51484.003   0.15339846 
   95200    289.63409   -1000.3815     149931.7   -47477.242    3977.4268   -51454.669   0.15208698 
   95300    293.63263   -989.52005    149929.06   -47431.875    4032.3371   -51464.212   0.15305303 
   95400     299.8538   -1021.2395    149935.05   -47399.075    4117.7699   -51516.845    0.1533689 
   95500    298.08491   -997.47007    149934.26   -47421.075    4093.4784   -51514.554    0.1540163 
   95600    295.48335   -993.33375    149924.97   -47399.934    4057.7523   -51457.687   0.15692674 
   95700    290.36513   -1022.2783    149948.38   -47441.907    3987.4658   -51429.373   0.15228348 
   95800    296.56471   -963.84757    149942.99   -47379.837    4072.6021   -51452.439   0.15198793 
   95900    294.66209   -1006.9337    149929.41   -47398.849    4046.4742   -51445.324   0.15872738 
   96000    295.65315   -1019.3798    149959.39   -47372.061    4060.0841   -51432.145    0.1568596 
   96100    300.13601   -978.34843    149978.36   -47316.886    4121.6453   -51438.532   0.15855636 
   96200    303.73311   -1010.2225    149977.71   -47342.481    4171.0428   -51513.524   0.15112204 
   96300    294.40456   -1039.0076     149951.2   -47360.047    4042.9376   -51402.984   0.15430211 
   96400    295.65779   -982.15964     149927.5   -47408.031    4060.1478   -51468.179   0.15438553 
   96500    295.61623   -1009.0275    149947.43   -47411.659    4059.5771   -51471.236   0.15580045 
   96600    292.79868   -985.54104    149936.07   -47460.769    4020.8848   -51481.654   0.14925423 
   96700    290.59258   -985.27092    149956.05   -47432.032    3990.5893   -51422.621   0.15850719 
   96800    294.09884   -978.03795     149956.8   -47448.937    4038.7393   -51487.676   0.15343552 
   96900    292.39433   -996.32104    149969.35   -47462.362     4015.332   -51477.694   0.14869076 
   97000     289.0667    -1009.523    149941.31   -47535.139     3969.635   -51504.774   0.15765561 
   97100     289.8743   -1013.0266    149939.08   -47499.399    3980.7255   -51480.124   0.14927745 
   97200    293.44733   -1000.9166    149968.97   -47445.282    4029.7925   -51475.075   0.15467555 
   97300    295.94822   -965.52873    149993.07   -47332.902    4064.1361   -51397.038   0.15338937 
   97400    295.52753   -997.45022    149973.62   -47426.694    4058.3589   -51485.053   0.15416054 
   97500    298.81859   -1005.3095    149972.35    -47403.85    4103.5538   -51507.404   0.15514103 
   97600    296.25308    -966.8864    149969.98   -47334.944    4068.3227   -51403.266   0.15671051 
   97700    300.06416   -1017.8825    149997.55   -47301.213    4120.6587   -51421.871   0.15638583 
   97800    296.98857   -1017.0444    149960.78   -47411.459    4078.4228   -51489.882   0.15383616 
   97900    294.08827    -971.5249    149936.74   -47363.187    4038.5943   -51401.782   0.15979979 
   98000    291.50851   -1022.0555    149927.55   -47460.823    4003.1674   -51463.991   0.15321392 
   98100     293.4697   -963.39179    149919.86   -47437.633    4030.0996   -51467.733   0.15384004 
   98200    294.69669   -1004.7034    149903.06   -47431.346    4046.9494   -51478.295   0.15760863 
   98300    301.08636   -1006.8147    149927.38   -47371.865    4134.6961   -51506.561    0.1552386 
   98400     297.3318   -1029.6903     149950.1   -47415.173    4083.1363   -51498.309   0.15650165 
   98500    297.63295   -994.49686    149932.82   -47386.977    4087.2719   -51474.249   0.15811352 
   98600    293.61084   -964.85542    149957.56   -47394.738    4032.0378   -51426.776   0.14943735 
   98700    296.65871   -997.85969     149968.4   -47364.006     4073.893   -51437.899   0.16152159 
   98800    295.42721   -1002.7598    149968.12   -47373.088    4056.9813   -51430.069   0.15247345 
   98900    292.43846    -1005.027    149966.49   -47437.363    4015.9381   -51453.301   0.15233802 
   99000    289.36325   -1046.9082    149927.33   -47432.676    3973.7074   -51406.384   0.16182741 
   99100    291.12154   -1010.8215    149922.95   -47497.648    3997.8533   -51495.501   0.14647064 
   99200    292.84155   -987.69632    149912.49   -47496.722    4021.4735   -51518.196   0.15791327 
   99300     291.6338   -986.89276    149913.62   -47417.511    4004.8879   -51422.399   0.15891025 
   99400    292.07615   -980.92469    149907.14   -47463.914    4010.9626   -51474.877   0.15466397 
   99500    291.42561   -982.16377     149902.1   -47413.422    4002.0289   -51415.451   0.15697131 
   99600    295.74554   -988.00439    149898.44   -47408.665    4061.3528   -51470.018   0.15744489 
   99700    296.17409   -1021.8949     149914.9   -47455.914    4067.2379   -51523.152   0.15575198 
   99800    290.96514   -1003.4145    149940.73    -47475.16    3995.7056   -51470.866   0.15027923 
   99900    286.94101    -996.0896    149912.15   -47529.202    3940.4438   -51469.646   0.15643488 
  100000    292.84372   -973.99357    149913.28   -47443.231    4021.5033   -51464.734   0.15476733 
Loop time of 55.279 on 6 procs for 100000 steps with 4608 atoms

Performance: 781.491 ns/day, 0.031 hours/ns, 1809.006 timesteps/s
97.9% CPU use with 6 MPI tasks x no OpenMP threads

MPI task timing breakdown:
Section |  min time  |  avg time  |  max time  |%varavg| %total
---------------------------------------------------------------
Pair    | 37.766     | 38.462     | 39.214     |   8.4 | 69.58
Neigh   | 5.3043     | 5.4436     | 5.6322     |   5.7 |  9.85
Comm    | 7.754      | 8.443      | 9.2533     |  16.7 | 15.27
Output  | 0.20503    | 0.20603    | 0.21041    |   0.4 |  0.37
Modify  | 1.9889     | 2.0244     | 2.0517     |   1.7 |  3.66
Other   |            | 0.7        |            |       |  1.27

Nlocal:        768.000 ave         790 max         758 min
Histogram: 2 1 0 2 0 0 0 0 0 1
Nghost:        1393.67 ave        1404 max        1368 min
Histogram: 1 0 0 0 0 0 1 0 2 2
Neighs:        0.00000 ave           0 max           0 min
Histogram: 6 0 0 0 0 0 0 0 0 0
FullNghs:      21867.3 ave       22477 max       21608 min
Histogram: 2 1 1 1 0 0 0 0 0 1

Total # of neighbors = 131204
Ave neighs/atom = 28.473090
Neighbor list builds = 6329
Dangerous builds = 0

undump              1
unfix               2
unfix               3
unfix               4




################################################
#######         Run Simulation         #########
################################################

reset_timestep      0
log                 log.run_${NAME}
log                 log.run_ice_294K_-1000atm_ML
