
# Create simulation box of size 50 x 50 x 50 Angstrom
#
lattice	            sc 1
Lattice spacing in x,y,z = 1.0000000 1.0000000 1.0000000
region 	            all block 0 ${X} ${YZ_LO} ${YZ_HI} ${YZ_LO} ${YZ_HI} units box
region 	            all block 0 53.4 ${YZ_LO} ${YZ_HI} ${YZ_LO} ${YZ_HI} units box
region 	            all block 0 53.4 -0.09493023947483437.0 ${YZ_HI} ${YZ_LO} ${YZ_HI} units box
region 	            all block 0 53.4 -0.09493023947483437.0 51.002050239476375.0 ${YZ_LO} ${YZ_HI} units box
region 	            all block 0 53.4 -0.09493023947483437.0 51.002050239476375.0 -0.09493023947483437.0 ${YZ_HI} units box
region 	            all block 0 53.4 -0.09493023947483437.0 51.002050239476375.0 -0.09493023947483437.0 51.002050239476375.0 units box
create_box          1 all
Created orthogonal box = (0.0000000 -0.094930239 -0.094930239) to (53.400000 51.002050 51.002050)
  3 by 1 by 2 MPI processor grid

# fill box with 4175 randomly distributed atoms
#
create_atoms        1 random 4608 63782 all
Created 4608 atoms
  create_atoms CPU = 0.001 seconds
mass                1 18.015

# Define potential
#
pair_style          sw
pair_coeff          * * /data/emrosky-sim/Freezing_Simulations/Melting/MLmW_fancy/ML_mW.sw mW
Reading sw potential file /data/emrosky-sim/Freezing_Simulations/Melting/MLmW_fancy/ML_mW.sw with DATE: 2019-02-27

# Run minimization
#
minimize            1.0e-8 1.0e-8 10000 1000
WARNING: Using 'neigh_modify every 1 delay 0 check yes' setting during minimization (../min.cpp:187)
Neighbor list info ...
  update every 1 steps, delay 0 steps, check yes
  max neighbors/atom: 2000, page size: 100000
  master list distance cutoff = 6.0032907
  ghost atom cutoff = 6.0032907
  binsize = 3.0016454, bins = 18 18 18
  1 neighbor lists, perpetual/occasional/extra = 1 0 0
  (1) pair sw, perpetual
      attributes: full, newton on
      pair build: full/bin/atomonly
      stencil: full/bin/3d
      bin: standard
Per MPI rank memory allocation (min/avg/max) = 4.236 | 4.249 | 4.255 Mbytes
Step Temp E_pair E_mol TotEng Press 
       0            0    7194735.9            0    7194735.9    4904705.8 
     648            0   -49893.586            0   -49893.586   -497.14565 
Loop time of 1.23226 on 6 procs for 648 steps with 4608 atoms

99.0% CPU use with 6 MPI tasks x no OpenMP threads

Minimization stats:
  Stopping criterion = max force evaluations
  Energy initial, next-to-last, final = 
      7194735.94878258  -49893.3307146682    -49893.58638214
  Force two-norm initial, final = 1.6520334e+08 4.3786679
  Force max component initial, final = 87961777.0 1.2299506
  Final line search alpha, max atom move = 0.077046141 0.094762945
  Iterations, force evaluations = 648 1000

MPI task timing breakdown:
Section |  min time  |  avg time  |  max time  |%varavg| %total
---------------------------------------------------------------
Pair    | 0.95118    | 1.0535     | 1.1378     |   5.9 | 85.50
Neigh   | 0.023926   | 0.025142   | 0.026238   |   0.4 |  2.04
Comm    | 0.046877   | 0.13218    | 0.23558    |  16.8 | 10.73
Output  | 0          | 0          | 0          |   0.0 |  0.00
Modify  | 0          | 0          | 0          |   0.0 |  0.00
Other   |            | 0.02139    |            |       |  1.74

Nlocal:        768.000 ave         790 max         747 min
Histogram: 1 0 1 0 1 1 1 0 0 1
Nghost:        1566.50 ave        1587 max        1539 min
Histogram: 1 0 0 0 2 0 0 1 1 1
Neighs:        0.00000 ave           0 max           0 min
Histogram: 6 0 0 0 0 0 0 0 0 0
FullNghs:      21781.3 ave       22894 max       20743 min
Histogram: 1 1 0 0 1 1 1 0 0 1

Total # of neighbors = 130688
Ave neighs/atom = 28.361111
Neighbor list builds = 24
Dangerous builds = 0

# Add velocity/set timestep
#
velocity            all create ${TEMP} 120598 rot yes dist gaussian
velocity            all create 294 120598 rot yes dist gaussian
timestep            5.0

# Define output
#
compute	            1 all msd
thermo	            100
thermo_style        custom step temp press vol etotal ke pe c_1[4] density

# Neighbor lists
#
neigh_modify        delay 0 every 1 check yes

# Set fixes
#
fix                 1 all momentum 10 linear 1 1 1 rescale
fix                 2 all nve
fix                 3 all temp/csvr ${TEMP} ${TEMP} 500.0 928347
fix                 3 all temp/csvr 294 ${TEMP} 500.0 928347
fix                 3 all temp/csvr 294 294 500.0 928347
fix                 4 all press/berendsen iso ${PRES} ${PRES} 1000.0 modulus 20000
fix                 4 all press/berendsen iso -1000 ${PRES} 1000.0 modulus 20000
fix                 4 all press/berendsen iso -1000 -1000 1000.0 modulus 20000

# Run 0.5 ns equilibration
#
dump                1 all custom 1000 eq.${NAME}.dump id type x y z vx vy vz
dump                1 all custom 1000 eq.liq_294K_-1000atm_ML.dump id type x y z vx vy vz
run                 100000
Per MPI rank memory allocation (min/avg/max) = 3.486 | 3.501 | 3.505 Mbytes
Step Temp Press Volume TotEng KinEng PotEng c_1[4] Density 
     648          294    826.58909    139422.14   -45856.204     4037.382   -49893.586 2.4556025e-33   0.98869893 
     700    173.49205   -787.24543    140822.48   -44855.532    2382.4956   -47238.027   0.30285888   0.97886729 
     800    222.20014   -942.87798    141747.04   -43592.448    3051.3839   -46643.832   0.86061714   0.97248251 
     900    245.16689   -894.92707    141992.74   -42841.284    3366.7769   -46208.061    1.4952727   0.97079978 
    1000    262.20931   -1059.2609    142312.07   -42274.577    3600.8134   -45875.391    2.1342417   0.96862138 
    1100    273.86972   -939.38638    142844.63   -41846.784    3760.9411   -45607.725    2.8491365   0.96501011 
    1200    279.43042   -1158.7966    142967.41   -41557.748    3837.3039   -45395.052    3.7047784    0.9641814 
    1300    285.34832    -587.6379    142901.82   -41337.142     3918.572   -45255.714    4.5917537   0.96462397 
    1400    288.99742   -1047.1034    143285.29   -41202.366    3968.6837    -45171.05    5.4800168   0.96204236 
    1500    292.51916   -988.00417    143436.64   -41124.807    4017.0463   -45141.853    6.4314781   0.96102726 
    1600    288.95192   -1103.2182    143570.82   -41083.895    3968.0587   -45051.954    7.3815534   0.96012909 
    1700    289.85527   -955.87501    143489.12   -41059.948    3980.4641   -45040.412    8.3604698   0.96067577 
    1800     288.0143   -990.22583    143284.61    -41048.48    3955.1829   -45003.663    9.3783698    0.9620469 
    1900    295.16444   -853.63704    142986.17   -40924.524    4053.3728   -44977.897    10.454158   0.96405489 
    2000    290.48473   -1103.0344    142794.35   -40929.634    3989.1083   -44918.743    11.485898   0.96534992 
    2100    287.54792   -1195.1926    142610.46   -40989.834    3948.7782   -44938.612     12.56799   0.96659469 
    2200    295.00811   -1049.7663       142509   -40890.319     4051.226   -44941.545    13.787962   0.96728291 
    2300     290.1597   -1155.0417    142363.37   -40884.783    3984.6448   -44869.428    14.964074   0.96827238 
    2400    292.28269   -874.22698    142315.75   -40903.626    4013.7989   -44917.425     16.19058   0.96859633 
    2500    300.08582   -943.04583    142276.82   -40864.387    4120.9561   -44985.343    17.428718   0.96886136 
    2600    295.65189   -828.20773    142689.44   -40774.326    4060.0667   -44834.392    18.686098   0.96605967 
    2700    290.20248   -1025.9842    142799.92   -40863.667    3985.2323     -44848.9    19.767561   0.96531229 
    2800    295.21603   -1247.0843    142518.94   -40882.483    4054.0812   -44936.564    20.581262   0.96721545 
    2900    301.89525    -1189.257    142324.99     -40840.2    4145.8043   -44986.004    21.620273   0.96853349 
    3000     296.9137   -853.46094    142549.59    -40831.68    4077.3946   -44909.075    22.747882   0.96700745 
    3100     302.8743   -1039.2341     142755.8   -40816.052    4159.2491   -44975.301    23.708355   0.96561065 
    3200    299.06774    -922.8119    142831.62   -40805.754    4106.9753   -44912.729    24.863585   0.96509804 
    3300    295.11572   -1038.6795    142891.44   -40812.567    4052.7037   -44865.271    26.070799   0.96469403 
    3400    297.63189   -1018.6658    142681.25   -40800.737    4087.2573   -44887.994    27.335856   0.96611512 
    3500    298.74638    -1073.883    142662.63   -40732.984    4102.5621   -44835.546     28.52648   0.96624125 
    3600    299.13308   -1181.7655    142988.97   -40798.405    4107.8725   -44906.277       29.692     0.964036 
    3700     297.5015   -795.32711    142987.68   -40806.772    4085.4667   -44892.239     30.81903   0.96404472 
    3800    297.06508   -930.98665    142866.97   -40777.493    4079.4735   -44856.967    31.891248   0.96485923 
    3900    284.35117   -966.77503    142510.95   -40969.963    3904.8786   -44874.842    32.714011   0.96726964 
    4000    295.89578   -665.84397    142623.69   -40946.403     4063.416   -45009.819    33.752303   0.96650506 
    4100    290.66489   -966.95333    142856.58   -40878.511    3991.5824   -44870.093     34.96167   0.96492942 
    4200    300.11404    -896.5671    143190.93   -40864.254    4121.3436   -44985.598    36.010648   0.96267633 
    4300    294.13482   -1196.2335    143114.04   -40875.517    4039.2334   -44914.751    36.914156   0.96319355 
    4400    296.66836   -934.33232    143013.97   -40832.115    4074.0255   -44906.141     37.88294   0.96386749 
    4500    300.22185   -962.38757    143013.56   -40781.806    4122.8242    -44904.63    38.698724   0.96387028 
    4600    296.13673   -1025.3945    143268.59   -40851.295    4066.7248    -44918.02    39.605443   0.96215449 
    4700    291.13204   -1164.5624    143011.51   -40936.891    3997.9975   -44934.889    40.506138   0.96388406 
    4800    296.01374   -1056.1345    142785.63   -40849.528    4065.0358   -44914.564    41.418842   0.96540892 
    4900    290.21315   -983.84052    142875.78   -40922.637    3985.3788   -44908.016    42.293744   0.96479974 
    5000    296.88636   -1179.3256       142818   -40874.565    4077.0192   -44951.585    43.133511    0.9651901 
    5100     291.6384    -953.4318    142712.31   -40914.709    4004.9512   -44919.661    44.432875   0.96590491 
    5200    287.05304    -1012.863    142888.55   -40997.107    3941.9823    -44939.09    45.390973   0.96471354 
    5300    296.42542   -929.59964    143069.27   -40912.318    4070.6893   -44983.007    46.553068   0.96349491 
    5400    292.73645    -879.9259    142927.62   -40817.351    4020.0301   -44837.381    47.672871   0.96444981 
    5500    295.79854    -993.1047    143399.72   -40809.839    4062.0807    -44871.92    48.868178   0.96127464 
    5600    299.18152    -1276.536    143284.51   -40788.986    4108.5378   -44897.524    49.776175   0.96204761 
    5700    295.77458   -912.07734    143153.94   -40866.672    4061.7515   -44928.424    50.790668   0.96292507 
    5800    297.53657   -905.18946    143105.89   -40782.516    4085.9483   -44868.464    51.833802   0.96324837 
    5900    293.95163   -763.70629    143046.67   -40994.533    4036.7178   -45031.251    53.015384   0.96364717 
    6000    288.98709   -940.33861    142988.47   -41062.823    3968.5418   -45031.365    54.260296   0.96403942 
    6100    293.43765   -1065.0338    142907.59    -40985.94    4029.6595     -45015.6    55.086305   0.96458502 
    6200    286.83619   -944.30549    143191.73   -41065.851    3939.0043   -45004.856    56.288985   0.96267096 
    6300    289.64762   -924.52658    143254.48   -40975.417    3977.6126    -44953.03    57.125571   0.96224926 
    6400    292.37405   -1009.4821    143297.75   -40956.045    4015.0535   -44971.099    58.157018   0.96195869 
    6500    291.32223   -1116.3907    143346.92   -40982.966    4000.6092   -44983.575    59.213933   0.96162876 
    6600    291.93317   -1089.4107    143058.59   -40992.555     4008.999   -45001.554    59.856236   0.96356685 
    6700    292.55449   -1229.0396    142837.23   -41070.821    4017.5315   -45088.353    60.993838   0.96506016 
    6800    291.35389   -832.34492    143325.85   -41024.723    4001.0441   -45025.767     62.35384   0.96177008 
    6900    288.24598   -1104.4834    143283.66   -40923.311    3958.3644   -44881.675    63.167915   0.96205326 
    7000    296.31609   -1069.7442    143376.52   -40919.279    4069.1879   -44988.467    63.795986   0.96143022 
    7100    290.41884   -1012.5535    143204.68   -41002.109    3988.2034   -44990.312    65.047005   0.96258388 
    7200    289.64436   -773.78999    143007.53   -41053.441    3977.5677   -45031.009    66.219263   0.96391089 
    7300    294.25497   -1091.3598    143260.11   -41013.039    4040.8834   -45053.922    67.553374   0.96221147 
    7400    289.20046   -1055.6354    143285.15   -41046.891    3971.4719   -45018.363    68.370951   0.96204326 
    7500    289.90919    -1108.948    143346.21   -40974.325    3981.2045    -44955.53    69.680235   0.96163347 
    7600    287.87323   -863.38872    143308.62   -40976.994    3953.2455   -44930.239    70.671959   0.96188576 
    7700    292.17683   -1075.2534    143249.99   -40975.012    4012.3452   -44987.357    71.635119    0.9622794 
    7800     295.2233    -1033.733    143462.57     -40975.3    4054.1811   -45029.481    73.134939   0.96085351 
    7900    287.54875   -1139.1787    143049.62    -41106.02    3948.7896   -45054.809    74.138414   0.96362729 
    8000    289.33688   -1127.3126    142671.71   -41043.034    3973.3453   -45016.379    75.152997   0.96617972 
    8100    289.08491    -935.0694    142796.12   -40920.154     3969.885   -44890.039    76.254111   0.96533795 
    8200    293.17226   -942.75848    142828.66   -40954.116     4026.015   -44980.131    77.651589   0.96511801 
    8300       295.08   -822.91135    142807.57   -40909.149    4052.2132   -44961.362    78.725949   0.96526056 
    8400    298.77444   -957.91098    143207.34    -40966.13    4102.9475   -45069.077    79.979033   0.96256598 
    8500     296.9917   -1023.6694    143075.65   -40985.412    4078.4658   -45063.878    81.297225   0.96345199 
    8600    293.11388   -1228.7866    142975.05   -40911.483    4025.2133   -44936.696    82.044904   0.96412989 
    8700    290.87333   -1076.6488    143037.99   -40865.206    3994.4447   -44859.651    83.577083   0.96370567 
    8800    296.78888   -977.71326    143131.05    -40876.09    4075.6805   -44951.771    84.997589   0.96307904 
    8900      300.715   -1165.1895    143121.62    -40886.07    4129.5964   -45015.667     86.39493   0.96314248 
    9000    298.74666   -1096.6009    142879.81   -40796.343    4102.5659   -44898.909    87.286642   0.96477257 
    9100    296.42942   -960.13967     142797.8   -40872.834    4070.7442   -44943.578    88.311944   0.96532658 
    9200    294.54014   -1034.0692    142570.04   -40948.814    4044.7995   -44993.614    88.871629   0.96686875 
    9300    301.40612   -983.08132    142723.71   -40857.496    4139.0873   -44996.583    89.578863   0.96582774 
    9400     289.0283    -1135.961    142834.39   -40940.404    3969.1077   -44909.511    90.752443   0.96507931 
    9500    289.70212   -954.38213    142496.45   -40958.192     3978.361   -44936.553    91.723257   0.96736805 
    9600    295.42887   -892.76131    142334.67   -40988.116    4057.0041    -45045.12     93.23153   0.96846762 
    9700    291.15866   -841.97625    142497.48     -40938.9    3998.3631   -44937.264    94.594292   0.96736109 
    9800    298.37943   -1056.7499    142935.29   -40878.132    4097.5229   -44975.655    95.857461   0.96439807 
    9900    289.42254   -1121.3198    142899.83   -40907.343    3974.5217   -44881.864    97.115588   0.96463739 
   10000    292.41301   -1382.5323    142789.33   -40995.114    4015.5885   -45010.702    98.361277   0.96538389 
   10100    295.49108    -1021.995    142875.29   -40956.209    4057.8583   -45014.067    99.536603   0.96480308 
   10200    287.47058   -1380.7419    142507.66   -41020.344    3947.7161    -44968.06    100.46331   0.96729196 
   10300    291.17892   -1014.3958     142367.4   -40945.533    3998.6413   -44944.175    101.30884   0.96824493 
   10400     298.4102   -1240.0944    142465.02   -40863.155    4097.9455     -44961.1    102.37983   0.96758151 
   10500    296.74487   -913.55894    142162.71   -40890.373    4075.0761   -44965.449    103.19539   0.96963907 
   10600    295.38472   -1110.5717    142396.86   -40889.439    4056.3978   -44945.837    104.49802   0.96804466 
   10700    292.91277   -834.98134    142738.53   -40892.823    4022.4515   -44915.275    105.56829   0.96572745 
   10800    300.85752   -921.14189    142932.08    -40813.59    4131.5535   -44945.144    107.16734   0.96441969 
   10900    292.73326   -1019.8227    142980.72    -40812.06    4019.9864   -44832.047    108.13372   0.96409165 
   11000    296.37347   -904.16654    142914.06   -40736.056    4069.9759   -44806.032    109.15573   0.96454133 
   11100    295.13614   -946.92071    142727.17   -40809.771    4052.9842   -44862.755    110.51587   0.96580429 
   11200    297.36674   -904.36098    143055.12   -40808.409     4083.616   -44892.025    112.03866   0.96359026 
   11300    292.62598   -1121.1572    143148.94   -40854.677    4018.5131    -44873.19     112.9088   0.96295869 
   11400    293.10556   -1025.4357    142768.61   -40897.443    4025.0991   -44922.542    113.55256   0.96552395 
   11500     285.0612   -910.19607     142808.1     -41020.9    3914.6291   -44935.529    114.67743     0.965257 
   11600    289.24793   -825.57351    142941.73   -41039.929    3972.1238   -45012.052    116.03448    0.9643546 
   11700    290.30493   -1108.9329     143127.5   -40942.503    3986.6391   -44929.142    117.67735   0.96310294 
   11800    295.03537   -1249.2171    142773.73    -40964.77    4051.6003    -45016.37    118.49497   0.96548937 
   11900     294.6396   -1120.3373    142770.44   -41073.721    4046.1654   -45119.886    119.64663   0.96551159 
   12000    290.17283   -1147.7136    142820.94    -41025.51     3984.825   -45010.335    120.47164   0.96517018 
   12100    289.92302   -896.25051    142785.82   -40959.682    3981.3945   -44941.077    121.21662   0.96540759 
   12200    294.61873   -1089.7617    143083.85    -40801.92    4045.8788   -44847.799    122.75343   0.96339676 
   12300    299.31217   -706.84218    143072.99   -40771.195    4110.3318   -44881.527    123.64856   0.96346987 
   12400    298.13223   -795.17001    143408.34   -40751.363    4094.1283   -44845.491    124.92699   0.96121689 
   12500    295.41443   -1022.4591    143358.16   -40793.161    4056.8058   -44849.967    126.12355   0.96155333 
   12600     297.5429   -1010.5404    143338.99   -40789.708    4086.0353   -44875.743    127.20594   0.96168193 
   12700    295.67319   -1045.0252    143313.19   -40820.651    4060.3593    -44881.01    127.98821   0.96185504 
   12800    298.82179   -1035.6489     143039.7   -40854.401    4103.5977   -44957.999    128.36636   0.96369413 
   12900    293.60133    -1156.738    143195.11   -40908.424    4031.9073   -44940.332    129.52016    0.9626482 
   13000    293.74567   -745.88679    143179.62   -40922.241    4033.8894   -44956.131    130.26763   0.96275234 
   13100    295.00707   -996.53249    143268.37   -40884.787    4051.2117   -44935.999    132.13242   0.96215593 
   13200    297.18766   -1018.9775       143236   -40781.945    4081.1568   -44863.102    133.52677   0.96237339 
   13300    296.23406   -931.55088    143344.01   -40827.865    4068.0615   -44895.926    134.48651   0.96164823 
   13400     292.0021   -919.88705    143209.72   -40833.724    4009.9456    -44843.67    135.02513      0.96255 
   13500    290.80869   -1342.2216    142694.72   -40868.519    3993.5571   -44862.076    136.29003   0.96602398 
   13600    291.80168   -836.38385    142835.47   -40878.738    4007.1934   -44885.931    137.68331   0.96507204 
   13700     296.1179   -1193.9496    142397.42   -40910.204    4066.4663   -44976.671    138.27161   0.96804084 
   13800    290.61686   -887.68625    142418.56   -40984.665    3990.9227   -44975.587    138.80976   0.96789714 
   13900    290.22464   -766.80756    142900.09   -40939.894    3985.5366   -44925.431    140.05675   0.96463561 
   14000    289.29156   -860.58678    142896.22   -41046.912    3972.7229   -45019.635    141.18448   0.96466177 
   14100    292.83698   -1140.0617    143077.34   -40952.462    4021.4108   -44973.873    142.50677   0.96344058 
   14200    293.78587   -816.91812    143017.55   -40957.112    4034.4414   -44991.553    143.57993   0.96384336 
   14300     288.7333    -1045.248    143202.76   -40999.763    3965.0565    -44964.82    145.37299   0.96259679 
   14400    293.32148   -1054.5542    142928.06   -40931.098    4028.0642   -44959.162    146.11374   0.96444685 
   14500    295.39013   -871.36519    143115.98   -41001.042    4056.4721   -45057.514    147.80434   0.96318046 
   14600    292.96346   -920.53606    143238.49   -40858.165    4023.1476   -44881.313    149.09441   0.96235665 
   14700    295.01546   -1021.1307     143470.3   -40928.541     4051.327   -44979.867    150.86643   0.96080176 
   14800    295.75427   -1060.8415    143274.82   -40932.518    4061.4726   -44993.991    151.81203   0.96211265 
   14900    293.93457   -805.40398    143545.02    -40895.77    4036.4835   -44932.253    152.94305   0.96030162 
   15000    289.96114   -1167.2191    143078.47   -40998.148     3981.918   -44980.065    154.05817   0.96343298 
   15100    288.95556   -1080.7762     142925.1   -40964.235    3968.1088   -44932.344    155.45111   0.96446679 
   15200    292.51491   -1115.0771    142769.65   -41036.916    4016.9878   -45053.904    156.35127   0.96551696 
   15300    292.74981     -888.433    142371.98   -40996.591    4020.2137   -45016.804    157.58902   0.96821381 
   15400    293.66982   -892.90163    142339.85   -40888.563    4032.8478    -44921.41    158.86065   0.96843233 
   15500     295.3757   -1083.0446    142508.85   -40926.389     4056.274   -44982.663    160.06634    0.9672839 
   15600    290.49829   -1104.3065    142513.73   -40966.359    3989.2945   -44955.654    161.57929   0.96725075 
   15700    295.28921   -969.84373    142454.41   -40933.275    4055.0862   -44988.361    162.55559   0.96765358 
   15800    290.60218    -1071.218     142360.8   -40904.737    3990.7212   -44895.459    163.74178   0.96828984 
   15900    299.09679   -878.45882    142009.05   -40910.635    4107.3742   -45018.009    164.87038   0.97068825 
   16000    293.76786   -1123.2267    142381.23   -40963.321    4034.1941   -44997.515     166.1637   0.96815088 
   16100    292.14138   -1050.0561    142270.31   -40968.014    4011.8584   -44979.873    167.47727   0.96890575 
   16200    294.23528   -1088.1984    142610.62   -40798.903     4040.613   -44839.516    168.81415   0.96659361 
   16300    298.03402   -844.77306    142438.35   -40766.137    4092.7796   -44858.917    170.30578   0.96776269 
   16400    300.73308   -943.78147    142602.16    -40788.24    4129.8446   -44918.084    171.56457   0.96665099 
   16500     296.5874   -1229.9379    143179.74   -40798.649    4072.9138   -44871.562    173.17675   0.96275154 
   16600    297.40548   -804.39758    143348.82   -40840.786    4084.1481   -44924.934    175.05031   0.96161602 
   16700    292.67391   -679.04578    143591.08   -40905.557    4019.1713   -44924.728    176.42026   0.95999357 
   16800    294.64547   -1061.9482    143107.57   -40858.078    4046.2461   -44904.325     176.8141   0.96323706 
   16900    292.35606   -1126.3449    142918.91   -40905.844    4014.8064    -44920.65    177.74393   0.96450858 
   17000    295.21007   -1033.0188    142467.55     -40903.5    4053.9994   -44957.499    178.34076   0.96756431 
   17100    299.11827    -735.8785     142244.4   -40849.702    4107.6691   -44957.371    179.12778   0.96908219 
   17200    295.43053   -1039.0687    142078.19   -40844.518    4057.0269   -44901.544    180.02884    0.9702159 
   17300    290.05804     -1193.88    142177.98   -40865.718    3983.2487   -44848.966    181.38689   0.96953491 
   17400    293.45341   -1254.4017    141723.34    -40847.33    4029.8759   -44877.206    182.24281   0.97264512 
   17500    289.12624   -1144.2842    141840.29     -40854.2    3970.4526   -44824.652    183.45352   0.97184317 
   17600    295.57237   -785.11324    142033.27   -40831.736    4058.9747    -44890.71    184.45689    0.9705227 
   17700     298.6414   -987.46737    141752.41   -40826.957    4101.1205   -44928.077    185.94649   0.97244564 
   17800    297.17918   -928.53762    141801.31   -40895.636    4081.0405   -44976.676    187.27598   0.97211033 
   17900    297.02882   -981.69659    141916.09   -40945.121    4078.9756   -45024.097    187.98137   0.97132411 
   18000    289.08057   -1045.0106    141695.59   -41039.878    3969.8255   -45009.703    188.67821   0.97283558 
   18100    289.23289   -577.34813    141861.18    -40971.16    3971.9173   -44943.077    189.56258   0.97170009 
   18200    290.35413   -726.53632    142183.92   -40924.742    3987.3147   -44912.056    191.10486   0.96949442 
   18300    293.40492   -871.84123    142482.69   -40925.739      4029.21   -44954.949    192.18999   0.96746148 
   18400    293.67007    -842.5444    142185.81   -41006.647    4032.8512   -45039.498    193.09931   0.96948156 
   18500     299.4765   -810.35126    142327.93   -40936.103    4112.5886   -45048.692    193.62388   0.96851345 
   18600     296.1431   -968.41865    142745.81   -40918.905    4066.8123   -44985.717    195.00775   0.96567819 
   18700    295.76199   -985.48455    142850.47   -40810.088    4061.5788   -44871.667    195.84662   0.96497067 
   18800    296.61769   -808.36339    142597.72   -40898.341    4073.3297    -44971.67    196.80467   0.96668106 
   18900    298.94632   -1179.7831    142515.05   -40936.273    4105.3078    -45041.58    198.03164    0.9672418 
   19000    290.20435   -956.82353    142534.46   -40934.612    3985.2579   -44919.869     198.9194   0.96711013 
   19100    294.57959    -1054.072    142657.18    -40959.87    4045.3413   -45005.212    200.54935   0.96627814 
   19200    299.29335   -949.22981    142680.95   -40899.353    4110.0735   -45009.426     201.6735   0.96611715 
   19300    300.58428   -1016.6044    142767.39   -40845.344    4127.8012   -44973.145    202.79922   0.96553225 
   19400    295.70649   -873.70973    142680.55    -40892.46    4060.8165   -44953.277     204.1397    0.9661199 
   19500    297.76024   -1235.3359    142606.46   -40875.285    4089.0199   -44964.305    205.13993   0.96662186 
   19600     295.7002   -1109.7425    142555.67   -40885.472    4060.7301   -44946.202    206.88152    0.9669662 
   19700    294.81115   -1087.5703    142695.67   -40860.026    4048.5212   -44908.547    208.34237    0.9660175 
   19800    296.69335    -857.1491    142721.27   -40872.877    4074.3688   -44947.246    209.53551   0.96584426 
   19900    298.41841   -625.06784    142831.82     -40850.5    4098.0583   -44948.559    211.25614   0.96509671 
   20000    292.66075   -912.84737    142988.67   -40820.526    4018.9906   -44839.517    212.67007   0.96403805 
   20100    298.82011   -1211.6893    142598.81   -40832.963    4103.5746   -44936.538    213.30613   0.96667366 
   20200    296.79847   -975.29798    143007.32   -40772.752    4075.8123   -44848.565     214.7694   0.96391229 
   20300    297.05887   -1172.2942    142918.79   -40744.886    4079.3883   -44824.274    216.27627   0.96450939 
   20400    293.37681   -1083.3513    142677.49   -40802.735     4028.824   -44831.559    217.67736   0.96614061 
   20500      297.289   -832.72387    142889.69   -40730.619    4082.5486   -44813.168    219.61704    0.9647058 
   20600    296.12832   -1037.5586    143023.63   -40784.663    4066.6094   -44851.272    221.52094   0.96380242 
   20700    289.01084   -1254.3411    143057.04   -40904.349    3968.8679   -44873.217    222.49649   0.96357731 
   20800    294.21198   -836.07386    142998.96   -40946.542    4040.2931   -44986.835    223.37897   0.96396865 
   20900    298.26271   -1005.7173    142748.85   -40874.312    4095.9201   -44970.232    224.08878   0.96565766 
   21000    295.10539   -725.29267    142583.01       -40849    4052.5618   -44901.561    224.09324   0.96678083 
   21100    289.64724   -1402.3598    142253.28   -40925.521    3977.6073   -44903.128    224.62489   0.96902172 
   21200    295.65046   -698.66591    142356.55   -40999.969    4060.0472   -45060.016    226.09399   0.96831873 
   21300    289.73889   -784.73965    142510.67   -41025.893    3978.8659   -45004.759    227.73965   0.96727152 
   21400    293.79405   -1048.2575    142683.68   -40890.394    4034.5538   -44924.948    228.90892   0.96609872 
   21500     293.3207   -1154.9562    142897.75   -40840.448    4028.0535   -44868.501    230.69258    0.9646514 
   21600    294.79101   -1154.6928    142765.73   -40891.312    4048.2447   -44939.556    231.56778   0.96554344 
   21700    293.33461   -1098.0014    142483.07    -40864.62    4028.2445   -44892.864    232.70929   0.96745895 
   21800     295.6668   -869.91397    142977.48   -40777.976    4060.2715   -44838.248    234.12871   0.96411346 
   21900    295.75757    -901.5221    143084.72   -40746.643     4061.518   -44808.161    234.44477   0.96339091 
   22000    300.99621   -1015.6769    143389.47   -40817.553    4133.4581   -44951.011    235.91908   0.96134339 
   22100    299.16036   -1094.2774    143500.89   -40793.854    4108.2472   -44902.101    237.50741   0.96059695 
   22200    296.64835   -780.52166    143457.19   -40752.178    4073.7508   -44825.929    238.62563   0.96088954 
   22300    296.06447   -994.14971    143722.57   -40765.794    4065.7325   -44831.527    239.76028   0.95911528 
   22400     299.8934   -1205.6142    143920.65   -40840.397    4118.3136    -44958.71    241.36527   0.95779527 
   22500    296.36879   -1017.5916    143376.58   -40893.332    4069.9116   -44963.243    241.74229   0.96142979 
   22600    289.67515   -1019.1307    143265.27   -40915.826    3977.9907   -44893.817    243.43651   0.96217681 
   22700    296.40991   -1030.0787    143140.92   -40890.633    4070.4764   -44961.109    244.24558   0.96301266 
   22800    290.31932   -969.12042    142834.41   -41016.583    3986.8368    -45003.42    245.47993   0.96507916 
   22900    290.08686   -935.43874     142786.6   -40985.227    3983.6445   -44968.871    246.50445   0.96540231 
   23000    297.02504   -926.87389    142741.62   -40874.656    4078.9236    -44953.58    247.44468   0.96570656 
   23100    295.16501   -942.50737    142967.86   -40879.476    4053.3806   -44932.857    249.35939   0.96417835 
   23200    298.15283   -1182.7432    142778.42   -40897.599    4094.4111    -44992.01    250.07231   0.96545766 
   23300    293.59736   -830.32619    142456.81   -41005.451    4031.8527   -45037.304    250.57552   0.96763724 
   23400    296.37631   -999.44603    142491.95    -40910.28    4070.0149   -44980.294    251.15203   0.96739866 
   23500    289.88668   -1051.8662    142679.56   -40935.097    3980.8954   -44915.993    252.40587   0.96612656 
   23600    290.90679   -820.60554    142558.91   -40969.613    3994.9043   -44964.517    252.71321   0.96694425 
   23700    293.81393   -991.56571    142311.58   -41018.898    4034.8267   -45053.725    253.76189   0.96862471 
   23800    296.73461   -947.76557    142642.48   -40939.991    4074.9353   -45014.926    254.96237   0.96637776 
   23900    291.93354   -883.02739    142515.32   -40875.647    4009.0042   -44884.651    255.88633   0.96723997 
   24000    297.12458   -870.24843    142864.92   -40838.832    4080.2906   -44919.122    257.00256   0.96487312 
   24100     291.7731   -852.92711    143052.97   -40815.866    4006.8009   -44822.667    258.67682   0.96360469 
   24200    300.72023   -963.02566    142619.29   -40753.117    4129.6681   -44882.785    259.77179   0.96653484 
   24300    295.02331   -1106.7091    142486.51   -40834.272    4051.4347   -44885.707    261.36212   0.96743558 
   24400    301.11631   -1097.9509    142531.26   -40774.484    4135.1074   -44909.591    262.91359   0.96713185 
   24500    291.19488   -1022.4493    142583.31   -40858.779    3998.8605   -44857.639    264.23707   0.96677877 
   24600    297.89515   -822.28275    142816.53   -40825.679    4090.8725   -44916.552    264.85164       0.9652 
   24700    295.63037   -1039.4396    142655.54   -40812.379    4059.7712    -44872.15    264.87035   0.96628928 
   24800     298.2184   -899.02647    142838.23   -40816.769    4095.3116    -44912.08    265.77155   0.96505335 
   24900    292.68249   -944.72989    142786.73   -40863.246    4019.2891   -44882.535    266.74583   0.96540144 
   25000    295.67951   -1066.8217    142739.82   -40907.167    4060.4461   -44967.613    267.58049   0.96571873 
   25100    288.11923   -1030.5183     142954.5    -40929.63    3956.6239   -44886.254    268.37276   0.96426844 
   25200    294.20002    -898.4119    143000.49     -40908.3    4040.1289   -44948.429     269.3771   0.96395837 
   25300     287.0463   -1095.6543    143055.61   -40910.476    3941.8897   -44852.365    270.07654   0.96358691 
   25400    294.91433   -925.73369    142742.67   -40801.669    4049.9382   -44851.608    269.84198   0.96569947 
   25500    286.62805   -926.78175    142843.92   -40863.351    3936.1461   -44799.497    271.00664   0.96501497 
   25600    294.09189   -1053.7995       142907   -40913.693     4038.644   -44952.337    271.80032   0.96458897 
   25700    292.56245   -926.68642    142770.28   -40915.858    4017.6407   -44933.499    272.92578   0.96551269 
   25800    290.21449   -875.89458    142642.28   -41045.374    3985.3971   -45030.772    273.61299    0.9663791 
   25900    290.84489   -868.75117    142744.95    -41068.66    3994.0542   -45062.714    274.61223     0.965684 
   26000     288.5541   -900.12984    143007.92   -40924.859    3962.5958   -44887.454    276.21298   0.96390824 
   26100    289.22016   -1039.7774     143192.7   -40936.686    3971.7424   -44908.429    277.79569   0.96266442 
   26200    298.77153   -1291.4659    143172.62   -40784.713    4102.9075   -44887.621    278.60057   0.96279946 
   26300    293.80898   -1043.6528    142897.38   -40913.809    4034.7588   -44948.568    279.56456   0.96465392 
   26400    295.88898    -1161.323    142833.98   -40889.773    4063.3226   -44953.095    280.21658    0.9650821 
   26500    300.14642   -1088.2267    142666.97   -40801.175    4121.7883   -44922.963    280.40886   0.96621183 
   26600    295.56296   -1070.4628    142753.86   -40916.405    4058.8456   -44975.251    281.20576   0.96562372 
   26700    293.50437   -998.48022    142775.46    -40839.01    4030.5757   -44869.585    282.07404   0.96547767 
   26800    292.58196   -1158.5697     142710.1   -40886.354    4017.9086   -44904.263    282.26873   0.96591983 
   26900    287.36406   -908.54545     142948.2   -40971.936    3946.2534    -44918.19    283.98707   0.96431096 
   27000    290.04179   -984.87301    142633.95   -41007.766    3983.0255   -44990.791    284.67657   0.96643554 
   27100    297.66821    -1014.001    142895.07    -40893.06    4087.7561   -44980.817    285.40561    0.9646695 
   27200    293.61336   -1099.9875    142753.31   -40823.003    4032.0724   -44855.076    286.25889    0.9656275 
   27300    300.04465   -895.80343    142894.31   -40749.652    4120.3907   -44870.043    287.78899   0.96467461 
   27400    292.06238    -1070.157    142974.72   -40801.113    4010.7735   -44811.886    289.11529   0.96413211 
   27500    292.21815    -998.3439    142888.21   -40824.098    4012.9126   -44837.011    290.67195   0.96471583 
   27600    298.80823    -944.6473    142542.17   -40766.807    4103.4114   -44870.218    291.25475    0.9670578 
   27700    299.38047    -961.2646       142600   -40779.585    4111.2698   -44890.854    292.52124   0.96666559 
   27800    297.81301   -1051.8038    142815.71   -40813.453    4089.7446   -44903.198    294.18866   0.96520554 
   27900    296.98653   -953.02126    143083.15   -40747.732    4078.3949   -44826.127    295.93851   0.96340145 
   28000    294.56812   -888.94387    143069.88   -40696.817    4045.1838   -44742.001    297.15114   0.96349085 
   28100     293.6685   -1057.5556    142937.98   -40764.679    4032.8297   -44797.509    298.51422    0.9643799 
   28200    286.71765   -664.96295    142952.41   -40868.963    3937.3765   -44806.339    299.80584   0.96428259 
   28300    294.37419   -1179.3225       142783   -40857.151    4042.5206   -44899.671    300.46499   0.96542664 
   28400    296.95335    -1075.811    142933.82   -40720.729    4077.9391   -44798.668    302.37278   0.96440797 
   28500    297.46057   -906.89216     142984.4   -40824.729    4084.9047   -44909.634    302.92219   0.96406685 
   28600    292.71217   -1182.2303    142813.63   -40889.018    4019.6968   -44908.714    303.30663    0.9652196 
   28700    293.68747   -1114.3087    142405.26    -40975.95    4033.0902    -45009.04    303.36632   0.96798755 
   28800    293.66992   -1277.0343    142375.28   -40920.948    4032.8492   -44953.797    304.15759   0.96819138 
   28900    293.24369    -1112.468    142200.38   -40905.561    4026.9959   -44932.557    306.03254   0.96938222 
   29000    288.80619   -990.28339    142474.08   -40874.276    3966.0576   -44840.334     307.1978   0.96751997 
   29100    291.40544   -1067.8073    142378.54   -40852.781    4001.7519   -44854.533    307.86644    0.9681692 
   29200    289.88099   -1098.9057     142322.1   -40906.827    3980.8174   -44887.644    308.39885   0.96855312 
   29300     295.7844   -944.65902    142200.77   -40830.555    4061.8865   -44892.442    309.39573   0.96937951 
   29400    293.06802   -857.75345    142263.82   -40918.393    4024.5836   -44942.977    310.98287   0.96894989 
   29500    291.42495   -886.33805    142575.22   -40862.764    4002.0199   -44864.784    312.65606   0.96683365 
   29600    293.64191   -1065.3155    142907.14   -40874.708    4032.4645   -44907.172    314.65775   0.96458806 
   29700    295.92429   -1168.3571    142618.75   -40822.567    4063.8075   -44886.374    315.16689   0.96653852 
   29800    297.01228    -1194.461    142345.25   -40772.641    4078.7485   -44851.389    315.43265   0.96839563 
   29900    292.36338   -895.76342    142537.23   -40754.076     4014.907   -44768.983    316.80615   0.96709129 
   30000    296.90592    -1066.854    142317.98   -40769.149    4077.2878   -44846.437    317.67668   0.96858118 
   30100    297.58144   -1009.2613    142452.95    -40781.06    4086.5645   -44867.625    319.55777   0.96766346 
   30200    298.76466   -914.18269    142428.78   -40805.425    4102.8132   -44908.238    320.57502   0.96782768 
   30300    291.50696   -860.30163    142313.19   -40843.226    4003.1461   -44846.372    320.97353   0.96861381 
   30400    295.03214   -977.88283    142407.37   -41002.406     4051.556   -45053.962    322.36175   0.96797318 
   30500    292.94632   -1036.4823    142414.37   -41004.137    4022.9123   -45027.049    323.58583   0.96792564 
   30600    291.98811   -974.47779    142638.77   -41063.114    4009.7535   -45072.867    325.09421   0.96640288 
   30700    291.19803   -909.60677    142732.59   -40988.418    3998.9037   -44987.322    325.67495   0.96576761 
   30800      288.409   -889.05833    142933.35   -40913.719    3960.6032   -44874.322    326.98825   0.96441116 
   30900    295.24027   -1097.9148    142504.58   -40973.931    4054.4141   -45028.345    327.12338   0.96731289 
   31000    290.77348   -1019.2258    142230.97   -40938.995    3993.0736   -44932.068    328.39512   0.96917374 
   31100    291.26283   -949.45351     142378.8   -41055.334    3999.7936   -45055.128    329.62266   0.96816741 
   31200    290.63388   -676.83395    142659.33   -40977.676    3991.1564   -44968.832    330.96662    0.9662636 
   31300    288.40361   -1224.6673    142665.43   -40944.508    3960.5291   -44905.037    331.77283   0.96622225 
   31400     291.7251   -919.55774     142493.1   -40947.128    4006.1418    -44953.27    332.07242   0.96739084 
   31500    294.93627   -851.06818    142874.56   -40824.255    4050.2394   -44874.494    333.73113   0.96480797 
   31600    291.83567   -1007.8496    143101.35   -40888.298    4007.6602   -44895.958    335.20672   0.96327895 
   31700    294.24594   -993.41639    143305.14   -40890.513    4040.7594   -44931.272    336.98064   0.96190909 
   31800    292.76615   -1142.4838    143088.29   -40892.259     4020.438   -44912.697    338.26671   0.96336687 
   31900     294.7781   -927.05638    142823.34   -40821.599    4048.0673   -44869.666    339.14461   0.96515402 
   32000    290.63087   -890.41389     142801.2   -40824.065    3991.1152    -44815.18    339.84083   0.96530365 
   32100    294.42371   -988.87429    143041.68   -40870.809    4043.2007    -44914.01    341.45553   0.96368075 
   32200     291.0244    -854.2436     142993.4   -40880.806    3996.5193   -44877.325    342.70003   0.96400612 
   32300    292.68961   -939.75504    143022.15   -40842.923    4019.3869    -44862.31    344.50789   0.96381238 
   32400    303.37803   -950.00986    142869.45   -40770.477    4166.1667   -44936.644    346.14164   0.96484246 
   32500    295.29198   -1000.8706     142674.3    -40898.68    4055.1243   -44953.804    346.95565   0.96616221 
   32600    286.91544   -1085.7811    142698.67   -40934.454    3940.0926   -44874.547    348.91346   0.96599718 
   32700    298.82995   -1108.4182    142376.34   -40890.767    4103.7098   -44994.477    350.07254   0.96818415 
   32800    290.33183   -790.82152    142617.55   -40970.418    3987.0085   -44957.426     351.8344   0.96654668 
   32900    286.73347    -985.7443    142998.27   -41033.414    3937.5937   -44971.007    353.81876   0.96397329 
   33000    292.68918     -1081.53    142992.22   -40970.505    4019.3811   -44989.886    355.52888    0.9640141 
   33100     289.5773   -1085.2625    142698.37   -40907.329    3976.6469   -44883.976    356.16877   0.96599921 
   33200    294.62888   -897.03534    142688.54   -40882.898    4046.0182   -44928.916     357.1139   0.96606578 
   33300    287.02288   -960.13678    142944.02   -40886.691    3941.5681   -44828.259    359.62987   0.96433915 
   33400    291.13795   -920.94986    142974.03   -40884.283    3998.0786   -44882.362    360.53546   0.96413678 
   33500    295.24716   -1218.9485    142622.66    -40794.72    4054.5088   -44849.229    361.09243   0.96651203 
   33600    290.95956   -1159.1381    142239.09   -40858.604     3995.629   -44854.233    362.19239    0.9691184 
   33700    292.50649   -1190.2288    142082.77   -40851.745    4016.8723   -44868.618    362.40138   0.97018459 
   33800    298.24998    -996.5162     142252.1   -40861.762    4095.7453   -44957.508    362.98145   0.96902974 
   33900    296.93429   -1094.3981    142085.36   -40857.569    4077.6774   -44935.246    363.47306   0.97016689 
   34000    288.08362   -1114.3763    141934.63   -40931.259    3956.1348   -44887.394     363.9786   0.97119722 
   34100    286.63558   -795.26212    142107.09    -41008.85    3936.2495   -44945.099    364.51802   0.97001858 
   34200    291.53536   -820.32124    141826.65   -41000.378    4003.5362   -45003.915    364.60567   0.97193665 
   34300    289.02992   -943.54556    141702.62   -40949.908    3969.1299   -44919.038    364.69973   0.97278736 
   34400    298.53448   -899.73561    141909.91   -40806.968    4099.6522   -44906.621    366.71422   0.97136641 
   34500    300.19618   -920.56633    142054.62   -40760.782    4122.4717   -44883.253    368.05165   0.97037684 
   34600    294.04977   -952.59841    142154.82   -40881.408    4038.0655   -44919.474    368.89026   0.96969287 
   34700    292.51091   -937.21191     142220.6   -40917.241     4016.933   -44934.174    369.59428    0.9692444 
   34800    294.49603   -1003.0973    142449.15   -40928.136    4044.1938    -44972.33    371.83052   0.96768932 
   34900    287.75511   -677.90109    142517.55   -40893.274    3951.6235   -44844.898    373.15875   0.96722485 
   35000    294.31759   -890.19901    142797.47    -40960.88    4041.7434   -45002.623    373.70148   0.96532886 
   35100    296.62466   -1297.9238    142697.92   -40891.567    4073.4254   -44964.993    374.45221   0.96600227 
   35200    296.47445   -786.49955    143104.09   -40766.302    4071.3626   -44837.665    376.02538   0.96326048 
   35300    292.32624   -901.42718    142924.08   -40859.243     4014.397    -44873.64    376.99551   0.96447372 
   35400    287.85281   -968.04377    143198.67   -40936.308    3952.9652   -44889.273    377.86082    0.9626243 
   35500    292.59628   -861.23582    143092.44   -40888.212    4018.1053   -44906.317    378.90985   0.96333894 
   35600    295.56113   -977.29452    143140.84   -40893.373    4058.8204   -44952.194    381.03781   0.96301318 
   35700    299.02083   -985.76153    143222.54   -40835.266     4106.331   -44941.597    381.72519   0.96246384 
   35800    296.33187   -876.20158    143403.03   -40821.708    4069.4047   -44891.113    383.23335   0.96125249 
   35900    301.89676   -1238.2547    143447.41   -40808.791     4145.825   -44954.616    384.30787   0.96095506 
   36000    300.49889   -848.99547    143710.83   -40870.715    4126.6286   -44997.344    385.19346   0.95919365 
   36100    292.40828   -1052.7976    143741.88   -40940.297    4015.5235   -44955.821    386.63492   0.95898645 
   36200    293.70108   -953.11055    143527.49   -40890.381    4033.2771   -44923.658    387.01904   0.96041894 
   36300    297.58124   -899.27443    143633.08    -40880.26    4086.5618   -44966.822    388.36453   0.95971287 
   36400    299.92122   -921.56825    143548.72   -40765.472    4118.6957   -44884.167    388.75881   0.96027688 
   36500      301.656   -1246.7708    143487.86   -40742.773    4142.5187   -44885.292    389.87425   0.96068415 
   36600    292.16948   -1002.3412    143433.99   -40890.661    4012.2443   -44902.905    391.13603   0.96104499 
   36700    289.04676   -822.96867    143529.55   -40886.107    3969.3612   -44855.468     392.0816   0.96040513 
   36800    291.36396    -1153.145    143291.84    -40950.79    4001.1823   -44951.973    392.70486   0.96199836 
   36900    289.69799   -634.63995     143326.3   -40953.078    3978.3043   -44931.383    393.46822   0.96176706 
   37000    289.53151   -1019.3737    143557.14   -40893.727    3976.0181   -44869.745    395.58116   0.96022052 
   37100    290.42453   -1031.3003    143150.92   -40915.008    3988.2815   -44903.289    395.97655   0.96294536 
   37200    292.86767   -1206.6682    143131.32   -40915.167    4021.8322   -44936.999    396.17418   0.96307726 
   37300    293.53577   -862.04387    143291.85   -40914.935     4031.007   -44945.942    397.76365   0.96199828 
   37400    290.86474   -1091.5501    143214.15   -40984.185    3994.3267   -44978.512    398.61204    0.9625202 
   37500    293.48518   -935.01132    143408.92   -40989.503    4030.3122   -45019.815    400.05426   0.96121297 
   37600    291.58018   -1114.8813    143340.99    -40973.54    4004.1516   -44977.691    401.09327   0.96166849 
   37700    290.66075   -1226.0625    142859.93   -41046.076    3991.5255   -45037.601    401.48137   0.96490678 
   37800     291.8441    -1155.761    142944.31   -41002.803    4007.7759   -45010.578    402.94316   0.96433718 
   37900    292.34863   -1131.4448    142828.25   -41011.644    4014.7044   -45026.349    403.64368    0.9651208 
   38000    292.35176   -892.32884    142661.75   -40996.984    4014.7474   -45011.731     404.7696   0.96624722 
   38100    294.97599   -1126.5593    142632.27    -40998.56    4050.7849   -45049.345    406.00889   0.96644692 
   38200    290.73877   -1216.7504    142470.77   -41091.956    3992.5968   -45084.553    407.04653   0.96754244 
   38300    288.57692   -1001.5582     142566.1   -41093.934     3962.909   -45056.843    407.97651   0.96689545 
   38400    284.83672   -1174.8399    142188.69   -41181.592    3911.5464   -45093.139    408.34159   0.96946186 
   38500    284.89104   -889.75062    142223.72   -41121.364    3912.2924   -45033.657    409.31658   0.96922314 
   38600    291.90391    -944.9645    142311.26    -41025.03    4008.5973   -45033.628    410.63972   0.96862694 
   38700    291.40859   -1004.1555    142641.07   -41010.862    4001.7952   -45012.657    412.54323   0.96638728 
   38800    293.10532    -1061.888    142719.24    -40973.93    4025.0957   -44999.026    414.37966   0.96585799 
   38900    293.05873   -901.01737    143072.17   -40859.377    4024.4559   -44883.833    416.28166   0.96347539 
   39000    289.99207   -1249.9857    142838.19   -40848.769    3982.3427   -44831.111    417.52769   0.96505364 
   39100    293.00117   -1096.6191    142300.45   -40946.422    4023.6655   -44970.088    417.54532    0.9687005 
   39200    293.50732   -834.84474     142634.2   -40891.607    4030.6162   -44922.223    419.22545   0.96643383 
   39300    293.01204   -1096.5118    142250.22   -40879.722    4023.8148   -44903.537    418.96366   0.96904258 
   39400    295.85242   -1257.7762    142243.64   -40886.224    4062.8205   -44949.044    419.35601   0.96908736 
   39500     296.8883   -933.95201    142496.97   -40830.224    4077.0458    -44907.27    421.21331   0.96736454 
   39600    291.80925   -978.42353    142392.83   -40847.635    4007.2973   -44854.933    422.44993   0.96807202 
   39700    291.22305   -869.37204    142116.38   -40895.789    3999.2473   -44895.036    422.62977   0.96995513 
   39800    296.11727   -870.79673    142192.51   -40902.351    4066.4576   -44968.808      423.617   0.96943582 
   39900    287.26851   -870.75168    142430.87   -41081.143    3944.9412   -45026.084    426.06303   0.96781345 
   40000    292.96181   -997.80392    142494.64   -40981.151     4023.125   -45004.276    427.28684   0.96738036 
   40100    294.06494   -1059.6054     142745.1    -40909.72    4038.2738   -44947.994    429.02916   0.96568303 
   40200    300.68504   -1225.4877    142648.16   -40817.248     4129.185   -44946.433    430.28721   0.96633922 
   40300    289.42849   -976.75075     142318.6   -40888.642    3974.6033   -44863.246     430.7161   0.96857697 
   40400    296.37751   -1310.6434    142269.18   -40899.781    4070.0314   -44969.812    432.22002   0.96891339 
   40500    294.92164   -705.03514    142497.36   -40892.453    4050.0386   -44942.491    433.90412   0.96736187 
   40600    294.60963   -1045.8227    142517.31   -40900.486    4045.7538    -44946.24    435.29357   0.96722647 
   40700    294.42651   -1082.1914    142249.14   -40866.176    4043.2392   -44909.415    436.32727   0.96904994 
   40800     294.5049    -759.1905    142266.02   -40914.214    4044.3157    -44958.53    436.99646   0.96893494 
   40900    293.25341   -861.76591    142547.36   -40920.016    4027.1293   -44947.145    438.42819   0.96702259 
   41000    294.27768    -1293.595    142586.22   -40899.123    4041.1953   -44940.318     440.1503   0.96675907 
   41100    293.33582   -988.34936    142458.64   -40880.559    4028.2611    -44908.82    441.39707   0.96762482 
   41200    294.73258   -934.77845     142553.1   -40791.699    4047.4422   -44839.141    442.76575   0.96698367 
   41300    289.55357   -1057.2293    142605.43   -40920.382     3976.321   -44896.703    444.41367   0.96662878 
   41400    292.96854   -1145.6183    142560.78   -40890.511    4023.2174   -44913.729    445.10602   0.96693154 
   41500    290.23994   -925.14382    142626.02   -40882.426    3985.7466   -44868.173    447.32882   0.96648927 
   41600    294.01546   -886.12274    142579.22   -40826.823    4037.5944   -44864.417    448.47665   0.96680653 
   41700    290.39142   -919.62182     142760.7   -40899.138    3987.8268   -44886.965     449.8944   0.96557747 
   41800    303.17758   -975.67548     142987.1   -40811.871     4163.414   -44975.285     451.1847   0.96404863 
   41900    293.66215   -957.94082    142935.05   -40852.422    4032.7424   -44885.164    452.72728   0.96439967 
   42000    295.49893   -954.62603    143008.24   -40885.823    4057.9661   -44943.789    454.09208   0.96390612 
   42100    296.42108    -1256.576    142996.17    -40878.79    4070.6297    -44949.42    454.72245   0.96398746 
   42200    291.91674   -947.32658    143007.66   -40879.121    4008.7734   -44887.894    455.93067   0.96391001 
   42300    293.41166   -885.33881    142810.68   -41018.296    4029.3026   -45047.599    456.31576   0.96523956 
   42400    294.83293   -839.29071    142648.43    -40939.05    4048.8202    -44987.87    456.85126   0.96633744 
   42500    290.00127   -879.89664    142538.89   -41005.282    3982.4691   -44987.751    457.90791   0.96708003 
   42600    288.79295   -768.48087    142049.21   -41002.134    3965.8757    -44968.01    458.35902   0.97041381 
   42700    286.78748   -815.93946    142292.71   -41050.357    3938.3354   -44988.693    459.92943    0.9687532 
   42800    289.86337   -955.75299    142309.54   -41013.394    3980.5754   -44993.969    461.10481   0.96863863 
   42900    290.96541   -700.16481    142906.26   -40977.354    3995.7092   -44973.063    464.13367   0.96459396 
   43000    296.15678    -963.1727    143154.01   -40966.033    4067.0002   -45033.033    465.09239   0.96292459 
   43100    290.73034   -862.68811    142971.54   -41014.246    3992.4812   -45006.727    465.32537   0.96415355 
   43200     290.7355   -1108.7125    142845.07    -41001.01    3992.5519   -44993.562    465.48912   0.96500718 
   43300    288.99111   -783.27183    142891.81    -41022.16    3968.5969   -44990.757    466.08573   0.96469149 
   43400    296.93859   -742.67093    142848.21   -40975.568    4077.7365   -45053.305    467.49988   0.96498596 
   43500     288.0208   -1018.3309    142741.24   -40972.067    3955.2722   -44927.339    468.76997   0.96570909 
   43600    292.83229   -1231.7733    142698.63   -40968.225    4021.3463   -44989.572    469.30012   0.96599746 
   43700    294.59052   -824.98018    142895.51   -40935.616    4045.4913   -44981.107    470.87991   0.96466653 
   43800    295.06583   -1106.4007    142954.59   -40875.647    4052.0186   -44927.665    472.02141   0.96426785 
   43900    292.43427   -1052.5991    143050.97   -40986.575    4015.8804   -45002.456    473.87297   0.96361819 
   44000    295.89654    -947.6044    143257.37   -40921.152    4063.4264   -44984.578    475.70576   0.96222985 
   44100    300.60969   -897.70223    143372.78   -40800.463    4128.1502   -44928.613    476.57237   0.96145531 
   44200    293.98574   -1208.2359    143370.59   -40952.248    4037.1862   -44989.434    477.04793   0.96146994 
   44300    288.14785   -1023.2615    142594.92   -41092.109    3957.0168   -45049.126    476.66219   0.96670009 
   44400    291.56521   -944.59269    142392.06   -41082.678    4003.9461   -45086.624     476.6908   0.96807727 
   44500    291.01263   -1053.0089    142474.96   -41083.251    3996.3577   -45079.609    477.76783   0.96751401 
   44600    287.60162   -1026.8585    142687.08   -41086.936    3949.5157   -45036.451    479.16791   0.96607567 
   44700    288.80661   -1137.3156       142579   -41109.779    3966.0634   -45075.842      481.127   0.96680797 
   44800    290.56415   -1100.4612    142654.99   -41017.716    3990.1989   -45007.915    482.25688     0.966293 
   44900    293.69875   -1135.6683     142948.8    -41028.24    4033.2451   -45061.485    484.99908   0.96430689 
   45000     292.3073   -760.36005    143131.03   -41011.162    4014.1368   -45025.299    486.56797   0.96307922 
   45100    292.89622   -1130.3251       143214    -40943.82    4022.2242   -44966.044    487.99501   0.96252124 
   45200    294.19235   -906.51592    143121.34   -41002.625    4040.0235   -45042.649    489.73103   0.96314442 
   45300    294.19031   -1160.0208     143370.6   -41004.082    4039.9954   -45044.078    491.95206   0.96146992 
   45400    290.97829   -986.22911    143463.09   -41005.629    3995.8861   -45001.516    493.53968   0.96085003 
   45500    291.76554   -970.43848    143294.72   -40918.089     4006.697   -44924.786    493.91055   0.96197905 
   45600    289.37762   -1105.8269    143017.04   -40964.894    3973.9048   -44938.799    494.31896   0.96384679 
   45700    298.76685    -915.8647    142904.15   -40900.592    4102.8433   -45003.435    494.98404   0.96460818 
   45800     289.6295   -793.73201    142809.25   -40898.506    3977.3637    -44875.87      496.664   0.96524918 
   45900    295.63675   -1086.7863       143346   -40854.577    4059.8588   -44914.436    498.99075   0.96163487 
   46000    291.38622   -842.29131     143086.5   -40910.351    4001.4881   -44911.839    499.86076   0.96337888 
   46100    297.72894   -972.60968    143168.14    -40885.96      4088.59    -44974.55    500.21032   0.96282957 
   46200    297.35892   -1023.1545     143195.4    -40879.44    4083.5087   -44962.949    501.00787   0.96264626 
   46300    296.87484   -953.84936    143150.06    -40958.46    4076.8611   -45035.321     502.3588   0.96295119 
   46400    292.93003   -902.48625    142837.18   -41009.796    4022.6886   -45032.484    502.02875   0.96506048 
   46500    293.29108   -1055.5549    142994.49   -40944.451    4027.6467   -44972.097    503.20049    0.9639988 
   46600    300.36175   -977.21664    142971.03   -40906.769    4124.7453   -45031.514    504.20686   0.96415697 
   46700    294.35276   -1070.8871    142859.89   -40854.743    4042.2263   -44896.969    505.65072   0.96490709 
   46800    301.68644    -878.5791    142803.76   -40837.925    4142.9367   -44980.862    506.48846    0.9652863 
   46900    294.84691   -1023.8508    143249.29     -40870.9    4049.0123   -44919.912    509.36063   0.96228413 
   47000    294.65726   -1103.9486    143300.94   -40914.104    4046.4079   -44960.512    511.23011   0.96193725 
   47100    293.88659   -1052.3029    143208.94   -40900.481    4035.8246   -44936.306    512.39804   0.96255527 
   47200    293.91608   -1163.6308    142862.82   -40935.006    4036.2295   -44971.236    513.46789   0.96488729 
   47300    294.61468   -808.56541    142828.37   -40866.958    4045.8232   -44912.781    514.61997   0.96512003 
   47400    295.15398   -954.65909    143026.65   -40857.148    4053.2291   -44910.377    516.37102   0.96378205 
   47500    298.59849   -947.51147    142851.62   -40861.878    4100.5312    -44962.41     516.5506   0.96496292 
   47600    299.45211   -1076.6709    143227.63   -40850.257    4112.2536    -44962.51    518.44638   0.96242967 
   47700    287.69465   -1048.2453    142858.75   -40955.393    3950.7932   -44906.186    517.96481   0.96491474 
   47800    290.48014   -1052.8062    142787.58   -40982.083    3989.0453   -44971.128    519.08433    0.9653957 
   47900    289.79797   -998.92515    143147.35   -40949.628    3979.6772   -44929.305    521.72013   0.96296937 
   48000    292.49568   -1042.5236    143054.51   -40944.445    4016.7238   -44961.169    521.60788   0.96359434 
   48100    295.20348   -833.80071    143055.47   -40980.719     4053.909   -45034.628    521.96775   0.96358789 
   48200    289.42004   -1005.0876     143239.1   -40949.201    3974.4873   -44923.688     524.0887   0.96235259 
   48300    293.25144   -965.86373    142987.43   -40952.888    4027.1023    -44979.99    524.96172   0.96404639 
   48400    290.38036    -751.9383    143125.35   -40897.945     3987.675    -44885.62    526.49418   0.96311743 
   48500    296.85981    -916.3666    143179.58   -40983.393    4076.6546   -45060.048    528.14275   0.96275266 
   48600    292.75604   -730.71495    143266.61   -40925.002    4020.2993   -44945.301     530.0783   0.96216781 
   48700    296.58902   -1122.2081    143140.12   -41008.453     4072.936   -45081.389    530.30897   0.96301802 
   48800    297.07573   -1001.3463    142895.76   -40984.104    4079.6198   -45063.724    530.76749   0.96466486 
   48900     295.8507   -1305.9133    143030.76   -40975.746    4062.7969   -45038.543    531.61144   0.96375438 
   49000    289.94543   -853.60833    142831.82    -40962.16    3981.7023   -44943.862    531.87038   0.96509671 
   49100          296   -1104.9243    142756.83   -41028.325    4064.8472   -45093.172    532.96117   0.96560363 
   49200    292.75583   -834.63066    142531.41   -41092.061    4020.2964   -45112.357     534.0084   0.96713077 
   49300    294.55012   -1103.6706    142623.97   -41040.748    4044.9366   -45085.684    535.93028   0.96650317 
   49400     290.1128   -915.28489    142527.62   -41019.864    3984.0007   -45003.865    536.12608   0.96715651 
   49500    287.15327   -1067.6487    142486.49   -40965.936    3943.3587   -44909.295    537.12579   0.96743569 
   49600    284.59856   -895.50779    142783.55   -40934.436    3908.2759   -44842.712    538.56348   0.96542296 
   49700    295.56874   -1022.9859    142658.68     -40854.6    4058.9249   -44913.525    539.46597   0.96626797 
   49800     298.2648   -902.14444    142790.93   -40793.782    4095.9488   -44889.731    541.01928   0.96537306 
   49900    294.58429    -1011.656    142802.44   -40849.968    4045.4058   -44895.374    542.20578   0.96529525 
   50000    288.40394   -1025.3115    142821.18   -40901.341    3960.5337   -44861.875    543.96476    0.9651686 
   50100    294.26296   -1046.4574     142890.6   -40913.858    4040.9931   -44954.851    545.54131   0.96469966 
   50200    292.21613   -914.59301    143137.37   -40931.757    4012.8849   -44944.642     546.9639   0.96303653 
   50300     293.2606   -1051.7297     142765.7   -40917.602    4027.2282   -44944.831     548.3839   0.96554364 
   50400    292.24052   -746.96575    142813.66   -40949.757    4013.2199   -44962.977    549.21472   0.96521941 
   50500    292.19649   -1029.4412     142518.4   -40982.414    4012.6152   -44995.029    549.14666   0.96721906 
   50600    293.48278   -863.69305    142203.02   -40967.517    4030.2792   -44997.796    548.80077   0.96936419 
   50700    300.51418   -1299.0093     142164.3   -40875.078    4126.8385   -45001.916    550.20773   0.96962824 
   50800    293.74636   -996.54219    142007.77   -40863.837    4033.8988   -44897.736    551.32205   0.97069701 
   50900     293.5779   -805.32964    142535.66   -40885.615    4031.5855     -44917.2    553.79786   0.96710198 
   51000    293.43389    -924.5099    142856.25   -40934.791    4029.6079   -44964.399     555.3757   0.96493165 
   51100    295.06299   -1034.0268    142374.76   -40901.308    4051.9796   -44953.288    554.53422   0.96819491 
   51200    297.33888   -1110.5646    142215.65   -40769.886    4083.2334   -44853.119    554.84016    0.9692781 
   51300    295.99477   -1125.2385    142178.16   -40802.036    4064.7753   -44866.811    556.08122    0.9695337 
   51400    295.70055   -1055.6811    141984.87   -41005.523    4060.7349   -45066.258    555.63689   0.97085359 
   51500    292.51484   -1035.6593    142115.82   -40996.397    4016.9869   -45013.384    557.65979   0.96995897 
   51600    293.76355   -939.74113    141958.56   -40972.618     4034.135   -45006.753    558.26821   0.97103352 
   51700    293.65898   -1006.0487    141873.91    -40969.56    4032.6989   -45002.259    558.62245   0.97161287 
   51800    291.53136   -1069.0911    142049.42   -40968.879    4003.4812    -44972.36    560.22266   0.97041241 
   51900    291.41853   -967.38293    142187.32   -41023.622    4001.9318   -45025.554    561.77084   0.96947125 
   52000    299.38843   -735.14403    142387.88   -40945.618    4111.3792   -45056.998     562.9078   0.96810571 
   52100     291.7495   -858.98442    142449.96    -41014.78    4006.4769   -45021.256    563.63668   0.96768379 
   52200    286.79177   -1054.6093    142556.45   -41040.039    3938.3943   -44978.433    565.27341   0.96696092 
   52300    292.10965   -1292.6922    142821.99   -41000.942    4011.4227   -45012.365    566.72962   0.96516308 
   52400    296.08843   -1009.0273    142934.86   -40941.746    4066.0616   -45007.807    568.85847   0.96440099 
   52500    295.78954   -809.45553    142937.82   -40983.858    4061.9571   -45045.815    569.23515   0.96438099 
   52600    288.88946   -958.65988       142911   -41068.426    3967.2011   -45035.627    570.03846   0.96456199 
   52700    294.19303   -1219.4191    142823.59   -41038.529    4040.0328   -45078.562    569.78972   0.96515233 
   52800    287.62143     -811.253    143011.77   -41078.687    3949.7877   -45028.475    571.96196   0.96388232 
   52900    283.09867   -1137.0503    142999.08   -41126.158    3887.6785   -45013.836    572.85197   0.96396788 
   53000    288.22576   -1092.8215    142980.07   -41213.865    3958.0867   -45171.952    574.80459   0.96409603 
   53100    288.55422   -978.38445    143319.16   -41237.627    3962.5974   -45200.224    575.92367   0.96181501 
   53200    294.22339   -1062.6973    143454.38    -41040.01    4040.4498    -45080.46     577.3624   0.96090838 
   53300    288.99138   -916.95189    143363.61   -41024.815    3968.6007   -44993.416    578.72313   0.96151679 
   53400    290.82451   -1190.3829    143166.75   -40871.379    3993.7743   -44865.153    578.86301    0.9628389 
   53500    292.84912   -654.19821    143121.16   -40850.424    4021.5774   -44872.001    579.34444   0.96314564 
   53600    295.38472   -1116.7842    143293.14   -40823.942    4056.3979    -44880.34    580.33924   0.96198964 
   53700    292.24346   -1083.5946    143348.34   -40932.355    4013.2602   -44945.616    581.67188   0.96161924 
   53800    298.33256   -1023.1296     143082.9   -41004.957    4096.8794   -45101.836    582.69927   0.96340317 
   53900       291.35    -869.1487    143452.23   -41019.918    4000.9906   -45020.909    585.56432   0.96092277 
   54000    296.43591   -1079.3624    143255.29   -40948.255    4070.8334   -45019.089    585.44471   0.96224385 
   54100    294.64514   -1331.0798    143381.54   -40933.901    4046.2414   -44980.142    587.19708   0.96139655 
   54200    289.28181   -1057.7646    143407.15   -41021.654    3972.5891   -44994.243    587.81044   0.96122487 
   54300    292.31741   -1049.5081     143672.3   -40903.563    4014.2757   -44917.839    590.08426   0.95945091 
   54400    291.74414   -1095.2909    143877.22   -41018.504    4006.4032   -45024.907    592.12478   0.95808437 
   54500    293.35082   -1041.6986    143365.64   -40984.276     4028.467   -45012.743    592.29861   0.96150319 
   54600     292.8715   -1025.3947    143230.74   -41010.082    4021.8848   -45031.967    593.36581   0.96240872 
   54700    290.73683   -1157.3207    142961.29   -41001.707    3992.5702   -44994.277    592.92438   0.96422266 
   54800    293.01276   -756.21703    142778.91   -40985.666    4023.8246    -45009.49    593.28133   0.96545435 
   54900    296.62514   -1124.9082    142843.12   -40925.451     4073.432   -44998.883    594.11923   0.96502038 
   55000    299.68946   -1153.3118    142739.85    -40847.83     4115.513   -44963.343    594.34282   0.96571854 
   55100    298.49661   -1020.5129    142634.15   -40842.049    4099.1321   -44941.181    595.56562    0.9664342 
   55200    298.58987   -1080.5225    142639.53   -40846.389    4100.4128   -44946.802    597.45336    0.9663977 
   55300    292.46003   -976.93865    142733.93    -40872.56    4016.2342   -44888.795    598.82894   0.96575857 
   55400    298.12964   -1030.9555    142839.73   -40859.173    4094.0927   -44953.266    600.33705   0.96504322 
   55500    296.54428   -707.80097    143240.43   -40806.287    4072.3216   -44878.608     601.7646   0.96234365 
   55600    296.98546   -991.62291    143422.58   -40765.997    4078.3802   -44844.378    602.35504   0.96112147 
   55700    289.84843   -885.11871    143360.72   -40824.442    3980.3702   -44804.812    603.43579   0.96153616 
   55800    289.23089   -1188.3108    143375.84   -40936.736    3971.8898   -44908.626    605.28593   0.96143475 
   55900    289.74191     -1181.66    143095.69   -40986.379    3978.9074   -44965.286    604.80505   0.96331707 
   56000     297.1622   -1015.7045    142956.95   -41006.856    4080.8073   -45087.663    605.83403   0.96425193 
   56100     290.3588   -1088.5382    143207.55   -41056.418    3987.3789   -45043.797    607.80837   0.96256458 
   56200    296.42992   -1073.4941    142623.03   -41022.668    4070.7511   -45093.419    607.14927   0.96650952 
   56300    292.65274   -1000.7835    143012.17   -40921.624    4018.8806   -44940.504    608.27753   0.96387964 
   56400    298.48134   -780.14051    143317.11   -40791.193    4098.9224   -44890.116    611.03679   0.96182872 
   56500    296.79555   -903.08291    143164.88    -40876.76    4075.7721   -44952.532    612.10061   0.96285148 
   56600    294.16029   -995.04483    143100.21    -40853.76    4039.5832   -44893.343    612.64414   0.96328664 
   56700     294.4103   -858.27285    143251.63   -40875.495    4043.0165   -44918.512    614.94084   0.96226838 
   56800    298.66007   -868.84636    143202.98    -40860.29    4101.3768   -44961.667     616.2947   0.96259534 
   56900    295.21908   -1163.8112    143138.24   -40906.399    4054.1231   -44960.522    617.96359    0.9630307 
   57000    290.89114   -836.55282    143275.07   -40979.261    3994.6893   -44973.951    620.02064     0.962111 
   57100    282.52474   -921.89687    143091.25   -41114.738    3879.7969   -44994.535    620.58928   0.96334691 
   57200    286.97279   -838.93936    143070.12   -41151.072    3940.8801   -45091.952    621.72941   0.96348923 
   57300    287.97091   -981.43186    143064.35   -41106.695     3954.587   -45061.282    623.27778   0.96352804 
   57400    290.29983   -876.76992    142874.75   -41060.185    3986.5692   -45046.755    624.24401   0.96480672 
   57500    287.13952   -838.62654    142509.91    -40985.75    3943.1699    -44928.92    624.77257   0.96727671 
   57600    283.38624   -1129.8165    142386.55   -41037.679    3891.6275   -44929.306    625.15988   0.96811471 
   57700    296.27373    -952.0326     142478.2   -40870.512    4068.6063   -44939.118    626.11532   0.96749196 
   57800    295.53554   -1063.8744    142137.26   -40876.408     4058.469   -44934.877     626.3848   0.96981268 
   57900    288.70411   -862.15635    142416.77   -40967.747    3964.6557   -44932.403    628.05623   0.96790932 
   58000    291.23872   -1140.1206    142540.51   -40940.339    3999.4624   -44939.802    629.84231   0.96706907 
   58100    290.21621   -828.49294    142234.75   -40838.608    3985.4208   -44824.028     629.8702   0.96914795 
   58200    292.46888   -962.45315    142444.78   -40954.322    4016.3558   -44970.678    631.87021   0.96771899 
   58300    290.29235   -1215.0718     142220.5   -40935.413    3986.4664    -44921.88    632.41301   0.96924505 
   58400    296.06582   -962.75561     141969.4   -40926.007    4065.7511   -44991.758    632.33405   0.97095936 
   58500    299.00415   -1020.5219    142151.12   -40833.417     4106.102   -44939.519    634.42927   0.96971815 
   58600    292.26208   -848.38735    142257.49   -40906.748    4013.5159   -44920.264    636.32905   0.96899305 
   58700     295.3654   -927.89152    142356.34   -40932.514    4056.1325   -44988.647    638.31474    0.9683202 
   58800    298.55118   -908.49891    142496.25   -40857.438    4099.8815   -44957.319    640.26178   0.96736941 
   58900    294.79167   -954.10598    142762.93   -40852.319    4048.2536   -44900.572    641.23724   0.96556241 
   59000    293.24322   -1314.5016    142394.53   -40900.539    4026.9895   -44927.529    641.63357   0.96806046 
   59100    293.13318   -1132.0239    142697.31   -40918.889    4025.4783   -44944.367    643.42914   0.96600644 
   59200    288.75697   -1119.0788    142427.42   -40956.063    3965.3816   -44921.445    643.37482   0.96783692 
   59300    297.65405   -1064.4369    142333.89   -40942.783    4087.5616   -45030.345    644.78885    0.9684729 
   59400    293.32434   -1130.2482    142326.38   -40907.176    4028.1035   -44935.279    645.79052   0.96852398 
   59500    294.23551   -1188.1705    142243.04   -40887.016    4040.6162   -44927.632     646.5418    0.9690915 
   59600    297.20089   -1058.5319    142143.95   -40806.992    4081.3385    -44888.33    647.26472     0.969767 
   59700     299.8773   -969.54154    142158.39   -40836.459    4118.0925   -44954.552    648.31578   0.96966851 
   59800    294.49249   -997.97845    141977.87   -40889.999    4044.1452   -44934.145    648.52878   0.97090143 
   59900    292.69547   -833.18206    141964.32   -40900.402    4019.4674    -44919.87    649.70014    0.9709941 
   60000    292.49304   -1050.3575    141849.66   -40963.145    4016.6875   -44979.833    651.11707   0.97177895 
   60100    288.72738   -926.03947    142327.72   -41027.254    3964.9753    -44992.23    653.50528   0.96851486 
   60200    292.18094   -1030.3878    142407.42   -41002.892    4012.4016   -45015.293    654.10924   0.96797284 
   60300    292.62474   -941.35644    142239.52   -40908.221    4018.4962   -44926.718    654.64807   0.96911544 
   60400      288.968   -875.10823    142311.93   -40949.782    3968.2796   -44918.062    655.90964   0.96862234 
   60500    286.11453   -1036.2868    142571.65   -40982.979    3929.0941   -44912.073    658.24315   0.96685783 
   60600    289.30472   -1001.3501    142520.71   -40872.572    3972.9037   -44845.476    658.37762   0.96720343 
   60700    298.79559   -910.91256    142512.44   -40876.538    4103.2379   -44979.776    658.93827   0.96725952 
   60800    295.71957   -909.72195    142476.94   -40901.486    4060.9962   -44962.482    659.61749   0.96750053 
   60900    296.42691   -932.15594    142412.41   -40862.014    4070.7099   -44932.723    659.77611   0.96793895 
   61000    294.53581   -801.04418    142637.23   -40825.478    4044.7401   -44870.218    660.68635   0.96641331 
   61100    294.04859   -815.40868    142964.24   -40789.809    4038.0493   -44827.858    662.04458   0.96420275 
   61200    297.09804   -954.95351    143145.56   -40799.972    4079.9261   -44879.898    663.55795   0.96298144 
   61300      296.005   -828.74345    143412.69   -40775.296    4064.9159   -44840.212     664.8235   0.96118772 
   61400    299.74594   -1241.4231    143312.78   -40705.387    4116.2887   -44821.676     665.9438   0.96185779 
   61500    297.53033   -1200.3832    142957.17   -40731.207    4085.8626    -44817.07    666.57375   0.96425048 
   61600    294.06082   -1220.4522    142411.73   -40830.081    4038.2172   -44868.298    665.67628   0.96794357 
   61700    292.91578   -763.30035    142978.65   -40830.668    4022.4928   -44853.161    669.05966   0.96410563 
   61800    299.54269   -1125.3771    142543.81   -40862.714    4113.4975   -44976.212    669.14267   0.96704664 
   61900    293.74235   -809.96682    142661.34   -40873.983    4033.8438   -44907.826    670.59434   0.96624997 
   62000    291.48038   -1148.5722    142354.06   -40871.907     4002.781   -44874.688    671.02459    0.9683357 
   62100     296.4262   -747.46262    142695.99   -40874.866    4070.7001   -44945.566    673.87656   0.96601535 
   62200    297.31235    -881.3497    142688.55   -40908.495    4082.8692   -44991.364     674.6402   0.96606573 
   62300    291.80872   -1028.4046    142498.28   -40960.597    4007.2901   -44967.887    674.98753   0.96735566 
   62400    289.73505    -800.9463    142613.53   -40979.105    3978.8131   -44957.918    676.95515   0.96657392 
   62500    287.85456   -931.31437    142875.74   -40933.177    3952.9891   -44886.166    678.96004   0.96480001 
   62600    297.65365   -1070.0133    142658.95   -40880.894    4087.5561   -44968.451    680.63876   0.96626615 
   62700    290.87633   -1056.2565    143037.61    -40929.27     3994.486   -44923.755    682.68457   0.96370818 
   62800    292.67869   -1297.7342    142785.59   -40869.366     4019.237   -44888.603    683.90943   0.96540916 
   62900    290.62723   -966.08514    142894.74   -40959.144    3991.0651   -44950.209    685.20873   0.96467176 
   63000    295.24169   -1021.7167     142955.6   -40929.443    4054.4337   -44983.876    686.72229   0.96426107 
   63100    292.17463   -918.21917    142816.07   -40934.404    4012.3149   -44946.719    687.83136   0.96520314 
   63200     288.8776    -940.6413    142798.66   -40941.659    3967.0382   -44908.697    688.24611   0.96532083 
   63300    288.54616   -1139.6305    142612.78   -41029.169    3962.4867   -44991.656    688.12453     0.966579 
   63400    291.38404   -987.63853     142248.8   -41100.761    4001.4581   -45102.219    687.79006   0.96905224 
   63500    291.56992   -718.60534    142329.07   -40954.796    4004.0107   -44958.807    689.73498   0.96850574 
   63600    294.33337   -976.87205    142342.55   -40924.878      4041.96   -44966.838    690.67971   0.96841397 
   63700    290.35003   -1092.1867    142448.94   -41035.776    3987.2585   -45023.034    693.04958   0.96769069 
   63800    293.69032   -915.11445     142550.3   -41045.437    4033.1294   -45078.567    694.66332   0.96700265 
   63900    291.17906   -1163.3318    142674.23    -41023.81    3998.6431   -45022.453    695.83764   0.96616267 
   64000    292.66081   -1172.5736     142564.3   -41082.083    4018.9915   -45101.074    695.84855    0.9669077 
   64100    289.34153    -907.5801    142468.77   -41091.931    3973.4092    -45065.34    696.42555   0.96755604 
   64200    287.11242   -1113.8055    142370.15   -41131.194    3942.7977   -45073.992    697.09438   0.96822626 
   64300    290.02126   -844.99642    142516.47   -41128.261    3982.7436   -45111.004    699.09646   0.96723216 
   64400     287.0471   -998.12222    142732.59   -41142.466    3941.9007   -45084.367    701.65565   0.96576763 
   64500    291.06967   -898.82415    142798.43   -41126.045     3997.141   -45123.186    703.16924   0.96532236 
   64600    291.99007   -930.74465    142881.35   -41091.794    4009.7805   -45101.575    704.67539   0.96476211 
   64700    292.62848   -992.21382    142597.78   -41028.129    4018.5475   -45046.677    705.23454    0.9666807 
   64800     296.6067   -1151.3859    142657.69   -40958.707    4073.1788   -45031.886    706.62247   0.96627472 
   64900     297.0832   -978.72867    142539.61   -40971.377    4079.7224     -45051.1    706.60244   0.96707515 
   65000    292.13169   -1022.5476    142670.78   -40995.421    4011.7253   -45007.146    707.73812   0.96618605 
   65100    290.50608     -913.838    142753.37   -41024.613    3989.4015   -45014.014    708.42786   0.96562705 
   65200    293.04099   -1005.6604     142795.4   -40989.702    4024.2124   -45013.915    709.83595   0.96534282 
   65300    293.24026   -1079.9896    142678.89   -40987.272    4026.9488   -45014.221    710.60324   0.96613113 
   65400    290.31326   -1003.9882    142837.54   -41053.693    3986.7535   -45040.446    712.12017   0.96505805 
   65500    296.68307   -1204.1895    142867.73   -40932.742    4074.2275    -45006.97    713.21528   0.96485413 
   65600    303.39838   -804.12447    142859.77   -40877.014    4166.4461    -45043.46    714.63723   0.96490785 
   65700    294.66912   -730.99995    142844.76   -40905.774    4046.5708   -44952.344    716.15994   0.96500927 
   65800    295.45711   -839.72427    143170.36   -40889.775    4057.3919   -44947.167    719.14681   0.96281461 
   65900    297.76145   -831.98133    143380.92   -40856.543    4089.0365   -44945.579    721.28232   0.96140068 
   66000    284.79211   -973.28359    143183.23    -40961.96    3910.9338   -44872.894    721.19507    0.9627281 
   66100     294.7002    -781.6098    143138.32   -40880.555    4046.9976   -44927.553    722.61805   0.96303012 
   66200    295.57699   -1142.0896    143201.93   -40830.796    4059.0381   -44889.834    724.40122   0.96260236 
[...]
   84600    285.23479     -990.652    142871.53   -41040.779     3917.013   -44957.792    924.54559   0.96482842 
   84700    291.71238   -1197.3502    142755.78   -41003.867     4005.967   -45009.834    924.15211   0.96561074 
   84800    290.03083   -893.76595    142716.82   -40951.651     3982.875   -44934.526    925.14967   0.96587433 
   84900    292.82266     -1061.98     142615.5   -40962.454    4021.2141   -44983.668    926.13397   0.96656054 
   85000    293.84846   -1024.0772    142643.34   -40940.492    4035.3009   -44975.793    927.80674   0.96637189 
   85100     286.5348    -1157.162    142716.71   -40958.464    3934.8655   -44893.329    930.58755   0.96587511 
   85200    293.57756   -926.33395    142267.69   -40914.038    4031.5808   -44945.619    930.13946   0.96892353 
   85300     296.1249   -961.27364    142231.64    -40909.76    4066.5624   -44976.322    932.18888   0.96916916 
   85400    295.80918   -881.27478    142447.61    -40888.94    4062.2268   -44951.167    933.41916   0.96769974 
   85500    291.34772    -890.8299    142386.02   -40875.182    4000.9593   -44876.141    934.20407   0.96811835 
   85600    296.45243   -1046.5728    142621.82    -40846.31    4071.0602    -44917.37    936.77605   0.96651775 
   85700    292.54829   -785.94076    142696.16   -40879.697    4017.4463   -44897.143    937.58321   0.96601417 
   85800     292.0382    -995.2534    142709.08   -40878.336    4010.4414   -44888.778    938.64799   0.96592673 
   85900    293.59098   -975.07265    142959.65   -40900.711    4031.7651   -44932.476    941.01767    0.9642337 
   86000    290.54417   -916.69358    142734.24   -40942.235    3989.9245   -44932.159    941.35282   0.96575648 
   86100    293.66666   -892.49679    143323.09   -40895.985    4032.8044   -44928.789    943.65839    0.9617886 
   86200    292.88084    -1153.365    143156.78   -40930.657     4022.013    -44952.67    944.27484   0.96290594 
   86300    291.63525   -1003.6468    143360.94   -40922.983    4004.9079   -44927.891    947.01113    0.9615347 
   86400    293.72384    -1182.856     143235.9   -40952.889    4033.5896   -44986.479    948.36708   0.96237405 
   86500    293.13721   -746.99509     142931.4   -40882.789    4025.5336   -44908.322    947.52936   0.96442428 
   86600    300.79036   -1129.7318    142726.32   -40911.417    4130.6313   -45042.048    947.65518   0.96581009 
   86700    289.65811   -987.97074    142946.97   -40920.028    3977.7566   -44897.785    949.01783   0.96431928 
   86800    294.05737   -1059.1788    142484.55   -40901.247    4038.1699   -44939.417    947.66337   0.96744889 
   86900    292.98243   -915.42616    142554.91   -40997.781    4023.4082   -45021.189    948.93747   0.96697136 
   87000    287.50279   -929.75593    142551.32   -41037.533    3948.1585   -44985.691    950.27592    0.9669957 
   87100    289.77076   -604.94655    142050.54   -40995.395    3979.3035   -44974.698     948.5589   0.97040471 
   87200    294.63215   -1123.7096    141909.36   -40977.029    4046.0631   -45023.092    950.14081   0.97137018 
   87300    296.56191   -783.05647    142428.11   -40862.634    4072.5637   -44935.198    954.12719   0.96783227 
   87400     290.3541   -649.32482    142617.28   -40918.624    3987.3144   -44905.939    956.89657   0.96654852 
   87500    290.89416   -1029.5344    142402.13   -40927.664    3994.7307   -44922.395    955.47745   0.96800879 
   87600    290.24858   -731.79587    142834.18   -40868.582    3985.8654   -44854.447    958.92977   0.96508077 
   87700    291.98956   -1116.2574    142734.31   -40924.793    4009.7735   -44934.566     959.3848   0.96575604 
   87800    295.14414   -1186.7536    142766.11   -40821.256     4053.094    -44874.35    960.66827   0.96554092 
   87900    295.83185   -1038.5575    142733.61   -40768.996     4062.538   -44831.534    961.37182   0.96576075 
   88000    294.21726   -941.42712    142821.91    -40838.38    4040.3656   -44878.745    962.53372   0.96516368 
   88100    294.88176   -1070.5781    142785.89   -40805.028    4049.4909   -44854.519    963.31941    0.9654071 
   88200    298.17193   -934.25834    143014.25    -40764.17    4094.6735   -44858.844    965.72554   0.96386558 
   88300    292.30622   -949.88437    142972.46    -40768.65    4014.1221   -44782.772    966.39559   0.96414736 
   88400    295.28607   -794.00566    143063.03    -40885.43     4055.043   -44940.473    968.89179   0.96353697 
   88500    292.52258   -977.00632    143332.38   -40886.627    4017.0932    -44903.72    970.60585   0.96172631 
   88600     295.7646   -1036.6783    143073.86   -40925.739    4061.6146   -44987.354      970.043     0.963464 
   88700    293.54535   -985.82044    142974.19   -40891.974    4031.1384   -44923.113    970.40189    0.9641357 
   88800    296.18938   -1072.0536     142928.5   -40926.624    4067.4479   -44994.072    970.84651   0.96444386 
   88900    291.36958   -847.32335       143194   -40960.243    4001.2595   -44961.503    973.04844   0.96265571 
   89000     292.1024   -1103.0373    142980.16   -40866.526    4011.3231    -44877.85     973.2095    0.9640954 
   89100    293.37018   -1039.6967    143101.23   -40861.458    4028.7329   -44890.191    975.51082   0.96327976 
   89200    291.34249   -1208.1869    142773.04   -40980.549    4000.8875   -44981.437    974.23126   0.96549404 
   89300    295.91279   -962.94284    143000.65   -40927.891    4063.6496   -44991.541    976.13166    0.9639573 
   89400     292.2727   -989.41037    142800.87   -40936.869    4013.6616   -44950.531    976.47603   0.96530588 
   89500    295.26109   -1124.7045    142962.54   -41015.738       4054.7   -45070.438    978.01044   0.96421425 
   89600     292.9558   -1081.0295    142857.46   -40958.426    4023.0424   -44981.468    978.21788   0.96492348 
   89700    289.62125    -858.3218    143082.98   -40996.234    3977.2504   -44973.484    980.29838    0.9634026 
   89800    300.10215   -961.46031    142956.68   -40971.399    4121.1804   -45092.579    980.15145   0.96425374 
   89900    294.17056   -1216.2803    143052.16   -41030.301    4039.7242   -45070.025     980.7624    0.9636102 
   90000     294.7859   -1286.8718    142852.18   -40986.177    4048.1745   -45034.352    980.97226   0.96495915 
   90100    294.60777   -716.83183    142373.59   -40978.518    4045.7283   -45024.247    981.30392   0.96820283 
   90200    295.07446   -1035.0825    142703.03   -41087.499    4052.1372   -45139.636    982.63653   0.96596768 
   90300    290.47367    -958.1128    142830.52   -41064.544    3988.9563     -45053.5    984.76792   0.96510551 
   90400    296.58202   -950.51314    142871.46   -40961.843    4072.8398   -45034.683    985.86193    0.9648289 
   90500    301.73576   -1265.1533    142715.83   -40981.228     4143.614   -45124.842    985.16067   0.96588103 
   90600    295.99062   -1042.1523    142500.67   -40941.015    4064.7184   -45005.734    985.97419   0.96733942 
   90700    290.63568   -879.02369    141961.33   -40949.078    3991.1811   -44940.259    985.36041   0.97101453 
   90800    288.57512    -1046.956    141905.66   -40965.524    3962.8844   -44928.409    985.79632   0.97139545 
   90900    291.15716   -1045.8825     142132.5   -41027.295    3998.3424   -45025.638    987.74772   0.96984514 
   91000    294.01626   -974.97058    142178.59   -40992.447    4037.6053   -45030.053    989.22102   0.96953079 
   91100     290.7972   -898.54555    142548.44   -40928.137    3993.3992   -44921.537    991.91438   0.96701529 
   91200    291.45877   -865.77392    142845.92   -40903.952    4002.4843   -44906.436     993.7171   0.96500141 
   91300    285.25871   -1009.8188    142694.25   -40998.483    3917.3414   -44915.824     994.9984   0.96602711 
   91400    291.63721   -853.97109    142660.75   -40945.451    4004.9348   -44950.385    994.86804   0.96625395 
   91500    295.30976   -810.60056     142574.2   -40943.635    4055.3684   -44999.004    994.90522   0.96684056 
   91600    291.52999   -899.63206    143041.68   -40953.811    4003.4624   -44957.274    996.98395   0.96368075 
   91700    292.14099   -938.04547    142750.88   -41061.675     4011.853   -45073.528    997.01611   0.96564389 
   91800    288.27453    -923.6943     142560.4   -41048.446    3958.7565   -45007.203    996.76022   0.96693412 
   91900    294.27765   -1063.6014    142620.41   -40976.462    4041.1948   -45017.657    996.80646   0.96652729 
   92000    290.28149    -835.4896    142624.83   -40947.452    3986.3172   -44933.769    997.79596   0.96649736 
   92100    288.62954    -709.9349    142952.57   -40855.696    3963.6317   -44819.328    1000.8705   0.96428151 
   92200     297.4195   -1293.6849    142905.51   -40804.637    4084.3407   -44888.977    1002.5617   0.96459902 
   92300    292.26848   -1118.1749    142686.35   -40878.519    4013.6038   -44892.123    1001.8265   0.96608059 
   92400    296.00677   -907.35769    142666.13   -40857.286    4064.9401   -44922.226     1002.737   0.96621757 
   92500    294.87118   -1081.5801    142667.06    -40819.83    4049.3455   -44869.175    1003.2825   0.96621123 
   92600    297.97984   -1217.9123    142524.78   -40783.084    4092.0355   -44875.119    1003.5598   0.96717582 
   92700    289.40019   -1240.8243    142116.28    -40887.62    3974.2147   -44861.834    1001.9347   0.96995583 
   92800    296.38742   -1227.4584    141892.07   -40841.108    4070.1675   -44911.275     1002.192   0.97148852 
   92900    300.81576   -738.54248    142096.18     -40815.3    4130.9801    -44946.28    1002.9402   0.97009304 
   93000    297.51599   -1039.2495    142368.03   -40856.604    4085.6657    -44942.27    1005.1366   0.96824066 
   93100    294.56953   -745.06546    142986.08   -40831.593    4045.2032   -44876.796    1009.4424   0.96405549 
   93200    296.39292    -1037.503    142847.78    -40808.86     4070.243   -44879.103    1009.8956   0.96498886 
   93300    298.88823   -1051.3579    143035.07   -40800.862      4104.51   -44905.372    1011.4332   0.96372534 
   93400    292.25615   -922.45776    142971.51   -40884.991    4013.4344   -44898.425    1012.5518   0.96415377 
   93500    293.42314   -974.51043    142941.39   -40881.422    4029.4603   -44910.882     1013.261   0.96435689 
   93600    287.94325   -990.62624    143112.99   -40961.738    3954.2071   -44915.945    1015.2768   0.96320062 
   93700    292.75359    -1228.159    143264.11   -40969.254    4020.2655   -44989.519    1017.4413   0.96218459 
   93800    294.43553   -800.63942    143590.36   -40853.182    4043.3629   -44896.544    1019.1353   0.95999841 
   93900    293.24195   -993.73616    143363.79   -40945.651     4026.972   -44972.623    1019.4541   0.96151558 
   94000    288.52912   -1024.1676    143446.58   -40989.125    3962.2526   -44951.378    1021.6446   0.96096061 
   94100    295.95651   -982.62355    143189.52   -40974.859      4064.25   -45039.109    1021.2249   0.96268582 
   94200    291.59206    -1020.241    142728.68   -40996.227    4004.3148   -45000.542    1019.7752   0.96579407 
   94300    288.30565   -826.02245    142587.65   -40949.042    3959.1838   -44908.226    1020.3993   0.96674936 
   94400    287.72531    -885.8203    142557.15   -41020.597    3951.2143   -44971.812    1020.5331    0.9669562 
   94500    288.43786   -1083.3704    142466.52   -41062.238    3960.9994   -45023.238    1020.5004    0.9675713 
   94600    292.03443   -689.24573    142553.95   -41099.464    4010.3896   -45109.853    1021.8581   0.96697791 
   94700    292.16467   -1201.6504    142827.27   -40993.324    4012.1782   -45005.502    1024.2585   0.96512745 
   94800    293.67963   -953.39959    142708.27   -40927.124    4032.9825   -44960.107    1024.4392   0.96593222 
   94900    293.16161   -865.37436    142818.48    -40950.71    4025.8687   -44976.579    1026.3907   0.96518681 
   95000      293.465   -1151.7634    143030.19   -40937.119    4030.0351   -44967.154    1028.3256   0.96375817 
   95100    294.85492   -833.19291    142600.29   -40857.174    4049.1222   -44906.296    1027.5255   0.96666364 
   95200    292.41721   -877.92979    142686.33   -40951.628    4015.6463   -44967.275     1029.512   0.96608072 
   95300    296.26927   -1038.5451    143003.99    -40891.77    4068.5449   -44960.315    1032.6188   0.96393479 
   95400    290.41435   -1036.3215    142798.84   -40888.252    3988.1417   -44876.394    1032.6978   0.96531961 
   95500    288.26569   -723.10557    143063.85   -40980.372    3958.6351   -44939.007    1034.2562   0.96353144 
   95600    293.07547   -1151.6426    142956.65   -40990.371    4024.6858   -45015.057    1033.3416   0.96425396 
   95700     292.3741   -723.10435    142805.35   -40945.954    4015.0542   -44961.008    1034.5507   0.96527558 
   95800    290.89374   -1070.3578    142842.02   -40950.219     3994.725   -44944.944    1035.9055   0.96502777 
   95900    292.04449   -960.90312    142924.23   -40927.267    4010.5277   -44937.795    1037.4883   0.96447267 
   96000    298.72175   -1090.2545    142718.97    -40902.48    4102.2238   -45004.703    1036.4812    0.9658598 
   96100    296.32592   -799.23934    143112.96   -40891.295    4069.3229   -44960.617    1038.7239   0.96320078 
   96200    295.40632   -1238.9422    143000.22   -40921.554    4056.6944   -44978.249    1039.0144   0.96396019 
   96300    293.63909   -1247.0171    143191.42   -40945.132    4032.4259   -44977.558    1040.9578   0.96267301 
   96400    294.64763   -965.23121    142931.52   -40935.835    4046.2757   -44982.111    1042.1186   0.96442352 
   96500    296.68048   -868.12028    142712.46    -40911.68     4074.192   -44985.872    1042.1408   0.96590386 
   96600    290.82994   -1004.6414    142873.31   -40880.039    3993.8489   -44873.888    1043.5193   0.96481646 
   96700    297.35294   -959.73095    143053.04    -40806.07    4083.4266   -44889.496    1045.9225   0.96360423 
   96800    296.29718   -889.47783    143100.79   -40795.433    4068.9282   -44864.361    1047.2059    0.9632827 
   96900    298.38333   -959.74628    143066.74   -40837.572    4097.5765   -44935.149    1047.7922   0.96351196 
   97000    295.46871    -1297.583    143209.81    -40853.73    4057.5512   -44911.282    1049.5558   0.96254939 
   97100    295.46344   -1100.7764    143140.23   -40892.017    4057.4789   -44949.496     1050.185   0.96301729 
   97200    292.43499   -1027.7467    142853.46   -40907.936    4015.8904   -44923.826    1050.0495   0.96495048 
   97300    292.78067   -1085.5278     143116.3   -40915.221    4020.6374   -44935.859     1051.985   0.96317835 
   97400    291.48716   -962.02182    142957.16   -40895.676    4002.8742    -44898.55      1051.78   0.96425049 
   97500     296.7703   -959.33819     143054.9   -40876.272    4075.4254   -44951.697    1054.8586    0.9635917 
   97600    300.51635   -864.15821    143054.01   -40977.641    4126.8684   -45104.509    1055.4669   0.96359773 
   97700    290.55197   -1069.3323    143132.73   -40987.051    3990.0316   -44977.083    1057.2359   0.96306776 
   97800    293.15704   -918.87912    143091.88   -40971.815     4025.806   -44997.621    1057.1856   0.96334272 
   97900    300.65498   -1122.1789     143525.5   -40829.399    4128.7721   -44958.171    1059.8782   0.96043221 
   98000    292.02282   -1142.8324    143155.65   -40869.465    4010.2302   -44879.695    1060.4493   0.96291354 
   98100    298.84964   -1027.1485    142805.06   -40878.621    4103.9802   -44982.601    1060.4117   0.96527751 
   98200     296.0391   -1075.6157    142671.24   -40818.869    4065.3842   -44884.254    1061.4837   0.96618293 
   98300    299.29439   -1075.4154    142395.96   -40776.702    4110.0877    -44886.79    1061.2205   0.96805073 
   98400     292.1246   -985.53117    142910.92   -40855.021    4011.6279   -44866.649    1065.1085   0.96456248 
   98500    295.17193   -830.90333     142819.7   -40830.836    4053.4756   -44884.311    1066.3028   0.96517856 
   98600    300.74287   -936.73884    142750.98   -40871.976    4129.9791   -45001.955    1068.5503   0.96564326 
   98700    294.82983   -1233.8923    142823.77   -40872.413    4048.7778    -44921.19    1070.2311   0.96515108 
   98800    297.58003   -1029.7195    142390.76   -40927.842    4086.5451   -45014.387     1069.295    0.9680861 
   98900    299.00652   -1095.1214    142521.29   -40874.175    4106.1345   -44980.309    1070.4133   0.96719947 
   99000    297.83509   -1204.0629    142623.46   -40884.475    4090.0478   -44974.523    1072.6525   0.96650658 
   99100    294.28784   -1025.2902     142677.4    -40930.49    4041.3348   -44971.825    1075.1409   0.96614122 
   99200    296.30813   -755.56446    142619.25   -40925.832    4069.0786   -44994.911    1076.5916   0.96653513 
   99300    294.50031    -984.4226    143160.12   -40881.024    4044.2526   -44925.277    1080.9973   0.96288352 
   99400    300.52461   -1192.2495    142813.44   -40869.006    4126.9819   -44995.988    1079.6351   0.96522092 
   99500    290.64717   -1138.7315    142737.87   -40904.532     3991.339   -44895.871    1080.6799   0.96573192 
   99600    290.88289   -907.48295    142536.67   -40946.998     3994.576   -44941.574    1081.1796   0.96709508 
   99700    294.19593    -1157.032    142734.39   -40932.355    4040.0726   -44972.428    1083.2208   0.96575547 
   99800     294.6508   -694.15098    142778.52   -40923.821    4046.3191    -44970.14    1084.8101   0.96545698 
   99900    297.64425   -1142.5882    142812.39   -40861.003     4087.427    -44948.43    1086.2577   0.96522797 
  100000     294.2087   -1009.8748    142437.74   -40920.602     4040.248    -44960.85    1084.5454   0.96776681 
  100100    292.27257   -1146.7589    142255.49   -40926.681      4013.66   -44940.341     1084.829   0.96900668 
  100200    297.34206   -915.24886    142392.13   -40853.826    4083.2772   -44937.103    1086.0117   0.96807679 
  100300    291.56129   -1069.1532    142459.28   -40921.396    4003.8922   -44925.289    1088.2802   0.96762049 
  100400    292.90281    -902.1073     142665.2   -40896.739    4022.3147   -44919.054    1090.0109   0.96622383 
  100500    287.84826   -1061.4758    142687.32   -40922.026    3952.9027   -44874.929    1091.8349   0.96607405 
  100600    292.98188   -1034.4972    142688.46   -40909.715    4023.4005   -44933.115    1092.0997   0.96606633 
  100648    292.03358   -816.58639    142648.44   -40886.231    4010.3779   -44896.609    1091.9033   0.96633738 
Loop time of 116.664 on 6 procs for 100000 steps with 4608 atoms

Performance: 370.295 ns/day, 0.065 hours/ns, 857.163 timesteps/s
99.0% CPU use with 6 MPI tasks x no OpenMP threads

MPI task timing breakdown:
Section |  min time  |  avg time  |  max time  |%varavg| %total
---------------------------------------------------------------
Pair    | 93.638     | 94.771     | 97.633     |  13.7 | 81.23
Neigh   | 7.1053     | 7.1826     | 7.3858     |   3.6 |  6.16
Comm    | 8.9545     | 11.81      | 12.889     |  38.5 | 10.12
Output  | 0.17674    | 0.17776    | 0.18251    |   0.5 |  0.15
Modify  | 1.9485     | 2.0385     | 2.1043     |   3.3 |  1.75
Other   |            | 0.6838     |            |       |  0.59

Nlocal:        768.000 ave         788 max         756 min
Histogram: 1 0 3 0 1 0 0 0 0 1
Nghost:        1550.33 ave        1560 max        1526 min
Histogram: 1 0 0 0 0 0 1 0 1 3
Neighs:        0.00000 ave           0 max           0 min
Histogram: 6 0 0 0 0 0 0 0 0 0
FullNghs:      21620.3 ave       22308 max       21017 min
Histogram: 1 0 1 0 2 0 1 0 0 1

Total # of neighbors = 129722
Ave neighs/atom = 28.151476
Neighbor list builds = 7096
Dangerous builds = 0

undump              1
unfix               2
unfix               3
unfix               4


################################################
#######         Run Simulation         #########
################################################

reset_timestep      0
log                 log.run_${NAME}
log                 log.run_liq_294K_-1000atm_ML
