LAMMPS data file via write_data, version 29 Oct 2020, timestep = 200000

4608 atoms
1 atom types

-0.16365664758063403 53.563656647579364 xlo xhi
0.17421444780670825 50.732905552190275 ylo yhi
0.17421444780670825 50.732905552190275 zlo zhi

Masses

1 18.015

Atoms # atomic

3851 1 2.955541507131886 0.2541068866932487 1.4838973833856506 2 -1 1
1865 1 5.128598445914562 1.5130202171028353 2.329063988579638 0 0 0
1325 1 10.425822835685933 3.0755820009067967 2.8410494543151934 0 -1 0
109 1 8.516856148313577 48.851988022383026 5.990391428420336 0 0 -2
3497 1 3.4224717626377656 20.432325758715322 5.010637853808805 1 0 0
1434 1 9.824552077511427 13.866229674939344 24.41492329781911 0 1 1
194 1 8.125372019901727 11.86905902386844 23.332109612116884 0 1 -1
416 1 3.021542135036991 2.3452130757080982 5.060061850475267 0 1 0
314 1 0.3035063774518371 6.782200871835137 9.612682575718516 1 0 0
2381 1 1.1324385337598855 5.792389833246603 21.221971191430555 1 0 1
953 1 7.752862956711613 5.429598533448942 2.013851514936466 0 -1 1
624 1 10.459342827340073 5.7406463529177545 2.4619694235408542 0 -1 0
1156 1 16.83471855136198 3.6584235833796113 3.5242586185212423 0 1 0
2894 1 13.373441813427316 19.630631970337255 3.111559314979676 -1 0 1
619 1 8.642408063304176 28.48296286643555 0.7789908559960512 0 -1 0
273 1 8.709082542419113 45.0893696801394 3.0131819962405553 0 0 -1
1933 1 4.215086537946998 11.106068096967578 4.076812790842366 0 0 -1
2165 1 2.3877867065781087 15.006740932966286 14.146457249872062 1 0 -1
720 1 3.8024172331680783 4.247010313654846 3.4538391103525234 0 0 1
1711 1 3.462449873509577 7.551942969073623 24.441718024974477 1 -1 -2
1282 1 13.000954621928477 8.997621281834205 3.7900851159731483 0 0 0
1952 1 1.0975977365545333 13.802962323318017 16.28327083181504 1 0 0
34 1 13.546411230827344 19.926798893073936 0.48874769905262144 1 0 0
734 1 1.477047100741504 39.29794226605132 22.845482243134494 0 1 0
1298 1 2.5839686061390665 1.147150976256103 24.75648773097673 1 0 0
266 1 10.90684532248755 10.282840397186844 21.251597428053774 -1 1 -1
2440 1 3.5999973879289935 15.311179047157625 2.021361442873935 1 2 1
1212 1 12.617882316079244 2.653254330087174 4.103778156414387 1 0 1
565 1 10.267227827982378 16.44043974822335 3.0865928251865546 1 0 1
1078 1 11.262460044670519 13.32724709176703 4.504207583950109 0 1 1
640 1 0.050681611808125915 3.2134978340800897 20.010889036633404 -1 1 -1
4291 1 4.911286713118547 20.844482215884515 2.3071044790304387 1 1 1
18 1 5.4934334078288405 17.629543841023885 2.1784949822375936 0 -1 0
2737 1 13.312675879252527 16.079197243972892 1.6568624161184227 0 0 2
1436 1 1.6965939778634127 5.357494244327193 11.49022991273661 0 0 1
3205 1 14.37357268865517 16.89508224711696 4.012806060548325 2 0 0
1651 1 0.7634013796499647 33.96277810567739 19.90724950460966 -1 0 0
1909 1 3.055270524027648 24.19604096700578 6.735245344889468 1 1 0
4369 1 0.5435611090026418 34.447741981846605 3.6177924693289425 1 0 2
2842 1 8.64288741632405 24.15111668153892 2.420833330278114 1 0 1
1797 1 9.307290392299366 16.830157274415605 22.289641116376707 0 1 -1
3547 1 4.185058378811314 49.55210152396421 25.37770452291733 0 0 1
3990 1 11.590371736175902 13.177528625328206 1.9504980673045276 1 0 0
4058 1 2.1267542003826025 25.85232528184258 1.668865615753085 0 0 0
3545 1 4.452283301655681 24.210538870075528 1.4201120971658936 0 0 1
1272 1 6.579736129232224 25.933375325278632 1.6117125112544386 0 0 2
3016 1 -0.10906631026797697 11.432421505314478 7.989359929628581 1 0 0
85 1 0.8160352074875544 2.1085421123077004 1.4203414770119596 -1 1 0
3864 1 4.8472908233384215 37.303857835330874 21.555840223597567 0 -2 0
443 1 -0.0666587408238321 32.74524929197675 9.390607370168649 0 -1 0
2024 1 16.291790297589387 7.267748494032287 0.4422531178742356 0 0 0
638 1 8.833649121456128 28.493606347069296 3.7369564014160104 1 0 -1
3714 1 11.500181119637517 27.102163282773997 2.223493883329259 1 -1 0
4504 1 13.452554651237342 29.139924254470102 2.8767678822596716 1 -2 0
4015 1 15.781007254690403 0.5186965819453038 18.297055505552056 0 2 1
2732 1 2.3699323616802164 32.13563695524854 3.620261149470455 2 -1 1
940 1 4.295550176566456 27.782944928315708 3.393674772238555 -1 -1 1
2800 1 4.682123504034927 35.21098847731257 2.333487950384497 -1 -1 0
1572 1 1.4447704745398824 14.137629559132506 0.6261648593145295 0 0 0
2950 1 0.7257103867341598 44.027181389956 17.104403504307307 1 0 1
1100 1 1.1681096519477763 24.74122165760424 14.876417575352475 1 -1 0
393 1 0.4291608999086185 37.018442995878544 2.017624266196042 1 0 1
4470 1 1.854636056101668 49.65360386125798 4.7427421275724875 1 -1 0
2893 1 7.3364884179446115 46.6187169517825 25.077329632320563 0 0 0
4265 1 1.6929712063617834 36.873344320863666 19.95360116718545 0 0 1
3233 1 9.873921485913993 36.94428275704105 2.4742981835367943 0 1 1
4358 1 11.824899343355591 35.33373235563309 3.982171122304017 0 -1 0
3464 1 3.105158459634089 39.08803970275204 5.114041573272632 1 0 -1
879 1 9.760150721566745 50.47942807551104 3.3004329866806947 1 -3 0
3968 1 0.7801479144473122 7.697726946631998 25.235057542271832 1 1 2
2940 1 13.980792082156801 36.42888009519952 2.7248721101859457 0 -1 0
1903 1 0.5169647055669486 48.3552607072677 13.039543294156257 1 -1 -1
1636 1 0.10658732623887507 3.8979470189816436 12.849991621337104 0 0 1
1538 1 16.667617499589884 41.31209011940906 1.6882620352293978 2 -1 -1
3727 1 6.405793601770492 42.31781438175193 2.365666959617444 0 -2 1
2315 1 3.0784787775452522 39.13129159942902 2.5374533297983755 0 0 1
981 1 10.420562476253181 39.29434190062631 3.6185099413215793 1 1 0
2978 1 4.180119596196227 39.07283027036328 23.190316857114134 1 0 0
2421 1 12.136348749223762 40.02942054554066 1.3582631606053113 0 0 0
1945 1 0.49300218274162455 43.98718673727636 3.848807025084513 1 -2 -1
3994 1 1.4703853723283107 43.05761592162918 0.8762508061444845 0 2 0
1043 1 10.298796574630524 42.43173579086201 3.541271912598227 0 -1 1
140 1 12.405541970533731 50.137266726885514 2.2641880916437365 0 0 -1
1628 1 2.811978886025519 35.78068196772291 25.09645877140501 0 0 1
3061 1 -0.11289102744625659 21.703471770632575 8.498153541442777 0 -1 0
376 1 0.7867222489328645 14.071976440228013 24.481578869492342 0 -1 1
1077 1 0.0031054940671360054 0.9790100584322083 14.904852765132578 1 1 0
4309 1 15.610944445812772 3.514947726979573 24.94919684664407 0 0 0
2420 1 12.819651935637236 46.14993000969915 2.4387974025299477 1 -1 0
3924 1 16.34647213444789 44.30224877723681 1.1052441259278782 1 -1 0
3242 1 17.742375750265836 20.58933924353343 18.23263731088122 0 1 0
2419 1 1.5353534223391863 40.15665637353486 16.289809708006487 0 0 1
3901 1 0.1610526234166263 45.14901852149168 7.92179047379177 1 0 0
3664 1 5.231602377192426 47.82520805256115 2.3675900956649722 1 0 0
2960 1 5.478818573407723 47.542909203868504 5.391764788164964 0 -1 1
546 1 8.216407256436629 45.58719212803604 6.24900658362493 1 -1 0
4448 1 10.270239960537264 47.3752045657196 3.129415424522612 1 0 0
2929 1 4.786064753221405 9.200780540349891 1.6197908323889758 1 -1 2
2770 1 0.012668421825875464 9.388648731889154 5.286574315190481 1 0 0
915 1 13.253116312585929 11.251659563032083 1.4052934141477798 0 1 0
1884 1 2.675458493995884 47.68796566793337 1.1331179727713303 0 -2 0
2517 1 8.40435137336044 2.5681798050648967 5.021842746772981 1 1 1
1392 1 10.643105155382381 3.084746823718944 7.226415288426728 -1 0 1
2841 1 0.0202231014612744 27.972576693851327 12.091532472410679 1 0 1
1454 1 0.996960935200123 50.30317233110293 23.32875970205699 0 -1 0
1906 1 13.977345398083209 34.288156704995345 0.764967659420867 0 0 1
188 1 14.734200674449792 2.254563542116785 2.540646833902077 0 0 0
3615 1 4.6294495947154815 2.529780641098219 7.333573569244305 0 1 0
4597 1 0.02278966085428058 29.556684296781853 19.688205267211654 1 0 0
2697 1 1.3903516414740253 4.749796450859595 5.69194583956016 1 1 1
1314 1 0.10245367132945488 11.23372729528888 1.5612059440842332 -1 1 0
3017 1 1.7217243543435605 7.860398612911833 6.985788118305078 1 0 1
2927 1 17.662626408092066 15.30445564468444 14.888762543356851 1 0 1
2000 1 9.040129320471284 8.974340381914235 2.191569085289282 -1 3 1
2805 1 11.136611486152043 7.0936504787152455 4.637208059636444 0 -1 0
2377 1 5.947718356224711 5.5836505534751915 4.360821371147277 0 1 0
406 1 11.619820536662937 10.82810095779184 5.516500733781061 0 0 1
4296 1 8.484842368993947 13.342448111585638 4.95825586734733 0 1 1
2877 1 15.595677223437914 8.541288718774954 4.8854918122640285 -1 2 1
4489 1 16.25112324766163 8.951342347275565 8.735005142234497 1 0 1
28 1 0.40442347660906763 19.391239213337897 11.527070170158364 1 1 -1
3760 1 1.4487223013192518 11.24267478426054 3.975139504457674 1 1 0
1302 1 7.376938144080601 11.342540112053562 1.8078174750859786 0 2 0
3052 1 8.075116318716253 15.196894667964814 7.082899227634439 1 -1 0
3011 1 16.042434763316052 10.523087394008947 6.578838876730899 1 0 1
830 1 13.49196309837154 47.30205470958322 21.07695059944036 0 0 -1
2304 1 11.437425878443236 45.29412552197647 24.076665389392222 1 -1 1
1355 1 5.593778660117725 13.139914581322559 3.1805101474386084 0 -1 1
3560 1 7.558708173994542 15.630036553563333 3.021492679106178 1 1 0
3755 1 6.641875366032437 16.815741605360735 5.340298158170973 1 0 0
3550 1 13.593417024086559 11.910285627448836 7.025769601559885 1 2 0
3303 1 15.118398639696025 14.870422784230058 7.49537234883655 1 1 0
2868 1 12.562118051547015 15.110555873951675 5.912252246999416 0 0 0
2952 1 3.9445526834993947 41.800399093812814 1.2777454405281037 0 1 1
1733 1 8.785183905364384 16.640299422370344 24.878295033861477 1 1 -1
3544 1 4.175554889935535 15.285345259757737 4.864763436090525 1 1 1
51 1 7.572162843965827 19.773029235956404 3.3573681108678817 0 0 1
3315 1 8.960152846665565 18.806571381283778 8.506864577992513 0 0 0
4222 1 16.12122089099231 43.51640374321087 18.36305439776855 0 0 0
2081 1 9.297202670033686 20.339991630273218 1.2079832055475694 1 -1 1
3539 1 1.0245190018589814 22.31665747503926 6.056548311369183 0 -1 -1
882 1 6.471281392049501 22.18657100623204 8.405511996246918 1 -1 1
4165 1 10.81584355125379 20.862637795109542 4.3476482733067146 0 -1 1
797 1 7.182209565797508 22.432778508062608 4.290980124919372 -1 0 1
3778 1 11.220813434414296 18.03572450823556 5.160837786056513 1 1 0
1670 1 12.674529197421883 23.566719866169315 8.176103599044936 -1 0 -1
2672 1 15.561852265824644 17.52151797035715 6.561682937173875 -1 1 2
1607 1 14.299270829121845 22.285844606321383 3.6703445967185377 0 1 0
231 1 17.26690680891882 5.2386349216846515 6.803312277859413 0 1 0
282 1 8.86632940431148 22.698661967903675 6.65838403251224 0 0 0
4407 1 13.682484730294188 24.567793278689 2.4868446231145893 1 0 1
3862 1 14.859899967446713 26.219445075838767 5.7026758138018065 1 0 1
4490 1 0.12172453689705348 33.83875264290148 22.90427126499304 1 -1 1
3589 1 1.421969007565828 27.443302522197076 3.8800847810709245 1 0 0
2296 1 1.999826960017666 26.725428669495095 6.643778449472592 0 1 0
1083 1 10.302631320819659 25.572306013043615 3.8305169840857074 -1 -1 1
3689 1 4.047922414676452 28.411945928147812 6.315715697727206 1 0 0
1910 1 8.269041065205917 27.835247535045426 7.513867746828404 -1 0 0
3115 1 6.7996716007644515 26.827626125271056 4.631461465991342 2 0 1
293 1 14.93294586377303 29.255772150641157 5.560491203279802 0 -1 -1
2387 1 -0.09135798982417744 30.103129826863928 5.838758351942998 1 0 2
506 1 15.481523873979128 32.028617785632626 2.7732913705059983 -1 2 1
1376 1 5.337691652238718 30.538693063569898 2.310768965717331 1 -1 1
507 1 5.68595211413088 31.39170927048559 5.748495384648246 -1 -1 0
3177 1 7.531683684821265 31.024679431230055 3.9625714519809834 0 1 0
2690 1 6.391002803792979 25.602072408055253 11.001490265695626 0 -1 1
3759 1 11.385462255395101 33.0523297034742 2.7912081638196033 -1 -1 1
1231 1 12.672400118634163 31.380697796976722 4.376296211916262 0 0 -1
1251 1 15.739532489213897 21.81239264595909 1.0481563151437767 1 -1 1
822 1 1.4570800837174336 34.08441348902325 6.66177861694609 0 0 1
2273 1 16.63535829508724 32.537349237092684 24.42996668983128 0 1 1
1034 1 4.159842229212982 34.16568865223341 5.180610065674125 -1 -1 0
4372 1 7.22374932716494 31.220116213032256 8.076252838774188 0 -1 1
3110 1 12.266506691371196 34.817321371441366 6.601210985208959 1 -1 -1
2424 1 15.757612563522148 35.14135526487938 4.127588487253842 1 0 2
3694 1 15.17439329405325 34.205137143213165 6.930526990155835 1 0 0
348 1 4.051961043129352 36.743146915795066 6.244217427944006 0 0 -1
75 1 7.273754713018149 35.69882047520254 2.0908356993223056 0 1 0
1580 1 11.662803939881696 8.566925936438704 0.35716036097664183 1 0 0
3190 1 7.1117925999226514 34.38911568943928 5.793576162128737 1 0 0
2169 1 13.15158349515946 38.41848424688608 4.9979439652422215 1 0 0
395 1 17.68616489550904 37.475092395935675 4.76675263524489 0 -1 0
2892 1 6.628693987224267 17.539560465476058 22.709217512800226 1 1 0
1705 1 17.152492769752378 44.20161873125741 15.843822174316047 0 -1 1
2445 1 0.40037411296532 40.777049728251214 2.743976388925074 1 -1 0
973 1 7.050242616989413 36.9837444707771 4.818722182089768 0 0 0
4211 1 13.997572846986198 38.02338162335968 7.542034121491068 1 0 0
3932 1 7.228658349731722 41.39042635629147 5.1071858902429 1 0 2
4431 1 12.882199513076353 43.45933832158916 3.1089316449468427 1 1 1
1265 1 14.373932604795288 40.89584701188677 3.2219250271510402 0 0 0
4324 1 15.345524135982235 47.05678869837247 24.121544265847422 -1 -1 1
3548 1 2.7049269614043294 45.833836452942904 5.681349101605993 0 0 0
3993 1 4.6754728740515334 43.995629169414585 4.855516827439057 0 0 0
3171 1 9.32161733810849 43.18928615507018 6.135310114016031 0 1 0
1880 1 6.0043316736011025 45.36096154879513 2.4446326863086716 1 -1 1
1708 1 15.611255612803701 45.06486921618881 21.775366823570657 2 -1 0
2127 1 9.162147783402967 38.08672060169489 21.233530423638832 0 0 0
1805 1 2.4968359561078826 48.36002822860408 7.267511033481131 1 0 1
3398 1 5.576313993317665 44.66307281460985 7.594179189321486 0 -1 1
1901 1 11.452388686867195 45.85510895000915 5.577429223644182 0 -1 1
3135 1 1.6773879819923234 47.35671637180111 3.4817686759231754 1 -2 1
2874 1 4.987326011026748 50.02020380188701 7.423429018635879 0 0 0
561 1 10.713137878382584 50.35961337113416 7.665966607288791 0 0 0
1448 1 13.581999070051562 48.88368608863897 4.192004881724398 1 -1 2
1172 1 13.00852802050369 0.6478643872949104 5.824557686201673 0 0 0
4524 1 6.782642034690983 0.37338583579022677 4.882826176769675 2 1 1
4419 1 5.511789722828375 2.2752207523902377 11.249760601469978 0 1 1
3132 1 12.470416090081933 4.9118227777029 5.8709069399931595 0 1 0
3268 1 12.08150964907682 0.9929158881599914 9.875161818832515 1 1 -1
1524 1 14.72255199945585 0.6749646859692735 8.284242646264516 1 0 0
1059 1 11.05310913604595 18.600437587323615 25.199510352349403 0 0 1
3332 1 -0.02725205023442054 9.10052533976234 20.3731852155955 1 0 0
4535 1 6.87923469859917 4.122841085020403 6.650654769791659 2 1 0
82 1 7.640358428393294 6.015506530002252 8.700622669166393 0 1 0
1744 1 9.181307935367192 9.802152247020256 5.212748535543552 1 0 0
1575 1 16.92953000277957 3.0338319626016195 8.75378752863875 0 -1 0
1615 1 14.34515890982919 5.541580065558854 8.174259317889987 1 0 0
1785 1 0.4955240680083699 9.464212140605477 10.414412147967441 1 -1 0
3211 1 5.173197826200237 8.946958142976039 6.103900838242845 1 1 2
3425 1 11.151424525471572 8.617046466004032 9.820814738965774 1 -1 0
1781 1 14.91425417070449 5.735816227067733 4.786647257721099 2 2 0
3936 1 12.254803810013128 9.457718181843784 12.295846883449524 1 1 0
77 1 16.30243347888986 4.752081205958278 16.674263077789515 0 0 1
2063 1 16.70036658646563 15.287031253723978 24.290734061322272 1 2 0
661 1 4.94485138084442 13.128043948646399 6.700847557188053 -1 0 1
2502 1 1.9074426456697284 19.94885437568249 2.1915185701140403 1 -1 0
2662 1 14.996823032750559 10.863798153198859 13.180639055643205 -1 1 0
2238 1 0.28885184894104965 17.464224095119548 7.999171349467651 1 -1 -1
3981 1 1.9296155784781877 13.636873314914276 5.40307215723245 1 -1 0
2572 1 2.683065561000549 12.599743305632447 8.108802236614308 0 2 0
1038 1 10.710029540282495 11.246685292314373 8.79549993762781 0 1 0
1946 1 9.18215571422136 43.470524447776896 0.9483918822743015 0 -1 0
1824 1 1.0162647868911705 16.236698193921278 10.464558338352075 1 -1 0
26 1 2.5953484573699126 17.868425548764986 6.46050904197813 1 1 2
4566 1 1.690308194839812 13.610430032045734 10.470322100004417 1 1 0
1287 1 5.592213349202505 15.0704919292951 8.646743174473121 0 0 1
2829 1 7.9119271237384865 19.12788088083502 5.894806348225595 1 0 1
1047 1 12.381676874216824 18.583982807553063 9.670331134221211 -1 1 0
1390 1 17.269351595445112 35.103608467349005 1.7345847405835186 0 1 0
596 1 5.395543967999859 20.181037752298966 6.895015568318339 0 -1 1
3535 1 4.500789612643446 23.417755049184485 3.8671486089780953 2 1 1
885 1 11.953439945026481 23.281155502423804 5.2204462413685455 1 0 0
2082 1 13.692281279505256 19.083567846943378 7.1835469466916875 0 0 0
3341 1 6.189127808572614 43.846076782982706 18.65392356363853 1 -1 -2
1725 1 17.038261768758908 11.079598199372187 25.267316365607712 0 0 0
2237 1 8.489572475061776 24.13470417965345 12.026813188720226 1 0 1
5 1 9.15733240550996 26.217234297504863 9.499333075276615 0 0 -1
1204 1 12.228738503390101 26.764548750394077 6.673941095857055 0 0 1
3192 1 13.320331919519619 31.642262085855744 7.0483308512069165 1 1 0
3434 1 17.119856575224592 24.735641416550674 6.10996052955943 0 0 -1
1516 1 2.5456071216430654 30.593294655297466 5.9770624683098905 -1 0 2
97 1 1.4645591612309894 28.067730582195406 9.112996341876984 0 -1 1
1159 1 2.776264482005767 25.83138907103088 10.56055546135299 1 0 0
59 1 5.701433797775352 27.290470341428936 8.383405926086912 -2 -1 0
2974 1 9.721649671424077 25.549000748831872 6.566144520114367 0 -1 0
148 1 16.15897769073808 50.019458692128325 3.548495587427091 0 -1 1
1649 1 16.919063388239415 23.50902339053817 8.588037693396503 1 1 1
1243 1 2.814282378996914 32.14751608570016 8.436986184153557 0 -1 1
3739 1 5.877964650514665 29.72806182616912 9.611802768447987 0 -1 1
2147 1 14.977361205356255 28.789997056185136 8.333326045528624 -1 1 1
2219 1 10.998878881542362 29.236974303774495 5.640044962354992 1 0 -1
4127 1 9.840921923407864 30.132530922035354 7.627270029119968 1 2 1
3456 1 5.530612714868414 33.459315460587774 9.482760208508695 1 0 0
3843 1 9.361243643250342 32.74767639098924 4.865894450320444 0 0 1
2276 1 16.15088261323603 33.74799071986895 9.772858205932764 1 -1 0
3948 1 10.564379480018106 48.31831407275568 22.62472931626056 1 0 1
2330 1 5.977191378978019 34.205088639088274 14.44272653774897 0 0 0
3897 1 7.582621978916944 35.652186998941815 8.494720524481252 0 -2 0
3269 1 5.643784754951132 37.98137041838555 9.084599405355924 1 0 0
3973 1 11.939909294163368 36.8674730943405 9.068368306282672 1 -1 2
3542 1 9.951989454781648 32.943665227244495 7.50891699023461 1 0 0
2860 1 15.080422815912412 36.3551329406953 11.693039833154774 -1 1 1
4492 1 2.2970527189097045 38.82506605467009 10.410458953745609 0 0 1
3604 1 16.286585333526908 1.9753273744955178 14.003714500649762 0 1 -1
3330 1 9.551799250116932 37.91029988587766 7.785812598095539 2 0 0
3102 1 14.17181015533105 40.96679737918623 6.6520124016206665 1 0 1
1573 1 16.64985991043923 37.10170975177972 7.466997328042259 1 -1 1
1330 1 16.86648768910942 31.609633582515837 11.185075040690183 0 1 1
414 1 1.0550174622996054 42.70017389596268 7.249587042743611 0 -1 0
3805 1 12.301610347926939 23.027245140674466 24.437429408145405 1 0 1
307 1 2.790143478079574 41.38007234660586 9.365797262356237 -1 0 0
2474 1 3.681072537850489 41.92314355344055 6.252082753271608 0 0 0
4574 1 8.589501923690882 39.059312955502236 5.572970566830735 1 0 1
1148 1 12.575909512826447 40.555111906541526 25.293472022424414 -1 -1 0
2318 1 0.7426825326193098 46.87493125326003 10.723744854365782 1 -1 2
4175 1 10.12018053573129 44.13670926988736 9.626008995742263 0 0 1
78 1 9.58336274520856 46.45720951107519 8.458177600292256 0 -1 -1
3478 1 15.532989533402313 45.90748366731171 3.377411891139914 1 -2 1
3006 1 13.70276572549687 48.48257597351967 9.027810529682 1 -1 0
2217 1 12.243297827098568 48.121519668332425 6.779875234169752 0 1 1
944 1 17.32625946103588 45.781771321398026 7.339101516089484 0 -1 0
197 1 4.191890642600983 50.202004983837995 10.336731505359424 0 -2 0
3074 1 15.894624194821926 36.556156298163884 18.71737352505076 1 0 0
2525 1 7.762420754639967 0.4733952056534665 8.366190527844882 0 0 1
4315 1 9.645861313109247 49.485680825161154 10.982842956169078 1 0 1
4603 1 7.068834055147675 50.08811846399756 1.4267028304634803 0 0 0
2666 1 0.20848016463260877 50.21747320492278 7.88098700450467 0 -1 1
3209 1 7.674435473721453 3.1139984956036484 9.452790406735295 -1 1 0
4271 1 13.178941459359645 50.49511393876951 16.007840211170507 1 0 0
2471 1 3.4788752032459054 5.887276930827629 13.467765652417077 0 -1 1
4572 1 3.5729476530269633 3.5776071902782913 9.958788646790296 0 1 0
2491 1 6.837179833391181 6.421719268368431 12.215946011855365 0 -1 2
2484 1 11.689839054868441 4.360394465579623 9.799760637007687 0 2 3
1076 1 13.359383261822183 3.6046385245574886 12.29348933704463 0 0 1
1512 1 16.355330414690076 6.627046327481987 14.499874386413655 0 1 1
1264 1 16.18959979038486 4.263107819131513 12.54277773204095 1 0 1
3871 1 4.090015694055161 6.542137760641131 6.8260913586982825 0 1 0
3834 1 6.311239242604434 8.162770201459374 3.4488708925862626 0 0 -1
4509 1 7.764966048870679 11.650119840476947 7.158788663281005 1 0 2
4398 1 7.681503015846648 8.567167257883419 7.708725794357232 1 1 1
3519 1 15.394664797247275 48.320145206808405 1.0638778057693723 0 -1 0
2987 1 1.3028160435281189 8.921231408161336 13.12785587788564 2 1 1
3414 1 3.706893139647226 9.974733171573314 8.385285386420042 1 0 0
2223 1 6.441863751333142 11.554758131787258 10.982770731089508 0 0 0
2998 1 11.586642952173516 13.855206833221532 9.101061226904447 1 0 0
3124 1 14.12060226544925 11.163798775116268 9.885197613429968 0 1 0
1112 1 14.318726356353723 14.004367536799755 10.081195520404643 0 0 1
3656 1 7.553338062396872 32.76959850946467 1.08851876013302 2 -1 -1
938 1 2.5971259190629876 12.31245826387882 12.810494138159585 -1 -1 1
2323 1 8.342023622085454 12.946148263706363 9.896481645719517 0 -1 1
1798 1 10.743300727572727 16.50730306190727 7.979012147490249 -1 1 -1
2593 1 13.239058077657191 16.548231395813787 11.313749700967024 0 0 1
3376 1 10.494263651272588 22.53735222648382 1.3080436769831434 1 1 1
1902 1 15.771150167793323 17.23089144322476 12.3578308399179 0 1 -1
2809 1 3.402961014903736 8.352095534334595 10.553369291298544 0 1 1
1457 1 3.4116783911972175 16.73994726743461 11.948111830965628 0 0 1
899 1 7.730843634120321 16.91755738253916 10.27132101281026 0 -1 1
4510 1 10.21012829008181 15.165290694556292 11.498780657719703 1 -1 1
4416 1 16.99218951965562 19.04632893115723 10.499944417785672 1 -1 1
3339 1 6.025653447413008 39.09918445417448 2.6142044363141075 1 0 -1
2763 1 3.8155838205474084 18.462909083594006 9.863299645221744 1 0 1
3810 1 5.152101317503368 20.00658902140579 11.402366984204331 1 -1 0
1986 1 7.527847922101074 21.404366696678366 11.140236153272612 0 0 1
4045 1 14.54008844687628 20.383610954211903 10.172714148103593 1 -1 1
357 1 14.557922279919 21.762414618848005 7.568025481653915 0 0 0
2210 1 16.64304319104377 22.116360252504965 5.069651622071212 0 1 0
1106 1 14.92922256819864 25.611679410528453 8.897850011547185 -1 0 1
2247 1 16.88379080520549 8.944795713266256 2.7749449714100805 0 1 -1
3191 1 4.947976143162886 17.2710375853095 7.562920677272583 0 0 1
1601 1 4.625765316721807 22.80306148934605 17.04206877130621 0 0 0
4285 1 11.519657768026594 22.919601843052526 10.435460065131755 0 2 1
2613 1 13.03490495261417 21.252549420133548 12.416178499412268 1 0 -1
38 1 10.161595270324057 3.87418433170952 24.578192116372485 -1 -1 -1
2036 1 1.7676786129667927 19.002663155889742 22.806251230667062 0 0 -1
1173 1 1.9105164983963663 23.253447372704535 12.408888163290694 0 0 0
1631 1 4.7170529581184315 24.440091590910157 8.959979056969537 0 0 -1
1164 1 5.247701813921421 24.639588385712344 14.930815213208726 0 -1 2
2158 1 14.573879124870432 30.164052196166484 11.030061525142418 -1 1 0
2236 1 11.905030259359663 27.4621592885844 9.346191232812702 1 1 -1
3059 1 3.216358891921448 29.83194515936463 10.10085209143748 0 1 0
1467 1 3.6718868143437264 25.99053782753399 13.160347165537678 1 0 0
3498 1 5.915879707721888 28.550362872198054 12.479213504824797 0 1 0
3533 1 11.217154934151205 30.002974705471903 10.033538232309814 0 -1 0
3419 1 7.5581259147812565 26.511239107758986 14.455021181997733 1 -1 0
475 1 11.327390730383467 30.339814136851054 15.27614700678682 0 0 1
1508 1 16.81619464112538 28.240957949638165 11.440515735223796 0 1 0
1917 1 0.8197680012799129 42.92473829006079 14.6801269470927 1 -1 1
1951 1 5.372007735849881 32.321163203639784 12.03754521632589 1 0 0
694 1 10.429193841606716 31.469927752619757 12.79260699152729 0 -1 0
509 1 11.793851337859667 33.28316134625881 11.518471032937379 0 0 0
906 1 13.613408181244164 32.40984628517468 9.5367451857817 0 -1 2
3742 1 2.07009751732506 36.63016389912178 7.933300354905986 0 0 1
1048 1 7.849234448644461 31.242485301386917 14.503943368968772 2 -1 0
563 1 5.171227961860314 34.26263429539188 16.951916149154183 0 0 -1
1229 1 10.111623540562993 34.97646275758939 10.295137359753248 0 -1 1
3000 1 16.59990207215068 42.627470551482375 23.242035792788524 1 -1 0
2576 1 13.471914228404014 34.329696285004914 13.114471786725469 0 0 0
2118 1 16.4552578232816 21.900616286838396 14.168501805143817 0 -1 1
1914 1 5.958902570591801 40.042452044305634 7.404267611672145 2 -1 0
3788 1 12.444298964877333 40.07286688984779 10.815965450630834 1 0 0
3812 1 14.879655527116759 38.7526570018495 10.245234723437632 1 0 -1
461 1 13.103727943359344 44.489124665078066 7.518029273497776 1 1 0
2506 1 15.553037335172885 43.837073287507366 5.658783829667401 -1 -1 1
1857 1 16.49683433776894 39.8193185114384 14.011069036205582 0 0 0
2901 1 1.143748887811301 44.227770424144595 23.815210125430713 1 -1 0
1358 1 10.607691956345437 39.996221679797884 8.621559590402276 1 -1 2
4570 1 12.98053103035831 43.19580870234576 10.102224490982294 2 -1 0
2250 1 14.99251748363625 46.07907419206353 8.952734724396258 0 -1 0
3184 1 15.928349270771502 45.91511276270266 11.231624146956928 0 1 -1
2027 1 15.232273849277938 40.79120838292894 24.08894236567418 -1 -2 -1
2493 1 5.543901920883475 42.358535186267275 9.169995129678641 1 0 0
850 1 2.87133099586676 47.470898992054174 14.34763954813519 0 -1 1
634 1 8.586082626590176 42.04011754506392 9.417802099083282 0 0 -2
3199 1 11.696051564756377 47.37447923040108 10.65519635603208 0 -1 0
138 1 7.3674713732576045 3.0581278834955863 0.6535437995248273 0 1 0
1888 1 0.20038294594472733 36.8456704809942 22.867029807714317 0 1 1
930 1 5.091528551978033 46.8999025961393 8.625886057140013 0 0 1
2486 1 7.736190523458669 48.22856767588645 9.454148108963352 0 -1 1
1564 1 12.911540091603616 47.80904527919432 12.967059753834286 0 0 1
2084 1 16.225312251256984 50.58920576376564 11.190839447415962 1 -1 -2
1489 1 1.6550516768420742 31.991030919540385 11.762577006052565 0 0 1
4154 1 2.3132481566651824 4.127187698710992 15.10673382990307 1 1 0
4 1 8.153567723682603 4.28635429138579 15.45038558327033 0 -1 -1
2359 1 6.928042318526853 1.4494120299339395 14.927729054255241 1 1 0
3319 1 13.76630464360335 1.0111337044380944 11.941854767451979 0 2 -1
1533 1 9.591268374066821 0.9240465437327299 13.550784820054947 -1 1 -1
4158 1 10.373218092229592 2.4484548817746083 16.04694894069 0 1 1
1763 1 2.0911741379222932 1.1248152793861452 19.364768978336357 0 1 1
4283 1 1.7935293025434786 0.58115068802461 12.855974510259456 0 1 1
2505 1 9.786812464820317 2.660029422502739 11.362286181227619 0 0 1
2900 1 13.229743765759062 6.697985319269541 11.689833667655524 0 -1 0
1719 1 8.585390231027622 7.119971200803654 13.925844772077575 0 1 1
1495 1 12.220913637760972 4.425354521406005 15.463881576874384 0 1 -1
2398 1 4.779588950986798 6.173944615574504 9.447248899714857 1 1 1
53 1 5.57648288985134 4.291317755543247 13.46516219100493 1 1 0
2755 1 9.98690464113294 6.344943260665731 10.511145810563654 1 1 0
1303 1 13.371086618351324 10.16446771657961 17.801178590949654 1 2 0
236 1 13.19285035304203 7.5291788357523 14.532801071108986 0 1 0
988 1 4.317604992734462 11.713147203733774 15.066024275584272 0 -1 2
907 1 7.897154382205873 8.948813783518057 10.387067183674363 -1 0 1
3790 1 9.45159725127334 12.722196172719782 13.363812776406307 0 1 0
2450 1 14.374842084362628 13.625155675239197 13.87138720124056 0 1 1
2322 1 17.500254381087203 9.35861589013413 17.30701139309101 0 1 0
2619 1 15.39199192417504 6.877460615394267 10.315394933240174 1 0 0
811 1 17.549000352886868 38.37188762626869 1.5911493503932543 1 -1 1
2285 1 4.818242872248829 13.988928801224464 11.189576134692851 0 -1 0
3791 1 4.870466986697804 15.38132393938258 15.587734788757901 1 1 0
3442 1 7.056559022031145 15.944199161125669 12.850353235905958 1 1 1
1366 1 9.185740740845699 17.120051199345927 14.20272560532824 0 0 0
2655 1 14.684605112531992 15.488858474003354 16.041744182905134 1 1 1
2769 1 2.5458729599724985 28.621505503554857 24.401051976102224 0 -2 1
4168 1 16.702297414709737 48.780638476769724 19.387728972469006 0 -1 0
481 1 4.545492246912421 18.439274581079136 15.890827803023846 0 0 1
4307 1 9.94919080346534 20.595997981846324 10.146618952944841 1 0 0
3450 1 13.600603219607864 18.286333443499075 15.81919499328355 1 0 1
2831 1 11.914311195658836 16.890673235882577 13.75021510033262 1 1 0
3904 1 1.809255506199354 17.371543302547682 3.4999474498993677 1 1 1
2195 1 15.044695970813008 7.099602527658587 18.408497438655708 1 0 1
689 1 2.948227624360613 20.26036532873125 14.916666417955659 1 0 1
2090 1 10.721887096974791 20.924567474061377 15.682912614913963 0 1 0
3235 1 10.778199217133691 27.050671383478154 12.846413604615295 0 -1 0
1104 1 14.804161665259056 19.567781324232524 13.678421184088458 1 1 1