LAMMPS data file via write_data, version 29 Oct 2020, timestep = 100000

8516 atoms
1 atom types

0.4804916313316099 104.04320325531063 xlo xhi
-0.2470606921590175 50.48170331490295 ylo yhi
-0.2470606921590175 50.48170331490295 zlo zhi

Masses

1 18.015

Atoms # atomic

2004 1 2.1053779437189104 2.5477320260374787 1.1057382076706 0 1 1
2006 1 6.526449532816885 0.8978407854084174 -0.18327298687061927 0 1 1
2007 1 8.205855387082572 2.151530471875413 1.5668491944940939 0 1 1
2008 1 13.200298744899884 1.0890094498162084 -0.09759973124714866 0 1 1
2009 1 14.48765109089409 2.760582367597187 1.2854679215738354 0 1 1
2720 1 21.031468440066206 2.4090116359522975 1.4947427752441262 0 1 1
2450 1 19.35386149407389 0.8323677109433787 0.008648843826162322 0 1 1
2723 1 26.934215593758225 2.2870274206592245 1.8395091779342603 0 1 1
2721 1 25.665487117815438 0.801894304439033 0.22657232003410577 0 1 1
2725 1 33.42928216285476 2.6171219416845584 1.8810469488323167 0 1 1
2724 1 31.851780542694282 0.9013936829004798 0.5556626380856576 0 1 1
2011 1 3.401739361556475 4.365083925566218 -0.08088438091998762 0 1 1
2012 1 5.4158393820780475 5.337568893269903 1.1696218099233426 0 1 1
2013 1 9.981897772996634 3.72325141274247 -0.06267053996359101 0 1 1
2014 1 11.628640323774098 5.510113219028806 1.2870250059457065 0 1 1
2015 1 16.372443816741843 3.731919635239154 0.0027113477732251257 0 1 1
2016 1 17.78083117236019 5.402900110286778 1.6773707776794098 0 1 1
2727 1 24.291762341897908 5.180203151595046 1.562114411019411 0 1 1
2726 1 22.709692363864182 3.668274126398249 -0.15445470479049883 0 1 1
2728 1 28.41279740749174 3.6741418221079165 0.3379136890773944 0 1 1
2729 1 30.322349047918063 5.645280813778064 1.7342179418343153 0 1 1
6609 1 0.9291780844340627 7.23645613087566 0.11407726860041728 1 2 2
1919 1 1.9877296707037322 9.339956290215804 1.3254794182903382 0 0 1
1920 1 6.82793271200095 7.7638268326976885 -0.20417423289751516 0 0 1
218 1 0.5237117620568557 16.97139120408444 10.096664605197459 0 0 0
1922 1 14.71333888322288 9.165445318920336 1.7401913956283366 0 0 1
2114 1 19.191209896481766 7.771119919384789 0.09915138458840145 0 0 1
2643 1 20.921309615242176 9.102201683217112 1.6945390692641054 0 0 1
2645 1 25.566158149513413 7.646640683314674 0.09524868851766183 0 0 1
2649 1 31.956361391488475 7.899773751147473 0.09972494186769876 0 0 1
2648 1 33.7701100963473 9.034269468259986 1.8030930585324918 0 0 1
1926 1 3.629732067780946 10.775026173061972 -0.04041986742041684 0 0 1
1927 1 5.016839340714427 12.506913129474768 1.7669457282417564 0 0 1
1921 1 8.052131704351392 9.521987422149287 1.3986890441509368 0 0 1
1928 1 10.09638850229907 10.794617755037432 -0.012402665132951851 0 0 1
1929 1 11.641514951043407 12.471435467478964 1.4978415734721346 0 0 1
1931 1 15.949775020588161 10.86803779408954 0.2303583088651256 0 0 1
1932 1 17.68499370001703 12.252703121777198 1.758077635072767 0 0 1
2644 1 22.586335031632572 10.879953878114149 0.17622266392312136 0 0 1
2651 1 24.261817671136743 12.3789189548568 1.6905610909766784 0 0 1
2646 1 27.02780206141778 9.450478679167869 1.707316249405049 0 0 1
2647 1 28.602328786419836 10.860826954889106 0.22970072433763583 0 0 1
2653 1 30.21355997026864 12.251847605243054 1.6931419923603874 0 0 1
2655 1 34.824143549928465 10.831487401257968 0.226439597372333 0 0 1
1977 1 1.0842144379636869 13.869206431781928 0.2824496766418306 0 0 1
1933 1 2.1662587140023897 15.649569198232367 1.7609686142926653 0 0 1
1935 1 6.567629192830716 13.83170395016391 0.11465306579651313 0 0 1
1936 1 8.358195651111426 15.34739902612855 1.5818946012631 0 0 1
6950 1 0.7713807457459173 39.467902570627544 19.311243596517755 0 -2 1
2656 1 21.024081661079148 15.718507255327333 1.6970959890644768 0 0 1
2186 1 19.427538765580184 13.979319410567237 0.0020787400820216073 0 0 1
2652 1 25.626722728565625 13.82942016215953 0.10706288889404991 0 0 1
2658 1 27.059397397416376 15.658031001430155 1.6345931046204507 0 0 1
2660 1 33.30898503803426 15.318287073462184 1.6963334987866023 0 0 1
2654 1 31.94478507411063 13.95050741906741 -0.011084655565860274 0 0 1
1942 1 5.151492835954176 18.72947625599587 1.5485321401198209 0 0 1
1274 1 28.780289908517332 42.18093396567175 24.953522922882414 0 0 0
1943 1 11.025639504882045 18.564706557138663 0.8372320242552294 0 0 1
1938 1 14.694064993920218 15.779978738680569 1.4578572516160648 0 0 1
1945 1 17.706680793218723 18.355947995275358 1.3367227179715049 0 0 1
1268 1 25.875871022092916 39.15553804398844 25.106078803328813 0 0 0
2664 1 24.051004908567855 18.506995232628185 1.216647906511886 0 0 1
6627 1 0.6475886010030343 2.6158455828815192 10.781039966606842 1 2 2
2665 1 30.124011789795908 18.751469148601164 1.6074848965555237 0 0 1
2659 1 28.605323323483297 16.863486198797542 -0.014951822067196946 0 0 1
2661 1 34.799705298165826 17.205552435291164 -0.11587367581500949 0 0 1
1947 1 1.9418796100578046 21.65704617850775 1.689271001567417 0 0 1
1430 1 0.591304792028193 20.296782139361273 -0.062036626340185225 0 0 1
1941 1 6.678975640857128 19.995534568320846 -0.04403894398528624 0 0 1
1950 1 8.319578870429712 21.57500945173304 1.4464113518472637 0 0 1
1952 1 14.266285371692272 21.864815813093507 1.3206383236203993 0 0 1
7502 1 1.0145410742177843 5.348418820189215 8.388546675615611 2 2 1
2667 1 20.731074781244885 21.642463047425625 1.6777913097163781 0 0 1
1823 1 19.1064144442983 20.146010582070865 -0.22092586493108637 0 0 1
2663 1 25.432760622907054 19.939788481742205 0.05496282707187944 0 0 1
2670 1 26.77405679070952 21.520898822820087 1.8387742143914942 0 0 1
2666 1 31.427891171380654 20.743843608366333 0.2381898863171628 0 0 1
2672 1 33.2195823400578 21.889021886432158 1.9175562085587403 0 0 1
1948 1 3.513752066082203 23.271374898217434 -0.1148611620686058 0 0 1
1949 1 4.904712244319856 24.774073149993793 1.7759739908069552 0 0 1
1951 1 9.39358611657175 23.074427863372435 -0.11290608443239933 0 0 1
1956 1 11.141224703821395 24.86377301743809 1.3355516773024694 0 0 1
1958 1 17.29444970903307 25.18457495686914 1.4434460862872915 0 0 1
1953 1 16.316770000021773 23.271344246887075 -0.02078552382833282 0 0 1
2668 1 22.563877758411586 23.339262518294692 0.40452834446599584 0 0 1
2675 1 23.764410684267293 24.99318208227389 1.9281220670555324 0 0 1
2671 1 27.8964437229981 23.513540060180624 0.0748043081478329 0 0 1
2677 1 30.060236646618282 24.650137219224625 1.446670346428759 0 0 1
2673 1 34.71575932531704 23.368117499889127 0.41711819052074717 0 0 1
1959 1 2.130362424042592 27.714915026657856 0.8387911680881415 0 0 1
527 1 9.844592439130428 44.905276629404014 22.22971698807287 0 0 0
1961 1 8.146690557528682 27.6720753748049 1.4470066853254413 0 0 1
1957 1 12.93111491594956 26.32855000092523 0.0948490990884368 0 0 1
1963 1 14.277625904233808 28.202192142595134 1.4975016467899358 0 0 1
2192 1 19.4058358685111 26.279396587002626 0.2179723099959595 0 0 1
2679 1 20.776351380970887 28.081271107417027 1.9090145709291924 0 0 1
2676 1 25.34305908648158 26.471196837285543 0.3316505330336036 0 0 1
2682 1 27.117030224988625 27.75958885531764 1.9229876832345947 0 0 1
2678 1 31.500472300534923 26.511995746786848 0.11312437212950988 0 0 1
2684 1 33.26124532639512 28.057863584350688 1.725837913097518 0 0 1
528 1 11.318770400316554 46.46350049143737 23.75675966943284 0 0 0
1967 1 5.038209651003505 31.021421194861873 1.725366293795492 0 0 1
1962 1 9.824164760296382 29.368920939183 -0.026621394888201894 0 0 1
1969 1 11.409288928337604 31.202773057335776 1.1939686254519317 0 0 1
1964 1 16.141993574572112 29.331499848773998 -0.1068326122076419 0 0 1
1965 1 17.785319398602958 30.942062475561507 1.3640838089557545 0 0 1
2681 1 23.709022163675318 31.030852077402486 1.6546121847428712 0 0 1
2680 1 22.181912301695878 29.560028800439046 -0.18875894198580895 0 0 1
2683 1 28.51055908061335 29.49150837373054 0.22515322836974794 0 0 1
2689 1 30.43416150650226 30.474551717713446 1.7190659691172765 0 0 1
1765 1 0.5102224233333713 3.9747065638732764 3.010303141842313 0 1 1
1966 1 2.1253088439834857 33.94331627196002 1.4173618148544598 0 0 1
1968 1 6.743530314372773 32.08599642980475 -0.2038394850744647 0 0 1
1970 1 8.063194704595126 34.15641658730493 1.1986122422908083 0 0 1
1196 1 28.569667485363272 45.22062015200522 22.460750933067064 0 0 0
1972 1 14.408658541114821 33.899949229149684 1.5219024116286852 0 0 1
2686 1 20.71506380659193 34.359343183136154 1.0993006054204608 0 0 1
2744 1 19.479103367579803 32.46770341799124 -0.1691834934876776 0 0 1
2687 1 25.189099304280152 32.47435671136608 0.12575475690403098 0 0 1
2688 1 26.871303658028047 33.891663901572066 1.4867284653299653 0 0 1
2690 1 31.75928611000665 32.467180731833935 0.3015204294280869 0 0 1
2695 1 33.17453265830298 34.35259570550822 1.520194401168511 0 0 1
531 1 2.158909608590938 49.834832055861156 23.75886587126487 0 0 0
1974 1 4.6536175514626885 37.2822389932164 1.0617392460492823 0 0 1
1975 1 9.649832760129263 35.826232905033095 -0.2392105332463338 0 0 1
1976 1 11.179010889418475 37.430407282720815 1.5636455373750324 0 0 1
1979 1 17.23337923807795 37.0059177466406 1.692219972522834 0 0 1
1978 1 15.762206948122934 35.571654157795706 -0.13644867981563605 0 0 1
2692 1 24.20557285290937 37.59539647997887 1.2714600524222253 0 0 1
526 1 4.951529102628254 46.48383710270667 23.99302026806485 0 0 0
2694 1 30.372241547809917 37.560278720748414 1.3940087059314485 0 0 1
2693 1 28.596806161862013 35.79883603124295 0.0312716909622896 0 0 1
2696 1 34.853040314132144 35.637093892201264 -0.1505487213449524 0 0 1
1981 1 1.653621836180875 40.95005480257906 1.374377971187475 0 0 1
55 1 0.5138420411077409 0.48001405827638977 19.094788923513796 0 1 0
1982 1 6.530670778904468 38.78112454029963 -0.10231165833677341 0 0 1
1983 1 8.125937230743666 40.44876776240439 1.437537698674188 0 0 1
1984 1 12.690630781937484 38.93043632874145 -0.05610777960214505 0 0 1
1985 1 14.690669431956165 40.51974987132146 1.3290516642041201 0 0 1
1924 1 19.014684873581125 38.69056075130004 0.05309717374708661 0 0 1
2698 1 20.6314906435533 40.75920147046282 1.4649108889861144 0 0 1
2700 1 26.986424671821837 40.48557393871222 1.2022115655799663 0 0 1
2699 1 25.7833364146996 38.77770585452443 -0.2341520413247323 0 0 1
2702 1 33.51164367538889 40.114030460240336 1.5701763124248131 0 0 1
5953 1 0.8652878895840039 37.3490056116356 8.114236339374266 0 0 -1
1986 1 3.6751516553509798 42.22041627435507 0.22133766941041644 0 0 1
1195 1 24.03009961946584 46.49997464259981 24.27491193067781 0 0 0
1987 1 5.47339063174409 43.664310306803344 1.6421521148616365 0 0 1
1988 1 9.856451112902409 41.95632120920677 0.047514643330444306 0 0 1
1989 1 11.378084827017807 43.61133773719908 1.7034803702081207 0 0 1
1990 1 16.02089290317045 42.10323018677844 -0.1392748252464669 0 0 1
1991 1 17.789633746438085 43.708872951346734 1.4292230127368173 0 0 1
2703 1 22.31484993627892 42.04131785187828 0.06861589507657823 0 0 1
2704 1 23.689915952435815 43.78776512369869 1.865475788337006 0 0 1
2706 1 30.204985533111095 43.68329205085028 1.785241740916586 0 0 1
2705 1 28.82707149277564 42.26188466608927 -0.1505331165603211 0 0 1
1992 1 1.878857473903535 46.72328255776722 1.8382826047155576 0 0 1
1993 1 6.603220265542117 45.18038689047754 -0.19929286181714875 0 0 1
1994 1 8.083183666562682 46.53644751348474 1.2982788132283798 0 0 1
1996 1 14.116305492892279 47.00473160884743 1.7753982184373656 0 0 1
1995 1 13.124041303621121 45.145485677982556 0.03406849474517615 0 0 1
2708 1 20.666856891388026 46.35105083009086 1.476420849706726 0 0 1
525 1 3.1439520986156975 44.941478123712905 22.632633779393146 0 0 0
2711 1 26.690011158810222 46.791887516363516 1.6757782052983345 0 0 1
2710 1 25.317556520518508 45.43078409923924 -0.1251313070257543 0 0 1
2712 1 31.80115217164901 45.14455383905441 0.293496874544276 0 0 1
2713 1 33.421123731302075 46.6656168240597 1.9251892657482292 0 0 1
1997 1 3.6813017747486656 47.94803543314417 -0.15854164380575314 0 0 1
1998 1 5.12990137065817 49.72232791326608 1.4088640193532411 0 0 1
2000 1 9.55066361398321 47.90252055691227 -0.012038782659717029 0 0 1
2001 1 11.090148311415467 50.01948734749717 1.0561617316109675 0 0 1
2002 1 15.884599655008287 48.2132996819964 0.12832676718168262 0 0 1
2003 1 17.764986415602657 49.85418565838688 1.4414960887137747 0 0 1
2715 1 22.134473485707762 48.403746533767745 0.3438366359859685 0 0 1
2716 1 23.964535434592793 49.952230912830956 1.4142659186083772 0 0 1
2717 1 28.585760265503872 48.45056474191518 0.4682584943329189 0 0 1
2718 1 30.21748957800902 49.80162680017195 1.8681863842811102 0 0 1
1200 1 20.491149495785443 49.814726461073 24.396212794652765 0 0 0
2005 1 3.3556959199455703 0.5611005676732926 2.7689216948335913 0 1 1
1980 1 5.0900308384384 2.1869461662289207 4.416115213410394 0 1 1
1940 1 9.881750598965155 0.6826320877095267 2.8413710936386285 0 1 1
1925 1 11.03250545589466 2.4042866000272114 4.650553490461518 0 1 1
1912 1 15.969092780042928 0.7519274007864174 2.9248887527953267 0 1 1
1861 1 17.733427095876696 2.2515037060673544 4.800754710755765 0 1 1
2714 1 23.835591774671094 2.2719345289867863 4.913034973030795 0 1 1
2794 1 22.553355652545886 0.5436383017112421 3.2588739803730555 0 1 1
2722 1 28.50825709240129 0.6266604839432495 2.984503575561048 0 1 1
2697 1 30.230345347568623 2.5122711852322515 4.742079822677075 0 1 1
2559 1 34.30730517880581 0.41775089961586864 3.226923625837241 0 1 1
1782 1 2.2514862720294864 5.661179124887293 4.7849809844679045 0 1 1
1635 1 6.668296658859303 3.5791925999597303 3.1329550625416047 0 1 1
1575 1 8.295934223361794 5.439619865915882 4.464532996925857 0 1 1
1520 1 12.951054160569624 4.25586620136655 3.230160272583842 0 1 1
1463 1 14.926512279376048 5.586574894444586 4.980612836961348 0 1 1
1629 1 19.268331617344916 3.8976665446616687 3.3392869947415487 0 1 1
2550 1 20.789783355295828 5.568893538260464 4.833947707880923 0 1 1
2425 1 25.591869752209828 3.6433553018504448 3.4624111414007155 0 1 1
2372 1 27.268220290602038 5.212698589946709 4.847376455140455 0 1 1
2246 1 31.626319764772283 4.449880482391755 3.477961711803104 0 1 1
2276 1 33.611487427587114 5.967708634800082 4.908523747297546 0 1 1
2017 1 3.846976644180087 7.7462622442816125 2.8628306450897942 0 0 1
2021 1 9.83063183775554 7.797045341749511 2.8958063564977468 0 0 1
2022 1 11.584793475233443 9.351773161443594 4.5782483052344265 0 0 1
2025 1 16.433750135661654 7.719867557038363 3.1975889279144156 0 0 1
2026 1 17.621366777984374 9.310907942668058 4.93391608867043 0 0 1
2534 1 22.63600044888938 6.96113896223953 2.9985948959984587 0 0 1
2732 1 23.960839117146374 9.103259827844429 4.644270428132104 0 0 1
2733 1 28.571341878294987 8.04262861444686 2.995564292627648 0 0 1
1662 1 0.7496101070579582 10.781197096200714 3.0266799077561455 0 0 1
2029 1 2.126057269639311 12.314728105502978 4.478811997757666 0 0 1
2019 1 5.12204321655749 9.413705730643557 4.713113037405061 0 0 1
2020 1 6.713742067182448 10.892674769456848 3.384232615125047 0 0 1
2030 1 8.325759806925692 12.072504189619183 4.77656198249415 0 0 1
2023 1 13.011723366637707 11.050459319349471 2.936473666054952 0 0 1
2033 1 14.562843167917855 12.505410870107628 4.578124900793612 0 0 1
2776 1 19.451731638329885 10.705571576860699 3.132393523690614 0 0 1
2738 1 20.857118000860964 12.416077355486246 4.427716440705071 0 0 1
2740 1 25.430354235840216 10.984990140195075 3.589763317118089 0 0 1
2734 1 30.306471316378286 9.638616825206261 4.233716741306646 0 0 1
2736 1 32.32403393001009 10.65472842305763 3.1218089946414644 0 0 1
2742 1 33.32330017419466 12.255609033549309 4.628378075469263 0 0 1
2028 1 3.563342245866641 14.098703509515483 3.3378523965767033 0 0 1
2031 1 10.074846523804348 13.6476669600827 2.850032288299171 0 0 1
2038 1 11.622582951359576 15.357033051529656 4.53681980108948 0 0 1
2035 1 16.179378735377757 14.11650593059419 2.871508430345096 0 0 1
2041 1 17.918663697426055 15.681202722502091 4.710424991678741 0 0 1
2739 1 22.795751389238845 13.939911158777848 3.2512464335739852 0 0 1
2746 1 24.129029808330902 15.657424453384058 4.947317635900247 0 0 1
2741 1 27.35676753110076 12.719727403054948 4.9560756803423995 0 0 1
2748 1 28.633596261742902 14.073072436835032 3.1414803680471834 0 0 1
2749 1 30.31707445000673 15.514535633270066 4.284327809708324 0 0 1
2743 1 34.980144637083754 13.956264631408166 3.2994959789441958 0 0 1
2043 1 1.967403396781392 18.742528907156924 4.9643293743387416 0 0 1
2037 1 5.044101011498503 15.92516720044991 4.702665202184422 0 0 1
2036 1 6.6868309896340525 17.22103727309736 3.120894812007602 0 0 1
2047 1 8.604643515569968 18.63787558742227 4.6346182574624555 0 0 1
2040 1 12.760503326283335 17.34462778100866 3.0211162206465767 0 0 1
2263 1 19.4484622203068 17.384260805536496 3.2360968574095232 0 0 1
2753 1 20.584491289457898 18.85093858228358 4.674019291319445 0 0 1
2745 1 25.418189363499103 17.36301364477315 3.1947403977032334 0 0 1
2755 1 27.197689335048125 18.522706730225575 4.80557160894018 0 0 1
2750 1 31.959427178032637 17.11442145834902 3.1314535423273537 0 0 1
2756 1 33.50509052755597 18.575758767261178 4.672775504322363 0 0 1
2044 1 3.3903731145963265 20.207278847990114 3.000798423206042 0 0 1
2051 1 5.1619228398488115 21.65995125104001 4.72815902373824 0 0 1
2046 1 10.200351490514555 20.252073118228555 2.8495528826999 0 0 1
2048 1 14.568632537778779 18.94141750285108 4.144621731172751 0 0 1
2049 1 16.310014933244894 20.364474311159118 2.7015928199733645 0 0 1
2055 1 17.696767602425705 21.693762142058446 4.676771940303395 0 0 1
2752 1 22.33335933291628 20.102528351292783 2.8327497873322747 0 0 1
2758 1 23.639890098415908 21.478754112368325 4.986466816974557 0 0 1
2754 1 28.63385917084306 20.150839919930917 3.160518158018768 0 0 1
2760 1 30.01395726599089 21.42940476458514 4.977674976070257 0 0 1
2058 1 1.9398583503909652 24.867079571905162 4.4766565220205266 0 0 1
2050 1 6.602777865422514 23.064194596663178 2.9915705046388124 0 0 1
2061 1 8.081977499546747 24.92075333141249 4.704290693569002 0 0 1
2052 1 11.546680015095273 22.174071513656596 4.1634685455860225 0 0 1
2053 1 13.14038666617702 23.82048178491575 2.594107973365891 0 0 1
2062 1 14.813592004821581 25.072110998984996 4.45595995782058 0 0 1
1740 1 19.052577809369165 23.404658226516226 2.9296027165575755 0 0 1
2763 1 20.215383518384233 25.013462936141213 4.844923354416407 0 0 1
2669 1 25.251690435855533 23.288891189082495 3.47205610021472 0 0 1
2766 1 26.959641298271354 24.71814066355664 4.9942154176475375 0 0 1
2761 1 31.670531473680512 23.33818604554565 3.5227217519123766 0 0 1
2767 1 33.567445736516106 24.76576890375206 4.691064513953399 0 0 1
2057 1 3.1745026303990542 26.546050349247373 3.046811221117373 0 0 1
2066 1 4.929499652403117 27.871662183994896 4.838028498692513 0 0 1
2060 1 9.842807543352556 26.284933401717446 3.4487279333227843 0 0 1
2068 1 11.39441046613099 27.93350293395532 4.677327751167823 0 0 1
2063 1 15.694751721225257 26.62439739947754 2.9036396476519926 0 0 1
2070 1 17.344181837083003 27.892151159330975 4.5031680532083564 0 0 1
2762 1 21.994086814361825 26.463622377763883 3.700852457964562 0 0 1
2770 1 23.656470657633363 28.37463770922217 4.8526553998476984 0 0 1
2765 1 28.671292038183232 26.047138548895628 3.4026446727654247 0 0 1
2773 1 30.079505826259865 27.674533274892067 4.766221806099059 0 0 1
2065 1 1.9577312740871384 31.117652154659737 4.397035680799897 0 0 1
1451 1 0.5609359398530501 29.2012792156734 2.992658418389221 0 0 1
2067 1 6.5082257747797305 29.317051920031982 3.0201705342717853 0 0 1
2075 1 7.954450233266041 30.947700264730674 4.7291513567357155 0 0 1
2069 1 12.55872267293437 29.711501308820345 2.9110423865915673 0 0 1
2078 1 14.255866233456572 31.258028823383047 4.280973726191175 0 0 1
2071 1 18.95485432300068 29.71502737585379 3.375339771686199 0 0 1
2769 1 20.631369712485863 31.453662251820887 4.663079391349003 0 0 1
2771 1 25.409888522972572 29.445760926038986 3.3403418119830954 0 0 1
2778 1 27.257917956945654 31.077690711223543 4.818193330415152 0 0 1
2774 1 31.99580659672172 29.167444781307054 3.7013055283559906 0 0 1
2781 1 33.67246259681197 31.122692619505344 4.858212399298949 0 0 1
2073 1 3.5052088344951753 32.901696159599005 3.2084479408389783 0 0 1
2074 1 4.959680877941766 34.406088585900164 4.5115592406108025 0 0 1
2076 1 9.653726226884437 32.70234585393014 2.945352971446495 0 0 1
2084 1 11.05908984190203 34.40676883135698 4.397916722622161 0 0 1
1946 1 12.640558230570603 32.65506617913295 5.5538136474726185 0 0 0
2080 1 16.54287112429361 32.41868479153875 3.060774605168119 0 0 1
2090 1 17.64048869401783 34.46547298897926 4.4555088352194 0 0 1
2775 1 22.051423734380005 32.752949196382225 2.9065417479910796 0 0 1
2777 1 23.85820159756815 34.45317436780708 4.407679558806605 0 0 1
2779 1 28.599778637484295 32.37900064373997 3.2111729492985055 0 0 1
2780 1 30.11422692028982 34.120092642392514 4.624399156820413 0 0 1
2082 1 1.7488133663643013 37.50278763574525 4.608466351204439 0 0 1
2083 1 6.434499814122226 36.11478836428419 2.8705569955522163 0 0 1
2085 1 8.143988472826795 37.433798646550635 4.604097598698919 0 0 1
2087 1 12.933389074317352 35.74677132493348 2.971339373416633 0 0 1
2088 1 14.355852423096444 37.352750743032864 4.666275841405474 0 0 1
2526 1 19.394348875474023 35.65605190613328 3.039236989600399 0 0 1
2782 1 20.745049947849317 37.590946353513075 4.261410684128972 0 0 1
2784 1 25.56523123105605 35.851529831091206 3.08081933314658 0 0 1
2785 1 26.86078402509631 37.520386954266854 4.635241823011554 0 0 1
2787 1 31.535691951174925 35.67112681093289 2.8830352606370018 0 0 1
2786 1 33.110476304805836 36.971639665641085 4.579203859430792 0 0 1
2091 1 3.1650914809174946 38.81422050978399 2.679944370116826 0 0 1
2093 1 4.988479814392153 40.188654000280685 4.430386174791967 0 0 1
2094 1 9.795252168832048 39.17579995847686 3.415094236302736 0 0 1
2095 1 11.76655876236304 40.69974082202317 4.910436242706941 0 0 1
2099 1 15.924721807152228 38.9614166381634 3.0553978225202747 0 0 1
2098 1 17.77549099216506 40.22643355755926 4.772775205350394 0 0 1
2788 1 22.24611823760337 39.10986029587671 2.827309113942459 0 0 1
2789 1 23.563828523153852 40.530520073419034 4.611654409616238 0 0 1
2791 1 28.648156319880485 38.80498230884861 2.8916625920462695 0 0 1
2792 1 30.076652631375854 40.46225556770128 4.457845884575261 0 0 1
2793 1 34.928933295490474 38.434825056330304 3.116852823106515 0 0 1
2101 1 1.7994222962757571 43.5854115058854 4.682254569642069 0 0 1
2112 1 3.681305416192877 41.822363217174676 5.7587778666737 0 0 0
2102 1 6.651024519640208 41.94705049044872 3.233001318625124 0 0 1
2104 1 8.24978969086883 43.668680495958284 4.599416934854237 0 0 1
2105 1 13.34612968686239 42.209183203383404 3.0557416214973045 0 0 1
2106 1 14.717825560831544 43.55858200091544 4.724681539841595 0 0 1
1886 1 19.11038595992413 42.02397622497209 3.276110018718498 0 0 1
2795 1 20.733920314591117 43.71407616834699 4.791295070978703 0 0 1
2797 1 25.459979632188432 42.061560206631135 2.914764963885169 0 0 1
2798 1 26.606466596562946 43.98069207177328 4.606949151733265 0 0 1
2800 1 31.893234887406166 41.71072661927469 2.974419276288894 0 0 1
2799 1 33.14992000892192 43.64529998397453 4.616077055155466 0 0 1
2108 1 3.5033893351444036 44.89086138289982 3.0892423834856126 0 0 1
1204 1 33.63038174073981 49.589826478746815 24.29784179162409 0 0 0
2100 1 5.121702033770512 46.60187917805605 4.59885424543777 0 0 1
2107 1 10.08571462451981 45.393433113895355 3.09398209896824 0 0 1
2097 1 11.504050835680784 47.153971777522415 4.910941835794721 0 0 1
2056 1 16.13573937897217 45.36913564956275 3.072019650416758 0 0 1
2079 1 17.717960561818582 46.94848152119424 4.451201214616347 0 0 1
2709 1 22.22552798829842 45.433258687151394 3.125824367778284 0 0 1
2802 1 23.649565116800513 47.14248698871285 4.81635750395995 0 0 1
2737 1 28.317017482978994 45.12227458290353 2.9579063946637287 0 0 1
2757 1 29.89509146630819 46.33467374207401 4.706031885401729 0 0 1
2735 1 34.89589885067753 44.850720803090596 3.255929837269037 0 0 1
2039 1 2.0329952778801013 50.02105201710913 4.7164671363749315 0 0 1
1999 1 6.485243043223461 48.081777264581895 3.0175654706694046 0 0 1
2072 1 8.216903785816132 50.1159516893923 4.362758704369235 0 0 1
2054 1 12.532796487782331 48.72359125183921 2.998095800362604 0 0 1
2034 1 14.255489034839881 50.14102556674976 4.364332930620034 0 0 1
2418 1 19.488156975753814 48.414134151615826 3.0848239773061428 0 0 1
2650 1 20.78713995056403 49.82661709466993 4.903972577107325 0 0 1
2783 1 25.211895064518302 48.46987071485372 3.1031101787928916 0 0 1
2768 1 27.187493970103812 49.862999946917874 4.834538946611773 0 0 1
2764 1 31.62474590817181 48.15692878093049 3.375862580171523 0 0 1
2751 1 33.11734393638049 49.67220596965513 5.03376732474525 0 0 1
107 1 2.3555205723131936 2.203408209716541 8.474584132412135 0 1 0
86 1 0.6570834554069755 0.9019243364912051 6.92990085656536 0 1 0
2059 1 6.838641453417295 0.8470744721120829 6.132714719203292 0 1 0
109 1 7.871285936451408 2.604312058378647 8.386061920851185 0 1 0
2118 1 12.46847492712451 0.859810966678098 6.025957084242441 0 1 0
111 1 14.68905626004503 2.043671049191688 8.286708171635684 0 1 0
830 1 20.68365067315971 2.3447988817236465 8.345558737731388 0 1 0
58 1 19.033515494062534 0.48794549198418113 7.1392056044276435 0 1 0
760 1 25.737865882322634 0.7816213722782444 7.205016560444741 0 1 0
833 1 27.14276442695734 2.4623596750558643 8.798477382811816 0 1 0
1237 1 31.721179371085082 0.8934195169483654 7.115223270585573 0 1 0
835 1 33.353281763950775 2.348982427866881 8.698705233866505 0 1 0
2042 1 3.6415177262696874 3.884961493332966 5.951525316104294 0 1 0
115 1 5.085263169735646 5.5871218952451605 8.093394675025735 0 1 0
2131 1 9.976747852848286 4.148873212334154 6.144370355784617 0 1 0
116 1 11.672650384779802 5.165945753174755 8.700246196060874 0 1 0
151 1 16.445714010596276 3.9403177909866347 7.121027895776111 0 1 0
118 1 17.815490503765584 5.4768486563953225 8.54177994177752 0 1 0
2812 1 22.271341394687607 3.9660462873785303 6.1694820490802025 0 1 0
836 1 23.984087115692855 5.456786369451789 8.631806824728939 0 1 0
780 1 28.65134198799656 3.870194441324469 7.186691375203769 0 1 0
837 1 30.026366831041205 5.77195796740142 8.609120957337574 0 1 0
113 1 0.6180749481507232 8.026384570776887 6.8927427948740245 0 0 0
1 1 2.1366219389607317 9.37858123656693 8.78290565525654 0 0 0
158 1 6.812116320879771 7.824573526083368 6.866411183770199 0 0 0
5 1 8.330564992847904 9.186451593799708 8.462155496249094 0 0 0
732 1 13.052102096491527 6.795719532493818 7.168176362781577 0 0 0
646 1 19.260288605038376 7.910079461533961 7.3387787368148185 0 0 0
747 1 21.141659697288432 9.367510782099885 8.440186409821418 0 0 0
2809 1 25.648671283636777 6.883967348671039 6.0589726235049435 0 0 0
751 1 26.582510265379497 9.33177515756526 8.260421263982044 0 0 0
1373 1 31.540754918839877 7.834913838829618 6.88319122393239 0 0 0
753 1 33.779860681015954 8.883069625739196 8.228100921747867 0 0 0
2121 1 3.5577260011394207 10.933875933947627 6.082566491569273 0 0 0
6746 1 0.4885964523760447 16.68202498076435 4.1697601549261245 1 -1 2
2124 1 9.964532039416598 10.708324957002082 5.951891885280156 0 0 0
17 1 11.185591732570103 12.360663649275137 8.581802511940277 0 0 0
8 1 14.606807710743047 9.530294057427575 8.612271464751698 0 0 0
740 1 16.163717233738296 11.3709311635104 6.969863891410183 0 0 0
2438 1 22.554955027783144 10.918240557009787 6.032015871876973 0 0 0
2674 1 28.6391315755404 10.702510949686479 5.925695427485091 0 0 0
758 1 30.087383678122638 12.231134307956264 8.141184083171867 0 0 0
22 1 1.8151076637061718 15.406701170644318 8.630979090052975 0 0 0
14 1 5.01106390826815 12.705036392912557 8.385090860978005 0 0 0
1757 1 6.863694937769248 13.803168876481049 6.07875667649514 0 0 0
25 1 8.36910266622634 15.507387339318171 8.37194550035361 0 0 0
649 1 13.346210533948113 14.332401503617238 6.855445841991667 0 0 0
20 1 17.761877393126493 12.630026856785 8.594893994927569 0 0 0
798 1 19.412415889411477 14.397182194164326 6.996338769259644 0 0 0
762 1 20.970177442307875 15.742651956632663 8.764021820003974 0 0 0
756 1 24.257654159534276 12.662277263803636 8.29364755324092 0 0 0
1130 1 25.866613630738158 14.301116320826733 7.167564768900428 0 0 0
764 1 27.57642722070408 15.407430823879526 8.86905440487973 0 0 0
2662 1 31.70993666081165 13.767795589793618 6.167950874752726 0 0 0
765 1 33.54043568539833 15.296780237479961 8.152545259021641 0 0 0
96 1 3.5862296232872297 17.183588095941925 6.917781814599819 0 0 0
31 1 5.333162898263498 18.55015725868694 8.503011739832587 0 0 0
2120 1 10.2868541228239 16.912733129263884 6.155340675280158 0 0 0
33 1 11.507816434550199 18.56827006312963 8.34015172842338 0 0 0
26 1 14.876387129080403 15.8409421136332 8.3555599996072 0 0 0
1444 1 16.18640421624678 17.487104515145173 5.793292841551551 0 0 0
36 1 17.857442227826763 18.798014919514586 8.557720384647421 0 0 0
2816 1 22.34988616272105 17.277267737922326 6.14665971832133 0 0 0
770 1 23.80507601887744 18.553590655312885 8.489524557294878 0 0 0
934 1 28.826990540631623 17.09665259762128 6.97037286395269 0 0 0
772 1 30.382359850919936 18.454367830301106 8.503368203801728 0 0 0
2813 1 34.95177485029973 16.952954016585824 6.010311809647291 0 0 0
38 1 1.8887870749916453 21.96170412285768 8.730106486347895 0 0 0
530 1 17.899268504655947 46.599894808945926 23.794522074095145 0 0 0
2045 1 6.879944627147903 19.92201688739839 6.082971708946897 0 0 0
41 1 8.304416011723461 21.852687072755394 8.387336537242604 0 0 0
1420 1 12.650688582638216 20.52911565359043 5.9257435393150555 0 0 0
43 1 14.538455720674655 22.059245387312615 8.542638740179244 0 0 0
737 1 19.208816554856448 20.22456343147969 6.908962285514629 0 0 0
775 1 20.643021757519985 21.838455677872904 8.584974618036748 0 0 0
1177 1 25.650747244249786 20.319890383104116 7.340683586718399 0 0 0
1353 1 32.017170731314266 19.94369962032038 6.983751691739364 0 0 0
778 1 33.27183058706885 21.410992130833723 8.376815591732852 0 0 0
6 1 3.4276187911592055 23.01303019006899 7.016717582650898 0 0 0