LAMMPS data file via write_data, version 29 Oct 2020, timestep = 0

9216 atoms
1 atom types

0.4762641515950641 104.04743073504727 xlo xhi
-0.24913146472292175 50.48377408746791 ylo yhi
-0.24913146472292175 50.48377408746791 zlo zhi

Masses

1 18.015

Atoms # atomic

5 1 2.1061823423674717 2.158605327363121 2.3523404572858437 0 0 0
481 1 0.5501565828343324 25.35363661760384 12.996718048451497 0 0 0
3 1 3.4851682326388724 0.517310116564687 3.972996330853116 0 0 0
10 1 6.788372278232191 3.705924855706953 3.276242936116102 0 0 0
13 1 8.300631075727406 1.9664599989477654 2.0315641119261856 0 0 0
52 1 3.397284592791698 15.79416741040165 0.5860081913855912 0 0 0
11 1 9.918501103475787 50.38014264138795 3.526295984706069 0 -1 0
21 1 14.577386192120462 2.310330534204567 2.181692336041687 0 0 0
18 1 13.02475863520145 3.8302603792575796 3.421133442768983 0 0 0
1657 1 19.213610899100857 31.567189882889792 0.43800886995234123 0 0 0
19 1 16.16259870804548 0.4905961951834929 3.804866982488136 0 0 0
674 1 0.5285742566017136 28.631435246702846 22.117005234267687 0 0 0
100 1 3.206942545509689 28.54930002282884 0.5418835052528266 0 0 0
8 1 4.980858983884349 5.485332058709435 1.9544931850245117 0 0 0
554 1 0.6629555215267544 47.423982183747924 15.730889586841927 0 0 0
35 1 9.765271358066665 7.148354657142041 3.807474463527426 0 0 0
16 1 11.155890902581652 5.140931200149776 2.15122089571526 0 0 0
217 1 0.7804121535053539 6.681099575179392 6.959111593562095 0 0 0
43 1 16.13005424741304 6.935226511165029 3.5389623481882166 0 0 0
24 1 17.732713457430194 5.410316398731017 2.1643134475038646 0 0 0
27 1 3.5103227007688544 6.679317768082092 3.7264084670228432 0 0 0
29 1 1.7846418183780803 8.18721740295453 2.2004014886515355 0 0 0
953 1 13.031879648263029 44.447498170060996 25.098712069751 0 0 0
34 1 6.6944221964002 9.771296228248858 3.400707164302396 0 0 0
37 1 8.339171895359142 8.287911791743547 1.941346751200047 0 0 0
45 1 14.84698761918122 8.621493797791981 1.9249599127256114 0 0 0
42 1 13.295858619863706 9.886701031762621 3.477999515581431 0 0 0
746 1 0.6397954645404907 46.9966297595992 22.25725259950825 0 0 0
796 1 3.5898723321657418 9.766793063214061 25.05359838254235 0 0 0
51 1 3.65699971364521 12.89430218376694 3.611917411792176 0 0 0
32 1 5.302984270351496 11.330930125778108 2.0724236910532476 0 0 0
59 1 9.981706507762363 13.076827720978853 3.336935314475984 0 0 0
40 1 11.478141911296676 11.349044408967698 1.9095503835960823 0 0 0
409 1 0.6243233464927784 7.032800699343466 13.019958371761412 0 0 0
410 1 0.628395821016352 9.527478536532431 16.18722838163008 0 0 0
48 1 17.82828609413493 11.578808021943484 2.127136802334399 0 0 0
67 1 15.730047248890513 13.157010799852454 3.4967309578468537 0 0 0
53 1 1.8583272449216175 14.742755511918709 2.2995369778023713 0 0 0
626 1 0.5707697986209155 16.02942625106735 22.59704833145127 0 0 0
58 1 6.474114410392586 15.58527758959217 3.465722553845295 0 0 0
61 1 8.27447995977516 14.633729561559253 1.9567390446279485 0 0 0
386 1 0.9507185846412629 3.6288231607100396 16.095688339182928 0 0 0
69 1 14.509028621729819 14.840304739737052 2.1120539265860616 0 0 0
66 1 13.119090246085149 16.181742769319467 3.743687494906041 0 0 0
140 1 16.12678069210618 34.883213079598605 0.7278584383201833 0 0 0
75 1 3.3604765655526196 18.75459113560948 3.3173431098955968 0 0 0
56 1 5.45130696186298 17.621800630555867 1.930534245533394 0 0 0
64 1 11.452302228137754 17.472356312346825 1.7388903303142076 0 0 0
83 1 9.78129012953365 18.81236188705183 3.3202485323621436 0 0 0
290 1 0.6739682995930188 28.473541706586154 9.925637284357201 0 0 0
72 1 17.337617091510687 17.720130983726477 2.1050429342869923 0 0 0
91 1 15.95568794122252 19.640773294876038 3.6918655896294075 0 0 0
129 1 6.274797874796113 31.774351821087443 0.5621424180703993 0 0 0
77 1 1.8471208576865379 20.337669152283166 1.9337543961820656 0 0 0
553 1 0.4832699592049039 43.992217213673825 12.665065597619686 0 0 0
82 1 6.60278527455084 22.264038538543367 3.6718914573376473 0 0 0
85 1 8.34523258370773 20.54735211832451 1.885200986144822 0 0 0
1705 1 19.00445537612445 44.00014929491043 0.7085062132020661 0 0 0
93 1 14.40326219559243 20.83523254302368 1.6778328764220714 0 0 0
90 1 12.76761701627291 22.333958473023877 3.39115703242483 0 0 0
96 1 17.56700505110998 23.94651909877382 1.9111245458393604 0 0 0
81 1 6.7606738911445285 19.228971930108944 0.5441924710588921 0 0 0
99 1 3.071844276340372 25.139845560937296 3.2393115402125856 0 0 0
101 1 1.61594845150577 26.473910415316013 1.6149601153411672 0 0 0
80 1 4.975650613598805 23.942618844249928 2.0139473155243683 0 0 0
337 1 0.7106505976439109 38.31466786593363 6.821462304528045 0 0 0
88 1 11.278077675936217 24.084486674336574 1.7262695906314833 0 0 0
107 1 9.763328408856152 25.56920833985695 3.6401265229331243 0 0 0
117 1 14.403558054656102 26.6574870994276 1.8076141624291093 0 0 0
115 1 16.100634642058267 25.425770290811087 3.5571519946766808 0 0 0
595 1 16.027713394420154 50.42615770599754 22.466160004172572 0 -1 0
106 1 6.37263332881477 28.422424862419998 3.829519698047578 0 0 0
104 1 4.874484175063623 30.057013905982462 2.188813383306118 0 0 0
109 1 7.893790649868757 27.202434911077653 2.0589529856464113 0 0 0
112 1 11.116165029156422 30.26750860478115 2.1683011862255186 0 0 0
114 1 12.689588393904188 28.39880001460937 3.4202118026559956 0 0 0
120 1 17.29471532692377 30.022300628548013 1.6439577759080573 0 0 0
602 1 0.8501084922943261 9.571818228862266 22.512071297316353 0 0 0
125 1 2.185605227159335 33.315474715804854 1.8978204104672394 0 0 0
123 1 3.2198276743177865 31.362532863059823 3.7128613699249677 0 0 0
133 1 8.073410236319237 33.365417051367544 1.6362514456919157 0 0 0
131 1 9.39763167355545 31.865100077271993 3.463201019415361 0 0 0
141 1 14.537227691583634 33.09113924954541 2.123023335552387 0 0 0
139 1 15.784650387933878 31.27484704867145 3.5525219318055523 0 0 0
218 1 0.6754443648564558 9.628334441820508 10.029526658308715 0 0 0
169 1 0.6265230678677227 44.41416193704852 0.4991843774988821 0 0 0
128 1 4.987497722841747 36.258335406456396 1.3962524967943608 0 0 0
130 1 6.287582254325037 34.72778994301407 3.0370032545750036 0 0 0
136 1 11.503090682369912 35.995462623558225 1.8201870557507085 0 0 0
138 1 13.214550821877266 34.48153342614397 3.7157175861688954 0 0 0
144 1 17.50638032339316 36.55642591660599 2.2939145855603496 0 0 0
149 1 2.221783802716651 39.221886674592795 1.756246573296617 0 0 0
147 1 3.77985997383509 37.844431123535585 3.310313984163116 0 0 0
157 1 8.331970001190278 39.673041600301104 2.4456339632935187 0 0 0
155 1 9.980759507924713 37.48899061116907 3.6450021940463575 0 0 0
28 1 3.5559083740608473 9.964249395011468 0.48706434612291716 0 0 0
165 1 14.539920572758673 39.57616781147715 1.8724326689220046 0 0 0
163 1 15.916528573256494 38.002363682875156 3.711221297685514 0 0 0
266 1 0.5271839255963054 21.880097900705074 9.970873591759158 0 0 0
152 1 5.054077257290306 42.67557521441387 1.857826783441524 0 0 0
154 1 6.610776482671402 41.21533129338357 3.8140259245320998 0 0 0
160 1 11.36057581304474 42.64102517023643 1.6123793891865594 0 0 0
162 1 13.03525372268767 41.24636694499773 3.0080856517160512 0 0 0
168 1 17.57603799108572 42.1820872332535 2.1264712010094273 0 0 0
137 1 12.766394339211121 31.49885371959034 0.7636901581060596 0 0 0
171 1 3.761680205250183 44.001169057510396 4.2092668273164655 0 0 0
173 1 2.3250988468152727 45.71575206466994 2.0439937627758087 0 0 0
76 1 3.301747240947523 22.206969321114695 0.8004350624009954 0 0 0
181 1 7.841314523347527 46.11668864350655 1.9554643241758891 0 0 0
179 1 9.611390660965286 44.26542394478193 3.36929789541883 0 0 0
189 1 14.65964145627313 45.55600186305152 1.8561024636245342 0 0 0
187 1 16.046606995579403 43.960119976989304 3.4309690004716145 0 0 0
1 1 0.5875113759194117 0.8062982669339487 0.46202328218776184 0 0 0
178 1 6.1870421729700364 47.63305027139208 3.6219322054785925 0 0 0
176 1 5.055064303051035 49.099741999840106 1.6627731847154137 0 0 0
184 1 11.64298931872865 48.67853147254699 2.269674249692218 0 0 0
186 1 12.931309430572265 46.90118603851114 3.6523257217278493 0 0 0
192 1 17.786330945094214 48.989459758179166 2.111195058071293 0 0 0
108 1 9.849451333698747 28.659821655846255 0.47238448821332 0 0 0
196 1 3.5973546589965792 3.420322900471696 6.595335728194869 0 0 0
7 1 5.332310846059676 1.9149512226100034 5.145409906012723 0 0 0
204 1 9.784013492842563 3.536158230604635 6.2768061941744655 0 0 0
15 1 11.267636096690726 2.178218949995369 4.883728401635067 0 0 0
209 1 12.62884840801043 0.7801359497287959 6.79271985404027 0 0 0
23 1 17.675552896350347 2.3807970459095382 4.985707108435653 0 0 0
212 1 16.17523932861963 4.0266668752470824 6.501104996998834 0 0 0
6 1 1.8917570158223649 5.117864409480844 5.166854620486046 0 0 0
225 1 6.408081317285204 7.309679234843657 6.997452681276513 0 0 0
14 1 8.192218879164578 5.617552458061915 4.937170363515966 0 0 0
22 1 14.375372629327682 5.241372047916557 5.046384982965076 0 0 0
233 1 12.867418354049775 6.662917425636481 6.881953057856472 0 0 0
220 1 3.9210763894208593 9.846216801673222 6.693401590378248 0 0 0
31 1 5.059117520489149 8.483373668105735 4.906590632254756 0 0 0
228 1 10.164938871972542 9.931067326821308 6.844640584788829 0 0 0
39 1 11.835389822511729 8.489729721902782 5.221061006182716 0 0 0
47 1 17.40787314180769 8.5490684618379 4.776875895820075 0 0 0
236 1 16.007358205099887 10.035095442447608 6.874687792342682 0 0 0
30 1 2.167357360412364 11.34672731769707 4.919403525062579 0 0 0
762 1 13.284254856946934 47.39443576300319 22.14873279123471 0 0 0
249 1 6.983991496289052 12.983437981748247 6.88361497729651 0 0 0
38 1 8.400751040484671 11.66935283966195 5.259271078417905 0 0 0
46 1 14.232080035660509 11.638613103912668 5.428811047480183 0 0 0
257 1 12.787170195792429 13.35486308771326 6.8172568909607225 0 0 0
385 1 0.8218976752082241 50.20630257506731 13.13904163668201 0 -1 0
244 1 3.425169665056715 15.92602950082066 6.4776200256420635 0 0 0
55 1 5.233517021103916 14.171181450297016 5.23587240767691 0 0 0
252 1 9.777215072212039 16.264264203514983 6.571852572375713 0 0 0
63 1 11.408662077076022 14.59840841382646 5.277603661735163 0 0 0
71 1 17.463119436953072 14.623885375591271 5.1495298357128085 0 0 0
260 1 16.274038812239162 16.350229008960852 6.930198302636893 0 0 0
188 1 16.416442622054408 47.45280344890941 0.690327020505104 0 0 0
54 1 1.6340622834020133 17.161333466936583 4.952688067002288 0 0 0
273 1 6.423342742767335 18.841457202525024 6.293708152972552 0 0 0
62 1 8.09312172617529 17.076195030105936 4.7230810116388255 0 0 0
87 1 11.445561121782744 20.524664553064657 5.0213185237936635 0 0 0
70 1 14.705638552792681 17.79462020148366 5.344782457158213 0 0 0
281 1 12.915846641953555 19.316866798028194 6.86204455872165 0 0 0
9 1 6.782058436148581 0.6044707461933918 0.4356895213459211 0 0 0
268 1 3.600029698865049 21.798120206519904 6.742652121916105 0 0 0
79 1 4.801963490972786 20.40090567830849 4.881003941080469 0 0 0
276 1 9.682814526403572 22.19836943708898 6.549226684496692 0 0 0
86 1 8.311873855913833 23.879400891150684 5.011301170378937 0 0 0
94 1 14.344712155521918 23.80685056481458 4.828176017273775 0 0 0
95 1 17.76089272989166 20.957527542354615 5.025824589206505 0 0 0
284 1 16.06348787480676 22.446118245245238 6.67975579343186 0 0 0
78 1 2.115972357895136 23.46170615394331 4.952924916394684 0 0 0
766 1 14.58926660569553 48.71142381868867 23.760661326355795 0 0 0
297 1 6.647529885111075 25.453025401734557 6.449438228772617 0 0 0
103 1 4.478285762309441 26.85062513897091 4.931880185974497 0 0 0
111 1 11.39105238765916 27.108229804191346 5.534918424131814 0 0 0
305 1 13.099406020911426 25.603765755157973 6.674540292139305 0 0 0
119 1 17.745452629946506 26.910585377067555 5.177221155368063 0 0 0
156 1 9.571134431986943 41.004882095474855 0.49866605828947286 0 0 0
292 1 2.989451320918109 28.455282088385935 6.559960870409049 0 0 0
102 1 1.6627267411310394 30.06819174453456 5.252275508668855 0 0 0
300 1 9.540897130453196 28.737507852810744 6.941103720528223 0 0 0
110 1 8.098617337051376 30.105215308765537 5.161158409851788 0 0 0
118 1 14.226302053867219 29.79414786140314 4.888338853712718 0 0 0
308 1 15.804959090508712 28.68901003359043 6.600441154712684 0 0 0
1826 1 19.16791005180606 28.68868955038023 9.779859910872103 0 0 0
321 1 6.358215714216991 31.400306889016676 6.595935242658061 0 0 0
127 1 5.010721534689675 32.967503123754 5.138990984537264 0 0 0
135 1 10.905001056022126 32.92374788410463 5.290423725591425 0 0 0
329 1 12.79920661118091 31.52523987356109 6.540830364511235 0 0 0
143 1 17.535748409469548 32.74231582743715 4.831910619766444 0 0 0
126 1 2.2451631172197555 36.79051436746198 5.167545286891873 0 0 0
316 1 3.478437955998768 34.48200502382694 6.475642301916721 0 0 0
134 1 7.616600232858886 36.56152687141251 5.02454254702167 0 0 0
324 1 9.002088113709021 34.74534669683034 6.533940098066594 0 0 0
142 1 14.539189144086434 36.34448243517272 5.448107795979754 0 0 0
332 1 16.374303321879154 34.65781964784452 6.306774019704961 0 0 0
49 1 0.4852544970612739 13.32029306923411 0.5869565864807869 0 0 0
151 1 5.102305086857408 39.425619517718815 5.263918380517742 0 0 0
345 1 6.1812346664005835 37.861363507772694 7.005033785506867 0 0 0
159 1 11.414683224811855 39.62170683230765 4.806506844124694 0 0 0
353 1 12.543593312666314 37.93685128361845 6.360238893206199 0 0 0
167 1 17.57083544423576 39.44580861785424 5.3950952033918345 0 0 0
150 1 1.8253718798879783 42.54045485306085 5.159860915582015 0 0 0
340 1 3.591764888795994 41.15377350958511 6.748514627135582 0 0 0
158 1 8.100249049767253 42.90996832533253 5.269486845275044 0 0 0
348 1 9.166084826166742 40.73503394843499 6.454099782423759 0 0 0
166 1 14.173087658940327 42.57846828130809 5.245432291395689 0 0 0
356 1 16.133790322549753 41.36044148894153 6.709083665429481 0 0 0
241 1 0.8944483817955806 12.537130397836107 6.707555117694831 0 0 0
369 1 6.78600364733693 44.600347635258444 6.818218637248573 0 0 0
175 1 5.043084436825361 46.036207555699505 5.420531079935631 0 0 0
183 1 11.109275499957489 45.634494445499925 5.187006393779177 0 0 0
372 1 9.928719693212749 47.35091620350205 6.7071045553753414 0 0 0
377 1 13.055799265657084 43.91716107378136 6.994883283875661 0 0 0
191 1 17.54405865123891 45.58678117601295 4.890809665967077 0 0 0
364 1 3.0719418098039086 47.183223185010334 6.918148685928411 0 0 0
174 1 1.7981852485599312 49.070160998802876 5.086218020350252 0 0 0
201 1 6.826437392141911 50.320633792091996 6.828493565338541 0 -1 0
182 1 8.068851766228537 48.80286452492827 4.996732752921984 0 0 0
190 1 14.689010986189482 48.972475910497465 4.9563592126063805 0 0 0
380 1 16.263635143556467 47.44691770027825 6.451176862490815 0 0 0
434 1 0.5760153656277055 16.130877204320413 16.479597874451695 0 0 0
26 1 0.49314048592298465 9.752035179195776 3.6662066637724484 0 0 0
197 1 1.7872443338838038 1.9893593437894055 8.078927762696392 0 0 0
195 1 3.5034425323687945 0.7136917412039847 9.815118541633273 0 0 0
202 1 7.000647161979557 3.7928067492144315 9.400046011268714 0 0 0
205 1 8.292128324082043 2.1208790839073206 8.13507543849132 0 0 0
213 1 14.575304812144646 2.531609590384044 8.202033237097774 0 0 0
210 1 12.620862959379265 3.756329140105751 9.602794507581027 0 0 0
211 1 15.91764363470328 0.6801653936492877 9.835760923662146 0 0 0
219 1 3.5929111996440763 6.7488253655388935 9.843245768801918 0 0 0
200 1 5.15389037776648 5.1145289239008385 8.086079425694379 0 0 0
208 1 11.01911943374536 5.150585336708039 8.043423717006949 0 0 0
227 1 9.756335941975564 6.691633978264666 9.685413668750373 0 0 0
214 1 14.452781848012044 5.186178608253344 11.50206017638243 0 0 0
235 1 16.290919395641236 6.993369097307584 9.913628030894483 0 0 0
216 1 17.686544278522252 5.308484177680681 8.362473542318266 0 0 0
221 1 2.3920862552918516 8.336906998734962 8.328396316502303 0 0 0
226 1 6.921458900189698 9.832663535097112 10.541206567424442 0 0 0
229 1 8.566563219444243 8.685337355718294 8.35488402829655 0 0 0
237 1 14.410319766627241 8.163823555488303 8.295856197605945 0 0 0
234 1 13.084564532596938 9.578679804922654 9.796913844285898 0 0 0
243 1 4.180636430184421 13.036040082846881 10.063524695492498 0 0 0
224 1 5.759929377230725 11.27855125773859 8.483806021185442 0 0 0
251 1 9.892969068443561 13.052672452296079 10.274861922641115 0 0 0
232 1 11.837483901366364 11.60492306143042 8.92458446481039 0 0 0
240 1 17.780098526929468 11.208392320323814 8.276631873575091 0 0 0
259 1 16.202340220274138 12.727748314262586 10.10512543034789 0 0 0
245 1 2.3399201170680604 14.393302664299942 8.332930153533503 0 0 0
758 1 8.5007582541888 48.65008834828136 23.489937111514852 0 0 0
250 1 6.842408472716402 16.217640204241278 9.927570650685594 0 0 0
253 1 8.39360879095765 14.627669018506843 8.528145344135694 0 0 0
261 1 14.667534164667998 14.58495911322473 8.58237897268339 0 0 0
258 1 13.114529917060922 16.137771243971645 9.94363153513138 0 0 0
754 1 7.117715497171897 46.65022453515631 22.027154898606643 0 0 0
267 1 3.6390439252244415 18.603336907838155 10.054026852335362 0 0 0
248 1 4.9250498500292075 17.417742832270424 8.230126819617762 0 0 0
275 1 9.962487501668049 19.210392497522154 9.771779523219223 0 0 0
256 1 11.515584989581006 17.51122287737278 8.21731055105515 0 0 0
264 1 17.900426095835183 17.84830308399369 8.202425261269847 0 0 0
283 1 16.230380383073424 19.530979071658887 9.875022110427624 0 0 0
161 1 12.993222154913287 38.01792420363995 0.4630431418694343 0 0 0
269 1 1.9859576260543275 20.190020663322784 8.337303337975385 0 0 0
274 1 6.940519059255435 22.183387967458433 9.612790016780709 0 0 0
277 1 8.09570078199869 20.293335562747668 7.868896465531574 0 0 0
285 1 14.442543389254448 20.975912760330353 8.289661896411685 0 0 0
282 1 12.667189859175304 22.426595904649258 9.830279146744754 0 0 0
288 1 17.457534738620268 23.961357777874863 8.18626907832519 0 0 0
291 1 3.5857565763997488 25.235824501354045 10.088352885084754 0 0 0
293 1 1.878449705279022 26.642585279848525 8.512399949189932 0 0 0
272 1 5.2224605648360924 23.585461688082507 8.293736841030382 0 0 0
280 1 11.26462817570254 23.750249785588473 7.998846133581052 0 0 0
299 1 9.788080581175345 25.10906426862391 9.77098945377708 0 0 0
309 1 14.670855409121806 26.95279065460169 8.079564509506113 0 0 0
286 1 14.150054194303706 24.052072172394496 11.306447088376409 0 0 0
307 1 15.924644600613398 25.224815937570494 9.832790296337487 0 0 0
298 1 6.852860161677343 28.041551731689186 9.592749634868946 0 0 0
296 1 4.843324518998698 29.855544791648988 8.069814237018438 0 0 0
301 1 8.342194674603032 26.549285410202387 8.07928217673337 0 0 0
303 1 11.042197945062627 26.799778478737533 11.43095644319953 0 0 0
306 1 12.735373030836936 28.297227339935397 9.723558703410582 0 0 0
312 1 17.430166034922127 30.25530774438838 7.987524467539701 0 0 0
750 1 2.3452284526562623 48.673431323163456 23.57806964646531 0 0 0
315 1 3.535308895854728 31.747264527629774 9.520172635157197 0 0 0
317 1 1.6624458020068635 33.15399568245583 8.466866040546241 0 0 0
325 1 7.792935877708337 33.120392752757155 8.326560637716543 0 0 0
323 1 9.658668690651632 31.875892164863327 9.571809704259879 0 0 0
304 1 11.417585100818807 30.410261580059338 8.243495717272499 0 0 0
333 1 14.745426725732521 33.30835214534777 8.049061413170715 0 0 0
310 1 14.230334161817785 30.108267458562583 10.995416973687945 0 0 0
331 1 15.990632529720022 31.757316382710545 9.874908614879656 0 0 0
673 1 0.9008395508001406 25.578503831408515 18.92615672701028 0 0 0
318 1 1.8535433818327458 36.137752239321244 11.600843134053749 0 0 0
320 1 4.82265511080726 36.0529847375316 8.094114958792666 0 0 0
322 1 6.431017377433267 34.39603966644401 10.002139038587012 0 0 0
328 1 11.045468190202435 36.13838673463589 8.042332440267105 0 0 0
330 1 13.199120598002537 35.12422384979571 9.27493939416431 0 0 0
336 1 17.722091947247442 36.398149231288116 8.12028002069854 0 0 0
341 1 2.140804677002401 39.96768139274931 8.526075224043847 0 0 0
339 1 3.6002634081406364 37.915927967914044 9.622782554899223 0 0 0
349 1 7.936316201402466 39.47053827760166 8.66105898650791 0 0 0
347 1 9.645406692630178 37.7094543706563 9.849595349276242 0 0 0
357 1 14.39332945118725 39.30144972185424 7.836275900174816 0 0 0
355 1 16.387782871773705 38.08042929363771 9.690335317635384 0 0 0
433 1 0.8723341340901263 13.213659460103328 13.174915877341627 0 0 0
346 1 6.209502489085598 40.93138888774797 10.078366155858316 0 0 0
344 1 5.046640164314724 42.58171110315553 8.463518054786407 0 0 0
352 1 11.091498330919013 42.05223742222705 8.070302636050126 0 0 0
354 1 13.024757412251585 40.98384451348687 9.3080028142041 0 0 0
360 1 18.025867793706087 42.68036039659063 8.445158639995167 0 0 0
363 1 3.350154833976585 44.09708836041705 9.544597486898917 0 0 0
365 1 1.4733057486425842 45.536777258158494 8.207170612991309 0 0 0
373 1 8.59599065705385 45.81998910305113 8.508118413862036 0 0 0
371 1 9.99551680218908 43.8963438586602 9.799659057469853 0 0 0
381 1 14.82729228908881 45.96514778923863 8.252015513069459 0 0 0
378 1 13.109817758087502 47.48163562482928 9.531126079696953 0 0 0
379 1 16.64505932813751 44.38003767599393 9.753042660329964 0 0 0
383 1 17.908395814913785 45.78119735161836 11.391731009104067 0 0 0
2065 1 19.036571939951973 38.038635399709506 13.193109157288422 0 0 0
370 1 6.683468760512208 47.24530861161739 9.82090544770285 0 0 0
368 1 4.93130590815565 48.7799106461344 8.243456718083042 0 0 0
203 1 9.83518080524218 0.5665023468223751 9.860079249699169 0 0 0
376 1 11.437435663971165 49.319062483725375 8.093454364491357 0 0 0
384 1 17.5729405664833 49.210830654043704 8.363619967681192 0 0 0
388 1 3.9574633339068668 3.3667923628714767 13.07713949848184 0 0 0
389 1 2.269298545016393 1.7883994338381588 14.427184958806878 0 0 0
199 1 5.446278914215137 2.0790756280718234 11.210558683026058 0 0 0
397 1 8.705023183744807 1.8683935511820677 14.174487435781527 0 0 0
207 1 11.53692548863199 1.9315860957726412 11.305618140133527 0 0 0
405 1 14.630864862138846 2.0763140583284265 14.479409710509989 0 0 0
215 1 17.702671663000267 2.163326220898931 11.42193057774022 0 0 0
404 1 16.24626010848057 3.7257173559730568 12.839640576900647 0 0 0
198 1 2.296844043233789 5.117881961872088 11.671282812804794 0 0 0
417 1 6.687611706391917 6.726714156494438 13.066336102415558 0 0 0
396 1 10.252284946825341 3.6551973567909526 12.758909304808066 0 0 0
206 1 8.31491137685451 5.179644710487364 11.246552497740874 0 0 0
425 1 13.116146649505252 6.730219614780034 13.161744826380971 0 0 0
400 1 11.565532475789832 5.372277076936065 14.354724392215271 0 0 0
408 1 17.228740742212626 5.018503061737153 14.897193065575104 0 0 0
412 1 3.684015780721319 9.75733304729896 13.327744671398296 0 0 0
223 1 4.91314757375783 8.660863569605402 11.424700888889463 0 0 0
231 1 11.318756961620283 8.330312019354068 11.684805037052845 0 0 0
420 1 9.901458506235068 9.846387064721336 13.107613851120872 0 0 0
429 1 14.751488263251433 8.169711786769522 14.641152872391586 0 0 0
239 1 17.671607890640157 8.068714835627818 11.73737499254361 0 0 0
428 1 16.256531727256455 9.982943905350192 13.126425185956903 0 0 0
222 1 2.323949545424206 11.288111205651782 11.609330195230472 0 0 0
601 1 0.4889592263146273 6.480567823747957 19.354879699828956 0 0 0
441 1 6.691888325468871 13.127233452576723 13.559656418949794 0 0 0
416 1 4.959872572995581 11.744868317259774 14.788358554554383 0 0 0
230 1 8.39138380043364 11.677265149457016 11.74919844296554 0 0 0
238 1 14.287912795508296 11.320228497491176 11.354507877828059 0 0 0
449 1 13.109820384106367 13.163734407229617 13.035839292946017 0 0 0
432 1 17.785507338446255 11.922454130987042 14.460450697832448 0 0 0
289 1 0.7012157951817528 24.9049899474295 6.5022923034629905 0 0 0
436 1 3.6144306237441146 15.847364887556838 13.36805722045158 0 0 0
437 1 2.066157973645266 14.53929671843344 14.997039119631816 0 0 0
247 1 5.255184812054921 14.622305762285917 11.548133782323838 0 0 0
255 1 11.395837597568804 14.854767123912598 11.767846020789253 0 0 0
444 1 9.855970255903895 16.44814698151493 13.234010554851347 0 0 0
445 1 8.35674272003537 14.843379903831552 14.646419490853251 0 0 0
453 1 14.585548458884672 14.655905718173452 14.80854369345334 0 0 0
263 1 17.59703176564673 14.79434600248215 11.429675567442006 0 0 0
452 1 16.052576600795305 16.02035576083498 12.850014618654674 0 0 0
246 1 1.9579860460105185 17.473410076366847 11.712818303994025 0 0 0
465 1 6.8235651594190445 18.632474446004846 12.974319744685316 0 0 0
440 1 5.240309757534104 17.527066133579446 14.95780227882956 0 0 0
254 1 8.589522104472625 17.68534738942162 11.342185369978429 0 0 0
262 1 14.47841313223359 17.786517129041552 11.463852467521694 0 0 0
473 1 13.126114762209925 19.338983657892083 13.043222740877544 0 0 0
456 1 17.852546967595032 17.770445942513486 14.049376521036024 0 0 0
460 1 3.3820717813365833 22.324097520293513 12.547946222613803 0 0 0
461 1 2.082661419647441 20.66496899476327 14.381433318960278 0 0 0
271 1 5.104085326960287 20.694514887814456 11.19719730028094 0 0 0
279 1 11.34789730362847 20.51508945102963 11.40460840391507 0 0 0
469 1 8.125948449414452 20.787256720243267 14.550965984856886 0 0 0
468 1 9.790966840288027 22.157602321852348 13.160049448097093 0 0 0
477 1 14.825771344005355 20.73129264967066 14.311891852879695 0 0 0
287 1 17.928171307960245 21.230776989175858 11.212569863526959 0 0 0
476 1 16.10226051924954 22.50590666373312 12.669031422889521 0 0 0
270 1 1.9416243393012051 23.933240951174408 11.47423201989557 0 0 0
489 1 6.456441921265275 25.10423059077717 13.019257472680811 0 0 0
464 1 4.9747215491637 23.464271671237352 14.34345935807203 0 0 0
278 1 8.386826857436684 23.646276415348176 11.24270393041833 0 0 0
472 1 11.470801791509285 23.532307693553097 14.769700241934608 0 0 0
497 1 12.761656230265265 25.422202144515506 12.996395730261009 0 0 0
501 1 14.327735392775432 27.05060814809607 14.395547511770632 0 0 0
480 1 17.81741478616196 24.114990374034704 14.152148073006966 0 0 0
311 1 17.61969175838241 27.122337188481257 11.387247019796904 0 0 0
294 1 2.1383385327537137 30.384770651073673 11.35250889820254 0 0 0
484 1 3.587003046573621 28.665496176406986 12.874848527616637 0 0 0
485 1 2.4034601167138505 26.744358118125014 14.227073076315959 0 0 0
295 1 5.250411635256491 26.987757002100118 11.408157622881987 0 0 0
488 1 5.191424788469082 30.210389149515517 14.565939921443972 0 0 0
492 1 9.644261945454476 28.50701952714152 13.271607878781928 0 0 0
302 1 8.232314122208546 29.990812478660995 11.154781350810088 0 0 0
493 1 8.133840054966939 26.65425694104325 14.852626205158707 0 0 0
500 1 15.740444521584548 28.651498517765262 12.815520155600696 0 0 0
504 1 17.31910612280129 29.969468740424492 14.308063659949568 0 0 0
509 1 2.1559838644527356 33.26678701784347 14.720668276634868 0 0 0
319 1 5.069480686000736 33.005281828125376 11.285167277032988 0 0 0
513 1 6.583068079545498 31.6455358008732 12.575235196810876 0 0 0
327 1 11.918071762223029 33.088830911644294 10.830582154434476 0 0 0
517 1 8.492579106636711 32.97754763938292 14.203294739006358 0 0 0
521 1 12.932632987825906 31.65702649851362 12.432495112285235 0 0 0
525 1 14.498913394291268 33.273808970627655 14.495151987429166 0 0 0
335 1 17.795633847101215 33.28435750138803 11.316143166258476 0 0 0
508 1 3.6632887136976926 34.80335255813671 12.710818089677884 0 0 0
512 1 4.982985238340181 36.32407173825233 14.599613144209634 0 0 0
326 1 8.06686575415747 36.00262258429632 11.24947414379288 0 0 0
516 1 9.695433964378847 34.555771938597275 12.477168476245703 0 0 0
520 1 11.022125268917772 36.19576664180798 14.286982168073122 0 0 0
334 1 14.77966463815927 36.662296704173585 11.375756600990885 0 0 0
524 1 16.431133089242234 35.12313133116248 13.033964029020872 0 0 0
528 1 17.672134306639222 36.45001625518506 14.922751337641017 0 0 0
533 1 1.5944880851432015 39.212614007880845 14.744246347450213 0 0 0
763 1 16.27177726823004 44.1610190020327 22.233265341553135 0 0 0
343 1 5.001203267512116 39.25114485496218 11.550183727620343 0 0 0
537 1 6.603032339591221 37.527059756359634 12.963507100664321 0 0 0
351 1 11.621652065691126 39.79712745182886 11.05117867716684 0 0 0
541 1 8.478804027663347 39.238455329644296 14.3379641223881 0 0 0
545 1 12.669923933970376 38.03364276701414 12.686023816132852 0 0 0
549 1 14.7380437406869 39.40875957340823 14.108012915536483 0 0 0
359 1 17.843495173969764 39.52557705089397 11.390883344732146 0 0 0
532 1 3.2042985514802007 40.8408333705535 13.027752308358124 0 0 0
342 1 1.92005532855683 42.58989113950959 11.098879207907846 0 0 0
536 1 4.936800211905835 42.21540807927724 14.530825327448275 0 0 0
350 1 7.981883681041627 42.5536211480009 11.184072336889916 0 0 0
540 1 9.841770655460552 40.8944138896251 12.889883970828397 0 0 0
544 1 11.320076856472573 42.596993990575044 14.209452101077252 0 0 0
358 1 14.682748948209756 42.94388022772003 10.723381058553937 0 0 0
548 1 15.83405306934351 40.93069720931916 12.43286247823492 0 0 0
552 1 17.61285653476836 42.35229231647742 13.995502450192175 0 0 0
557 1 1.8259996731838275 45.924806572530116 14.106848142540553 0 0 0
367 1 4.965104184457319 45.59057114074015 11.349877384623351 0 0 0
561 1 6.220965969871388 43.88291231498019 12.708068092457443 0 0 0
375 1 11.759290878558629 45.587541909272176 10.882703075273136 0 0 0
565 1 8.594430068881133 45.25447520409497 14.260638012355592 0 0 0
564 1 10.263681249775043 47.327973262142706 12.634285347747866 0 0 0
569 1 13.035375619526084 44.03827883346139 12.742103101846244 0 0 0
573 1 14.365090987049165 45.92484870064045 13.98225165660497 0 0 0
572 1 16.13246825352622 47.494084716433605 12.8335042033246 0 0 0
84 1 9.580741710159272 22.475862899040358 0.47470849684564126 0 0 0
556 1 3.4989045931048652 47.2649078509548 12.783369626604065 0 0 0
366 1 1.9861244707472732 48.77545561499521 11.023966411713037 0 0 0
393 1 6.94483229271857 50.47715238704836 12.64328758228176 0 -1 0
560 1 5.442630682163113 49.13097025087896 14.360354865307103 0 0 0
374 1 8.524386918471556 48.642652847049845 11.333761254190854 0 0 0