
# Create simulation box of size 50 x 50 x 50 Angstrom
#
lattice	            sc 1
Lattice spacing in x,y,z = 1.0000000 1.0000000 1.0000000
region 	            all block 0 ${X} ${YZ_LO} ${YZ_HI} ${YZ_LO} ${YZ_HI} units box
region 	            all block 0 53.4 ${YZ_LO} ${YZ_HI} ${YZ_LO} ${YZ_HI} units box
region 	            all block 0 53.4 0.42334591252962994.0 ${YZ_HI} ${YZ_LO} ${YZ_HI} units box
region 	            all block 0 53.4 0.42334591252962994.0 50.48377408746791.0 ${YZ_LO} ${YZ_HI} units box
region 	            all block 0 53.4 0.42334591252962994.0 50.48377408746791.0 0.42334591252962994.0 ${YZ_HI} units box
region 	            all block 0 53.4 0.42334591252962994.0 50.48377408746791.0 0.42334591252962994.0 50.48377408746791.0 units box
create_box          1 all
Created orthogonal box = (0.0000000 0.42334591 0.42334591) to (53.400000 50.483774 50.483774)
  3 by 1 by 2 MPI processor grid

# fill box with 4175 randomly distributed atoms
#
create_atoms        1 random 4608 63782 all
Created 4608 atoms
  create_atoms CPU = 0.001 seconds
mass                1 18.015

# Define potential
#
pair_style          sw
pair_coeff          * * /data/emrosky-sim/Freezing_Simulations/Melting/mW_fancy/mW.sw mW
Reading sw potential file /data/emrosky-sim/Freezing_Simulations/Melting/mW_fancy/mW.sw with DATE: 2019-02-27

# Run minimization
#
minimize            1.0e-8 1.0e-8 10000 1000
WARNING: Using 'neigh_modify every 1 delay 0 check yes' setting during minimization (../min.cpp:187)
Neighbor list info ...
  update every 1 steps, delay 0 steps, check yes
  max neighbors/atom: 2000, page size: 100000
  master list distance cutoff = 6.3065
  ghost atom cutoff = 6.3065
  binsize = 3.15325, bins = 17 16 16
  1 neighbor lists, perpetual/occasional/extra = 1 0 0
  (1) pair sw, perpetual
      attributes: full, newton on
      pair build: full/bin/atomonly
      stencil: full/bin/3d
      bin: standard
Per MPI rank memory allocation (min/avg/max) = 4.236 | 4.254 | 4.260 Mbytes
Step Temp E_pair E_mol TotEng Press 
       0            0      4776008            0      4776008    3410192.3 
     690            0   -52247.208            0   -52247.208    256.69658 
Loop time of 2.1755 on 6 procs for 690 steps with 4608 atoms

99.5% CPU use with 6 MPI tasks x no OpenMP threads

Minimization stats:
  Stopping criterion = max force evaluations
  Energy initial, next-to-last, final = 
      4776008.04067617  -52247.0885720296  -52247.2083522834
  Force two-norm initial, final = 1.0939807e+08 2.6971503
  Force max component initial, final = 57734873.0 0.57341179
  Final line search alpha, max atom move = 0.10653305 0.061087309
  Iterations, force evaluations = 690 1000

MPI task timing breakdown:
Section |  min time  |  avg time  |  max time  |%varavg| %total
---------------------------------------------------------------
Pair    | 1.8127     | 1.9338     | 2.0469     |   6.1 | 88.89
Neigh   | 0.04358    | 0.045359   | 0.046246   |   0.5 |  2.09
Comm    | 0.060344   | 0.17413    | 0.29605    |  20.6 |  8.00
Output  | 0          | 0          | 0          |   0.0 |  0.00
Modify  | 0          | 0          | 0          |   0.0 |  0.00
Other   |            | 0.02224    |            |       |  1.02

Nlocal:        768.000 ave         780 max         754 min
Histogram: 1 1 0 0 0 2 0 0 0 2
Nghost:        1716.33 ave        1738 max        1706 min
Histogram: 1 1 2 1 0 0 0 0 0 1
Neighs:        0.00000 ave           0 max           0 min
Histogram: 6 0 0 0 0 0 0 0 0 0
FullNghs:      25996.3 ave       26602 max       25283 min
Histogram: 1 0 1 0 1 0 1 0 1 1

Total # of neighbors = 155978
Ave neighs/atom = 33.849392
Neighbor list builds = 39
Dangerous builds = 0

# Add velocity/set timestep
#
velocity            all create ${TEMP} 120598 rot yes dist gaussian
velocity            all create 276 120598 rot yes dist gaussian
timestep            5.0

# Define output
#
compute	            1 all msd
thermo	            100
thermo_style        custom step temp press vol etotal ke pe c_1[4] density

# Neighbor lists
#
neigh_modify        delay 0 every 1 check yes

# Set fixes
#
fix                 1 all momentum 10 linear 1 1 1 rescale
fix                 2 all nve
fix                 3 all temp/csvr ${TEMP} ${TEMP} 500.0 928347
fix                 3 all temp/csvr 276 ${TEMP} 500.0 928347
fix                 3 all temp/csvr 276 276 500.0 928347
fix                 4 all press/berendsen iso ${PRES} ${PRES} 1000.0 modulus 20000
fix                 4 all press/berendsen iso 1 ${PRES} 1000.0 modulus 20000
fix                 4 all press/berendsen iso 1 1 1000.0 modulus 20000

# Run 0.5 ns equilibration
#
dump                1 all custom 1000 eq.${NAME}.dump id type x y z vx vy vz
dump                1 all custom 1000 eq.liq_276K_1atm_mW.dump id type x y z vx vy vz
run                 100000
Per MPI rank memory allocation (min/avg/max) = 3.504 | 3.508 | 3.510 Mbytes
Step Temp Press Volume TotEng KinEng PotEng c_1[4] Density 
     690          276    1551.3814    133822.88   -48457.013    3790.1954   -52247.208            0    1.0300669 
     700    105.46137    2533.7408    134591.23   -48311.903    1448.2579   -49760.161  0.059196964    1.0241864 
     800    187.10413    232.24155    136711.57   -46757.854    2569.4247   -49327.279   0.47958883    1.0083017 
     900    215.25527    261.94012    137583.78   -45803.875    2956.0128   -48759.888   0.93162963    1.0019097 
    1000    234.09933    43.376387    138064.84   -45150.846    3214.7906   -48365.637    1.4582622    0.9984187 
    1100    245.57428   -3.3115927    138359.61   -44653.917    3372.3714   -48026.288    2.0968378   0.99629162 
    1200    253.51518    16.159328    138452.88   -44262.767    3481.4205   -47744.188     2.905615   0.99562046 
    1300    266.41493   -151.58141    138620.09   -43870.586    3658.5676   -47529.153    3.7229391   0.99441944 
    1400    267.46163    45.778022    138476.36   -43748.619    3672.9414   -47421.561    4.5503289   0.99545162 
    1500    269.08822   -96.156877    138219.55   -43544.987    3695.2787   -47240.265     5.564301   0.99730118 
    1600     269.9066   -78.463955    138142.51   -43524.787    3706.5172   -47231.304    6.7548012   0.99785736 
    1700    273.64132   -26.000541    138096.42   -43450.381    3757.8046   -47208.185    7.8900607   0.99819039 
    1800    272.84179   -189.11502    138075.21   -43370.904    3746.8249   -47117.729    9.0438334   0.99834373 
    1900    273.16056    90.840583    137834.15   -43311.219    3751.2025   -47062.422    10.290362    1.0000897 
    2000    280.01536   -166.42599    137836.92   -43246.675    3845.3367   -47092.012    11.618206    1.0000696 
    2100    272.89301   -60.324519    137887.37   -43337.033    3747.5284   -47084.561    12.637507   0.99970372 
    2200    275.52367    168.55409    137986.04   -43353.149    3783.6541   -47136.803    13.823007   0.99898887 
    2300    270.58032    199.67541    137960.14   -43265.075    3715.7692   -46980.844     15.13226   0.99917643 
    2400    271.42498    75.108891    137837.34   -43270.245    3727.3685   -46997.614    16.319063    1.0000665 
    2500    273.52704    273.85073       137579   -43211.857    3756.2352   -46968.092    17.463583    1.0019445 
    2600    276.97916    21.473832       137699    -43119.49    3803.6417   -46923.132    18.841252    1.0010713 
    2700    279.18016    -96.77785    137391.51   -43068.555    3833.8673   -46902.422    19.998281    1.0033118 
    2800    273.79492    7.2668903    137332.12   -43171.153    3759.9139   -46931.067    21.536615    1.0037457 
    2900     277.2114     26.98077    137610.91   -43103.191     3806.831   -46910.022    23.277039    1.0017121 
    3000    282.59285   -41.593044     137454.5   -42995.636    3880.7323   -46876.368    24.857023     1.002852 
    3100    277.69284    19.414332    137439.68   -43048.721    3813.4425   -46862.164    26.498607    1.0029601 
    3200    280.45294   -56.166342    137575.23    -43108.61    3851.3457   -46959.956    27.966557    1.0019719 
    3300    276.17482   -73.393153    137548.21   -43161.346    3792.5962   -46953.942    29.399858    1.0021687 
    3400    279.60361    97.462232    137657.58   -43134.685    3839.6822   -46974.367    30.993503    1.0013725 
    3500    279.85739     166.1816    137807.17    -43035.34    3843.1674   -46878.507    32.506518    1.0002855 
    3600     279.7742    79.984939     137955.1   -43031.684    3842.0249   -46873.709    33.926201   0.99921289 
    3700    274.80695    16.719645    137738.87   -43103.685    3773.8117   -46877.497    35.334402    1.0007815 
    3800    276.76591   -16.383019    137479.72   -43077.539    3800.7133   -46878.252    36.564068     1.002668 
    3900    273.94765    104.21774    137458.36   -43168.124    3762.0113   -46930.136    38.204744    1.0028238 
    4000    270.80858    341.05854    137630.22   -43226.755    3718.9037   -46945.659    39.848378    1.0015716 
    4100     276.7514    156.85859    137488.63    -43165.89     3800.514   -46966.404    41.339502     1.002603 
    4200    274.63368   -184.19752    137549.63   -43157.035    3771.4323   -46928.467    42.906187    1.0021584 
    4300    277.89359    161.62334    137665.73   -43138.161    3816.1992   -46954.361    44.147574    1.0013133 
    4400    276.68119    26.159192    137422.79   -43122.811    3799.5499    -46922.36    45.328644    1.0030834 
    4500    278.23956    45.590462    137510.68   -43097.042    3820.9503   -46917.992    46.996077    1.0024423 
    4600    278.24018    26.026086    137379.04   -43133.416    3820.9588   -46954.375    48.230967    1.0034028 
    4700    277.06943   -62.372393    137367.67   -43174.908    3804.8814   -46979.789    49.764614    1.0034859 
    4800    277.83766    23.317122     137609.8   -43164.505    3815.4312   -46979.936    50.992192    1.0017202 
    4900    275.72227     85.32621    137591.99   -43162.685    3786.3814   -46949.067    52.616773    1.0018499 
    5000    272.82671   -38.450361    137492.68   -43273.701    3746.6178   -47020.319    53.717275    1.0025735 
    5100    275.16292   -89.233952     137531.3   -43177.236       3778.7   -46955.936    55.270582     1.002292 
    5200    274.77008   -254.13302    137304.73   -43221.967    3773.3054   -46995.273    57.219999    1.0039458 
    5300    275.39743   -84.463289     137338.8   -43244.184    3781.9205   -47026.105    58.613082    1.0036968 
    5400    278.63078    41.217767    137338.25   -43125.031    3826.3228   -46951.354     60.28348    1.0037008 
    5500    279.26845   -35.523569    137558.63   -43035.893    3835.0797   -46870.972    62.057794    1.0020928 
    5600    285.27886    129.57713    137506.27   -42989.138    3917.6181   -46906.756    63.502289    1.0024744 
    5700    279.61231    80.901803    137403.74   -43150.278    3839.8018   -46990.079    65.363248    1.0032225 
    5800    281.72882     226.8781    137883.21    -43065.95    3868.8669   -46934.817    67.104898   0.99973386 
    5900    277.52096   -31.248479    137977.93     -43180.2    3811.0821   -46991.282    68.584206    0.9990476 
    6000    271.45887    55.332513    138008.16   -43249.695    3727.8339   -46977.529    69.948584   0.99882874 
    6100    272.08114    97.658406    138163.46   -43267.715    3736.3793   -47004.095    71.740777   0.99770606 
    6200    274.71435   -281.68567    138101.15   -43270.759      3772.54   -47043.299    72.986094   0.99815621 
    6300    275.11469   -102.27151    137905.92   -43296.515    3778.0377   -47074.553    74.625758   0.99956924 
    6400    273.76708    103.56373    137679.36   -43253.427    3759.5316   -47012.959    75.858179    1.0012141 
    6500    276.37038   -50.252514    137535.64   -43191.861    3795.2817   -46987.142    76.963089    1.0022603 
    6600    273.02753   -91.400108     137647.3   -43260.787    3749.3756   -47010.163     78.16966    1.0014473 
    6700    273.76701    6.0146806     137640.7    -43242.94    3759.5306   -47002.471    78.985015    1.0014953 
    6800    275.57784   -70.627996     137240.7    -43305.24     3784.398   -47089.638    80.237666    1.0044143 
    6900    273.60931    34.362364    137309.94   -43291.262    3757.3649   -47048.627    81.713234    1.0039078 
    7000    278.90512    48.789299    137428.16   -43143.993    3830.0902   -46974.083     83.09302    1.0030442 
    7100    271.38411   -231.56921    137294.88     -43243.2    3726.8072   -46970.007    84.164062    1.0040179 
    7200     276.0849     30.25003    137444.66    -43253.34    3791.3613   -47044.701    85.446617    1.0029237 
    7300    270.36782    27.233293    137459.48   -43285.427    3712.8509   -46998.278    86.975392    1.0028157 
    7400    271.70418   -78.164891    137450.64   -43302.268    3731.2027   -47033.471    88.534408    1.0028801 
    7500    270.72715    254.41617     137536.2   -43263.101    3717.7855   -46980.886    89.725489    1.0022562 
    7600    274.03632    258.84306    137950.84   -43178.111    3763.2289    -46941.34    91.717238   0.99924373 
    7700    272.66427    6.4105479     137887.7   -43139.712    3744.3872   -46884.099    93.199393    0.9997013 
    7800     276.4696   -14.812864    137870.22   -43176.043    3796.6441   -46972.687    94.631443   0.99982811 
    7900    272.62687    95.553184     137804.9   -43273.891    3743.8736   -47017.765    96.017357     1.000302 
    8000    269.54027    15.379503    137878.41   -43322.957    3701.4865   -47024.444    97.279588   0.99976867 
    8100    274.09961    3.2918942    137651.32   -43234.179    3764.0981   -46998.277    98.274462    1.0014181 
    8200    277.05725   -160.52047    137534.66   -43166.074    3804.7142   -46970.788    99.003157    1.0022674 
    8300    274.16238    1.4923971    137486.08   -43158.759    3764.9601   -46923.719    100.85211    1.0026216 
    8400    271.85542   -42.008175     137395.9   -43233.691    3733.2795    -46966.97    102.19519    1.0032797 
    8500    271.74167   -160.50268    137241.29    -43310.56    3731.7175   -47042.277     103.4297    1.0044099 
    8600    277.64091    33.497771    137330.41   -43171.204    3812.7293   -46983.933    104.79014    1.0037581 
    8700    279.27492    61.172859    137458.04   -43127.281    3835.1685   -46962.449    106.03237    1.0028261 
    8800    278.19549    239.81788    137600.09   -43061.357    3820.3452   -46881.702    107.16407    1.0017909 
    8900    279.70385   -355.78451    137408.98   -43101.427    3841.0589   -46942.486    108.21234    1.0031842 
    9000    280.72263    46.368795     137769.4   -43081.614    3855.0493   -46936.663    110.09068    1.0005598 
    9100    283.88586   -29.288341    138000.69   -43045.472    3898.4887   -46943.961    111.93011   0.99888283 
    9200    273.85236   -58.529863     137709.6   -43123.313    3760.7028   -46884.016    113.00004    1.0009942 
    9300    275.79949   -98.677942    137402.34   -43109.426    3787.4419   -46896.868    114.22843    1.0032326 
    9400    275.99831    -40.82319    137490.15    -43074.22    3790.1722   -46864.392    115.65463    1.0025919 
    9500    273.19311   -200.47741    137465.56   -43140.694    3751.6495   -46892.344    117.03628    1.0027713 
    9600    272.04537    136.03925    137496.27   -43168.377     3735.888   -46904.265     119.1263    1.0025473 
    9700    276.92138     49.03657     137567.4   -43038.758    3802.8482   -46841.606    120.82562     1.002029 
    9800    278.28631    129.60258    137617.52   -43121.518    3821.5923   -46943.111    122.49342     1.001664 
    9900    278.03745   -86.251572    137739.98   -43015.842    3818.1748   -46834.017    124.15813    1.0007735 
   10000    275.39042   -121.71179    137513.78   -43207.314    3781.8243   -46989.139    125.48473    1.0024197 
   10100    279.84183    44.566357    137590.63   -43154.781    3842.9537   -46997.734    126.91071    1.0018598 
   10200    275.80026    23.450392    137833.55   -43215.725    3787.4524   -47003.177    128.46951    1.0000941 
   10300    276.42591    24.962006    137878.63   -43215.891    3796.0442   -47011.935    130.09817   0.99976707 
   10400    277.76061    107.79029    138056.82    -43120.17    3814.3731   -46934.543    131.89749   0.99847673 
   10500    273.80087   -160.87061    137649.65   -43096.855    3759.9956   -46856.851    132.91469    1.0014302 
   10600    277.49498    70.924519    137651.98   -43081.046    3810.7253   -46891.771    134.76882    1.0014133 
   10700    275.24619    -176.9472    137463.98   -43142.274    3779.8436   -46922.118    135.85827    1.0027828 
   10800    277.30957    174.31916     137507.8   -43075.617    3808.1791   -46883.796    137.25636    1.0024632 
   10900    280.64615    130.14441    137690.33   -42997.231    3853.9991    -46851.23    138.40687    1.0011343 
   11000     277.3861    48.713156    137635.05   -43016.515    3809.2301   -46825.745    140.18184    1.0015364 
   11100    281.14543   -99.804522    137644.95   -43046.488    3860.8554   -46907.343    142.10903    1.0014644 
   11200    273.51433   -29.228261    137627.62   -43030.672    3756.0607   -46786.733    143.23957    1.0015905 
   11300    275.53612    154.92423    137408.83    -43089.22    3783.8251   -46873.045    145.10104    1.0031853 
   11400     277.2774    17.470794    137547.01   -43122.221    3807.7374   -46929.959    147.50039    1.0021775 
   11500    273.68456   -164.45594    137336.15   -43248.714    3758.3984   -47007.113    148.57008    1.0037162 
   11600    268.50063    244.59421    137530.17   -43281.224    3687.2096   -46968.433    149.99471    1.0023002 
   11700    274.00177   -238.39863    137633.62    -43260.35    3762.7545   -47023.104    151.46133    1.0015468 
   11800    274.17821   -4.0146708    137867.28   -43209.311    3765.1775   -46974.489    153.03312    0.9998494 
   11900    273.51327   -16.057817    137902.37   -43299.892    3756.0461   -47055.938    154.85095   0.99959498 
   12000    274.74891   -245.67912    137653.41   -43270.477    3773.0146   -47043.492    156.31701    1.0014028 
   12100    277.68597   -109.30774    137726.43   -43277.871    3813.3482   -47091.219    157.62356    1.0008719 
   12200    277.51127    -33.82745    137810.11   -43144.036    3810.9491   -46954.985    159.12662    1.0002642 
   12300    280.92884    29.573141    137911.54   -43102.351    3857.8811   -46960.232    160.25062   0.99952849 
   12400    283.55187    102.63654    138154.22   -42998.553    3893.9022   -46892.455    161.84249   0.99777278 
   12500    278.10165   -156.78719    137817.39   -43060.341    3819.0565   -46879.398    163.46423    1.0002114 
   12600    279.20928   -14.467383    137675.29   -43112.687    3834.2671   -46946.954    165.02005    1.0012437 
   12700    282.79221   -22.063682    137658.34   -43068.797      3883.47   -46952.267    166.76986     1.001367 
   12800    275.62258    221.44746    137632.39   -43146.275    3785.0124   -46931.287    168.45206    1.0015558 
   12900    275.92474   -13.908108    137757.06   -43124.737    3789.1619   -46913.899    169.90748    1.0006494 
   13000    277.07057    153.81521    137419.76   -43166.664    3804.8971   -46971.561    171.50837    1.0031055 
   13100    278.89847   -24.386043    137439.04   -43221.155    3829.9989   -47051.154    172.86251    1.0029648 
   13200    275.12369    159.51917     137517.1   -43134.056    3778.1613   -46912.218    174.68562    1.0023955 
   13300    277.25366    16.463756    137579.96    -43131.78    3807.4114   -46939.192    176.56762    1.0019375 
   13400    270.26284   -119.72138    137555.45   -43150.113    3711.4093   -46861.522    178.05814     1.002116 
   13500    274.30786    203.48813    137378.43   -43134.792    3766.9579    -46901.75     179.0612    1.0034073 
   13600    274.05156    129.94661    137652.11   -43187.638    3763.4382   -46951.076     180.3267    1.0014123 
   13700    272.72671    302.53298    137771.17   -43166.637    3745.2445   -46911.881    181.58042    1.0005469 
   13800     275.2433    104.59665    137983.45   -43198.545    3779.8039   -46978.349    182.54219   0.99900761 
   13900     275.8513   -55.948781    137836.27   -43242.045    3788.1533   -47030.198    183.64146    1.0000744 
   14000    274.27871   -11.473174    137873.22   -43334.855    3766.5575   -47101.412    184.95254   0.99980635 
   14100    273.43641    150.62605    137877.18   -43349.901    3754.9907   -47104.892    185.96077   0.99977763 
   14200    275.30423   -167.32047    137703.62   -43255.377    3780.6407   -47036.017    186.81124    1.0010377 
   14300    276.48728   -25.635009    137678.43   -43255.049     3796.887   -47051.936    188.01123    1.0012208 
   14400    277.73303   -27.002364    137485.86   -43274.681    3813.9944   -47088.676    189.09655    1.0026232 
   14500    274.52196    143.82644    137682.09   -43239.259     3769.898   -47009.157    190.82929    1.0011942 
   14600    275.34835   -11.575397    137437.78   -43186.124    3781.2465    -46967.37    191.72081     1.002974 
   14700    280.53928   -152.90549    137600.19   -43080.843    3852.5315   -46933.375    193.41947    1.0017901 
   14800    271.12324   -101.03056    137774.22   -43158.833    3723.2248   -46882.058    195.38975    1.0005248 
   14900    278.36736   -8.3019657    138002.96   -43098.245    3822.7054   -46920.951    197.44831   0.99886634 
   15000    276.04217    1.4021351    137928.67   -43175.223    3790.7744   -46965.998    199.29312   0.99940438 
   15100     272.4195    85.711388    138053.21    -43177.95    3741.0258   -46918.976    200.42479   0.99850279 
   15200    272.84926   -102.59825     137724.2   -43212.783    3746.9275    -46959.71    201.61002    1.0008881 
   15300    275.02209   -117.31388     137508.5   -43153.762    3776.7662   -46930.528    202.82182    1.0024582 
   15400    277.26424    136.67785     137614.3   -43153.287    3807.5566   -46960.843    204.46135    1.0016874 
   15500    276.78597    34.359876    137994.54   -43140.593    3800.9887   -46941.581    206.15998   0.99892732 
   15600    277.88098   -4.0889323    137946.75   -43188.256    3816.0262   -47004.283    207.85402   0.99927339 
   15700    276.03094    64.807313    137766.19   -43221.659    3790.6203    -47012.28    208.92468     1.000583 
   15800    274.35842      9.94249    137678.57   -43244.177    3767.6522   -47011.829    210.48038    1.0012199 
   15900    274.94779    -46.60475    137741.91   -43183.689    3775.7458   -46959.435    212.51176    1.0007594 
   16000    274.15533    -86.11471    137811.64   -43251.191    3764.8633   -47016.055    214.59782    1.0002531 
   16100    274.14537    117.32841    137991.52   -43241.427    3764.7265   -47006.153    215.94461   0.99894917 
   16200    276.93273    244.15509    137936.52    -43127.51    3803.0042   -46930.514    217.07582   0.99934747 
   16300    272.78704   -63.095892    137823.06   -43051.354    3746.0731   -46797.427    218.35352    1.0001702 
   16400    283.20451   -133.33639    137566.42   -43049.345     3889.132   -46938.477    219.97825    1.0020361 
   16500    276.89723   -128.84653    137722.65   -43065.856    3802.5167   -46868.373    221.05874    1.0008994 
   16600    279.87905   -37.241439    137778.95   -43091.358    3843.4647   -46934.823    223.04769    1.0004904 
   16700    271.89246    171.35171    137824.15   -43093.613    3733.7882   -46827.401    224.47189    1.0001623 
   16800    278.29753   -10.257374    137616.93   -43104.252    3821.7463   -46925.998    225.68848    1.0016683 
   16900    283.55774    34.954366    137559.37   -43148.528    3893.9827   -47042.511    226.92827    1.0020874 
   17000    274.05929    148.43923    137547.61   -43152.386    3763.5444    -46915.93    228.59555    1.0021731 
   17100    272.71387    6.0000585    137444.16   -43172.626    3745.0683   -46917.695    229.60229    1.0029275 
   17200    279.21338    11.838485     137627.7   -43107.399    3834.3234   -46941.723    231.72457      1.00159 
   17300    277.75466   -147.00192    137569.31   -43028.461    3814.2914   -46842.753    233.49548    1.0020151 
   17400    276.87226    197.23589    137583.08   -43117.031    3802.1737   -46919.205    234.54443    1.0019147 
   17500    280.95312 -0.086294923    137591.45   -43136.855    3858.2146    -46995.07    235.93206    1.0018538 
   17600    277.20496   -280.73221    137566.26   -43180.198    3806.7426   -46986.941    237.39174    1.0020372 
   17700    274.65421   -78.034487    137539.48   -43198.737    3771.7141   -46970.451    238.85658    1.0022324 
   17800    276.44959    87.045357    137538.17   -43164.124    3796.3694   -46960.494    240.21216    1.0022419 
   17900    271.20213   -240.38968    137582.21   -43207.177    3724.3082   -46931.485    241.40109    1.0019211 
   18000    276.18148   -26.567772    137327.75   -43293.684    3792.6876   -47086.372    242.40937    1.0037776 
   18100    270.00036   -100.63332    137435.89   -43313.719    3707.8048   -47021.524    244.23316    1.0029878 
   18200    275.35255    109.36217    137485.75   -43181.089    3781.3041   -46962.393    246.11399     1.002624 
   18300    270.60375    87.496928    137468.86   -43198.326    3716.0908   -46914.417    247.22014    1.0027472 
   18400    271.65729    141.30416    137585.97   -43244.042    3730.5587   -46974.601    249.30051    1.0018937 
   18500    276.43035   -53.268618    137494.33   -43183.931    3796.1051   -46980.036    250.29425    1.0025615 
   18600    275.50084   -30.442222    137651.59   -43164.123    3783.3406   -46947.463    251.80062    1.0014161 
   18700    275.27081    107.57028    137723.73   -43088.516    3780.1817   -46868.697    253.31734    1.0008916 
   18800    275.29907    33.074454    137879.34   -43093.983    3780.5698   -46874.553    255.03013   0.99976192 
   18900    275.08729   -169.74806    137696.23   -43168.399    3777.6615    -46946.06    256.70176    1.0010914 
   19000    276.61745    7.9994684    137706.73    -43158.29    3798.6746   -46956.965    257.97181    1.0010151 
   19100     274.9444    98.036617    137539.47   -43234.826    3775.6993   -47010.526    259.34206    1.0022324 
   19200    271.69589    52.486306    137629.29   -43221.066    3731.0888   -46952.154    261.10102    1.0015783 
   19300    273.96186    25.371168    137492.88    -43142.84    3762.2065   -46905.046    262.59415     1.002572 
   19400    278.60327   -8.6102638    137407.27   -43148.656    3825.9451   -46974.601    263.90489    1.0031967 
   19500    273.72339    -132.8808     137527.9   -43141.247    3758.9316   -46900.178    265.90318    1.0023167 
   19600    275.41451   -71.783688    137399.16   -43127.598     3782.155   -46909.753    268.17751    1.0032559 
   19700    278.10813   -183.42953    137273.24   -43146.337    3819.1455   -46965.483    269.07053    1.0041762 
   19800    281.08702    100.45417    137218.51   -43063.018    3860.0533   -46923.071    271.20183    1.0045767 
   19900    282.23314    91.537591    137452.22   -43080.327    3875.7926    -46956.12    273.50735    1.0028686 
   20000    283.30623   -74.938316    137699.26   -42998.787    3890.5288   -46889.315    276.17928    1.0010694 
   20100    278.35422    -45.19108    137524.68   -43026.684    3822.5248   -46849.209    277.72347    1.0023402 
   20200    280.80615   -39.893603    137512.79   -43032.554    3856.1963    -46888.75     279.9133    1.0024269 
   20300    284.59662   -76.809503    137467.08   -42992.719    3908.2493   -46900.968    281.66889    1.0027602 
   20400    277.00875    59.583888    137181.95   -43063.961    3804.0481   -46868.009    282.94131    1.0048444 
   20500    279.39234    40.604526    137584.14   -43028.143     3836.781   -46864.924    284.57604     1.001907 
   20600    277.06239    19.171897    137710.19     -43091.9    3804.7848   -46896.684    285.84997      1.00099 
   20700    276.99372   -20.933196     137909.2   -43111.762    3803.8418   -46915.604    287.45886   0.99954549 
   20800    280.28524   -149.03582     137748.2   -43152.079    3849.0428   -47001.122    288.71564    1.0007137 
   20900    275.59362   -221.79953    137742.71   -43205.013    3784.6147   -46989.628    289.53616    1.0007536 
   21000    278.11096    6.2487429    137802.31   -43138.434    3819.1843   -46957.618    290.43085    1.0003208 
   21100    277.13194   -327.16136    137633.01   -43157.398    3805.7398   -46963.138    291.80641    1.0015513 
   21200    274.58673    -1.008366    137386.33   -43242.533    3770.7876    -47013.32    292.52976    1.0033496 
   21300    272.12697   -75.216247    137460.74   -43287.555    3737.0086   -47024.564    293.74319    1.0028065 
   21400    276.33311    114.09529    137435.68   -43230.569    3794.7699   -47025.339    296.14205    1.0029893 
   21500    280.82436   -12.857416    137656.22   -43080.462    3856.4464   -46936.909    297.77788    1.0013824 
   21600    275.03346    84.869956    137717.82   -43192.067    3776.9223   -46968.989    299.50749    1.0009345 
   21700    278.96123    59.111866    137490.34   -43209.923    3830.8608   -47040.783    300.73426    1.0025906 
   21800    279.35494    -88.64472    137764.58   -43097.981    3836.2674   -46934.248    302.69858    1.0005948 
   21900    275.72841    42.383658    137696.12   -43113.184    3786.4657    -46899.65    304.32127    1.0010923 
   22000    274.24282    84.160971       137909   -43110.626    3766.0648   -46876.691     305.4461   0.99954695 
   22100    277.98464    14.917892    137587.05   -43125.371    3817.4496   -46942.821     306.1264    1.0018859 
   22200    280.75401    106.78273    137814.97   -43068.578    3855.4802   -46924.059    307.79215    1.0002289 
   22300    276.77566    109.41603    137708.19    -43068.22    3800.8473   -46869.068     309.1203    1.0010045 
   22400    276.00079   -21.479363    137564.85   -43244.656    3790.2063   -47034.863    310.22531    1.0020475 
   22500    271.26098    140.26841    137560.52   -43189.266    3725.1163   -46914.382    311.68683    1.0020791 
   22600    277.17879    61.160095    137731.43   -43192.008    3806.3832   -46998.391     313.6158    1.0008356 
   22700    275.53391    -262.6389    137629.15   -43230.664    3783.7947   -47014.459    314.31745    1.0015793 
   22800    268.29378     -76.9535    137391.92   -43282.187     3684.369   -46966.556    315.00511    1.0033088 
   22900    268.14636    207.14134    137355.99    -43310.74    3682.3445   -46993.085    317.13948    1.0035712 
   23000    276.76851   -35.495018    137420.08   -43191.911    3800.7489    -46992.66    318.54138    1.0031032 
   23100    273.16348    144.69726    137653.74   -43146.711    3751.2426   -46897.954    320.93127    1.0014005 
   23200    275.56216   -173.84187     138034.9   -43124.916    3784.1827   -46909.099    322.30927   0.99863528 
   23300    279.26097   -118.73364    137403.45   -43145.269     3834.977   -46980.245    322.00117    1.0032246 
   23400    276.79032    57.558506    137646.82   -43198.816    3801.0486   -46999.864    323.34153    1.0014508 
   23500    270.39271    175.74847    137433.91   -43147.558    3713.1928   -46860.751    323.96117    1.0030022 
   23600    274.72631   -175.75604    137551.27   -43169.799    3772.7043   -46942.503    325.35599    1.0021464 
   23700    269.95601      -88.011    137499.97   -43201.971    3707.1957   -46909.166    326.04102    1.0025203 
   23800    279.03847   -119.46294    137560.53   -43173.347    3831.9215   -47005.268    327.23051     1.002079 
   23900    273.04082    51.422301    137611.76   -43139.713    3749.5581   -46889.271     329.3488    1.0017059 
   24000    274.86234   -52.125364    137426.25   -43098.824    3774.5724   -46873.397    330.57177    1.0030581 
   24100     273.4941    124.04726    137391.79   -43128.981    3755.7828   -46884.764    331.39329    1.0033097 
   24200    276.81639   -74.595987    137748.26   -43020.146    3801.4065   -46821.553    333.90768    1.0007133 
   24300    272.76154    35.462183    137912.66    -43086.71    3745.7229   -46832.433    335.24067   0.99952043 
   24400    287.32606    37.650849     137912.6   -43040.272    3945.7315   -46986.003    336.72793   0.99952085 
   24500    278.77064   -6.6914055    138091.29   -43122.188    3828.2435   -46950.431    339.40678   0.99822742 
   24600    273.93538   -102.88756    138117.54   -43165.818    3761.8428    -46927.66    340.25469   0.99803773 
   24700    278.10205   -152.70636     138054.8   -43124.638    3819.0619     -46943.7    341.70804   0.99849134 
   24800     278.9379   -70.104158     137926.7   -43077.058    3830.5404   -46907.598    343.52706   0.99941866 
   24900    278.81955   -124.30006    137980.91   -43153.887    3828.9151   -46982.802    345.01357   0.99902599 
   25000    274.01517   -60.043344    137870.34   -43184.394    3762.9385   -46947.333    346.67687   0.99982721 
   25100    276.61759    34.729768    137619.35   -43200.913    3798.6765   -46999.589    348.22372    1.0016507 
   25200    277.75719   -98.131606    137763.01   -43249.774    3814.3261     -47064.1    349.74101    1.0006061 
   25300     272.4221   -117.03445    137793.28   -43264.601    3741.0616   -47005.663    350.81665    1.0003864 
   25400    274.07584   -27.789633    137935.99   -43247.059    3763.7717    -47010.83    352.39248   0.99935134 
   25500     273.5908    124.44038    137903.23   -43207.985    3757.1108   -46965.096    353.88411   0.99958872 
   25600    269.03829   -52.258901    137845.47   -43289.603    3694.5931   -46984.196    355.39921    1.0000076 
   25700    268.72425   -152.83713    137803.05   -43287.352    3690.2805   -46977.632    356.98649    1.0003154 
   25800      273.904    135.29429    137763.64   -43272.644    3761.4118   -47034.056     358.7036    1.0006016 
   25900    273.89883   -190.52172    137756.28   -43434.342    3761.3408   -47195.683    360.63225     1.000655 
   26000    273.71356    166.68708    137819.61   -43260.942    3758.7967   -47019.739    362.40227    1.0001952 
   26100    274.75286   -74.345936    137782.87   -43330.839     3773.069   -47103.908    364.44084    1.0004619 
   26200    277.33391   -37.539527    137913.22   -43198.001    3808.5135   -47006.514    366.34732   0.99951633 
   26300     276.0756   -153.04175     137789.2   -43146.701    3791.2335   -46937.934    367.29116     1.000416 
   26400    273.07051   -144.15549    137570.64   -43208.657    3749.9659   -46958.623    369.02031    1.0020053 
   26500    276.69074     33.12271    137539.66   -43047.327     3799.681   -46847.008    370.69759     1.002231 
   26600    281.05521    23.737398    137520.85   -43082.271    3859.6164   -46941.887     372.3786    1.0023681 
   26700    278.28864     59.57814    137574.91   -43106.415    3821.6244   -46928.039    373.59864    1.0019742 
   26800    277.99675   -40.138833    137334.43   -43078.742    3817.6159   -46896.358    375.73022    1.0037288 
   26900    275.48718    149.20632    137219.02   -43149.916     3783.153   -46933.069    377.28678     1.004573 
   27000    276.34521    -87.98607    137260.94   -43188.126     3794.936   -46983.062    378.34241    1.0042661 
   27100    276.59783    150.97889    137379.61    -43210.54    3798.4051   -47008.945    380.18987    1.0033986 
   27200    277.60796    98.291435    137210.15   -43134.762    3812.2768   -46947.039    382.43332    1.0046379 
   27300    280.75612   -171.34897    137379.02   -43106.825    3855.5093   -46962.334    384.22518     1.003403 
   27400    278.87424    148.58171    137548.21   -43080.968    3829.6662   -46910.634    386.58097    1.0021688 
   27500    275.50294    5.6222671     137666.8   -43155.813    3783.3695   -46939.183    387.80061    1.0013054 
   27600    280.85835   -14.368465    137758.52   -43123.407    3856.9131    -46980.32    389.56935    1.0006388 
   27700    276.10326    3.6581663    137724.85   -43137.364    3791.6133   -46928.978    391.49334    1.0008834 
   27800    274.90139   -47.797266    137544.52   -43077.208    3775.1087   -46852.316    392.78243    1.0021956 
   27900    276.91343    1.5970408    137541.75   -43114.363    3802.7391   -46917.102    394.01359    1.0022158 
   28000    280.35882    221.21426    137448.61   -42954.423    3850.0533   -46804.476    395.35092    1.0028949 
   28100    280.88346    16.658433     137640.4   -43053.018     3857.258   -46910.276    397.30193    1.0014975 
   28200    277.32507   -69.642508    137686.52    -43157.29     3808.392   -46965.682    398.75653     1.001162 
   28300    273.42151    41.937073    137683.29   -43222.988    3754.7861   -46977.774     400.3258    1.0011855 
   28400    276.52678   -115.49661    137831.04   -43111.504    3797.4294   -46908.933    402.20872    1.0001123 
   28500    276.92902   -143.77351    137660.63   -43098.385    3802.9532   -46901.338    402.98767    1.0013504 
   28600    277.59282    75.219117    137770.94   -43163.683    3812.0689   -46975.752    405.28106    1.0005486 
   28700    275.38964    -30.05998    137927.31   -43222.905    3781.8135   -47004.718    407.05093   0.99941423 
   28800    275.23274    27.397234    138089.83   -43198.372    3779.6589   -46978.031     409.0222   0.99823802 
   28900    277.08211   -218.72552    138160.36   -43192.931    3805.0555   -46997.987    410.19315   0.99772842 
   29000    272.56763   -2.0530956    137608.19   -43207.547      3743.06   -46950.607    410.38767    1.0017319 
   29100    276.47445    80.927141    137724.57   -43164.586    3796.7108   -46961.297    412.40501    1.0008854 
   29200     276.2709   -27.749699    137718.41   -43185.781    3793.9156   -46979.696     414.7908    1.0009302 
   29300    276.79174     158.3774    137548.69   -43213.372    3801.0679    -47014.44    416.18349    1.0021652 
   29400     276.2869   -140.88025    137388.05   -43200.129    3794.1352   -46994.264     416.2876     1.003337 
   29500    272.97181   -33.315628    137210.07   -43226.469    3748.6105    -46975.08    417.58429    1.0046385 
   29600     277.6095    172.02678    137265.36   -43181.499     3812.298   -46993.797    419.95874    1.0042338 
   29700    279.22809   -98.032245    137337.35   -43118.317    3834.5255   -46952.842     421.3346    1.0037074 
   29800    277.95732    207.81782    137418.01   -43157.218    3817.0744   -46974.292     422.6947    1.0031182 
   29900    280.71374    60.763176    137686.55   -43103.186    3854.9272   -46958.113    424.91146    1.0011618 
   30000    279.71504   -69.050677    137923.96   -43122.648    3841.2125    -46963.86    426.73923   0.99943854 
   30100    275.40641   -166.30212    137696.47   -43122.486    3782.0438    -46904.53    427.16474    1.0010897 
   30200    276.07706    65.642476    137501.76   -43147.293    3791.2536   -46938.546    428.18282    1.0025073 
   30300    277.68609   -15.642464    137359.58   -43144.288    3813.3498   -46957.638    429.83464     1.003545 
   30400    276.17849    68.287073    137283.78   -43218.802    3792.6466   -47011.449    431.09617    1.0040991 
   30500    269.43111    100.63191    137271.51   -43275.915    3699.9875   -46975.902    431.35157    1.0041888 
   30600     272.1034     292.4857    137713.05   -43241.729    3736.6849   -46978.414    434.25803    1.0009692 
   30700    276.42281    282.10873    137902.83   -43241.775    3796.0016   -47037.777    436.48756   0.99959166 
   30800    275.69185    139.84227    137820.02   -43216.203    3785.9637   -47002.167    437.99401    1.0001923 
   30900    276.41568    18.503276    137870.48   -43197.355    3795.9037   -46993.258    439.65919   0.99982618 
   31000     273.3982    110.73953    137986.51   -43207.237     3754.466   -46961.703     442.3871   0.99898545 
   31100    271.10157    184.01005    137998.23   -43273.761    3722.9272   -46996.688    443.77824   0.99890065 
   31200    267.16892    65.275081     137884.2   -43345.721    3668.9218   -47014.642    444.75642   0.99972671 
   31300    272.00206      -83.008    137668.26   -43221.513    3735.2933   -46956.806    446.03229    1.0012948 
   31400    271.50183    45.325191    137648.16   -43253.189    3728.4238   -46981.613    447.20479    1.0014411 
   31500     278.2206   -159.98667    137629.95   -43157.135    3820.6899   -46977.825    448.44051    1.0015735 
   31600    278.13804    55.058711    137688.09   -43143.664    3819.5562    -46963.22    449.90942    1.0011506 
   31700     273.8357    196.72137    137724.93    -43139.89    3760.4739   -46900.364    451.46477    1.0008828 
   31800    277.66742   -64.459354    137692.93   -43149.417    3813.0934    -46962.51    453.30251    1.0011154 
   31900    283.62039     21.05691    137494.99   -43116.374     3894.843   -47011.217    454.25663    1.0025567 
   32000    273.67094    119.81812    137363.29   -43094.481    3758.2113   -46852.693    455.74087    1.0035179 
   32100    274.40903   -3.8486752    137353.94   -43160.991    3768.3473   -46929.338    456.89875    1.0035862 
   32200    274.43989    221.61976    137605.59   -43089.172     3768.771   -46857.943    457.82477    1.0017508 
   32300    273.09158    -73.54992     137468.7   -43126.895    3750.2552    -46877.15    459.11522    1.0027484 
   32400    277.85485    50.452844    137677.72   -43081.671    3815.6672   -46897.338     460.3823     1.001226 
   32500    277.15467   -228.51816    137971.95   -43115.629     3806.052   -46921.681    462.66843   0.99909087 
   32600    277.44407   -19.273749    137863.27   -43175.367    3810.0262   -46985.394    463.80643   0.99987845 
   32700    276.07083    187.68011    137839.48   -43140.505     3791.168   -46931.673    465.62336    1.0000511 
   32800    268.94405    72.105252    137965.06    -43138.49    3693.2989   -46831.788    467.36071   0.99914075 
   32900    273.40221    109.79848    137718.54   -43231.876     3754.521   -46986.397    467.70038    1.0009293 
   33000    272.03335    202.24223    138053.18   -43154.284     3735.723   -46890.007    469.92662   0.99850304 
   33100    273.97662   -150.32148    138057.37   -43233.492    3762.4091   -46995.901    470.72058   0.99847269 
   33200    277.72854     42.39074    137878.01   -43130.868    3813.9327     -46944.8    471.84958   0.99977156 
   33300    276.03506    14.112012    137758.36   -43109.475    3790.6769   -46900.152     473.0815    1.0006399 
   33400    276.68984    214.77422    137780.88   -43176.236    3799.6687   -46975.905    475.04356    1.0004764 
   33500    279.46253   -168.99168    137880.17   -43084.289    3837.7449   -46922.034    476.65176    0.9997559 
   33600    275.09535    123.69123    137965.65   -43128.358    3777.7722    -46906.13    478.26663   0.99913651 
   33700    274.63468   -104.00462    137900.95   -43134.514     3771.446    -46905.96      479.718   0.99960525 
   33800    275.23525   -74.838407    137999.31   -43130.305    3779.6934   -46909.998    480.01503    0.9988928 
   33900    279.73766    58.838854    137992.55   -43166.062    3841.5231   -47007.585    481.35306    0.9989417 
   34000    275.28564    76.341725    137877.58   -43151.639    3780.3854   -46932.024    482.43944   0.99977473 
   34100    274.67568    74.168181    137686.35   -43217.208     3772.009   -46989.217    483.38386    1.0011633 
   34200    274.91113    196.54337    137967.73   -43196.927    3775.2423   -46972.169    485.59828   0.99912143 
   34300    277.55556   -48.364032    137972.43   -43150.676    3811.5573   -46962.234    487.45741   0.99908738 
   34400    278.86694    202.03792    137711.44   -43086.036    3829.5659   -46915.602    487.92644    1.0009809 
   34500    281.40078   -54.127208     137910.5   -43039.802    3864.3621   -46904.164    490.54606   0.99953604 
   34600    279.57672   -11.488613    137929.86   -43080.071     3839.313   -46919.384    491.84223   0.99939572 
   34700    276.64438    80.719327    138043.35   -43142.177    3799.0444   -46941.222    493.65665   0.99857408 
   34800    276.13409    -205.3995    137980.26   -43174.491    3792.0368   -46966.528    494.78805   0.99903068 
   34900    275.61882   -43.790858    137721.98   -43182.552    3784.9607   -46967.513    495.73289    1.0009043 
   35000    269.43497    28.103069    137679.39   -43232.105    3700.0406   -46932.145    496.66927    1.0012139 
   35100     276.0399     163.3337    137690.85   -43154.622    3790.7434   -46945.365    498.03112    1.0011306 
   35200    277.54979   -185.83586     137705.3   -43040.365    3811.4779   -46851.843    499.27983    1.0010255 
   35300     275.9872    45.414851    137572.03   -43063.857    3790.0196   -46853.877    499.62359    1.0019952 
   35400    273.91761    95.183207    137582.75    -43112.12    3761.5987   -46873.719    500.58401    1.0019172 
   35500    276.26377    95.149012    137511.39   -43122.042    3793.8176   -46915.859    501.82734    1.0024371 
   35600    269.38288   -88.688501    137499.09   -43159.793    3699.3252   -46859.119    503.40064    1.0025268 
   35700    278.57013    123.88259    137480.29    -43140.36      3825.49    -46965.85    504.47103    1.0026639 
   35800    275.10982     9.209872    137778.38   -43091.346    3777.9709   -46869.317    506.60402    1.0004946 
   35900    278.38919  -0.60983238    137879.44   -43085.305    3823.0052   -46908.311    508.56151   0.99976125 
   36000    275.75162   -230.62417    137889.03   -43107.943    3786.7844   -46894.727    509.78787   0.99969171 
   36100    276.34208    26.198529    137598.91   -43158.803     3794.893   -46953.696    509.81131    1.0017994 
   36200    282.14166    -196.2512    137472.86    -43136.84    3874.5362   -47011.376    510.60909     1.002718 
   36300    280.35258   -51.377354    137436.73   -43114.958    3849.9676   -46964.926    511.46711    1.0029817 
   36400     276.2484    93.867462    137412.74   -43112.678    3793.6066   -46906.285    512.92558    1.0031567 
   36500    283.69976    66.798584    137686.08   -43019.255     3895.933   -46915.188    515.34913    1.0011653 
   36600    277.05819    55.918582    137944.71   -43140.213    3804.7271    -46944.94    517.14227   0.99928814 
   36700    275.66818   -83.652529    137975.57   -43151.415    3785.6387   -46937.053    518.92933    0.9990647 
   36800    270.37937    284.34576    137670.59    -43213.92    3713.0096   -46926.929    519.58003    1.0012779 
   36900    273.90315   -51.823526     137613.9   -43228.641    3761.4002   -46990.041    519.99203    1.0016903 
   37000    281.18217    57.530397    137691.62   -43175.511    3861.3599   -47036.871    521.49131    1.0011249 
   37100    269.19927   -81.465354     137722.5   -43247.731    3696.8037   -46944.535    522.72577    1.0009005 
   37200    277.47453   -88.379196    137673.17   -43217.776    3810.4445   -47028.221    524.31513    1.0012591 
   37300    276.63863   -16.511788    137935.41   -43227.203    3798.9654   -47026.168    525.27128   0.99935556 
   37400    271.87034    2.0921864    138011.85   -43266.524    3733.4844   -47000.008    527.27436   0.99880203 
   37500    270.19445   0.97154854    137905.62   -43323.778    3710.4702   -47034.248    528.43209   0.99957141 
   37600    275.56543   -82.176497    137935.88   -43246.232    3784.2275    -47030.46    529.74717   0.99935215 
   37700    274.10934    108.26168    137774.77   -43264.664    3764.2318   -47028.896    530.77189    1.0005207 
   37800    267.79782   -221.28624    137792.37    -43270.32    3677.5582   -46947.879    531.87389    1.0003929 
   37900    273.06606   -6.8249229    137767.62   -43263.506    3749.9047   -47013.411    533.49841    1.0005727 
   38000    273.09506   -86.942696     137887.8   -43263.445     3750.303   -47013.748    534.99271    0.9997006 
   38100    272.45022   -84.823413    137885.45   -43291.685    3741.4476   -47033.132    536.99644   0.99971765 
   38200    274.81148     87.98748    138075.45   -43302.009    3773.8739   -47075.883    538.15894   0.99834199 
   38300    270.65825   -109.44263    137713.82   -43344.174    3716.8392   -47061.014    538.31727    1.0009636 
   38400    271.47994   -110.92128    137569.06   -43388.747    3728.1232    -47116.87    540.60252    1.0020168 
   38500    274.67996   -152.29684    137581.89   -43417.663    3772.0678   -47189.731    542.25714    1.0019234 
   38600    273.42569   -153.04386    137395.39   -43346.204    3754.8434   -47101.048    543.52116    1.0032834 
   38700    279.21974   -10.403515    137200.12   -43289.103    3834.4107   -47123.513    544.49104    1.0047114 
   38800    274.50572   -242.07376    137232.74   -43222.495    3769.6751    -46992.17     546.6139    1.0044725 
   38900    277.25719   -145.00808    137575.03   -43141.813    3807.4599   -46949.273    548.14505    1.0019734 
   39000    279.63501    121.24366     137550.2   -43182.069    3840.1134   -47022.183    550.25052    1.0021542 
   39100    274.88907   -79.445937    137591.01   -43143.936    3774.9394   -46918.875    552.04735     1.001857 
   39200    279.06646   -157.15003    137640.95   -43182.537    3832.3058   -47014.843     553.6291    1.0014935 
   39300    275.47094   -211.40659    137601.13   -43165.755    3782.9299   -46948.685    554.92949    1.0017834 
   39400    276.85547   -88.048491    137693.12   -43128.761    3801.9432   -46930.705    557.12294    1.0011141 
   39500    274.73605    153.78235    137552.71   -43113.964    3772.8381   -46886.802    559.18027    1.0021359 
   39600    273.92346   -71.650816    137841.14   -43132.274    3761.6791   -46893.953    561.37047     1.000039 
   39700     275.6551   -254.86197    137608.82   -43180.227     3785.459   -46965.686    563.03276    1.0017273 
   39800    277.75784     75.86637    137382.54   -43188.313    3814.3351   -47002.648    564.36466    1.0033773 
   39900     269.5325   -23.459658    137362.43   -43264.229    3701.3799   -46965.609     566.1544    1.0035242 
   40000    272.93984   -65.299384    137364.56   -43306.658    3748.1714   -47054.829    568.36272    1.0035086 
   40100    277.65761    30.937577     137316.7   -43191.244    3812.9587   -47004.203    570.01686    1.0038584 
   40200    277.53939   -217.19517    137388.07   -43128.912    3811.3351   -46940.247    571.49926    1.0033369 
   40300    277.20846    198.91358    137384.17   -43115.909    3806.7907     -46922.7    573.14056    1.0033654 
   40400    275.51751    12.410978     137572.4   -43102.185    3783.5695   -46885.755    575.78213    1.0019925 
   40500     275.8664   -144.52626    137368.22   -43134.978    3788.3607   -46923.339    576.25092    1.0034819 
   40600    274.55616    141.23215    137374.07   -43091.675    3770.3677   -46862.043    577.86622    1.0034391 
   40700    274.05763   -125.19038     137430.7   -43157.656    3763.5216   -46921.178    580.28165    1.0030256 
   40800    280.53399    -1.266843    137629.68   -43184.577    3852.4588   -47037.036    581.49283    1.0015755 
   40900    270.42699    70.933006    137783.93   -43168.828    3713.6635   -46882.492    583.60794    1.0004542 
   41000    273.67848   -47.716876    137633.48    -43180.44    3758.3148   -46938.754    584.40621    1.0015478 
   41100    276.45182    -91.64253    137801.09   -43204.628       3796.4   -47001.028     585.1652    1.0003296 
   41200    278.34031   -143.63645    137708.58   -43100.279    3822.3339   -46922.613    585.03055    1.0010016 
   41300    274.48114    62.462671    137881.85   -43220.011    3769.3375   -46989.349    586.53836   0.99974377 
   41400    278.15036   -33.187943     138118.9   -43244.679    3819.7253   -47064.404    588.64056   0.99802787 
   41500    271.79333    102.61466    138243.82   -43263.411    3732.4269   -46995.838    590.65529   0.99712605 
   41600    275.62027   -162.38483    138311.73   -43217.078    3784.9806   -47002.059    591.99347   0.99663646 
   41700     275.9599   -54.208689    138105.11   -43318.416    3789.6447    -47108.06    592.64496   0.99812758 
   41800    271.86821    47.581807    138042.58   -43214.855    3733.4552    -46948.31    593.94496   0.99857972 
   41900    274.28883    103.98738     138289.6   -43121.993    3766.6965   -46888.689    595.71975   0.99679596 
   42000    275.81816    108.44025    138066.22   -43185.059    3787.6982   -46972.757    596.63365   0.99840868 
   42100    280.58954   -203.51923     137983.5   -43126.974    3853.2216   -46980.196    598.29253   0.99900725 
   42200    276.36598   -53.345516    137999.96   -43148.832    3795.2213   -46944.053    600.82518   0.99888811 
   42300    272.93272   -110.80307    137588.56   -43191.582    3748.0737   -46939.655    601.71375    1.0018748 
   42400    271.19082    137.66429    137394.83   -43262.886    3724.1528   -46987.038    603.22109    1.0032875 
   42500    277.82913   -6.8448964    137586.22   -43190.112    3815.3141   -47005.426    605.96305    1.0018919 
   42600    275.05909   -31.968977    137558.15   -43252.867    3777.2742   -47030.142    606.77802    1.0020963 
   42700    273.70233   -46.288593     137391.1   -43235.692    3758.6425   -46994.334    608.91107    1.0033147 
   42800    267.35308   -29.514716    137355.25   -43343.723    3671.4508   -47015.174    610.87786    1.0035766 
   42900    266.21174     174.1312    137625.53   -43259.294    3655.7772   -46915.071    613.22773    1.0016057 
   43000    275.94204   -27.531071    137642.46   -43222.828    3789.3994   -47012.227    615.11671    1.0014825 
   43100    272.87716    42.108485    137586.25   -43248.995    3747.3107   -46996.306    615.79116    1.0018917 
   43200    273.58169    177.46052    137612.71   -43215.395    3756.9857   -46972.381    617.02678     1.001699 
   43300    276.30213   -88.744977    137610.59   -43231.887    3794.3444   -47026.232    617.64825    1.0017144 
   43400    271.51339    24.691268    137420.76    -43302.52    3728.5825   -47031.102    619.14935    1.0030982 
   43500    268.84269    5.9133414    137260.28   -43233.612     3691.907   -46925.519    619.19448     1.004271 
   43600    272.34884    40.933146    137482.67    -43189.08    3740.0554   -46929.136    621.33614    1.0026465 
   43700    272.74888   -188.64735    137228.19   -43218.466    3745.5491   -46964.015    621.24232    1.0045058 
   43800    280.35969   -173.28325    137355.55   -43153.801    3850.0652   -47003.866    623.81201    1.0035744 
   43900    276.26738    103.93139    137393.97   -43195.312    3793.8672   -46989.179    625.19878    1.0032938 
   44000    276.84861   -1.8768788    137623.07   -43198.166     3801.849   -47000.015    627.26811    1.0016236 
   44100    276.81196   -32.029314    137517.52   -43092.753    3801.3457   -46894.099    628.04081    1.0023924 
   44200    275.00604    309.99109     137869.3   -43139.127    3776.5457   -46915.672    629.93081   0.99983472 
   44300    271.57651   -75.937127    137709.67   -43225.393    3729.4493   -46954.843    630.91647    1.0009937 
   44400    269.24735   -31.546917    137500.95   -43231.098     3697.464   -46928.562    630.81378    1.0025132 
   44500     271.7345   -147.48879    137287.96   -43275.033     3731.619   -47006.652    630.97428    1.0040685 
   44600    272.84106    -254.6894    137236.91   -43257.156     3746.815   -47003.971     632.1121     1.004442 
   44700    272.29156     79.76061    137391.65   -43307.348    3739.2688   -47046.617    634.69045    1.0033108 
   44800    273.50773    123.79592    137505.35   -43242.481      3755.97   -46998.451    637.06318    1.0024811 
   44900    273.82134    23.285253    137462.09   -43225.153    3760.2767   -46985.429    638.95908    1.0027966 
   45000    272.25457   -150.16379    137377.85   -43228.499    3738.7609   -46967.259     639.8272    1.0034115 
   45100    276.41405   -126.47402    137534.29   -43237.416    3795.8813   -47033.297    641.92413    1.0022702 
   45200    271.55368    211.53705    137685.42   -43204.777    3729.1359   -46933.913    644.22199      1.00117 
   45300    275.71167    110.91501    137815.65   -43214.428    3786.2358   -47000.664    645.67439     1.000224 
   45400    273.46401   -113.68997    137756.39   -43226.354    3755.3697   -46981.723    647.33398    1.0006542 
   45500    275.42321   -136.48228    137704.38   -43161.536    3782.2745    -46943.81     649.1486    1.0010322 
   45600    275.66512    178.65434    137549.72   -43108.671    3785.5966   -46894.268     650.4695    1.0021577 
   45700    277.35946   -344.83389     137441.9   -43151.442    3808.8643   -46960.307     651.6585    1.0029439 
   45800    278.34824    172.05925    137526.29   -43077.502    3822.4428   -46899.945    653.37268    1.0023285 
   45900    278.71626   -228.01509    137649.14   -43110.219    3827.4967   -46937.716     655.0874    1.0014339 
   46000    277.02371   -174.38244    137495.46   -43149.783    3804.2536   -46954.036    654.67072    1.0025532 
   46100    276.76327    21.363527    137443.33   -43195.824    3800.6771   -46996.501    655.11606    1.0029335 
   46200    280.57321    2.4083394    137502.66   -43141.167    3852.9973   -46994.164    657.46528    1.0025007 
   46300    278.56389    179.66702    137394.87   -43121.142    3825.4042   -46946.546     658.5818    1.0032872 
   46400    278.46948   -111.31243    137577.85   -43143.021    3824.1077   -46967.129    659.30538    1.0019529 
   46500    275.16742   -5.4265288    137661.08   -43185.155    3778.7619   -46963.917    661.24235    1.0013471 
   46600    279.71054    12.047138    137788.85   -43073.338    3841.1507   -46914.489    663.66902    1.0004185 
   46700    278.87258    98.641034    137899.53   -43085.349    3829.6434   -46914.992    666.17511    0.9996156 
   46800    281.62488    121.13416    137973.99   -42991.792    3867.4396   -46859.231    667.46111   0.99907611 
   46900    281.00701   -54.432925    137817.43   -43060.194    3858.9546   -46919.149    668.44294     1.000211 
   47000    278.43408   -100.93124    137835.82   -43086.101    3823.6216   -46909.723    670.35662    1.0000776 
   47100    276.75429    72.326594    137321.17   -43116.583    3800.5537   -46917.137    670.17329    1.0038257 
   47200     279.1145   -13.312299    137367.85   -43086.327    3832.9655   -46919.293    672.06104    1.0034846 
   47300    279.27488    45.830292    137532.05   -43125.195     3835.168   -46960.363    674.47762    1.0022865 
   47400    279.66305    24.043292    137678.44   -43102.817    3840.4985   -46943.315    676.51732    1.0012208 
   47500     276.8141    14.333885    137611.65    -43128.22     3801.375   -46929.595    677.60363    1.0017067 
   47600    282.45802    214.48827    137818.24   -43109.753    3878.8807   -46988.634    679.37337    1.0002052 
   47700    273.51157   -122.89537    137889.36   -43172.638    3756.0228    -46928.66     681.1226   0.99968931 
   47800    280.47758    4.1523306    137825.16    -43207.89    3851.6842   -47059.574    682.61537     1.000155 
   47900    280.09295   -59.543016    137934.75   -43207.877    3846.4022   -47054.279    684.00168   0.99936036 
   48000    272.77614   -176.00293    137923.42   -43324.685    3745.9234   -47070.609    685.48086   0.99944246 
   48100    273.04027   -3.9319397    137756.88   -43301.236    3749.5505   -47050.787    687.50995    1.0006507 
   48200     275.4668    142.57054    137778.96   -43256.487    3782.8731    -47039.36    689.90409    1.0004903 
   48300    277.85272    17.176904       137594   -43231.869     3815.638   -47047.507    691.44243    1.0018352 
   48400    274.74922   -88.865811    137622.64   -43201.169    3773.0189   -46974.188    692.68795    1.0016268 
   48500    274.36695   0.56603605     137622.7   -43227.792    3767.7694   -46995.562    694.47221    1.0016263 
   48600    273.39881    -175.5431    137458.99   -43258.187    3754.4743   -47012.661    694.49282    1.0028192 
   48700    276.42501   -90.326708     137182.4   -43317.494    3796.0319   -47113.526    694.76057    1.0048412 
   48800    270.47956    89.781412    137322.66   -43300.808    3714.3854   -47015.193    696.32102    1.0038148 
   48900    272.61451   -78.631205    137576.46   -43264.508    3743.7038   -47008.212    697.86873     1.001963 
   49000     275.2589    70.025305    137581.18   -43268.573    3780.0181   -47048.591    698.28935    1.0019286 
   49100    272.85701    139.24278    137754.76   -43238.416     3747.034    -46985.45    699.52764    1.0006661 
   49200    270.57936    -36.94064     137562.5   -43354.166     3715.756   -47069.922    700.50223    1.0020647 
   49300    274.30531    123.88242    137555.46   -43351.186    3766.9229   -47118.109    702.18092    1.0021159 
   49400    273.39269   -65.419175    137808.09   -43230.239    3754.3903    -46984.63    702.96701    1.0002789 
   49500    274.07932   -17.397979    137618.67   -43219.923    3763.8194   -46983.743    701.77457    1.0016557 
   49600    275.99929    158.77391    137649.99    -43238.75    3790.1856   -47028.935    702.51024    1.0014277 
   49700    274.90261    76.556957    137708.64   -43224.283    3775.1253   -46999.409    704.72815    1.0010012 
   49800    274.45947    14.593779    137640.94   -43152.205    3769.0398   -46921.245    706.70977    1.0014936 
   49900    270.50708    151.16455    137802.07   -43207.225    3714.7634   -46921.988    708.99887    1.0003225 
   50000    276.20331   -117.64091    137852.78   -43230.661    3792.9874   -47023.649    710.41409   0.99995457 
   50100    272.47068   -96.822916    137596.79   -43273.073    3741.7286   -47014.802    711.20191    1.0018149 
   50200    274.47525    113.66394     137720.2   -43217.879    3769.2566   -46987.135      712.264    1.0009172 
   50300    271.73427    100.95786    137696.84   -43221.805    3731.6159   -46953.421     713.7193     1.001087 
   50400    275.76956   -195.95509    137677.16   -43217.661    3787.0308   -47004.692    715.57675    1.0012301 
   50500     272.6289   -157.42998    137698.81   -43225.707    3743.9014   -46969.608    716.66762    1.0010727 
   50600    273.59588   -82.901932    137944.66   -43205.977    3757.1806   -46963.158    718.67075   0.99928851 
   50700    274.38492   -198.60116    137850.88   -43227.648    3768.0162   -46995.664    720.91498   0.99996837 
   50800    280.51923   -16.832388     137930.5   -43094.732    3852.2561   -46946.988    723.87206   0.99939111 
   50900    280.95395    22.984337    138160.73   -43130.981     3858.226   -46989.207    725.01295   0.99772571 
   51000    277.35402   -76.447002    137740.34   -43177.989    3808.7896   -46986.779    724.52426    1.0007709 
   51100    271.69543    167.33959    137554.05   -43228.531    3731.0825   -46959.614    725.04963    1.0021262 
   51200    274.65557    179.27467    137729.24   -43123.561    3771.7328   -46895.294    727.67669    1.0008515 
   51300    275.13831    86.101077    137971.06    -43065.29    3778.3621   -46843.652    729.76845   0.99909731 
   51400    267.75781   -1.5001594    138042.93   -43253.934    3677.0088   -46930.943    731.24459   0.99857717 
   51500    272.81623   -249.40766     137731.6   -43250.157     3746.474   -46996.631    730.29419    1.0008343 
   51600    275.12109   -180.23262    137773.71   -43277.716    3778.1257   -47055.842    732.47276    1.0005285 
   51700    277.55632    4.0008061    137848.64   -43235.381    3811.5677   -47046.949    734.13969   0.99998461 
   51800    272.49933    -88.60599    137958.17   -43258.806     3742.122   -47000.928    735.19879   0.99919066 
   51900    273.23615    26.308564    137915.19   -43291.405    3752.2405   -47043.645    736.57013   0.99950208 
   52000     272.9137   -98.048279    137993.14   -43294.699    3747.8125   -47042.512    738.11379   0.99893743 
   52100    272.90095    77.529556    137924.22   -43237.724    3747.6374   -46985.361    738.48361   0.99943662 
   52200    273.77003    20.835936    137803.99   -43331.861     3759.572   -47091.433    738.79949    1.0003086 
   52300    276.44943   -32.777554    137817.39   -43209.681    3796.3672   -47006.048    740.09868    1.0002114 
   52400    277.61228   -96.489016    137961.51   -43117.814    3812.3362    -46930.15    742.41731   0.99916645 
   52500     275.5368    35.428156    137603.01   -43166.252    3783.8344   -46950.086    742.45567    1.0017696 
   52600    274.56623    81.695999    137394.24   -43241.116    3770.5059   -47011.622     743.0975    1.0032918 
   52700    276.07696    22.381423    137579.67   -43204.229    3791.2522   -46995.481     745.5076    1.0019396 
   52800    273.44787    4.1736257    137839.06   -43273.575     3755.148   -47028.723     746.8011    1.0000541 
   52900    272.68107   -208.25476    137909.12   -43328.559    3744.6179   -47073.177    747.80618   0.99954604 
   53000     264.9376   -59.252256    137593.66   -43365.073      3638.28   -47003.353    747.29169    1.0018377 
   53100    269.07183   -261.59704    137538.51   -43398.542    3695.0537   -47093.595    748.08336    1.0022394 
   53200    273.23356   -12.993253     137570.8   -43232.314     3752.205   -46984.519     750.0683    1.0020042 
   53300    270.93543    20.510563    137344.68   -43258.403    3720.6457   -46979.049    751.82545    1.0036538 
   53400    280.47555   -28.265621    137724.82   -43146.917    3851.6563   -46998.573    755.03396    1.0008836 
   53500    281.37363   -201.71993    137817.17   -43136.105    3863.9892   -47000.094    756.24285    1.0002129 
   53600    279.62561   -23.659461    137536.88   -43172.609    3839.9844   -47012.593    756.89716    1.0022513 
   53700    275.65296     38.51415    137710.27   -43101.118    3785.4296   -46886.548    759.37156    1.0009894 
   53800     269.3653    49.898074    137761.84   -43265.949    3699.0837   -46965.033    760.36811    1.0006147 
   53900    273.30492   -154.30185    137489.48   -43272.141    3753.1849   -47025.326    759.82441    1.0025968 
   54000    275.62729    74.403893    137547.36   -43264.578     3785.077   -47049.655    761.34218    1.0021749 
   54100    277.63774   -147.97917    137432.66   -43221.842    3812.6858   -47034.528    762.02933    1.0030114 
   54200    279.36926    136.85149    137608.08   -43210.688     3836.464   -47047.152    763.78925    1.0017327 
   54300    272.49047   -21.868968    137699.29   -43231.502    3742.0004   -46973.502    765.77329    1.0010692 
   54400    273.04344    94.008014    137491.16   -43221.044    3749.5942   -46970.639    767.32875    1.0025846 
   54500    274.79063   -195.40612    137534.79   -43259.866    3773.5876   -47033.454    768.23858    1.0022666 
   54600    274.68174    -40.35736    137420.04    -43241.87    3772.0923   -47013.962    769.20809    1.0031034 
   54700    278.57893     53.28969    137494.39   -43248.276    3825.6108   -47073.887     771.2057     1.002561 
   54800    271.74409    131.42674    137782.92   -43268.674    3731.7507   -47000.424    774.19425    1.0004616 
   54900    275.48607   -34.995904    137770.94   -43185.968    3783.1377   -46969.106    775.44503    1.0005486 
   55000    274.20544    33.387507     137774.8   -43136.435    3765.5514   -46901.986    775.09088    1.0005205 
   55100    282.57769    19.690347    137609.83   -43096.585    3880.5241   -46977.109    774.75224      1.00172 
   55200    268.56719    111.58348    137668.45   -43131.142    3688.1237   -46819.266     776.4636    1.0012935 
   55300    272.59428    -172.0256    137542.48   -43073.763    3743.4261   -46817.189    778.60088    1.0022105 
   55400    280.06209   -81.482288    137534.03   -43118.049    3845.9784   -46964.027     780.8262    1.0022721 
   55500    277.54671    121.27058    137824.97   -43082.772    3811.4357   -46894.207    783.76396    1.0001563 
   55600    280.74574   -37.605488    137742.94   -43105.429    3855.3667   -46960.796    783.03979     1.000752 
   55700    274.71428    193.98215    137778.56   -43144.832     3772.539   -46917.371    785.18501    1.0004932 
   55800    274.74156   -57.391411    137778.18   -43163.736    3772.9137   -46936.649    787.01097     1.000496 
   55900    274.08879   -123.16713    137609.05   -43255.201    3763.9495    -47019.15    787.76998    1.0017257 
   56000    274.23884    54.991617    137456.91   -43311.485    3766.0101   -47077.495     788.2817    1.0028344 
   56100    272.31352   -14.991417     137629.3   -43288.436    3739.5704   -47028.007     790.8496    1.0015783 
   56200    273.58727   -91.635722    137756.42   -43246.485    3757.0624   -47003.548     791.9436     1.000654 
   56300    279.22094   -214.34085    137783.73   -43167.095    3834.4273   -47001.523    792.40861    1.0004557 
   56400    276.74089   -5.0080132    137872.11    -43126.71    3800.3697   -46927.079    793.85388    0.9998144 
   56500    279.19795   -119.84667     137713.9    -43115.75    3834.1115   -46949.861     795.1878     1.000963 
   56600     278.7434    115.75478    137893.41   -43072.788    3827.8694   -46900.657    796.38872   0.99965996 
   56700    281.83852   -48.842375    137908.32   -43125.726    3870.3734   -46996.099    797.60726   0.99955187 
   56800    278.87412   -85.677927     137860.6   -43073.553    3829.6645   -46903.218    798.78479   0.99989781 
   56900    274.76311   -71.888553    137724.88   -43133.941    3773.2097    -46907.15    799.93588    1.0008832 
   57000    273.43287    54.556204    137512.58   -43200.625     3754.942   -46955.567     801.4122    1.0024284 
   57100    278.40108    -203.4789    137665.77   -43243.347    3823.1684   -47066.515    804.63731    1.0013129 
   57200    269.02441    121.81288    137408.48   -43334.762    3694.4024   -47029.164    804.99408    1.0031878 
   57300    266.06061    96.188672    137667.12   -43364.472    3653.7018   -47018.173    807.20665    1.0013031 
   57400    274.98225   -36.615921    137545.49   -43322.926     3776.219   -47099.145    807.66547    1.0021886 
   57500    275.92076   -51.481768    137472.86   -43292.772    3789.1072   -47081.879    808.92691     1.002718 
   57600    270.04164    72.964193    137729.33   -43363.243    3708.3717   -47071.615    811.06978    1.0008509 
   57700    275.95466    10.210621    137697.04   -43339.713    3789.5727   -47129.286    812.53098    1.0010856 
   57800    275.35744    270.49327    137709.44   -43229.111    3781.3713   -47010.482    813.75196    1.0009954 
   57900    275.63148    41.159068    137754.99   -43186.866    3785.1347   -46972.001    816.25669    1.0006644 
   58000    276.20014    14.500887    137661.52   -43276.665    3792.9438   -47069.609    816.79169    1.0013438 
   58100    271.15227    46.296255    137788.41   -43221.739    3723.6235   -46945.363    819.23702    1.0004217 
   58200    272.63999    110.82307    137703.62   -43207.809    3744.0537   -46951.863    819.88373    1.0010377 
   58300    271.37216   -192.85069    137852.33   -43266.247    3726.6431    -46992.89    821.46154   0.99995786 
   58400    272.76144    -5.149609    137725.53   -43177.977    3745.7216   -46923.698    823.13258    1.0008785 
   58500    276.93483    71.608886    137772.42   -43146.239     3803.033   -46949.272    824.23992    1.0005378 
   58600    274.11957   -124.33984    137889.18   -43185.395    3764.3722   -46949.767    826.52455   0.99969058 
   58700    274.34285    118.47519     137957.6   -43112.585    3767.4384   -46880.024    827.53302   0.99919483 
   58800    276.97933   -26.483882    137888.83    -43191.78    3803.6442   -46995.424    828.61423   0.99969312 
   58900    277.23491   -4.6341934     137976.8   -43077.693    3807.1539   -46884.847    830.10564   0.99905573 
   59000    277.33706   -112.99693    138193.46   -43153.552    3808.5566   -46962.109    832.52521   0.99748942 
   59100    275.72904   -83.077527    138070.14   -43153.724    3786.4743   -46940.198    832.60961   0.99838039 
   59200    272.10063    37.318401    137610.57   -43204.719    3736.6469   -46941.366    832.12725    1.0017146 
   59300    271.31694   -100.98906     137557.8   -43248.485    3725.8848    -46974.37    832.98377    1.0020989 
   59400    279.22817    74.213513    137340.55   -43207.381    3834.5265   -47041.908    833.60615     1.003684 
   59500    275.18009    142.15821    137541.36   -43218.575    3778.9359    -46997.51    835.40224    1.0022186 
   59600    278.31564    226.67812    137703.83   -43141.674    3821.9951    -46963.67    837.24975    1.0010362 
   59700    275.90868    63.867641    137600.99   -43152.394    3788.9413   -46941.335    838.83171    1.0017843 
   59800    277.14889   -52.456819    137629.19   -43123.123    3805.9725   -46929.096    839.88027    1.0015791 
   59900    274.09469    47.000199    137830.12    -43216.89    3764.0305   -46980.921    842.39694     1.000119 
   60000     275.1937   -228.83167    137670.73    -43195.67    3779.1227   -46974.793    843.88337    1.0012769 
   60100    271.66413     12.05726    137688.34    -43163.35    3730.6527   -46894.003    844.65553    1.0011488 
   60200     272.0264    78.313974    137427.57   -43281.808    3735.6276   -47017.435    844.83588    1.0030485 
   60300    275.83363   -109.89845    137407.12   -43239.868    3787.9106   -47027.779    846.08275    1.0031978 
   60400    271.29244    -17.27438    137516.59   -43210.648    3725.5484   -46936.196    848.07477    1.0023991 
   60500    271.41166   -131.98346       137509   -43287.426    3727.1855   -47014.612    850.42198    1.0024545 
   60600    270.24498   -7.8768449    137681.21    -43285.66    3711.1641   -46996.824    852.02618    1.0012007 
   60700    274.81586    149.81479    137755.12   -43252.599     3773.934   -47026.533    854.71467    1.0006635 
   60800    274.90656    70.507466    137852.91    -43249.69    3775.1796    -47024.87    856.48186   0.99995363 
   60900    277.25642   -68.394641     137848.3   -43230.028    3807.4492   -47037.478    856.82749   0.99998705 
   61000    276.01248   -100.82158    137741.24   -43129.405    3790.3667   -46919.772    857.65273    1.0007643 
   61100    276.96648    133.73312    137930.14   -43058.544    3803.4676   -46862.011    859.92767   0.99939373 
   61200    277.96171    166.58058    137938.49   -43127.664    3817.1348   -46944.799    860.73438   0.99933324 
   61300    276.44976   -117.16736    137731.99   -43163.326    3796.3718   -46959.698    861.73813    1.0008315 
   61400    280.24023    96.775547    137956.41   -43020.294    3848.4246   -46868.719    864.76799   0.99920339 
   61500    279.92474    8.8520601    137834.61   -43048.983    3844.0923   -46893.076    865.41287    1.0000864 
   61600    280.87709   -178.97922    137936.17    -43119.26    3857.1705    -46976.43    867.71034   0.99935007 
   61700    280.97077   -122.21935       137632   -43182.098     3858.457   -47040.555    868.51272    1.0015586 
   61800    276.87145   -106.06444    137571.54   -43195.903    3802.1626   -46998.065    870.04283    1.0019988 
   61900    279.77989   -79.471272    137442.05   -43126.732     3842.103   -46968.836    871.24388    1.0029428 
   62000    273.75217   -47.929479    137410.03   -43218.577    3759.3269   -46977.904    872.95202    1.0031765 
   62100    275.50446   -19.857794    137251.28    -43255.44    3783.3903    -47038.83    872.18782    1.0043368 
   62200    269.03238    96.160338    137466.39   -43202.738    3694.5118    -46897.25    873.91565    1.0027652 
   62300    277.34339   -25.245468     137393.4   -43208.887    3808.6436   -47017.531    874.57605    1.0032979 
   62400    271.47956    164.73539    137397.13   -43284.687     3728.118   -47012.805    875.69587    1.0032707 
   62500     277.1049    101.24481    137393.95   -43253.825    3805.3685   -47059.193    876.64797    1.0032939 
   62600     279.1282   -189.63156    137614.53   -43176.825    3833.1536   -47009.979    879.55927    1.0016858 
   62700     272.2466    44.448784    137574.25   -43201.339    3738.6515   -46939.991    880.26904     1.001979 
   62800    274.49124  -0.37564064    137543.35   -43210.952    3769.4762   -46980.429     882.6221    1.0022042 
   62900    272.29934    4.7964137    137702.95   -43134.656    3739.3757   -46874.032     884.2967    1.0010426 
   63000    275.18437   -127.00934     137574.9   -43156.115    3778.9946    -46935.11    885.55129    1.0019744 
   63100    274.69398    23.159108    137393.66   -43120.509    3772.2603    -46892.77    885.87626    1.0032961 
   63200    276.37126   -117.03229    137306.44   -43152.484    3795.2937   -46947.778     886.7786    1.0039334 
   63300    274.20149   -12.560839    137331.68    -43212.38    3765.4972   -46977.877    888.74021    1.0037488 
   63400    270.27285    122.32923    137367.16   -43261.962    3711.5468   -46973.509    890.47908    1.0034896 
   63500    277.77968    77.419307    137688.55   -43217.192     3814.635   -47031.827    893.98263    1.0011473 
   63600    278.50424    16.802798    137758.95   -43157.451     3824.585   -46982.036    895.83861    1.0006357 
   63700    277.54915   -36.979737    137730.51   -43204.839    3811.4692   -47016.308    896.72415    1.0008422 
   63800    273.67465   -78.162584     137710.1   -43259.441    3758.2623   -47017.704     898.7019    1.0009906 
   63900    277.31099    64.861022    137821.41   -43165.535    3808.1987   -46973.734    901.60641    1.0001821 
   64000    273.61473   -88.814196    137564.65    -43263.43    3757.4394    -47020.87    902.72541    1.0020489 
   64100    269.27039   -157.34479    137672.83   -43307.724    3697.7804   -47005.504     903.5735    1.0012616 
   64200    268.39541   -62.647946    137739.15   -43308.773    3685.7647   -46994.537    904.53523    1.0007795 
   64300    272.82528   -58.870784    137638.58   -43352.307    3746.5982   -47098.905    904.73599    1.0015108 
   64400    269.67411    159.86171    137451.79   -43350.491    3703.3245   -47053.816    905.72244    1.0028717 
   64500    271.04351    52.341625    137452.68   -43411.623    3722.1299   -47133.753    908.97613    1.0028653 
   64600     274.0155    24.336092    137568.49   -43317.511     3762.943   -47080.454    910.20243     1.002021 
   64700    273.76005   -12.000337    137802.17   -43245.502    3759.4351   -47004.937    913.64008    1.0003218 
   64800    275.23611    215.14465    137631.72   -43183.104    3779.7052   -46962.809    914.63598    1.0015607 
   64900    271.31436     77.41532    137818.97    -43144.42    3725.8494    -46870.27    917.08761    1.0001999 
   65000    276.77268   -129.74498    137648.91   -43179.401    3800.8063   -46980.207    918.22237    1.0014355 
   65100    275.48421   -10.622257    137387.26     -43231.5    3783.1122   -47014.612     919.2123    1.0033428 
   65200    277.74108     45.97662    137462.94   -43186.151    3814.1049   -47000.256    921.51084    1.0027904 
   65300     278.1631   -255.17946    137553.62   -43241.866    3819.9004   -47061.767     924.0299    1.0021293 
   65400    272.88981   -266.59238    137288.75   -43259.953    3747.4844   -47007.437    925.47297    1.0040628 
   65500    273.37589    68.832775    137119.33   -43162.811    3754.1595    -46916.97    925.48271    1.0053033 
   65600     275.3167   -60.519883    137216.27   -43101.629    3780.8119   -46882.441    927.41369    1.0045931 
   65700    279.45244   -91.917991    137175.42   -43069.406    3837.6063   -46907.013    928.51396    1.0048923 
   65800    271.56899    59.257196    137129.47   -43129.385    3729.3461   -46858.731     930.5602     1.005229 
   65900    280.53065   -29.890537    137141.96   -43096.835     3852.413   -46949.248    932.60647    1.0051374 
   66000    273.97285      170.885    137226.68   -43053.487    3762.3574   -46815.844    935.95087    1.0045169 
   66100    275.38761    45.344553    137509.58   -43112.211    3781.7856   -46893.996    938.76829    1.0024503 
   66200    278.80978    77.051274    137488.03   -43034.406    3828.7809   -46863.187    941.08302    1.0026074 
   66300    281.12957   -10.035838    137690.37   -43082.325    3860.6377   -46942.962    943.30807     1.001134 
[...]
   84600    271.67262   -72.837255    137266.23   -43214.029    3730.7692   -46944.798    1201.5248    1.0042275 
   84700    268.81681   -52.003525    137228.47   -43263.255    3691.5516   -46954.807    1203.0846    1.0045038 
   84800    273.20104    135.77341    137473.43    -43211.31    3751.7584   -46963.069    1205.5092    1.0027139 
   84900    272.56514     123.3371    137789.69    -43187.48    3743.0258   -46930.506    1207.2161    1.0004124 
   85000    276.38852    -18.16677    137562.06   -43178.409    3795.5307   -46973.939    1207.8615    1.0020679 
   85100    276.33801    149.73634    137880.25   -43203.233    3794.8371    -46998.07    1211.1556   0.99975531 
   85200    275.91612   -131.04118    137656.51   -43214.589    3789.0435   -47003.632    1211.4588    1.0013803 
   85300     271.3433   -26.066564    137635.79   -43143.046    3726.2468   -46869.293    1213.0418    1.0015311 
   85400    277.19168    2.6799524    137698.98   -43142.709    3806.5603   -46949.269    1214.7216    1.0010714 
   85500     275.8314    123.13987    137691.67   -43181.148    3787.8801   -46969.028    1217.3409    1.0011246 
   85600    280.02963    129.33783    138076.41   -43131.786    3845.5326   -46977.319     1221.728   0.99833501 
   85700    280.98056   -200.43847    137760.93   -43163.619    3858.5914    -47022.21    1221.0239    1.0006212 
   85800    274.54934    65.861651    137556.86   -43166.853     3770.274   -46937.127    1221.5432    1.0021058 
   85900    273.29895   -24.323293    137353.04   -43206.536     3753.103   -46959.639    1222.8616    1.0035928 
   86000    274.20455    269.97097    137567.82   -43209.251    3765.5393    -46974.79    1226.2216    1.0020259 
   86100    270.73541   -1.6263392    137512.56   -43197.638     3717.899   -46915.537    1226.2735    1.0024285 
   86200    269.17774    67.924076    137718.55   -43181.217    3696.5081   -46877.725    1230.3854    1.0009292 
   86300    276.76992     -155.085    137678.69   -43183.341    3800.7683    -46984.11    1231.0334    1.0012189 
   86400    272.88184    49.166364    137683.64   -43164.519     3747.375   -46911.894    1231.2871     1.001183 
   86500    276.46249   -64.563661    137433.88   -43137.714    3796.5465    -46934.26    1230.7926    1.0030024 
   86600    272.97619    135.79297    137677.48   -43117.297    3748.6706   -46865.967    1233.4622    1.0012278 
   86700     272.4937   -31.837029    137664.02   -43140.279    3742.0448   -46882.324    1235.6239    1.0013257 
   86800    277.55884    16.225662    137810.13   -43073.614    3811.6023   -46885.216    1238.2299     1.000264 
   86900    277.44243    6.2679385    137799.75   -43087.873    3810.0037   -46897.877    1240.5403    1.0003394 
   87000    272.53695    162.86951    137835.47   -43127.113    3742.6388   -46869.752    1242.9813    1.0000801 
   87100    274.00085    119.80664    137907.23   -43201.864    3762.7418   -46964.606    1244.8099   0.99955974 
   87200    275.83161   -209.82601    137940.25   -43242.636     3787.883   -47030.519    1246.8863   0.99932051 
   87300    279.27406    73.535852    137835.45   -43122.559    3835.1567   -46957.716    1247.4543    1.0000803 
   87400    278.49028    30.994443    138132.72   -43146.901    3824.3934   -46971.295    1250.1661   0.99792809 
   87500    273.28027   -17.754334    138326.42   -43233.269    3752.8464   -46986.115    1253.8209   0.99653066 
   87600    276.10153   -111.09342    137909.34   -43197.655    3791.5896   -46989.245    1251.9749   0.99954443 
   87700    276.04754   -106.06813    138022.27   -43208.136    3790.8482   -46998.984    1253.0947   0.99872663 
   87800    279.03007    5.4360263    137971.49   -43091.366    3831.8061   -46923.172    1254.3715   0.99909422 
   87900    275.86247    139.06448    137784.76   -43081.965    3788.3067   -46870.272    1254.4617    1.0004482 
   88000     272.8205    74.946753     137907.3   -43061.241    3746.5326   -46807.774    1256.5274   0.99955924 
   88100    279.35194   -168.98632    137532.86   -43119.787    3836.2262   -46956.013    1256.3622    1.0022806 
   88200    274.67965    44.722048    137584.19   -43060.601    3772.0636   -46832.665    1256.9448    1.0019067 
   88300    281.39338    99.635449    137698.72   -43092.453    3864.2604   -46956.713     1258.421    1.0010734 
   88400    277.70823   -29.657927    137684.58   -43105.939    3813.6538   -46919.592    1260.0033    1.0011762 
   88500     274.5869    105.63794    137388.19   -43165.053    3770.7898   -46935.843     1260.686     1.003336 
   88600     273.3483    57.249533    137355.14   -43158.489    3753.7806    -46912.27    1263.1435    1.0035774 
   88700    281.23137   -89.314901    137661.37   -43177.837    3862.0356   -47039.873    1265.6123     1.001345 
   88800    275.99596    36.415114    137422.22   -43139.677    3790.1399   -46929.816     1265.665    1.0030876 
   88900     274.2553   -76.753193    137350.37   -43171.502    3766.2361   -46937.738    1264.9859    1.0036123 
   89000     275.2101    114.80969    137626.33   -43157.436    3779.3479   -46936.784    1267.3545    1.0015999 
   89100    273.57807   -120.14728     137496.7   -43152.335     3756.936   -46909.271    1269.2767    1.0025442 
   89200    275.67869   -80.667166    137622.32   -43194.144    3785.7829   -46979.927    1271.2348    1.0016291 
   89300    270.00017    17.280704    137831.71   -43221.509    3707.8022   -46929.311    1274.8189    1.0001074 
   89400    277.17197    56.635685       137789   -43141.631    3806.2895    -46947.92    1276.3187    1.0004174 
   89500    275.21197    118.80403    137449.03   -43241.585    3779.3737   -47020.959    1276.6534    1.0028919 
   89600    273.18171    124.30749    137724.85   -43205.566     3751.493   -46957.058    1279.7105    1.0008834 
   89700    275.87974   -70.615255    137939.91   -43181.583    3788.5439   -46970.127    1280.9911   0.99932296 
   89800     272.5281   -33.291377    137837.64   -43257.232    3742.5172   -46999.749    1281.8369    1.0000644 
   89900    274.74074    4.0420923    137732.72   -43240.866    3772.9025   -47013.768     1282.446    1.0008262 
   90000    275.89459   -107.55704    137554.54   -43283.428    3788.7478   -47072.176    1281.8221    1.0021226 
   90100    278.48687    15.561795    137569.62   -43205.862    3824.3465   -47030.208    1283.9564    1.0020128 
   90200    275.12789    94.472867     137772.7   -43307.422    3778.2191   -47085.641    1286.3764    1.0005358 
   90300     272.2374    72.950355    137601.69   -43338.959    3738.5251   -47077.484    1288.3149    1.0017793 
   90400    270.73029   -91.577907    137667.87   -43246.374    3717.8286   -46964.203    1290.7324    1.0012977 
   90500    273.62712   -49.408266    137520.34   -43155.161    3757.6095    -46912.77     1292.255    1.0023719 
   90600    273.75893    87.306668    137393.08    -43153.12    3759.4197    -46912.54    1291.2904    1.0033003 
   90700    274.55158    -73.54367     137379.1   -43184.332    3770.3048   -46954.637    1293.5177    1.0034024 
   90800    276.90273   -85.460672    137559.28   -43128.563    3802.5922   -46931.155    1295.2666    1.0020881 
   90900    272.49845   -74.085136    137654.13    -43233.54      3742.11    -46975.65    1297.8259    1.0013976 
   91000    273.26006     200.4845    137632.39   -43209.754    3752.5689   -46962.323    1297.8663    1.0015558 
   91100    277.96693    -90.80247    137588.85   -43166.066    3817.2065   -46983.273     1299.544    1.0018727 
   91200    271.69573    148.56135    137932.86   -43178.624    3731.0865   -46909.711    1303.3252   0.99937399 
   91300    274.29114   -77.159363     137955.3   -43198.342    3766.7283    -46965.07     1303.584   0.99921147 
   91400    271.84047    29.414392    138008.01   -43232.734    3733.0742   -46965.808    1303.5982   0.99882985 
   91500    270.16988    44.940207    138045.53   -43226.884    3710.1327   -46937.017    1304.6541   0.99855838 
   91600    278.05038  -0.91308996    137917.19   -43225.479    3818.3524   -47043.831    1305.3825   0.99948756 
   91700    276.36614    76.288555    137923.66   -43255.323    3795.2234   -47050.547    1308.1957   0.99944068 
   91800    274.03592    17.062751    137948.67    -43343.03    3763.2234   -47106.253    1309.9954   0.99925946 
   91900    275.67226   -145.25598     137678.3   -43303.948    3785.6947   -47089.643    1308.4764    1.0012218 
   92000    275.33284    66.827562    137529.01   -43230.729    3781.0335   -47011.762    1308.5126    1.0023086 
   92100    270.68608   -11.442781    137432.34   -43197.139    3717.2215   -46914.361    1309.7722    1.0030137 
   92200    277.23306   -43.134363    137648.94   -43095.125    3807.1285   -46902.254    1312.5592    1.0014354 
   92300    278.01278   -125.85228    137306.79   -43138.658     3817.836   -46956.494    1313.6267    1.0039308 
   92400    273.23017    33.119644    137319.16   -43198.315    3752.1584   -46950.473    1316.7621    1.0038404 
   92500    277.08905    10.432819    137319.88   -43159.707    3805.1509   -46964.858    1317.6469    1.0038351 
   92600    273.56647    36.620666    137255.57   -43150.772    3756.7767   -46907.549    1318.0335    1.0043055 
   92700    271.32325    147.00302    137178.16     -43219.8    3725.9714   -46945.771    1317.4514    1.0048722 
   92800    278.56407    38.481449    137229.95   -43172.869    3825.4067   -46998.276    1319.0395    1.0044929 
   92900    272.91797    43.159803    137458.69   -43169.461    3747.8711   -46917.332    1322.4634    1.0028214 
   93000    277.88875   -56.725575    137613.58   -43062.155    3816.1328   -46878.288    1324.2329    1.0016927 
   93100    276.23133   -19.941033    137233.94    -43113.53    3793.3721   -46906.902      1323.51    1.0044637 
   93200    279.41857   -13.191154    137379.49   -43083.448    3837.1412   -46920.589    1327.3959    1.0033996 
   93300    276.75929    15.444463    137716.08   -43000.895    3800.6223   -46801.517    1332.2029    1.0009471 
   93400    275.70498    -57.93524     137839.1   -43095.057     3786.144   -46881.201    1334.1426    1.0000538 
   93500    275.70848    141.52557    137809.15   -43153.057    3786.1921   -46939.249    1335.0616    1.0002711 
   93600    274.65068   -179.21877    137719.39   -43208.001    3771.6656   -46979.666    1337.1549    1.0009231 
   93700    272.30291   -21.169159     137833.5    -43208.41    3739.4247   -46947.835    1340.7933    1.0000945 
   93800    278.23148   -10.228147    137863.26   -43089.298    3820.8394   -46910.137     1341.723   0.99987857 
   93900    278.52913   -47.717742    137927.56   -43174.227    3824.9269   -46999.154    1342.3232   0.99941243 
   94000    276.22996   -31.967982    137771.75   -43222.977    3793.3533    -47016.33    1341.7321    1.0005427 
   94100    271.70998    -146.3952    137777.91   -43293.597    3731.2822   -47024.879    1341.8273     1.000498 
   94200    269.26642    100.76644       137630   -43306.398    3697.7258   -47004.123    1342.9351    1.0015732 
   94300    279.98286   -69.284696    137634.83    -43213.69    3844.8903    -47058.58    1344.2958    1.0015381 
   94400    273.01214   -72.543983    137466.85   -43219.581    3749.1643   -46968.745    1344.7784    1.0027618 
   94500    276.95419   -104.03531     137470.5   -43210.796    3803.2989   -47014.095    1345.8482    1.0027352 
   94600    273.17545   -21.603745    137539.02   -43291.529    3751.4069   -47042.936    1348.2849    1.0022357 
   94700    268.42794    168.50864     137541.7   -43252.711    3686.2114   -46938.922    1349.3611    1.0022162 
   94800    276.19443 -0.086761995    137418.17   -43171.683    3792.8654   -46964.549    1349.9939    1.0031171 
   94900    270.09509   -14.097453    137412.76   -43138.797    3709.1057   -46847.903    1351.1993    1.0031566 
   95000    276.40221    146.07871    137415.34   -43111.665    3795.7188   -46907.384    1351.5056    1.0031378 
   95100    275.01461    4.7457933     137460.3     -43112.3    3776.6633   -46888.963    1353.9328    1.0028097 
   95200    278.07867   -179.54479     137424.5   -43119.212    3818.7409   -46937.953    1356.0733    1.0030709 
   95300    275.90733    27.923439    137515.27   -43130.328    3788.9228   -46919.251    1357.9389    1.0024088 
   95400    271.78783    -40.09864    137444.37   -43157.493    3732.3513   -46889.844    1359.5384    1.0029259 
   95500    279.04812   -8.5314855    137386.51   -43154.326    3832.0539    -46986.38    1360.1525    1.0033483 
   95600    276.09195    103.12141    137163.42    -43200.13     3791.458   -46991.588    1360.7417    1.0049802 
   95700    278.07686    70.449594    137304.78     -43202.9    3818.7161   -47021.616    1363.3342    1.0039455 
   95800    273.53244    189.28061     137360.5    -43155.86    3756.3094   -46912.169    1365.7882    1.0035383 
   95900    275.25853    23.276782    137390.56    -43173.18     3780.013   -46953.193    1367.7849    1.0033187 
   96000    279.24459    99.750175    137288.44   -43116.079     3834.752   -46950.831    1368.2577     1.004065 
   96100    275.29522    188.94388    137470.79   -43128.827    3780.5169   -46909.344    1372.7107    1.0027331 
   96200     276.5773    24.913805    137656.02    -43130.33    3798.1232   -46928.453    1374.5754    1.0013838 
   96300     277.8766    9.8359307    137715.78   -43136.524     3815.966    -46952.49     1377.757    1.0009494 
   96400    276.74276   -17.593059    137459.63   -43191.193    3800.3954   -46991.588    1377.4693    1.0028145 
   96500    278.22514    243.35354    137514.41   -43127.083    3820.7524   -46947.835    1379.6367     1.002415 
   96600    275.99153    140.52131    137712.79   -43127.773    3790.0791   -46917.852    1382.5193     1.000971 
   96700    276.82451    137.94503    137949.82   -43125.868     3801.518   -46927.386    1383.5103   0.99925117 
   96800    277.25006   -75.816742    138184.16   -43065.918     3807.362    -46873.28    1386.6282   0.99755659 
   96900    272.52383     18.49767    137978.83   -43078.059    3742.4586   -46820.518    1386.6555   0.99904109 
   97000    276.55877   -95.624338    137841.57   -43112.424    3797.8687   -46910.293     1387.237    1.0000359 
   97100    276.73391   -12.362487    137545.05   -43111.025    3800.2739   -46911.299    1386.6025    1.0021918 
   97200    278.63335   -68.698446    137458.46    -43077.97    3826.3581   -46904.328    1386.2807    1.0028231 
   97300    273.06605    40.838367    137647.63   -43130.476    3749.9046   -46880.381    1389.2018    1.0014449 
   97400     284.0628    -11.61469    137447.54   -43113.277    3900.9185   -47014.196    1388.2638    1.0029028 
   97500    276.36144    76.810409    137360.04   -43154.174    3795.1589   -46949.333    1388.7475    1.0035416 
   97600    275.99556    64.832785    137379.17   -43160.851    3790.1344   -46950.986    1390.1901    1.0034019 
   97700     275.1463   -48.181134    137547.26   -43251.124    3778.4719   -47029.596    1392.9461    1.0021757 
   97800     271.5642    -106.8966     137782.1   -43244.399    3729.2804    -46973.68    1396.2486    1.0004675 
   97900    281.58899    101.76739    137777.01   -43192.279    3866.9466   -47059.226    1397.9514    1.0005045 
   98000    281.30076    49.205131     137834.5    -43089.87    3862.9886   -46952.859    1398.7425    1.0000872 
   98100    274.66514   -24.338344    137509.93   -43153.676    3771.8643    -46925.54     1398.734    1.0024477 
   98200    277.97942   -28.790664     137726.6   -43139.781    3817.3779   -46957.159    1402.4625    1.0008707 
   98300    279.44344    103.30366    137730.16   -43072.206    3837.4827   -46909.689    1404.0724    1.0008448 
   98400    278.38627    46.485019    137802.88   -43037.066    3822.9651   -46860.031    1405.1869    1.0003166 
   98500    278.50584   -118.58086    137671.51   -43102.931    3824.6071   -46927.538    1405.9505    1.0012712 
   98600     275.8789     82.11579    137749.99   -43085.178    3788.5324   -46873.711    1407.9182    1.0007008 
   98700    274.71757   -110.95199    137380.44   -43155.031    3772.5843   -46927.615    1406.2011    1.0033926 
   98800    273.60626    145.28623    137483.11    -43115.42    3757.3231   -46872.743    1409.6726    1.0026433 
   98900     275.4843   -183.98914    137616.42   -43109.898    3783.1135   -46893.012    1413.2255     1.001672 
   99000    279.70401   -107.82427       137640   -43028.571     3841.061   -46869.632    1414.9065    1.0015004 
   99100    269.29584   -91.736751    137495.15   -43134.432    3698.1299   -46832.562     1416.333    1.0025555 
   99200    281.34712    121.66057    137558.01   -43081.947    3863.6251   -46945.572    1418.3833    1.0020974 
   99300    275.85803    7.2267237    137505.99   -43110.054    3788.2458     -46898.3    1419.0183    1.0024764 
   99400    276.32817   -10.404167    137437.96   -43032.515     3794.702   -46827.217    1422.1353    1.0029727 
   99500    275.29915   -42.494456    137493.08   -43063.292    3780.5709   -46843.863    1422.2445    1.0025706 
   99600    272.25678    38.282308    137617.58   -43119.014    3738.7913   -46857.806     1423.979    1.0016636 
   99700    276.50805    180.93426    137695.47   -43090.263    3797.1722   -46887.435    1426.4615     1.001097 
   99800    277.71868   -9.5699546    137588.69   -43145.953    3813.7973    -46959.75    1426.5687    1.0018739 
   99900    280.60306   -74.044676    137545.65   -43173.211    3853.4073   -47026.618    1427.0761    1.0021874 
  100000    279.75948    89.734563    137612.31   -43162.237    3841.8227   -47004.059    1429.4267    1.0017019 
  100100    277.48666    20.253256    137723.31   -43172.539     3810.611    -46983.15    1431.9985    1.0008946 
  100200      277.442   -51.056371    137667.88   -43174.027    3809.9978   -46984.025    1431.0215    1.0012976 
  100300    276.67024   -206.35484    137540.08   -43175.069    3799.3995   -46974.469    1431.4077     1.002228 
  100400    273.45282    116.79324    137607.95   -43195.018     3755.216   -46950.234    1432.6077    1.0017337 
  100500    276.45916   -18.606996    137654.54   -43217.417    3796.5008   -47013.918    1432.9817    1.0013946 
  100600     272.9457    101.64939    137561.41   -43253.527    3748.2519   -47001.779    1433.7386    1.0020726 
  100690    276.41772    43.179553     137858.7   -43183.142    3795.9318   -46979.074    1437.3907   0.99991166 
Loop time of 188.652 on 6 procs for 100000 steps with 4608 atoms

Performance: 228.993 ns/day, 0.105 hours/ns, 530.077 timesteps/s
99.3% CPU use with 6 MPI tasks x no OpenMP threads

MPI task timing breakdown:
Section |  min time  |  avg time  |  max time  |%varavg| %total
---------------------------------------------------------------
Pair    | 167.16     | 168.85     | 170.42     |   8.5 | 89.50
Neigh   | 7.5004     | 7.5776     | 7.6493     |   2.1 |  4.02
Comm    | 7.9878     | 9.4835     | 11.101     |  35.1 |  5.03
Output  | 0.17279    | 0.17355    | 0.17696    |   0.4 |  0.09
Modify  | 1.8507     | 1.9233     | 1.9871     |   3.0 |  1.02
Other   |            | 0.6445     |            |       |  0.34

Nlocal:        768.000 ave         774 max         764 min
Histogram: 2 0 0 1 1 0 0 1 0 1
Nghost:        1686.17 ave        1698 max        1677 min
Histogram: 1 1 2 0 0 0 0 0 0 2
Neighs:        0.00000 ave           0 max           0 min
Histogram: 6 0 0 0 0 0 0 0 0 0
FullNghs:      25792.0 ave       26019 max       25624 min
Histogram: 1 0 0 3 1 0 0 0 0 1

Total # of neighbors = 154752
Ave neighs/atom = 33.583333
Neighbor list builds = 7094
Dangerous builds = 0

undump              1
unfix               2
unfix               3
unfix               4


################################################
#######         Run Simulation         #########
################################################

reset_timestep      0
log                 log.run_${NAME}
log                 log.run_liq_276K_1atm_mW
