
# Define the lattice
#
variable	    lattice_constant equal 6.36339
lattice		    diamond ${lattice_constant}
lattice		    diamond 6.36339
Lattice spacing in x,y,z = 6.3633900 6.3633900 6.3633900

# Define region
# multiples of lattice spacing
#
region 		    simbox block 0 9 0 8 0 8

# Create Atoms
#
create_box          1 simbox
Created orthogonal box = (0.0000000 0.0000000 0.0000000) to (57.270510 50.907120 50.907120)
  3 by 1 by 2 MPI processor grid
create_atoms        1 box
Created 4608 atoms
  create_atoms CPU = 0.000 seconds
mass                1 18.015

# Define potential
#
pair_style          sw
pair_coeff          * * /data/emrosky-sim/Freezing_Simulations/Melting/mW_fancy/mW.sw mW
Reading sw potential file /data/emrosky-sim/Freezing_Simulations/Melting/mW_fancy/mW.sw with DATE: 2019-02-27

# Add velocity/set timestep
#
velocity            all create ${TEMP} 120598 rot yes dist gaussian
velocity            all create 276 120598 rot yes dist gaussian
timestep            5.0

# Define output
#
compute	            1 all msd
thermo              100
thermo_style        custom step temp press vol etotal ke pe c_1[4]

# Neighbor lists
#
neigh_modify        delay 0 every 1 check yes

# Set fixes
#
fix                 1 all momentum 10 linear 1 1 1 rescale
fix                 2 all nve
fix                 3 all temp/csvr ${TEMP} ${TEMP} 500.0 928347
fix                 3 all temp/csvr 276 ${TEMP} 500.0 928347
fix                 3 all temp/csvr 276 276 500.0 928347
fix                 4 all press/berendsen iso ${PRES} ${PRES} 1000.0 modulus 20000
fix                 4 all press/berendsen iso 1 ${PRES} 1000.0 modulus 20000
fix                 4 all press/berendsen iso 1 1 1000.0 modulus 20000

# Run 0.5 ns equilibration
#
dump		    1 all custom 1000 eq.${NAME}.dump id type x y z vx vy vz
dump		    1 all custom 1000 eq.ice_276K_1atm_mW.dump id type x y z vx vy vz
run                 100000
Neighbor list info ...
  update every 1 steps, delay 0 steps, check yes
  max neighbors/atom: 2000, page size: 100000
  master list distance cutoff = 6.3065
  ghost atom cutoff = 6.3065
  binsize = 3.15325, bins = 19 17 17
  1 neighbor lists, perpetual/occasional/extra = 1 0 0
  (1) pair sw, perpetual
      attributes: full, newton on
      pair build: full/bin/atomonly
      stencil: full/bin/3d
      bin: standard
Per MPI rank memory allocation (min/avg/max) = 4.778 | 4.778 | 4.778 Mbytes
Step Temp Press Volume TotEng KinEng PotEng c_1[4] 
       0          276   -4566.2965    148418.52   -52763.327    3790.1954   -56553.522            0 
     100    220.10788   -658.85859    140947.98   -51602.613    3022.6517   -54625.265   0.28690649 
     200    220.69451    -47.04304    140270.32   -50710.797    3030.7076   -53741.505   0.37704573 
     300    228.27397    25.714792    140410.39   -50137.119    3134.7933   -53271.912   0.38910127 
     400    247.09384    5.5362808    140600.39   -49749.081    3393.2388    -53142.32    0.3541266 
     500    262.30238   -5.8821868    140737.87   -49475.147    3602.0916   -53077.239   0.36907021 
     600    265.55058    50.469061    140861.81   -49209.063    3646.6978   -52855.761   0.39171917 
     700    268.01037    44.299183    140887.13   -49137.996    3680.4771   -52818.473   0.33700646 
     800    272.69636   -19.831238    140930.06   -49057.105    3744.8278   -52801.933   0.37281443 
     900    276.07335   -7.4595215    140984.39   -49039.658    3791.2027   -52830.861   0.36922878 
    1000    279.78189    27.728711     140939.9   -49085.395    3842.1305   -52927.526   0.35010752 
    1100    277.11552    6.1437726    140951.08   -49024.455    3805.5143   -52829.969   0.34878714 
    1200    279.59474    60.642135    140978.44   -49026.857    3839.5604   -52866.417   0.35615841 
    1300    273.58566   -26.406419    140984.94   -48937.845    3757.0402   -52694.885   0.38298586 
    1400    276.57054   -26.618558    141003.47   -49031.537    3798.0304   -52829.568   0.33999045 
    1500    271.79488   -35.093234    140942.77    -49062.74    3732.4481   -52795.188   0.37143183 
    1600    279.57451   -1.3554342    140966.71   -49007.303    3839.2826   -52846.586   0.37736853 
    1700    278.15933    32.181754    140967.86   -49029.113    3819.8486   -52848.962   0.34107641 
    1800    271.73913   -8.2893863    140968.49   -49025.353    3731.6826   -52757.036   0.35415611 
    1900     282.3995    26.037361    141008.91   -48931.928    3878.0771   -52810.006   0.37637601 
    2000    280.74115   -28.366984    141026.47   -48886.314    3855.3036   -52741.617   0.36404017 
    2100    275.58967   -40.068889    140987.42   -49046.183    3784.5605   -52830.744   0.34029467 
    2200    286.44328    1.8157817    140983.11   -48988.492    3933.6087   -52922.101   0.36718956 
    2300    280.26497   -1.7762438    140996.15    -48920.88    3848.7645   -52769.645   0.37721779 
    2400    280.32915    8.9691594    140974.02   -48939.037    3849.6458   -52788.682   0.33954084 
    2500    279.93093   -4.3403398     140983.2   -48982.296    3844.1772   -52826.473   0.36661009 
    2600    275.41345   -7.6035782    140974.92   -49010.179    3782.1405    -52792.32    0.3867628 
    2700    271.44016   -15.932384    140970.11   -48990.759     3727.577   -52718.336   0.35076195 
    2800    277.59523   -2.0711684    140995.87   -48891.902     3812.102   -52704.004   0.35508279 
    2900    279.08135   0.87917573    140998.46   -48915.913    3832.5103   -52748.423   0.38750424 
    3000    278.84865    20.694293    140954.51   -48968.848    3829.3148   -52798.163   0.35808554 
    3100    287.69697    14.496744    140980.21   -48945.207     3950.825   -52896.032   0.33890101 
    3200    274.97092   -27.977368    140953.56   -49047.519    3776.0634   -52823.583   0.37712391 
    3300    272.70376    7.0919814    140882.65   -49107.076    3744.9294   -52852.005    0.3753257 
    3400    275.63407   -13.695659     140898.4   -49049.817    3785.1702   -52834.987   0.35161884 
    3500    274.49017   -20.081509     140885.9   -49006.537    3769.4614   -52775.998   0.38001501 
    3600    277.30017   -2.8170632    140907.99   -49013.835    3808.0501   -52821.885   0.37294735 
    3700    274.71792   -13.381814    140910.03   -48974.911    3772.5891     -52747.5   0.35847556 
    3800     277.6732    17.112511    140938.42    -48961.99    3813.1727   -52775.162   0.35466912 
    3900    277.07111  -0.15082954    140916.27   -48966.577    3804.9044   -52771.482    0.3846701 
    4000    279.39064   -6.6109077     140924.6   -49015.123    3836.7576   -52851.881   0.35986663 
    4100    276.27972     16.97948    140892.62    -49029.65    3794.0366   -52823.686   0.34866352 
    4200    271.51242  -0.31052726    140905.56   -48986.359    3728.5693   -52714.928   0.37523597 
    4300    269.73048   -21.472995    140885.05   -49114.053    3704.0987   -52818.152   0.37871037 
    4400    277.83015   -47.529643    140902.18   -49008.415    3815.3281   -52823.743   0.36014705 
    4500    280.05306    30.705676       140926   -49066.675    3845.8544   -52912.529    0.3531427 
    4600     274.0489    20.339999    140901.25   -49100.944    3763.4018   -52864.346   0.38158753 
    4700    278.17978   -8.8038864    140934.51   -49003.517    3820.1294   -52823.647   0.34949092 
    4800    278.33941    12.590117    140980.54    -48910.72    3822.3216   -52733.042   0.35458074 
    4900    276.46154   -5.1507152    141004.87   -48881.251    3796.5335   -52677.784   0.38627675 
    5000    273.74621   -14.634531    141003.55   -49010.735     3759.245    -52769.98   0.35542369 
    5100    280.09751   -13.793253    140953.62   -48934.292    3846.4648   -52780.757   0.35117782 
    5200    275.36759    3.7335678     140962.6   -49005.052    3781.5107   -52786.562   0.37142378 
    5300    278.33367    30.430216    140894.95   -49098.761    3822.2427   -52921.004   0.37395957 
    5400    274.06313     22.21927    140882.43   -49069.857    3763.5972   -52833.454    0.3384626 
    5500    275.88107    5.9541783    140899.82   -49038.103    3788.5621   -52826.665   0.36586801 
    5600    274.23567   -23.943543    140877.22   -49070.969    3765.9666   -52836.936   0.38030803 
    5700    273.03934   -2.6464191    140877.89   -49057.012    3749.5378   -52806.549   0.34509752 
    5800     277.2116    9.9814376    140875.78   -49003.145    3806.8337   -52809.979   0.37018177 
    5900    273.84635    6.7029036    140902.66   -49075.618    3760.6201   -52836.238   0.36964465 
    6000    274.61988    13.097065    140924.41   -49056.576    3771.2427   -52827.818   0.36139911 
    6100    270.59816   -1.2837468     140899.2   -49127.332    3716.0141   -52843.346   0.35015192 
    6200    274.86636    2.8323705    140911.92   -49113.669    3774.6276   -52888.297   0.36716411 
    6300    280.95363    28.815848     140935.5   -48995.518    3858.2216    -52853.74   0.36841126 
    6400    275.31625    11.911557    140954.46    -49048.08    3780.8057   -52828.886   0.34140488 
    6500    275.75969   -2.4650373    140929.67   -49062.739    3786.8953   -52849.634   0.37164336 
    6600    271.23731   -3.2049008    140894.01    -49066.68    3724.7912   -52791.471   0.37153487 
    6700    272.79814    -11.16248     140900.3   -49125.616    3746.2255   -52871.842   0.36053377 
    6800    273.24167    16.827442    140877.99   -49081.384    3752.3164     -52833.7   0.36362351 
    6900    276.75427    15.905607    140909.83   -49001.656    3800.5534   -52802.209   0.36554062 
    7000    275.70455   -12.389973    140908.03   -48999.896    3786.1381   -52786.034   0.37539805 
    7100    277.15042    35.104981    140937.51   -49011.635    3805.9937   -52817.629   0.34532025 
    7200    276.33918   -29.312431    140916.64   -49121.176    3794.8532   -52916.029   0.37574335 
    7300    271.47343   -22.005567    140861.23   -49165.735    3728.0338   -52893.769   0.37664638 
    7400    272.71585     20.44475    140921.75   -49059.933    3745.0955   -52805.029   0.34899658 
    7500    278.94946    20.588609     140908.9   -48992.165    3830.6991   -52822.865   0.37609945 
    7600    279.05777     29.42858    140889.22   -48963.244    3832.1865    -52795.43   0.38674585 
    7700    273.63225   -7.2426132    140892.19   -49056.977      3757.68   -52814.657   0.36136633 
    7800    276.02613    11.211892    140859.61   -49106.813    3790.5542   -52897.367   0.36105781 
    7900     276.1974    10.194879    140866.82   -49055.336    3792.9061   -52848.242   0.37712595 
    8000    280.55641     29.02846    140915.07   -48964.419    3852.7667   -52817.185    0.3657992 
    8100    281.43912   -2.8978644    140949.63   -48934.425    3864.8886   -52799.313   0.35197054 
    8200    281.95433   -22.564691    140937.76   -48956.509    3871.9637   -52828.473   0.37502383 
    8300    279.17717   -17.815125    140928.51     -48914.9    3833.8262   -52748.726   0.38106253 
    8400    281.13736   -8.8164522    140935.55   -48890.104    3860.7447   -52750.848   0.35808912 
    8500    276.91249   -42.157027    140896.71   -48970.907    3802.7262   -52773.633   0.37390414 
    8600    277.29909   -7.0386523    140940.07   -48990.333    3808.0352   -52798.368    0.3689304 
    8700    279.66787    10.780021     140928.2   -48960.488    3840.5647   -52801.053   0.35780347 
    8800     275.9343   -4.7297916    140912.13   -48996.999    3789.2931   -52786.292   0.36112361 
    8900    277.33429    6.9906037    140904.19   -49066.641    3808.5186    -52875.16   0.37284441 
    9000    273.40664   -10.356393    140889.77   -48990.772    3754.5819   -52745.354   0.36910938 
    9100    275.48126    -13.48142    140896.65    -49044.42    3783.0717   -52827.492   0.34878198 
    9200     277.9337    9.5292501    140876.81   -48936.298    3816.7501   -52753.048   0.37460808 
    9300    270.27316   -16.634549    140893.74   -49074.855     3711.551   -52786.406   0.38004399 
    9400    272.72111    -1.935586    140867.68    -49048.07    3745.1677   -52793.238   0.35123699 
    9500    272.69074   -3.8291603    140902.63   -49093.047    3744.7506   -52837.797   0.36656144 
    9600    275.62218   -13.078453    140884.43   -49080.972    3785.0069   -52865.979   0.37870433 
    9700    276.11559   -4.5764484    140893.84   -48962.603    3791.7828   -52754.386   0.36089977 
    9800    277.29859    22.239007    140950.64   -48919.161    3808.0284    -52727.19   0.36496101 
    9900    275.81452    21.641025    140936.91   -48944.903    3787.6482   -52732.551   0.37902683 
   10000    274.58214   -4.3321825    140923.46   -48998.707    3770.7245   -52769.431   0.36259611 
   10100    281.24293     36.27594     140945.5   -48953.725    3862.1944   -52815.919    0.3484148 
   10200    275.78782     5.090739    140981.23   -48931.973    3787.2816   -52719.254   0.36890529 
   10300    276.52748   -13.211314    140977.51   -48922.232     3797.439   -52719.671   0.36987512 
   10400    277.67194   -31.355539    140996.39   -48937.427    3813.1554   -52750.582   0.34551309 
   10500    275.91904    25.186861     140951.5   -48973.072    3789.0836   -52762.155   0.37539087 
   10600    273.00522   -25.400135    140932.98   -48999.077    3749.0692   -52748.146    0.3745767 
   10700    275.98919    15.813472    140910.76    -49024.21    3790.0469   -52814.257   0.35091763 
   10800    270.83156   -30.619317    140882.63   -49150.018    3719.2192   -52869.237   0.37173501 
   10900    276.57652    16.320054    140870.45   -49134.226    3798.1125   -52932.339    0.3628783 
   11000    270.41605   -36.285229    140869.85   -49147.358    3713.5133   -52860.871   0.37314173 
   11100    272.59037   -6.4900895    140872.41   -49051.225    3743.3722   -52794.597   0.36252752 
   11200    269.69753   -26.023074    140869.76   -49156.252    3703.6461   -52859.898   0.37177609 
   11300    275.52019    17.617613    140855.36   -49070.902    3783.6063   -52854.508   0.38253533 
   11400    276.19382    24.713738    140864.54    -49046.94     3792.857   -52839.797   0.34918115 
   11500    276.46475  -0.33149216    140899.92   -48954.715    3796.5776   -52751.293   0.37269473 
   11600    275.59374   -34.032989    140933.87   -48953.075    3784.6164   -52737.692   0.37773769 
   11700     281.0225    11.806901    140987.64   -48836.222    3859.1673   -52695.389   0.35871454 
   11800    281.84513    14.021521    140999.51   -48905.182    3870.4641   -52775.646   0.35435658 
   11900    282.11656  -0.75294861    140980.28   -48950.688    3874.1916   -52824.879   0.36719689 
   12000    272.71452   -22.774839    140961.21   -48910.374    3745.0773   -52655.451   0.37488072 
   12100    280.44047    -5.706105    140949.69   -48967.779    3851.1745   -52818.954    0.3436094 
   12200    276.69601    6.8080303    140953.58   -48971.541    3799.7533   -52771.295   0.37727947 
   12300    278.95426  -0.30063094    140918.57   -49020.176     3830.765   -52850.941   0.37917269 
   12400    270.43372   -6.1809842    140901.08   -49014.144    3713.7559     -52727.9   0.34676296 
   12500    277.58523   -10.407699    140903.49   -48942.999    3811.9647   -52754.963   0.38080341 
   12600    281.66246    3.0077188    140913.72   -48908.436    3867.9557   -52776.391   0.38472592 
   12700    277.00585   -70.291904    140930.77   -48991.876    3804.0083   -52795.884    0.3525223 
   12800    279.16797    11.948287    140930.08   -48969.374    3833.6998   -52803.074   0.36220151 
   12900    276.06603    5.6025405    140953.69   -49033.298    3791.1022     -52824.4   0.37795254 
   13000    274.11764   -6.9412346    140945.74   -49002.588    3764.3456   -52766.933   0.35882153 
   13100    274.21722   -20.529528    140909.06   -49079.705    3765.7132   -52845.418   0.35193183 
   13200    270.51868    30.103908    140872.08   -49107.658    3714.9226   -52822.581   0.38425374 
   13300      270.896   -30.464422    140834.66   -49185.053    3720.1042   -52905.157   0.37080316 
   13400    272.72678    8.7785672    140847.93   -49172.742    3745.2456   -52917.988   0.35256446 
   13500    271.82896    29.184454    140883.33   -49080.007    3732.9162   -52812.924   0.37500647 
   13600    275.58044   -10.177538    140921.17   -49035.733    3784.4337   -52820.167   0.37144989 
   13700    279.50677    36.856516    140899.46   -49061.976    3838.3525   -52900.328   0.35076433 
   13800    275.76539   -9.0218692    140943.04   -49016.727    3786.9736     -52803.7   0.36765467 
   13900    279.81128    38.663759    140929.78   -49004.024    3842.5341   -52846.558   0.37212271 
   14000     279.1045    18.545423    140973.34   -48902.888    3832.8282   -52735.717   0.36707146 
   14100    276.63606   -7.1059004    140953.08   -48990.414    3798.9302   -52789.344   0.35705033 
   14200    275.15783    4.5981218    140939.02   -48993.379    3778.6302   -52772.009   0.36941286 
   14300    276.49878   -29.970197    140945.87   -49032.811     3797.045   -52829.855   0.37245202 
   14400    270.90678   -30.694298    140885.18   -49076.832    3720.2522   -52797.084   0.35656108 
   14500    268.87537    32.100867    140867.59   -49092.638    3692.3557   -52784.994   0.36615985 
   14600    275.15604    17.861721    140875.67   -49047.684    3778.6056    -52826.29   0.38384029 
   14700    280.92114    21.722302    140885.67   -48996.982    3857.7753   -52854.757   0.36122214 
   14800    270.54625   -34.166206    140911.64    -48972.28    3715.3013   -52687.582   0.36085621 
   14900    272.96293   -30.639268     140903.3   -48984.182    3748.4885   -52732.671   0.38189047 
   15000    274.14967   -42.197142    140894.28    -49049.14    3764.7855   -52813.926   0.37600062 
   15100     276.7661   -16.657698    140872.57   -49060.989    3800.7159   -52861.705   0.35097952 
   15200    276.03657    19.541014    140887.59   -48991.805    3790.6976   -52782.502   0.37594353 
   15300    271.46322  -0.15238217    140877.34   -49074.531    3727.8935   -52802.425   0.38136064 
   15400    276.87977    1.7340071    140844.72   -49067.662    3802.2769   -52869.938   0.34646026 
   15500    279.28033    22.671847    140868.39   -49008.325    3835.2427   -52843.568   0.37564296 
   15600    282.22228    14.918911     140913.7   -48885.766    3875.6435    -52761.41   0.38622294 
   15700    278.02216    9.8214505    140893.34   -48896.449    3817.9648   -52714.414   0.35894753 
   15800    276.25058   -13.732478    140881.29   -48902.116    3793.6365   -52695.752   0.38517057 
   15900    278.11967    37.465145    140910.13   -48925.036    3819.3039    -52744.34   0.38631024 
   16000    275.54084    13.294981    140891.22   -48967.972    3783.8899   -52751.862   0.36495893 
   16100     279.4154    31.414671    140870.49   -48998.024    3837.0977   -52835.122   0.35721715 
   16200     272.8288   -23.185253    140854.93   -49008.248    3746.6466   -52754.895   0.39164506 
   16300    275.54211   -40.637652     140862.4    -49031.93    3783.9074   -52815.837   0.37006451 
   16400    275.79199   -23.539613    140858.33   -49038.122    3787.3388   -52825.461   0.35802379 
   16500    279.10054    6.7497542    140883.43   -48956.722    3832.7738   -52789.496   0.38790847 
   16600    282.61263    18.012721    140911.25   -48887.004    3881.0039   -52768.008   0.37212221 
   16700    279.72073   -6.8642956    140902.15   -48932.713    3841.2906   -52774.003    0.3700195 
   16800    273.85722   -11.663831    140899.08   -48982.701    3760.7695    -52743.47    0.3746816 
   16900    276.06753    37.509604    140903.79   -49006.789    3791.1228   -52797.912   0.37150435 
   17000    275.52504    6.0793977    140882.99   -49051.002    3783.6729   -52834.675   0.37090821 
   17100    272.93109   -36.782688     140904.7   -49000.938    3748.0512   -52748.989   0.35745692 
   17200    275.12317   -3.5658823    140889.59   -49065.474    3778.1543   -52843.629   0.37068053 
   17300    272.67081    1.5109313    140871.63   -49155.562    3744.4769   -52900.039   0.36886634 
   17400     269.6519    6.3170901    140843.49   -49148.882    3703.0194   -52851.902   0.35725869 
   17500    274.93604  -0.27420146    140863.12   -49049.786    3775.5845    -52825.37   0.37123407 
   17600    273.42902   -16.671354    140890.51   -49064.111    3754.8891   -52819.001   0.38081916 
   17700    275.31707    41.935309    140871.05   -49116.029    3780.8169   -52896.846   0.35513225 
   17800    276.41765    16.719241    140876.66    -49072.93    3795.9307    -52868.86   0.35369276 
   17900    277.56886     4.333499    140904.28   -49018.108    3811.7399   -52829.848   0.39174073 
   18000    281.32567    21.429956    140930.52    -48935.21    3863.3306   -52798.541   0.35993161 
   18100    282.69025    17.623995    140963.01   -48936.162    3882.0699   -52818.232   0.33997683 
   18200    276.41744   -12.291651    140941.21   -48984.589    3795.9279   -52780.517   0.39120833 
   18300    278.77857   -11.903533    140944.79   -48991.803    3828.3523   -52820.155   0.36664352 
   18400    270.85573     24.43517    140962.44   -49090.121    3719.5512   -52809.672   0.33801865 
   18500    274.01985   -2.0800028    140946.22    -49028.22    3763.0028   -52791.222   0.37536006 
   18600    275.66735   -13.688242    140951.93   -48981.689    3785.6272   -52767.317   0.38276078 
   18700    275.69271     19.26226    140915.51   -48992.831    3785.9755   -52778.807   0.35452223 
   18800    276.29314    7.3570796    140911.24   -49007.618    3794.2209   -52801.838    0.3690945 
   18900    274.28437   -13.921595     140916.9   -48971.299    3766.6353   -52737.935   0.38550524 
   19000     276.2758   -16.159031    140926.35   -49002.509    3793.9828   -52796.492   0.35676865 
   19100    281.77423    24.951021    140941.92   -48911.185    3869.4905   -52780.676    0.3610735 
   19200    280.77693    19.971665    140941.69   -48941.862    3855.7951   -52797.657   0.38284427 
   19300    278.91694    41.896323    140984.86   -48833.048    3830.2524     -52663.3   0.36100989 
   19400    282.63239   -4.8388801    140971.74   -48901.774    3881.2753   -52783.049   0.35369594 
   19500    278.83699    3.3077797    140991.87   -48902.968    3829.1546   -52732.123   0.37208566 
   19600    284.63598   -8.6722519    140971.71   -48889.517    3908.7898   -52798.307   0.37451124 
   19700    276.20342   -27.726278    140975.58   -48939.651    3792.9888    -52732.64   0.36221288 
   19800    279.70105    58.853259    140991.51   -48897.443    3841.0203   -52738.463   0.35374599 
   19900    276.43127    32.055648    140962.44   -48979.177    3796.1179   -52775.295   0.38180078 
   20000    274.52808   -32.733889    140914.47     -48997.6    3769.9821   -52767.582   0.36723475 
   20100    273.06822   -43.476184    140878.43   -49041.147    3749.9344   -52791.082   0.35883998 
   20200    272.13336    -4.282439    140867.29   -49013.172    3737.0963   -52750.269   0.38569401 
   20300    277.20629    53.650591    140885.67   -48978.057    3806.7609   -52784.818   0.37463988 
   20400    277.04164    22.656264    140870.19   -49036.746    3804.4998   -52841.245   0.35398261 
   20500    275.36832   -8.4363244    140858.51    -49075.23    3781.5207   -52856.751   0.37761248 
   20600    274.36694    -21.30307    140842.03   -49096.899    3767.7692   -52864.669    0.3891116 
   20700     273.7461   -3.3202135    140844.54   -49038.999    3759.2435   -52798.242   0.35908067 
   20800    281.26662    42.767371    140889.92   -48904.282    3862.5198   -52766.802   0.37236107 
   20900    276.45108    5.5663954    140890.95   -49000.002    3796.3899   -52796.392   0.39618101 
   21000    274.02993   -3.0530007    140858.41   -49011.604    3763.1412   -52774.745   0.36776963 
   21100    277.14019    7.8378928    140885.53   -48903.746    3805.8531   -52709.599    0.3684998 
   21200    277.54631    29.892716    140909.93   -48919.243    3811.4303   -52730.674   0.39238886 
   21300    278.75023    3.4901074    140907.27   -48913.351    3827.9632   -52741.315   0.37360212 
   21400    280.75065    33.245118    140890.16   -48950.633    3855.4341   -52806.067   0.36156944 
   21500    277.00395    22.185605    140904.44   -48863.322    3803.9822   -52667.305   0.38909094 
   21600    283.70588    7.6707584    140918.85   -48866.034    3896.0171   -52762.051   0.38104836 
   21700    275.01498   -5.6867726    140923.48    -48998.18    3776.6685   -52774.849   0.36084548 
   21800    275.66828  -0.36300306    140879.13   -49030.246    3785.6399   -52815.886   0.37237182 
   21900    274.65358    4.5999289    140909.72   -49009.503    3771.7056   -52781.208   0.38002318 
   22000    275.21273    11.353886    140907.73   -49041.456    3779.3841    -52820.84    0.3650014 
   22100    274.90406   -21.724846     140882.3   -49079.887    3775.1453   -52855.032   0.35831754 
   22200    268.77187   -32.677091    140837.78   -49156.349    3690.9344   -52847.283   0.38007668 
   22300    280.00678    71.743966    140881.83   -49053.168    3845.2189   -52898.387   0.36894542 
   22400    278.55859   -24.637802     140918.8   -49005.146    3825.3315   -52830.477   0.36074851 
   22500    275.49688    14.367982    140925.78   -48959.224    3783.2862    -52742.51   0.37193113 
   22600     274.8907   -7.0584456    140893.68   -48992.189    3774.9618   -52767.151   0.38566949 
   22700     273.5636   -5.7510817    140853.45   -49048.584    3756.7372   -52805.321   0.36700507 
   22800    275.04274    3.0036133    140902.09   -48974.816    3777.0497   -52751.865   0.36230111 
   22900    278.77444    18.288586    140892.04   -49015.735    3828.2956   -52844.031   0.38404499 
   23000    275.91624    24.872388    140864.39   -49079.671    3789.0451   -52868.716   0.36397505 
   23100    275.71708    20.812673    140860.83   -49017.977    3786.3102   -52804.287   0.35959363 
   23200    276.61326    67.336795    140886.72    -48972.06     3798.617   -52770.677   0.38377151 
   23300    274.46688   -7.7783959    140917.77   -48968.254    3769.1416   -52737.395    0.3740095 
   23400    279.63392    3.3172336    140933.86   -49013.585    3840.0985   -52853.683   0.34651561 
   23500    275.77424    9.1074315     140921.6     -48902.5    3787.0951   -52689.595   0.38815761 
   23600    277.43546   -21.411993    140951.34   -48927.036     3809.908   -52736.944   0.37730918 
   23700    280.00266    19.151842    140959.98   -48919.667    3845.1622   -52764.829   0.34643954 
   23800    276.35152   -19.810441    140933.58   -48922.922    3795.0227   -52717.944   0.37225846 
   23900    277.76222    13.228847    140916.54    -49016.91    3814.3952   -52831.305   0.37368844 
   24000    279.31062    2.1454849    140927.01   -48960.068    3835.6588   -52795.727   0.35892229 
   24100    276.45915     34.81699    140937.65   -48891.182    3796.5007   -52687.683    0.3687562 
   24200    276.35128   -12.759051    140917.07   -49013.426    3795.0194   -52808.445   0.37686758 
   24300    276.63524   -31.557327     140895.1    -49056.61    3798.9189   -52855.528   0.36163167 
   24400    274.15464   -12.081549    140894.77   -49082.427    3764.8538   -52847.281   0.36416707 
   24500     279.8282    7.2515275    140908.06   -49037.159    3842.7665   -52879.926   0.36408836 
   24600    273.24683   -16.326625    140913.94   -49082.631    3752.3873   -52835.018   0.36635823 
   24700    275.47934    21.861653    140893.04   -49082.471    3783.0453   -52865.516   0.36383966 
   24800    272.08915      25.5142    140904.04   -49030.524    3736.4893   -52767.014    0.3584588 
   24900    277.43393    9.1013884     140886.9   -49084.248    3809.8869   -52894.135   0.37609828 
   25000    277.62755   -51.182143    140871.21   -49070.189    3812.5459   -52882.735   0.37621329 
   25100    270.76744   -34.151498    140868.03   -49123.624    3718.3387   -52841.962   0.35911599 
   25200    267.02793    20.705918       140850   -49246.266    3666.9856   -52913.252   0.37014086 
   25300    271.52846   -14.378208    140880.88    -49094.66    3728.7896    -52823.45   0.37569782 
   25400     269.0268   -2.9569233    140902.02   -49133.513    3694.4353   -52827.948   0.34927367 
   25500    271.78247     7.431156    140917.16   -49025.724    3732.2777   -52758.002   0.36669059 
   25600    279.97958    20.826616    140962.41    -48947.75    3844.8454   -52792.595   0.38484554 
   25700    275.89035   -6.9591688    140972.63   -49034.004    3788.6896   -52822.694   0.34179562 
   25800     278.8375    24.977778    140979.18   -48895.571    3829.1616   -52724.732   0.36441258 
   25900    278.87664   -26.571991    141007.48   -48920.364    3829.6991   -52750.063   0.39063451 
   26000    277.29523     4.252485    140980.99   -48959.797    3807.9822    -52767.78   0.35279607 
   26100    278.37928    14.050513    140992.67   -48942.775    3822.8691   -52765.644    0.3589331 
   26200    275.12199   -12.159809    140946.47    -49048.21     3778.138   -52826.348   0.38900162 
   26300    273.64841   -9.0172167     140943.5   -49007.207    3757.9019   -52765.109   0.35558959 
   26400    273.55889   -7.6781167    140926.63   -49067.655    3756.6726   -52824.328   0.35745178 
   26500    274.46574    15.731225    140948.07   -48982.579     3769.126   -52751.705   0.38640541 
   26600    277.66446    19.391223    140953.23    -48931.84    3813.0527   -52744.893   0.36364384 
   26700    276.76308   -9.7344944    140964.66    -48929.88    3800.6745   -52730.555   0.35777394 
   26800    275.69314   -20.180466    140971.65   -48976.865    3785.9814   -52762.846   0.36904882 
   26900    279.64822   -3.9736352    141007.93   -48929.896    3840.2948   -52770.191   0.37126592 
   27000    277.28675    13.549185    141007.49   -48958.495    3807.8657   -52766.361    0.3580898 
   27100    278.65551   -14.252163    140989.68   -48907.151    3826.6624   -52733.814    0.3578412 
   27200    275.25002    38.980761    140965.99   -48971.384    3779.8961    -52751.28   0.36478671 
   27300    281.76545    27.429476    141002.36   -48813.752    3869.3699   -52683.122   0.36769952 
   27400    280.26651   -8.7289489     141006.4   -48930.658    3848.7856   -52779.443    0.3525187 
   27500    277.28593   -16.069222    140965.96   -49031.336    3807.8545    -52839.19   0.36484206 
   27600    275.85049   -2.1219781    140897.34   -49079.378    3788.1422    -52867.52   0.37986722 
   27700    281.88715   -5.2844445    140930.16   -48980.707    3871.0412   -52851.748   0.35364816 
   27800     275.0911   -31.244564    140927.38   -48958.181    3777.7139   -52735.895   0.36193522 
   27900    276.35707   -8.3931975    140883.27    -49016.42    3795.0989   -52811.519   0.38716738 
   28000    277.16216     12.14751    140845.38   -49080.241    3806.1548   -52886.396   0.36386706 
   28100    274.91471   -11.762014     140864.3   -49061.627    3775.2916   -52836.918   0.35146369 
   28200    272.59094    13.882346    140891.18   -49027.873    3743.3801   -52771.254   0.39322833 
   28300    273.99043    9.2683283    140885.47   -49049.416    3762.5987   -52812.015   0.37293319 
   28400    277.69311    29.207987    140914.01    -48986.86    3813.4461   -52800.306   0.34685458 
   28500    274.63412   -22.374846    140884.33   -49015.267    3771.4383   -52786.705   0.39091343 
   28600    272.96436    18.911779    140865.85   -49016.096    3748.5081   -52764.604   0.37775263 
   28700    276.43234    35.658383     140844.9   -49012.393    3796.1325   -52808.526   0.35747664 
   28800    272.17534   -5.8191008    140846.55   -49056.476    3737.6729   -52794.149   0.38419398 
   28900    278.52778    25.655836    140900.08    -49033.33    3824.9083   -52858.239   0.37419666 
   29000    278.58405    18.690952    140915.38   -48980.404    3825.6811   -52806.085   0.35532313 
   29100     277.1298    5.2362877    140933.93   -48975.458    3805.7104   -52781.169   0.37183986 
   29200    279.39023    2.2457818     140938.9    -48909.25    3836.7521   -52746.002   0.37610026 
   29300    277.37492    2.2509635    140936.59   -48915.956    3809.0766   -52725.033   0.36429366 
   29400    279.48474   -15.007969     140945.3   -48933.781    3838.0499   -52771.831   0.37171871 
   29500    276.39178    24.249107    140919.73   -48969.639    3795.5755   -52765.214   0.36844665 
   29600    273.26803    14.906013    140911.05   -48941.018    3752.6783   -52693.696   0.37474729 
   29700    276.37572    29.439441    140900.65   -49015.974     3795.355   -52811.329   0.36449568 
   29800    272.42449    3.3867845    140877.49   -49104.176    3741.0944    -52845.27    0.3632166 
   29900    277.06379   -32.054783     140874.1   -49085.093    3804.8039   -52889.897   0.37326706 
   30000    275.87088    30.095536     140870.7   -49055.229    3788.4223   -52843.652   0.36932721 
   30100     273.5041   -30.702227    140879.87   -49020.721    3755.9201   -52776.641   0.36361938 
   30200     278.4053    35.908451    140905.89   -49028.655    3823.2264   -52851.881   0.37086786 
   30300    281.40457   -13.007638     140916.6   -49024.172    3864.4141   -52888.586   0.36547431 
   30400    273.90284   -31.819962    140911.48    -49053.94     3761.396   -52815.336   0.35558019 
   30500     270.3132   -29.767138    140885.26    -49150.21    3712.1009   -52862.311   0.37099222 
   30600    277.02671    40.771625    140915.99   -49034.645    3804.2947    -52838.94   0.36971841 
   30700    273.60794   -3.4037608    140932.07   -49071.534    3757.3462    -52828.88   0.35180846 
   30800    280.11568    30.968469    140960.37   -48999.763    3846.7143   -52846.478   0.35582243 
   30900    275.07731   -15.745328    140983.37   -48981.105    3777.5244   -52758.629   0.37605118 
   31000    272.84073    4.7955757    140962.62    -49012.18    3746.8105    -52758.99      0.35336 
   31100    273.00813   -39.603726    140946.83   -49020.092    3749.1092   -52769.201   0.36302962 
   31200    275.99377   -15.794708    140946.34   -48970.584    3790.1098   -52760.693   0.37655567 
   31300    284.54602     22.05369    140952.96    -48902.02    3907.5544   -52809.574   0.35605184 
   31400    278.82956   -31.780621    140944.61   -49018.792    3829.0526   -52847.844   0.35757669 
   31500    280.21656    9.8529643    140938.36   -48971.848    3848.0997   -52819.948   0.37216829 
   31600    277.14969    19.640146    140924.45   -48992.788    3805.9836   -52798.772   0.36588295 
   31700    277.42533   0.61436789    140920.91   -48962.071    3809.7688    -52771.84      0.36084 
   31800    281.02601   -3.4221653    140963.84   -49020.772    3859.2155   -52879.988   0.36560076 
   31900    273.49991   -32.958623       140903   -49009.416    3755.8627   -52765.278   0.38074586 
   32000    277.56848    24.889521    140907.32   -48963.808    3811.7346   -52775.542   0.36518231 
   32100    278.92503    39.445189    140897.51   -49001.757    3830.3635    -52832.12   0.36904439 
   32200    269.94749   -24.398184    140880.55   -49119.916    3707.0787   -52826.995    0.3722466 
   32300    272.15454    11.054204    140848.14   -49059.624    3737.3873   -52797.011   0.37638095 
   32400    269.89262   -6.0509549    140836.18   -49150.265    3706.3252    -52856.59   0.36415847 
   32500    277.35204    57.063232     140889.1   -49013.152    3808.7623   -52821.914   0.35949896 
   32600    279.47316   -19.742863    140912.03   -48969.513    3837.8909   -52807.404   0.38063981 
   32700    274.48605     9.834569    140908.57   -49061.616    3769.4049    -52831.02   0.35862199 
   32800    278.12108    37.459328    140918.01   -48938.378    3819.3233   -52757.702   0.35787777 
   32900    274.96785    -15.36035    140915.06   -49000.924    3776.0213   -52776.945   0.38487196 
   33000    276.01797    17.404331    140875.55   -48987.153    3790.4422   -52777.595   0.37017809 
   33100    279.90424   -8.2736947    140879.24   -49020.538    3843.8107   -52864.349    0.3539465 
   33200    278.57985     9.240737    140907.15   -49000.165    3825.6234   -52825.789    0.3851444 
   33300    280.52568    2.1211257    140945.81   -49002.074    3852.3447   -52854.418   0.36522891 
   33400    284.23097   -19.846643    140922.53   -49022.331    3903.2279   -52925.559   0.35248009 
   33500    276.62763    20.885556    140921.39   -49044.758    3798.8144   -52843.572   0.37174818 
   33600    274.42331    14.072075    140916.69   -49059.672    3768.5433   -52828.215   0.37698222 
   33700    276.26597    18.214522    140940.74   -48961.874    3793.8479   -52755.722    0.3566702 
   33800    278.24166   -15.739306    140962.23   -48859.254    3820.9792   -52680.234   0.37005522 
   33900    283.90119   -12.573203    140967.99    -48886.35    3898.6992   -52785.049   0.38144535 
   34000    273.97756   -14.534953    140952.72   -49024.292    3762.4221   -52786.714   0.34394654 
   34100    277.09468   -19.363467    140915.53   -49037.756    3805.2281   -52842.984   0.36691464 
   34200    270.13766    44.500607    140921.66   -49039.398    3709.6902   -52749.088   0.37430657 
   34300    277.20315    -48.60768    140901.55   -49074.915    3806.7177   -52881.633   0.35486696 
   34400    281.21503     32.29185     140887.3   -49002.555    3861.8112   -52864.366   0.36941891 
   34500    279.10572     6.840488    140933.49   -48928.938     3832.845   -52761.783   0.37127745 
   34600     278.3814    25.101036    140963.56   -48929.515    3822.8982   -52752.414   0.36816879 
   34700    273.26494   -19.669756    140899.45   -49038.068    3752.6359   -52790.704   0.37760196 
   34800    272.82075   -31.897447    140864.16   -49024.038    3746.5361   -52770.574    0.3703412 
   34900    277.92555    18.696464    140870.76   -49010.078    3816.6382   -52826.716   0.36802944 
   35000    277.82614    22.248379    140879.56   -48985.666     3815.273   -52800.939   0.37152412 
   35100    277.25351    7.8455485     140893.3   -49001.499    3807.4093   -52808.909    0.3527349 
   35200    275.76761    32.668857    140919.75    -48943.89     3787.004   -52730.894   0.36676847 
   35300    278.10903    11.945982    140928.33   -49019.783    3819.1579   -52838.941   0.38149021 
   35400    276.03754    -21.23283    140937.62   -49026.046    3790.7109   -52816.757    0.3541939 
   35500    278.05267    -7.902789       140942   -49016.638    3818.3839   -52835.022   0.36026393 
   35600    275.47952   -22.049076    140941.91   -48989.703    3783.0478   -52772.751   0.38644563 
   35700    273.28779    3.2669879    140929.91   -49000.263    3752.9497   -52753.213   0.35763054 
   35800    282.12093    19.547729    140943.41   -48841.471    3874.2516   -52715.722   0.35165658 
   35900    280.97452   -18.468343    140938.13   -48954.683    3858.5084   -52813.192   0.38843882 
   36000    280.38637    44.325411    140916.72   -48998.234    3850.4316   -52848.665   0.36159238 
   36100    277.24894  -0.39807106    140908.39   -49049.275    3807.3465   -52856.621   0.34240004 
   36200    273.70278     4.592093    140916.32   -49082.263    3758.6486   -52840.911   0.39084993 
   36300    279.56563    -16.34722    140929.37   -49016.253    3839.1607   -52855.413   0.36426979 
   36400    272.70214   -20.606259    140932.21   -49068.978    3744.9072   -52813.885   0.34517906 
   36500    274.57103    1.6766702    140914.27   -49042.083    3770.5719   -52812.655   0.38231502 
   36600    270.32073   -25.560655    140920.04   -49044.385    3712.2042   -52756.589   0.37196331 
   36700    270.06447   -16.262173    140917.79   -49082.065    3708.6852   -52790.751   0.35075881 
   36800    266.29445   -1.4217144    140897.52   -49151.361     3656.913   -52808.274   0.37198164 
   36900    269.24101   -10.829676    140891.06   -49074.444    3697.3769   -52771.821   0.36884113 
   37000    275.23145   -19.950993    140896.16   -49057.991    3779.6412   -52837.633   0.35796693 
   37100    276.58303    16.913206    140884.62   -49106.085    3798.2019   -52904.287    0.3638036 
   37200    278.16226    34.956261       140879    -49106.47    3819.8888   -52926.359   0.36018933 
   37300    269.43127   -31.728622    140863.33    -49098.74    3699.9897    -52798.73   0.36868664 
   37400    272.86437    42.484827    140913.07   -49114.819     3747.135   -52861.954   0.36250539 
   37500    272.80554   -15.968724    140931.12   -49085.466    3746.3271   -52831.793   0.35713488 
   37600    272.79207    18.767962    140909.68   -49130.623    3746.1422   -52876.765   0.35886479 
   37700    264.55295   -5.4984046    140869.88   -49205.601    3632.9976   -52838.599   0.37097704 
   37800     268.7821    5.4428621    140851.43   -49225.677    3691.0748   -52916.751   0.35418088 
   37900    274.23608    20.483995    140881.12   -49138.003    3765.9722   -52903.975   0.36270657 
   38000    272.12677    48.417746    140911.94   -49074.467    3737.0059   -52811.473   0.38034794 
   38100    273.61782    10.497132    140912.42    -49011.37    3757.4818   -52768.852   0.34974809 
   38200    278.28703   -10.710427    140938.39   -48979.549    3821.6022   -52801.151   0.36647401 
   38300     273.1261   -2.4583872    140954.38   -49027.237    3750.7293   -52777.966   0.38073608 
   38400    279.11464    23.162648    140944.38   -48966.074    3832.9674   -52799.042    0.3447309 
   38500    271.93281   -12.304877    140941.85   -49027.562    3734.3423   -52761.904   0.36100464 
   38600    277.48794    13.938566    140947.85   -48989.968    3810.6286   -52800.596   0.37896574 
   38700    276.76237    30.506904     140961.4   -48955.908    3800.6646   -52756.573    0.3493571 
   38800    273.41092    3.3524584       140950   -48988.991    3754.6406   -52743.631   0.35747845 
   38900    275.97652    8.1327396    140991.51   -48935.808    3789.8729   -52725.681   0.37943167 
   39000    278.54681   -17.228854    140950.85   -48989.201    3825.1696   -52814.371   0.35557847 
   39100    274.97738    12.768351     140913.3   -49010.487    3776.1522   -52786.639   0.35332133 
   39200    273.59515   -45.769056    140888.66   -49136.685    3757.1706   -52893.856   0.37660212 
   39300     272.3318   -50.462075    140815.41   -49141.226    3739.8214   -52881.047   0.37104478 
   39400     274.8676    22.915674    140865.18   -49015.608    3774.6446   -52790.252   0.35846153 
   39500    273.00362    25.984443    140869.39   -48998.384    3749.0473   -52747.432   0.37722489 
   39600    273.49111    35.357183    140900.08   -48997.739    3755.7418    -52753.48   0.36995837 
   39700    275.03302    22.745552     140919.9   -48983.473    3776.9162    -52760.39   0.36430328 
   39800    277.48559    21.406227    140915.26   -49001.935    3810.5964   -52812.531   0.36945186 
   39900    279.26855    22.244847    140927.06   -48966.881    3835.0811   -52801.962   0.36073329 
   40000     275.0227    8.6796028    140946.23   -49040.561    3776.7745   -52817.335   0.36771953 
   40100    275.33583   -45.449737    140939.34   -49051.284    3781.0745   -52832.359   0.36178623 
   40200    275.57159   -2.6480036    140942.84   -49026.966    3784.3122   -52811.278   0.35184146 
   40300    275.84761   -4.7877088     140934.6   -49033.804    3788.1027   -52821.907   0.36969308 
   40400    271.65349    3.1134971    140895.63   -49114.873    3730.5065   -52845.379   0.35829706 
   40500    274.18318    12.322032    140893.78   -48978.028    3765.2457   -52743.274   0.35979775 
   40600    272.94082   -9.2931239    140889.99   -49045.731    3748.1849   -52793.916   0.37486531 
   40700    275.54448    7.9120922    140886.37   -49055.967    3783.9399   -52839.906   0.37119699 
   40800    277.06987   -27.371213    140912.85   -49032.513    3804.8875   -52837.401   0.35586511 
   40900    276.72022   -7.5203011     140869.7   -49014.845    3800.0859   -52814.931   0.37006514 
   41000    273.22681   -22.124257    140877.57   -49083.049    3752.1123   -52835.161   0.37881744 
   41100    273.66918    21.638635    140862.39   -49054.661    3758.1871   -52812.848    0.3486002 
   41200    282.52038    68.671527    140895.36   -48944.087    3879.7371   -52823.824   0.36594345 
   41300    272.11418   -13.577057    140884.51   -49020.978     3736.833   -52757.811   0.39126257 
   41400    279.38186    7.4828551    140919.73   -48975.417    3836.6371   -52812.054   0.35073396 
   41500    276.26989   -15.036813    140920.22   -48987.967    3793.9016   -52781.868   0.36965966 
   41600     276.7711    13.314413    140918.77   -48989.208    3800.7846   -52789.992   0.38061284 
   41700     274.4177    18.217802    140913.95   -49097.847    3768.4663   -52866.313   0.35101829 
   41800    273.73409   -20.251401    140907.14   -49013.477    3759.0785   -52772.556   0.36525881 
   41900    271.98204   -4.3240173    140886.06   -49090.573    3735.0183   -52825.592   0.37676909 
   42000    273.20198    3.1172413    140884.41   -49065.289    3751.7713    -52817.06   0.36804135 
   42100    272.59934    8.1301212    140845.36   -49129.558    3743.4954   -52873.054   0.36226367 
   42200    274.14388    19.147828    140872.13   -49095.038     3764.706   -52859.744   0.37458184 
   42300    273.78116    27.757557    140898.26   -49060.476    3759.7249   -52820.201   0.36192923 
   42400    272.72303    7.0427685    140911.38   -49082.827    3745.1941   -52828.021   0.36459473 
   42500    274.98174   -5.3769618    140914.85   -49049.416     3776.212   -52825.628   0.37081302 
   42600    272.99177    6.4761793    140919.67   -49085.841    3748.8846   -52834.726   0.36139713 
   42700    272.32434   -32.244585    140894.43   -49148.773     3739.719   -52888.492   0.37258202 
   42800      270.787    11.483614    140886.67   -49065.599    3718.6074   -52784.207   0.37222523 
   42900    274.54926    32.847734    140896.01   -49086.265     3770.273   -52856.538   0.35752753 
   43000    271.41475     2.237164    140886.88    -49104.54     3727.228   -52831.768   0.37498258 
   43100    275.15976   -20.006337    140917.38   -49032.213    3778.6567   -52810.869    0.3607024 
   43200    276.16337   -14.530053     140894.5   -49038.726    3792.4388   -52831.165   0.36412115 
   43300    280.71074    22.724562    140902.39   -49035.866     3854.886   -52890.752   0.37076293 
   43400    278.19444    27.370863    140915.49   -48962.609    3820.3308   -52782.939   0.36305184 
   43500    277.15928   -11.233134    140947.12   -49018.228    3806.1153   -52824.343   0.36121741 
   43600    270.92492   -6.9480367    140898.56   -49059.704    3720.5014   -52780.205   0.37913772 
   43700    272.85221     12.77383    140896.33   -49103.073    3746.9681   -52850.041   0.36048585 
   43800     270.1314    22.956649    140886.55    -49139.68    3709.6042   -52849.284   0.35530161 
   43900    273.44441   -3.8554607    140907.65   -49058.919    3755.1004   -52814.019   0.37820881 
   44000    272.66901   -10.978515    140871.07   -49140.208    3744.4523    -52884.66   0.36041439 
   44100    269.26059   -7.3870791    140852.39   -49090.872    3697.6459   -52788.518    0.3635867 
   44200    270.14236    3.1793121    140875.21   -49053.454    3709.7548   -52763.208   0.38210686 
   44300    274.05619   -11.689479    140907.82   -49062.954    3763.5018   -52826.456   0.36675419 
   44400     277.2517     -3.98782    140893.22   -49071.546    3807.3844    -52878.93   0.36011203 
   44500    274.89833   -7.9087706    140909.33   -49077.604    3775.0666   -52852.671   0.37536166 
   44600    270.87332    1.4065672    140900.78   -49087.229    3719.7927   -52807.022   0.35999524 
   44700    273.11398    2.6890842    140905.45   -49074.609    3750.5629   -52825.171   0.36564413 
   44800    276.26838   -24.481572    140895.88   -49028.655    3793.8809   -52822.536   0.37157306 
   44900    275.59295    19.790783    140913.18   -49016.973    3784.6055   -52801.579   0.36850218 
   45000    274.98847   -31.856511    140895.47   -49060.129    3776.3044   -52836.433   0.37132161 
   45100    277.81912   -1.6839187    140918.06   -48951.685    3815.1765   -52766.862   0.36798556 
   45200    274.95401   0.32042659    140883.78   -48982.051    3775.8313   -52757.882   0.38386218 
   45300    276.85445   -42.027068    140908.29   -49008.373    3801.9292   -52810.302   0.36563193 
   45400    276.55944    8.8733196    140854.67   -49062.572    3797.8779    -52860.45   0.37270888 
   45500    278.40404    8.1599256    140884.61   -49002.794     3823.209   -52826.003   0.36358861 
   45600    278.64165   -9.8655237    140900.64   -48990.627    3826.4721     -52817.1    0.3695298 
   45700    283.91881   -4.9139735    140916.56   -48956.329    3898.9411   -52855.271    0.3754821 
   45800    276.10513    11.248363     140892.6   -49022.799    3791.6391   -52814.438   0.35690267 
   45900    281.44951    17.529119    140910.52   -48893.533    3865.0313   -52758.564   0.37606731 
   46000    276.61467    16.070925    140947.59   -48956.891    3798.6364   -52755.527   0.37206679 
   46100    280.68738    12.435773    140951.71   -48865.336    3854.5652   -52719.902   0.35552214 
   46200    277.16357  -0.05297013    140957.28   -48917.067    3806.1742   -52723.241   0.37899585 
   46300    277.51547   -19.697832    140977.88   -48906.511    3811.0067   -52717.518   0.36925762 
   46400    277.56369     15.24043    140955.51    -48957.14    3811.6688   -52768.808   0.35920743 
   46500    273.77041    15.916588    140953.27   -48923.348    3759.5773   -52682.926   0.36824346 
   46600    277.41146    18.010031    140936.52   -48982.409    3809.5784   -52791.987   0.36940669 
   46700    278.47876     31.00772    140944.62   -48920.279    3824.2352   -52744.515   0.35631058 
   46800    280.77549    27.621167    140939.51   -48931.094    3855.7752   -52786.869     0.365127 
   46900    274.61398   -7.8731987    140922.21   -48988.669    3771.1617    -52759.83   0.37446476 
   47000    276.25997   -3.6337978    140912.63   -49016.952    3793.7654   -52810.718   0.35979774 
   47100    278.79691    20.166097    140895.65   -49024.462    3828.6042   -52853.066   0.36427917 
   47200    275.56573    55.200102    140881.62   -48991.586    3784.2317   -52775.818   0.37487543 
   47300    274.45704   -27.617765    140870.57   -49113.962    3769.0065   -52882.969   0.35889235 
   47400    281.75376    11.074401    140861.03   -49047.214    3869.2094   -52916.424   0.36840154 
   47500    277.70609   -41.456396    140889.46   -49053.323    3813.6244   -52866.947   0.36648737 
   47600    277.55133    17.367827    140896.89   -49050.807    3811.4992   -52862.307   0.36210395 
   47700    278.11152     10.55565    140887.27   -48974.694    3819.1919   -52793.886   0.37450712 
   47800    275.08582    2.4166941    140917.97   -49032.832    3777.6413   -52810.474   0.35881333 
   47900    272.61384    22.568705    140908.14   -49078.974    3743.6946   -52822.669   0.36702536 
   48000    277.43646    10.288646    140907.26    -49044.78    3809.9217   -52854.702   0.36822808 
   48100    272.47119   -38.096707    140901.72   -49091.361    3741.7356   -52833.097   0.37079207 
   48200    277.45048  -0.70168665    140899.87   -49074.356    3810.1143    -52884.47    0.3646784 
   48300    277.54808    4.6134337    140907.53   -49032.537    3811.4546   -52843.991   0.36801534 
   48400    270.70906   -15.566226    140911.84   -49062.355     3717.537   -52779.892   0.37218805 
   48500    270.82728   -20.953812     140909.1   -49148.133    3719.1605   -52867.293   0.35300454 
   48600    276.01495   -3.2613158    140903.56   -49144.276    3790.4006   -52934.676   0.36936342 
   48700     277.1125    42.879503    140931.83   -49037.828    3805.4728   -52843.301   0.36847202 
   48800     273.6006     27.30537    140933.55   -49029.724    3757.2454   -52786.969    0.3489905 
   48900     275.8417    13.926212    140932.96   -49053.716    3788.0215   -52841.738   0.37377611 
   49000     276.4313     4.154283    140925.88   -49084.772    3796.1183    -52880.89   0.36415205 
   49100    274.77202    20.869868     140950.3   -49004.045     3773.332   -52777.377    0.3526773 
   49200    273.79099    5.7869904    140960.47   -49037.972      3759.86   -52797.832   0.36614192 
   49300     279.2717    21.140991    140946.15   -49098.845    3835.1243   -52933.969   0.35876595 
   49400    276.31975   -20.696762    140931.67   -49121.556    3794.5864   -52916.143   0.35721814 
   49500    272.13341   -38.591585    140926.35   -49060.674    3737.0971   -52797.771   0.36286317 
   49600    272.28141    27.991677    140891.92   -49051.619    3739.1295   -52790.748   0.37109134 
   49700    275.89353    3.2411435    140921.23   -49059.869    3788.7333   -52848.603   0.35978589 
   49800    272.99424   -20.290222    140933.95   -49072.597    3748.9185   -52821.515   0.36171936 
   49900    273.37051   -22.680157    140918.96   -49051.117    3754.0857   -52805.202   0.37152145 
   50000    275.29064    -12.63008    140890.25   -49058.615     3780.454   -52839.069   0.35891405 
   50100    280.13139    16.122049    140938.13   -48921.498    3846.9301   -52768.428   0.37119572 
   50200    275.58596   -18.346577    140949.55   -48990.154    3784.5095   -52774.663   0.36872943 
   50300    269.48025   -33.150308    140963.86   -49007.857    3700.6623   -52708.519   0.35831454 
   50400    272.58318   -15.996009    140941.62    -49025.91    3743.2735   -52769.183     0.372316 
   50500    278.63178   -13.854318    140945.04   -48940.381    3826.3366   -52766.717   0.36310887 
   50600    280.80186  -0.33426545    140974.19   -48872.997    3856.1374   -52729.135   0.36593166 
   50700    269.82668   -38.966761    140935.73   -49100.263    3705.4196   -52805.683   0.37264809 
   50800    273.60505    4.4005956    140891.01   -49078.213    3757.3065   -52835.519   0.36232007 
   50900    272.97291    9.0669013    140893.79   -49100.092    3748.6255   -52848.717   0.36046037 
   51000    275.79748    2.5999826    140892.11   -49056.954    3787.4142   -52844.369   0.37816894 
   51100     274.1761   -31.259568    140876.03   -49071.033    3765.1485   -52836.182   0.36849834 
   51200    272.88306    17.907062    140887.72   -49126.623    3747.3917   -52874.015    0.3597551 
   51300    273.51366   -23.944638    140872.01   -49136.665    3756.0515   -52892.717   0.37732048 
   51400    270.27007    1.3882379    140879.47   -49077.448    3711.5085   -52788.956   0.36688554 
   51500    271.02362    23.326675    140890.96   -49128.999    3721.8567   -52850.856   0.35420133 
   51600    277.17218     11.16705    140890.24   -49052.375    3806.2924   -52858.667   0.37852152 
   51700      277.213    -4.314822    140918.84   -48949.121     3806.853   -52755.974   0.36884517 
   51800    274.27144    29.046314    140913.73   -48994.486    3766.4577   -52760.943    0.3572572 
   51900    277.21696    23.582684     140918.2   -49055.995    3806.9073   -52862.902    0.3774454 
   52000    273.01786   -29.060319    140884.84   -49039.814    3749.2429   -52789.057   0.36734012 
   52100     270.3312   -22.363674    140859.08   -49108.938    3712.3481   -52821.286   0.35785161 
   52200    272.40371   -23.347126    140838.29   -49168.297     3740.809   -52909.107   0.38035071 
   52300    272.18065    23.232726    140847.49   -49144.387    3737.7458   -52882.133   0.36137063 
   52400    269.10795    19.435553    140830.06   -49230.542    3695.5496   -52926.092     0.358223 
   52500    271.35037    41.909535     140865.9   -49086.712    3726.3439   -52813.056   0.37621973 
   52600    271.33551    16.556505    140916.07   -49049.847    3726.1398   -52775.987   0.35999389 
   52700     273.5948     10.05886    140910.97   -48997.539    3757.1657   -52754.704   0.35960499 
   52800    276.78375   -25.724516    140933.41   -48969.397    3800.9583   -52770.355    0.3812745 
   52900    276.89804    16.018985    140947.29   -48994.517    3802.5278   -52797.045   0.36161659 
   53000    278.50697    31.628672    140910.18   -48938.614    3824.6226   -52763.236   0.36281218 
   53100    278.75315   -42.314171    140866.62   -49072.424    3828.0033   -52900.428   0.38434696 
   53200    271.18729   -22.258796    140841.37   -49111.437    3724.1043   -52835.541   0.35935685 
   53300    277.36132     3.895899     140848.8   -49077.827    3808.8898   -52886.717   0.36783604 
   53400    276.08594    6.3266524    140870.92   -49011.778    3791.3756   -52803.154   0.38759943 
   53500    271.69336   -6.8349912    140872.61   -48995.646    3731.0541     -52726.7   0.36301551 
   53600    276.81136   -18.600918    140879.07    -49070.99    3801.3375   -52872.328    0.3727752 
   53700    277.14354   -25.806214    140879.15   -49052.786    3805.8991   -52858.685    0.3893948 
   53800    269.60607    16.224616    140830.45   -49069.113    3702.3902   -52771.503   0.35954393 
   53900    269.30352   -14.978833    140842.49   -49076.552    3698.2353   -52774.787   0.37036647 
   54000    275.17357   -9.3543702    140851.92   -49085.917    3778.8463   -52864.764   0.39069843 
   54100    273.91642    5.3171834     140860.4   -49055.422    3761.5823   -52817.005    0.3563462 
   54200     277.1997   -15.422805    140884.02   -49009.082    3806.6703   -52815.752   0.36111913 
   54300    279.23957    13.442247    140914.33   -48944.122     3834.683   -52778.805   0.39734512 
   54400    280.96134    17.701494    140944.19   -48871.343    3858.3274    -52729.67   0.36001103 
   54500    275.16263    13.374322     140940.7   -48936.392    3778.6961   -52715.088   0.36934503 
   54600    275.21518    -10.09818    140946.34   -48954.575    3779.4178   -52733.993   0.38760776 
   54700    277.26406    7.7901305    140942.32   -49012.973    3807.5542   -52820.527   0.34929625 
   54800    278.48213   -8.5966503    140949.85   -48944.261    3824.2815   -52768.542   0.36289087 
   54900    280.27491   -1.1211167     140956.4   -48960.682    3848.9009   -52809.583   0.37374422 
   55000    278.22581   -11.778909     140963.9    -48989.02    3820.7616   -52809.782   0.35561476 
   55100    276.96129   -3.5969248    140926.79   -49005.861    3803.3963   -52809.257   0.36590401 
   55200    267.68545   -11.043536    140889.63   -49112.864    3676.0151   -52788.879     0.378666 
   55300    270.99936   -23.558404     140888.1   -49159.895    3721.5236   -52881.419   0.36527467 
   55400    272.02793    -8.484984     140872.9   -49121.317    3735.6486   -52856.965   0.36581949 
   55500    273.96638   -1.2996133    140876.86   -49090.269    3762.2685   -52852.538   0.37554367 
   55600    270.73438   -1.0406107    140891.99   -48984.141    3717.8848   -52702.025   0.36613654 
   55700    280.27571    17.431841    140941.12   -48949.394     3848.912   -52798.306   0.36573561 
   55800    273.93144    -4.559537    140951.64   -48940.358    3761.7887   -52702.146   0.38092717 
   55900    275.49535    9.8494344     140945.7   -48949.572    3783.2652   -52732.837   0.35376404 
   56000    279.72886   -7.4861023    140950.01   -48962.086    3841.4023   -52803.488   0.36831963 
   56100    274.40086   -6.3198446    140936.68   -48947.357     3768.235   -52715.592   0.37950506 
   56200    275.28459    5.1100531    140920.39   -48979.644    3780.3709   -52760.015    0.3556914 
   56300    273.68421   -14.228346     140908.3   -49048.207    3758.3936   -52806.601   0.37436059 
   56400    274.08434    -12.34249    140899.77   -49096.897    3763.8884   -52860.785   0.37363883 
   56500    270.79282    29.055611    140894.22   -49145.853    3718.6873    -52864.54   0.34480449 
   56600    272.08873   -26.971388    140896.64   -49203.335    3736.4834   -52939.818   0.35834621 
   56700    269.06484   -25.918811     140878.8   -49180.732    3694.9576   -52875.689   0.37626781 
   56800    271.51594    17.464358    140890.74   -49071.536    3728.6176   -52800.153   0.35297529 
   56900    271.45923   -45.828559    140874.39   -49161.118    3727.8388   -52888.957   0.36478389 
   57000    270.69235   -41.879879    140869.09   -49153.036    3717.3076   -52870.343    0.3875179 
   57100    277.47265    43.543821    140911.92   -49069.781    3810.4187   -52880.199   0.34966998 
   57200    276.02673   -9.7583273    140927.64   -49021.109    3790.5625   -52811.671   0.36252812 
   57300    269.34331   -10.474897     140896.3   -49153.042    3698.7818   -52851.824   0.38019598 
   57400    271.28452   -14.710153    140896.58   -49040.273    3725.4396   -52765.713   0.36125803 
   57500     277.4405    42.715416    140933.49   -49007.949    3809.9772   -52817.926   0.36030583 
   57600     275.4196       40.087    140886.87   -49114.227     3782.225   -52896.452   0.37970435 
   57700    274.04582    5.2605248    140910.95   -49026.871    3763.3594    -52790.23   0.35255857 
   57800     279.3727   -15.459159    140925.14     -48979.1    3836.5113   -52815.611   0.36828671 
   57900    275.77991 -0.018120003    140906.06   -49017.125     3787.173   -52804.298     0.378194 
   58000    280.92508   -9.8500241    140866.74   -48969.248    3857.8295   -52827.078   0.36730283 
   58100    273.69528    -19.15683    140849.03   -49016.507    3758.5456   -52775.053   0.38643786 
   58200    276.78132    2.0721775    140895.29   -48918.955    3800.9249    -52719.88   0.38062355 
   58300       275.44   -21.375719     140875.2   -48981.941    3782.5051   -52764.446   0.36660801 
   58400    276.65782    12.262949    140879.04   -49014.525    3799.2289   -52813.754   0.37862286 
   58500    279.57555   -7.4550491    140871.32   -49021.997     3839.297   -52861.294   0.37655921 
   58600    271.80146   -32.013232    140858.42   -49054.853    3732.5385   -52787.392   0.36252675 
   58700     279.7953    1.7621336    140888.64   -49017.283    3842.3146   -52859.597   0.37123519 
   58800    272.40895    19.063621    140883.38   -49055.548    3740.8809   -52796.428   0.38005186 
   58900    276.44803   -20.425918    140891.41   -48976.237     3796.348   -52772.585   0.35520925 
   59000    273.99765   -37.705931    140896.79   -48946.322    3762.6979    -52709.02   0.38892845 
   59100    274.74212    14.251319    140913.97   -48907.631    3772.9213   -52680.553   0.38761051 
   59200    274.32442   0.98591668    140897.26   -49022.842    3767.1853   -52790.028   0.35179063 
   59300    277.11758    -3.680847    140888.51   -49005.387    3805.5426   -52810.929   0.37986156 
   59400    275.76799    4.2484547    140890.29   -48987.421    3787.0092    -52774.43   0.37742609 
   59500    273.24155   -7.5970295    140857.84   -49095.928    3752.3147   -52848.242   0.35955506 
   59600     273.0752   -17.503363    140833.04   -49066.282    3750.0302   -52816.312   0.37607021 
   59700    274.89187   -8.8904202     140859.2     -48998.3    3774.9779   -52773.278   0.38353555 
   59800    276.20683    36.293302    140838.25   -49111.722    3793.0356   -52904.758   0.36537581 
   59900    268.06117   -1.5761048    140823.16   -49106.885    3681.1746    -52788.06   0.37755209 
   60000    274.92254    15.832554    140859.99   -49077.425     3775.399   -52852.824   0.37416344 
   60100    272.98002    5.5949203    140833.69   -49034.912    3748.7232   -52783.635   0.36627155 
   60200    279.27792    28.203967    140833.47   -49003.274    3835.2097   -52838.483   0.37398404 
   60300    277.05675    12.578646    140867.12   -48965.875    3804.7073   -52770.582   0.37640962 
   60400    276.12399    36.288767    140877.86   -48911.917    3791.8981   -52703.815   0.36540894 
   60500    280.48022    6.6353698    140936.44   -48946.967    3851.7204   -52798.688   0.36860303 
   60600    273.73934   -12.490648     140922.9   -49005.849    3759.1507       -52765    0.3750211 
   60700    283.23183    3.1957041    140931.92   -48840.854    3889.5072   -52730.361   0.37280915 
   60800    280.55496   -10.920269    140943.92   -48863.702    3852.7467   -52716.448   0.37591384 
   60900    275.31151    17.396285    140920.04   -48947.291    3780.7407   -52728.032   0.37268343 
   61000    274.53481    -4.717867    140894.52   -48986.188    3770.0745   -52756.262   0.36329655 
   61100    275.32383    25.579969    140882.58   -48971.406    3780.9098   -52752.315   0.37723179 
   61200    278.67994   -2.4775348    140906.55   -48918.859    3826.9979   -52745.857   0.37212902 
   61300    273.48053    38.954088    140907.05   -49008.551    3755.5965   -52764.148   0.35665488 
   61400    270.99585   -32.039285    140887.48   -49056.362    3721.4754   -52777.837   0.38769322 
   61500    276.27611    7.3870969    140908.36   -49002.312    3793.9871     -52796.3   0.37139927 
   61600    277.98074    11.011202    140888.77   -49045.014     3817.396    -52862.41   0.35939852 
   61700    271.89257   -10.894454    140872.27   -49102.284    3733.7897   -52836.074    0.3773001 
   61800     274.4727    12.956813    140856.97   -49088.603    3769.2216   -52857.824   0.36985793 
   61900    272.96798   -16.871423    140878.84   -48997.078    3748.5579   -52745.636   0.37409024 
   62000     274.4103    8.4894552    140890.84   -49002.965    3768.3646   -52771.329   0.37517704 
   62100    277.58049   -7.4178445    140884.59   -49074.755    3811.8995   -52886.655    0.3707972 
   62200    277.69537    35.647749    140909.93   -48971.829    3813.4772   -52785.306   0.35934404 
   62300    272.19564    12.473563    140887.41   -49019.325    3737.9516   -52757.276   0.38080944 
   62400     271.8763   -8.6779443    140890.53   -49062.318    3733.5663   -52795.884    0.3721536 
   62500    275.40617    -32.64129    140881.65    -49048.68    3782.0405    -52830.72   0.36290878 
   62600    272.78156   -18.904403    140915.06   -49079.295    3745.9978   -52825.293    0.3775761 
   62700    272.49193    6.6986323    140886.23   -49110.025    3742.0204   -52852.045   0.36547101 
   62800    273.16632   -7.3158179     140895.9   -49090.855    3751.2816   -52842.137   0.36481739 
   62900     274.6013    1.3501038    140903.59   -49000.174    3770.9876   -52771.162   0.37526332 
   63000    276.51919  -0.45635189    140923.75   -49028.402    3797.3252   -52825.727   0.36204029 
   63100    272.56048    -42.28124    140885.74   -49101.304    3742.9619   -52844.266   0.37219386 
   63200    278.70036    10.918547    140914.36   -48985.974    3827.2783   -52813.252   0.37403495 
   63300    277.94911    16.439479    140896.31   -49075.345    3816.9617   -52892.306   0.35718318 
   63400    267.13923    1.7108471    140890.62   -49156.567     3668.514   -52825.081   0.36704079 
   63500    269.86048   -29.478605     140886.5    -49138.45    3705.8839   -52844.334   0.37492024 
   63600    269.48029   -7.6767748     140855.5   -49182.793    3700.6628   -52883.456   0.36487458 
   63700    268.52857    12.785133     140862.9   -49153.588    3687.5933   -52841.181   0.35870933 
   63800    268.63215    -12.35198    140847.59   -49221.379    3689.0157   -52910.395   0.37198924 
   63900    273.18066    41.618852    140850.76   -49113.713    3751.4785   -52865.192   0.35960483 
   64000    275.52471    5.7850668    140893.92   -49037.347    3783.6684   -52821.015   0.36759513 
   64100    276.02722    30.150704    140935.46   -48991.632    3790.5692   -52782.201   0.37315727 
   64200    280.27854    11.068403    140950.34   -48980.012    3848.9507   -52828.963   0.35064214 
   64300    273.95082   -33.002601    140945.02   -49019.685    3762.0548    -52781.74   0.36431233 
   64400    279.20423    24.025323    140932.43   -49070.464    3834.1977   -52904.662   0.36751859 
   64500    272.48145   -22.889934    140924.51   -49064.085    3741.8765   -52805.961   0.36038515 
   64600    272.75886  -0.85565126    140918.67   -49094.224    3745.6861    -52839.91   0.35887751 
   64700    269.73542   -12.804657    140912.12   -49100.861    3704.1664   -52805.028   0.37214551 
   64800    274.93455   -44.178676    140905.17   -49049.569    3775.5639   -52825.133   0.36510893 
   64900     283.3141    9.0013499    140937.54   -48967.779    3890.6369   -52858.416   0.36272022 
   65000    278.16944   -1.4573669    140952.55   -48953.417    3819.9874   -52773.404   0.36065982 
   65100    275.16318   -9.1747287    140920.22   -49015.229    3778.7036   -52793.933   0.37061328 
   65200    278.32048   -3.4483101    140940.89   -49037.744    3822.0616   -52859.806   0.36860695 
   65300    279.25525   -24.609088    140963.87   -48972.725    3834.8984   -52807.623   0.36532121 
   65400    276.10033    3.1699411    140922.15   -49015.493    3791.5731   -52807.066   0.36364697 
   65500    277.33062   -13.290868    140948.56   -48950.383    3808.4683   -52758.852   0.36674871 
   65600    281.41066   -22.031711     140956.1    -48966.67    3864.4977   -52831.168   0.36543838 
   65700    280.26177   -27.757368    140962.02   -48933.859    3848.7206    -52782.58   0.36090416 
   65800    276.97631   -19.668246    140931.56   -48987.306    3803.6026   -52790.909   0.37368086 
   65900    274.99202    9.3750101    140952.66   -49001.866    3776.3532   -52778.219   0.36649537 
   66000    276.99042   -12.940943    140933.35   -49011.795    3803.7964   -52815.591   0.36635583 
   66100     277.6199    16.899522    140928.55   -48984.209    3812.4407   -52796.649   0.38252332 
   66200    274.98984   -36.813589    140926.44   -49111.007    3776.3232   -52887.331   0.36377399 
   66300    278.95878   -5.2459589    140928.35   -49039.558     3830.827   -52870.385   0.35150937 
   66400    276.25414    13.105397    140941.22   -49049.772    3793.6854   -52843.457   0.37406088 
   66500     272.3715   -40.303294    140924.89   -49084.241    3740.3667   -52824.608   0.37364744 
   66600    274.56072     10.26326    140899.12   -49087.109    3770.4304    -52857.54   0.35914643 
   66700    275.19101    8.1642541    140863.32   -49063.976    3779.0859   -52843.061   0.38108484 
   66800     275.6531     41.63044    140845.86   -49082.397    3785.4315   -52867.828   0.37842399 
   66900    269.84398   -6.9146977    140857.94   -49096.354    3705.6573   -52802.011   0.36619451 
   67000    269.54478  -0.17726111    140830.56   -49196.697    3701.5484   -52898.245   0.37642975 
   67100    274.50599    16.435582    140861.27   -49041.404    3769.6787   -52811.082   0.38504122 
   67200    270.79454   -31.440274    140860.87   -49139.473    3718.7109   -52858.184   0.36998697 
   67300    275.07197   -1.7143793    140864.34   -49067.664    3777.4511   -52845.115   0.37339171 
   67400    278.66181    19.078326    140882.11   -49044.263    3826.7489   -52871.012   0.37052018 
   67500    278.25121    47.554869    140900.95    -49030.23    3821.1103    -52851.34   0.36525397 
   67600    277.77957   -11.531808    140928.41   -48892.004    3814.6335   -52706.637    0.3806443 
   67700    279.70519    37.755112    140932.66   -48964.693    3841.0772    -52805.77   0.36880732 
   67800     277.5069   -17.477032    140908.83   -48999.815     3810.889   -52810.704   0.36950408 
   67900    274.48713   -25.054177     140905.7   -49032.075    3769.4198   -52801.494   0.37930865 
   68000    278.28179   -25.497252    140855.24   -49060.028    3821.5303   -52881.558   0.36225595 
   68100    273.89276    13.509596    140837.32   -49062.502    3761.2575   -52823.759   0.37694772 
   68200    274.06235    5.4995317    140847.39   -49035.829    3763.5864   -52799.416   0.38218648 
   68300      280.482    18.957333    140855.95   -48983.221    3851.7448   -52834.966   0.36574452 
   68400    279.02622    20.898014     140886.2   -48952.522    3831.7532   -52784.275   0.36523828 
   68500    279.97389    45.548464    140906.96   -48948.537    3844.7672   -52793.304   0.38014336 
   68600    272.61292   -9.2855342    140896.44   -49038.636     3743.682   -52782.318   0.36319381 
   68700    278.45518    19.402424    140888.52    -49017.76    3823.9114   -52841.671   0.36500012 
   68800    277.18065    1.3607123    140899.46   -49012.933    3806.4088   -52819.342   0.38656359 
   68900    272.13272   -5.0238369    140894.86   -49017.985    3737.0875   -52755.073   0.36047204 
   69000    274.24648   -1.5097932       140891   -49015.737     3766.115   -52781.852   0.36203938 
   69100    276.22359    15.382869    140863.94   -49074.884    3793.2658    -52868.15   0.37995166 
   69200    274.20836   -8.7376258     140866.3   -49091.351    3765.5915   -52856.943   0.36793648 
   69300     272.6774    7.3929212    140840.62    -49112.92    3744.5675   -52857.487   0.35373942 
   69400    268.36046    13.104934    140847.67   -49164.704    3685.2847   -52849.988   0.38611684 
   69500    275.24477   -11.738575    140863.16   -49038.375    3779.8241   -52818.199   0.36797546 
   69600     281.5791    15.821954    140920.45   -48933.207    3866.8109   -52800.018   0.35677449 
   69700    275.85324    -25.99598    140942.32   -49028.923      3788.18   -52817.103    0.3763073 
   69800    273.54304    -1.305167    140934.58   -49023.223    3756.4549   -52779.678   0.36713419 
   69900    275.80019    28.266574    140911.76   -49120.686    3787.4515   -52908.137   0.35557288 
   70000    273.19565   -61.179115    140910.16   -49048.865    3751.6843   -52800.549   0.37909153 
   70100     272.0351    -50.50246    140836.36   -49160.026     3735.747   -52895.773   0.36499254 
   70200    274.67486    22.488578     140899.6   -49011.963    3771.9978   -52783.961   0.35901251 
   70300    275.93184    6.3999923    140877.41   -49012.797    3789.2594   -52802.057    0.3799388 
   70400    277.13662    45.327766    140892.89   -48908.348    3805.8041   -52714.152   0.36226732 
   70500    275.18955   -2.0091996    140893.95   -48976.306    3779.0659   -52755.372   0.37136782 
   70600    275.53259   -17.515433    140913.51   -49040.971    3783.7766   -52824.747   0.37334111 
   70700    279.56779   -3.7165658    140903.05   -49008.805    3839.1904   -52847.996   0.35707739 
   70800    276.88146    26.885231    140881.88   -49040.299       3802.3   -52842.599   0.36766957 
   70900    269.49862   -6.6309752    140887.43   -49033.159    3700.9145   -52734.074   0.38025744 
   71000    279.68721   -24.450779     140908.6   -49056.817    3840.8303   -52897.648   0.35272054 
   71100    277.22889    -6.423344    140900.98    -49048.39    3807.0712   -52855.462   0.36299334 
   71200     272.8938   -16.118434    140915.01   -49084.993    3747.5392   -52832.532   0.37735609 
   71300    276.19206    15.752347    140911.95   -49134.633    3792.8329   -52927.466    0.3410936 
   71400    274.90306   -3.2655191    140903.82   -49077.581    3775.1315   -52852.713   0.36797826 
   71500    278.14828    28.209017     140924.6   -49030.127    3819.6968   -52849.824   0.38376701 
   71600     272.6703   -8.6009459    140931.86    -49048.26    3744.4699    -52792.73   0.35008922 
   71700    271.35393    12.731798     140929.3   -49033.826    3726.3927   -52760.219   0.36975548 
   71800    270.84199  -0.57065745    140899.94   -49201.645    3719.3625   -52921.008   0.37525517 
   71900    270.06325   -4.8097076    140859.74   -49145.178    3708.6684   -52853.846   0.35953976 
   72000    278.02168    23.051531    140879.15   -49116.596    3817.9583   -52934.554   0.36507916 
   72100    276.53013    26.350895    140927.67   -48987.023    3797.4754   -52784.499   0.38991716 
   72200    282.08603     16.97548    140957.82   -48881.158    3873.7724   -52754.931   0.35890614 
   72300    283.85858   -34.328531    141030.87   -48863.654    3898.1141   -52761.768   0.36060954 
   72400    276.60331    34.486519    140982.01    -48974.64    3798.4804    -52773.12   0.38050193 
   72500    280.09551   -38.740442    140981.32   -48979.553    3846.4373   -52825.991   0.35236463 
   72600    279.08397   0.78070206    140982.32   -48916.839    3832.5463   -52749.385   0.36816982 
   72700    270.45966   -10.962423    140966.81    -49070.36    3714.1122   -52784.473   0.37471327 
   72800    278.70367     13.32861    140947.61   -48998.809    3827.3238   -52826.133   0.35918009 
   72900    275.96435   -1.9905749    140912.05   -49006.448    3789.7058   -52796.154   0.37281361 
   73000    278.93758    21.119918    140918.66    -49018.37     3830.536   -52848.906   0.37338474 
   73100     278.8972   -4.3059326    140900.01   -48970.858    3829.9814   -52800.839    0.3599718 
   73200    274.96588   -43.417323     140930.1   -48963.891    3775.9942   -52739.885   0.37803161 
   73300    278.72497   -16.266272    140932.31   -48940.389    3827.6163   -52768.005   0.38445346 
   73400    277.41038   -34.306725    140932.33   -48918.657    3809.5636    -52728.22    0.3559315 
   73500    279.31517   -20.394819    140932.65    -48926.26    3835.7213   -52761.981    0.3771888 
   73600    277.15933    3.2690212    140897.69   -48959.779     3806.116   -52765.895   0.38258497 
   73700    279.17547   -16.199464    140898.41   -49021.583    3833.8027   -52855.385   0.34826996 
   73800    274.35421   -23.653368    140854.31   -49103.881    3767.5944   -52871.476   0.37684014 
   73900     273.7131   -34.561809    140869.37   -49088.817    3758.7904   -52847.607   0.38061484 
   74000    280.29251    21.854728    140866.75    -49015.24    3849.1426   -52864.383     0.355104 
   74100    280.33267    16.331907    140922.25    -48854.87    3849.6941   -52704.564   0.38303403 
   74200    276.77308   -8.6889491    140930.82   -49016.813    3800.8118   -52817.625   0.37401136 
   74300     272.6641    -9.887827    140856.86    -49008.19    3744.3848   -52752.575   0.36108619 
   74400    268.70743    -11.34851    140831.45   -49039.111    3690.0495    -52729.16   0.38919387 
   74500    276.38088    14.485237    140837.18    -49057.78    3795.4258   -52853.206   0.38917103 
   74600     271.4782   -40.368965    140855.04   -49061.911    3728.0993    -52790.01   0.37041289 
   74700     277.8972    32.954922    140911.89   -48979.099    3816.2489   -52795.348   0.37725695 
   74800    274.50305   -4.4732152    140867.54   -49028.195    3769.6384   -52797.833   0.38288809 
   74900    268.20323   -10.428631    140869.05   -49029.229    3683.1255   -52712.355   0.37147728 
   75000    275.16727   -47.605225    140857.61   -49012.054    3778.7598   -52790.814   0.38192642 
   75100    279.12081    4.0996057    140885.47   -48944.387    3833.0522   -52777.439   0.37729976 
   75200    275.63328   -15.463573    140899.84   -48989.959    3785.1593   -52775.118   0.36917789 
   75300     275.3626   -4.6907811    140870.65   -49033.386    3781.4423   -52814.829   0.38054917 
   75400    270.64489   -53.893512    140860.73   -49047.534    3716.6559   -52764.189     0.376354 
   75500      274.955   -1.7050612    140872.12    -49046.68    3775.8447   -52822.525   0.36911443 
   75600    280.24899    33.184198    140891.92   -48977.545     3848.545    -52826.09    0.3841508 
   75700     275.4934   -12.875812    140918.01   -48932.656    3783.2385   -52715.894   0.37334555 
   75800    276.56864   -8.6315848    140915.18   -48956.843    3798.0043   -52754.847   0.36809097 
   75900    275.18019    2.7746197    140907.06   -48971.431    3778.9373   -52750.368   0.38234766 
   76000    274.30463   -19.863144    140900.93   -48978.866    3766.9136   -52745.779   0.37001661 
   76100    270.05037   -33.379116    140842.43   -49070.114    3708.4915   -52778.605   0.37216904 
   76200    267.41082   -26.538325    140814.94   -49115.639    3672.2436   -52787.883   0.38627647 
   76300    273.13941    17.388551    140841.44   -49060.315     3750.912   -52811.227   0.36585723 
   76400    274.01448   -16.391157    140848.53   -49054.308     3762.929   -52817.237   0.37321623 
   76500    274.68613   -2.1643025     140900.2   -49048.217    3772.1525   -52820.369   0.38016893 
   76600    270.66419   -15.799878    140899.62   -49088.851    3716.9208   -52805.772   0.36845825 
[...]
   81900    269.97555   -37.176744    140830.18   -49082.424     3707.464   -52789.888   0.37750801 
   82000    278.65238    15.589203     140863.1   -48999.323    3826.6195   -52825.942   0.36583411 
   82100    279.46707    8.4276503    140905.64   -48949.043    3837.8072    -52786.85   0.38595792 
   82200    277.90536   -17.277553    140905.05   -48961.151    3816.3609   -52777.512   0.37241547 
   82300    272.64669   -23.987184    140852.46   -49031.667    3744.1458   -52775.813    0.3710149 
   82400    274.01049    27.184534    140858.09   -48912.525    3762.8742     -52675.4   0.38776522 
   82500    280.11425    23.767757    140928.03   -48821.275    3846.6946   -52667.969   0.38453246 
   82600    282.40404    20.330242    140946.03   -48923.954    3878.1394   -52802.094   0.35640015 
   82700    279.10056    1.9521808    140875.14   -48994.602    3832.7741   -52827.376   0.38273414 
   82800    282.04844   -7.1985552    140872.06   -49009.109    3873.2561   -52882.365   0.37437548 
   82900    283.03702    20.982761    140881.36   -48963.047    3886.8319   -52849.878    0.3647039 
   83000      277.028    7.2820969    140916.94   -48908.356    3804.3125   -52712.668   0.38623489 
   83100    280.31031    5.3900905    140902.52   -48941.324    3849.3871   -52790.711   0.37265974 
   83200    274.99833    23.686487    140896.49   -48971.042    3776.4399   -52747.482    0.3768276 
   83300    278.82832   -5.3783803    140868.94   -48960.019    3829.0355   -52789.055   0.38529133 
   83400    274.76852     13.27871    140842.09   -49034.241    3773.2839   -52807.525    0.3746943 
   83500    273.68015    15.098308    140804.82   -49136.911    3758.3377   -52895.248   0.38061084 
   83600    273.45621    39.007871     140800.9   -49080.611    3755.2626   -52835.873   0.38564758 
   83700    275.85704    9.4946181    140822.69   -49114.273    3788.2322   -52902.505   0.36718208 
   83800    275.41854     -6.26339    140807.52   -49073.603    3782.2105   -52855.814   0.37783145 
   83900    275.66094   -6.3219948    140828.73   -49075.271    3785.5392    -52860.81   0.38537117 
   84000    272.93991    14.219731     140813.8   -49088.346    3748.1724   -52836.518   0.37476863 
   84100    270.03814    2.9293725    140824.77   -49021.034    3708.3235   -52729.357   0.37510165 
   84200    276.22568    41.795715    140860.69   -48980.372    3793.2945   -52773.667   0.39094048 
   84300    277.41883    1.2489469    140864.66   -49031.422    3809.6796   -52841.102   0.36935699 
   84400    273.35029   -2.0840162    140850.89   -49025.492     3753.808     -52779.3   0.36920045 
   84500      277.703   -55.838924    140887.95   -49085.161    3813.5819   -52898.743   0.38689771 
   84600    278.65059    2.0915665    140889.19    -48995.94    3826.5948   -52822.534   0.37078531 
   84700    277.53385    -8.130815    140909.43   -49013.492     3811.259   -52824.751   0.37194866 
   84800    278.52101    29.159534    140914.88   -49004.195    3824.8153    -52829.01   0.38230589 
   84900    283.23008    36.787648    140931.54   -48934.113    3889.4832   -52823.596    0.3563897 
   85000    274.86668    1.9057552    140915.02   -48998.808    3774.6319    -52773.44   0.37355866 
   85100    275.88741   -14.987551    140868.52   -49016.579    3788.6493   -52805.229   0.38050717 
   85200    275.06318   -6.6087442    140864.88     -49057.4    3777.3304   -52834.731   0.37237657 
   85300    273.34953   -8.9173183    140848.87   -49062.654    3753.7975   -52816.451    0.3793607 
   85400    270.81365    24.411433    140830.37   -49090.741    3718.9733   -52809.714   0.38553806 
   85500    266.59396   -41.681372    140817.86   -49039.397    3661.0261   -52700.423   0.38752226 
   85600    275.65109    17.246339    140833.55   -49067.455    3785.4039   -52852.859   0.36596011 
   85700    271.77641   -12.506875    140829.42   -49006.867    3732.1946   -52739.062   0.39568414 
   85800     280.1829   -9.0571827    140836.69   -49002.219    3847.6374   -52849.856   0.36884593 
   85900    280.24285    30.136696    140866.31   -48975.905    3848.4606   -52824.366   0.37571059 
   86000    273.49978   -20.633647    140841.27   -49023.997    3755.8608   -52779.858   0.39235847 
   86100    275.25453   -37.104223    140857.65   -48995.237    3779.9581   -52775.195   0.37073441 
   86200    277.75249   -39.910121    140869.41   -48965.151    3814.2616   -52779.412   0.38240753 
   86300    274.49369   -4.0760587    140868.76   -49009.989    3769.5099   -52779.499   0.38467263 
   86400    272.96664   -2.4495452    140852.26   -49072.651    3748.5395    -52821.19   0.37035578 
   86500     277.0339   -2.8088414    140822.17   -49099.637    3804.3935   -52904.031   0.37417171 
   86600    275.80273    6.0450348    140844.15   -48939.553    3787.4863    -52727.04   0.38493568 
   86700    276.22994   -10.297182    140869.85   -48941.062    3793.3531   -52734.415   0.38059531 
   86800    272.73916   -9.6215874    140868.91   -49057.128    3745.4156   -52802.544   0.37409239 
   86900    276.63798   -3.4617265    140866.98   -49042.344    3798.9566   -52841.301   0.38162925 
   87000    275.99721   -4.7782772    140874.72    -49020.38    3790.1571   -52810.537   0.37943543 
   87100     276.4203    2.6688744    140867.05    -48994.86    3795.9672   -52790.827   0.37519094 
   87200    278.59518    34.949577    140898.45   -48932.902    3825.8339   -52758.736   0.38026607 
   87300    280.60212    5.5304986    140909.85    -48947.25    3853.3944   -52800.645   0.36225372 
   87400    279.17437    12.543542    140873.43   -49001.736    3833.7877   -52835.524   0.37512613 
   87500    275.24965    13.129706    140875.75    -48969.64    3779.8911   -52749.531    0.3879584 
   87600    279.16734    12.967234    140895.99    -48995.32    3833.6911   -52829.011   0.36140051 
   87700    276.40575    25.353015    140908.98   -48966.566    3795.7674   -52762.334    0.3804424 
   87800    273.39576   -10.256291    140894.41   -49046.949    3754.4324   -52801.381    0.3817283 
   87900    273.36852    11.520057    140868.48   -49068.875    3754.0583   -52822.933   0.36367337 
   88000     274.8644    16.941425    140900.41   -49047.033    3774.6006   -52821.633   0.37515952 
   88100    279.95179    9.7133903    140899.13   -49013.211    3844.4637   -52857.675   0.37385837 
   88200    275.34216    10.608788    140881.62   -49113.318    3781.1614   -52894.479   0.35735755 
   88300    277.16202  -0.29694479    140871.14    -49054.37    3806.1529   -52860.523   0.37304467 
   88400    277.77246   -35.754454    140890.94   -48987.285    3814.5358   -52801.821   0.38148179 
   88500    276.09956    1.4046037    140896.06   -49061.654    3791.5626   -52853.217   0.36688663 
   88600     275.9579   -10.897988    140877.05   -49045.059    3789.6172   -52834.676   0.37392458 
   88700    273.80127   -44.138861     140873.7    -49020.77    3760.0011   -52780.771   0.38952412 
   88800    271.88171    6.0091857    140878.82   -49084.842    3733.6406   -52818.482   0.36803663 
   88900    273.79424   -46.105442    140868.08   -49025.356    3759.9046    -52785.26   0.37982615 
   89000    277.67156   -25.711279    140900.66   -48993.408    3813.1503   -52806.558   0.38619863 
   89100    271.70197   -23.004589    140874.75    -49036.05    3731.1723   -52767.223    0.3670062 
   89200    276.87009   -42.046566    140883.23   -48997.537    3802.1439   -52799.681   0.38095131 
   89300    273.38783    19.736042    140852.15   -49105.359    3754.3235   -52859.683   0.38305291 
   89400    278.85846    24.141643    140889.24   -49017.218    3829.4494   -52846.668   0.36377562 
   89500     270.3708   -42.753015    140860.34   -49104.131    3712.8919   -52817.023   0.39216015 
   89600    270.13284   -4.8583311    140849.66   -49127.618    3709.6241   -52837.242   0.37593112 
   89700    275.18942    31.718422    140874.28   -49053.723    3779.0641   -52832.787   0.36992599 
   89800    278.90228   -31.999178    140909.71   -48993.477    3830.0512   -52823.529    0.3818442 
   89900    275.50191    19.215562    140895.82   -48974.645    3783.3553       -52758    0.3768754 
   90000    276.74347    5.1903625    140886.17   -48996.367    3800.4052   -52796.772   0.37094107 
   90100    281.35744    21.948709     140924.8   -48980.904    3863.7669   -52844.671   0.37265129 
   90200     280.6925     7.623617    140928.26   -49049.348    3854.6355   -52903.984   0.37605487 
   90300    274.94987   -21.800633    140922.85   -49024.031    3775.7744   -52799.805   0.36607931 
   90400    276.05132   -16.224979    140917.06   -49017.297    3790.9001   -52808.197   0.38141371 
   90500    276.56882   -12.958301     140924.8    -49024.41    3798.0068   -52822.417   0.37934725 
   90600    274.94779   -31.551187    140934.63   -49051.089    3775.7458   -52826.835    0.3628716 
   90700     271.8524   -18.079426    140908.78   -49078.993     3733.238   -52812.231   0.38264732 
   90800    270.47779    4.0535298    140883.74   -49093.387     3714.361   -52807.748    0.3648101 
   90900    272.31495    14.488845    140877.48   -49068.239      3739.59   -52807.829   0.36740181 
   91000    275.48568    21.131595    140869.56    -49083.42    3783.1324   -52866.553    0.3831989 
   91100    272.55655    31.316647    140837.33   -49178.997    3742.9079   -52921.905   0.36165869 
   91200    273.97826    14.928048    140836.08   -49128.425    3762.4317   -52890.856   0.37496161 
   91300    275.08488    10.692149    140863.72   -49063.911    3777.6283    -52841.54    0.3839746 
   91400    272.39258   -22.544282    140881.15   -49041.709    3740.6562   -52782.365    0.3695159 
   91500    283.20271    15.584565    140921.76   -48895.209    3889.1073   -52784.317   0.37931701 
   91600    277.83849    46.176081    140935.31   -48954.028    3815.4426   -52769.471   0.37524132 
   91700    272.38898   -15.062853    140923.47   -49022.996    3740.6067   -52763.603   0.36617058 
   91800    277.51045     6.183524    140909.89   -48992.555    3810.9378   -52803.492   0.36556524 
   91900    271.76414    38.362087    140919.99   -48984.874     3732.026     -52716.9   0.38525413 
   92000    277.03173  -0.40427328    140921.15   -49037.032    3804.3637   -52841.395    0.3590445 
   92100    275.36106   -37.849227    140905.14   -49012.915     3781.421   -52794.336   0.36184867 
   92200    274.76399    11.546548    140902.89   -49050.589    3773.2217   -52823.811   0.39004375 
   92300    281.68519    14.557631    140926.51   -48928.362    3868.2678    -52796.63    0.3589588 
   92400    279.87269   -10.956632     140920.9   -48973.093    3843.3774   -52816.471   0.36739785 
   92500    277.51899    -13.55232    140919.56    -48964.02     3811.055   -52775.075   0.39227599 
   92600    277.18362   -13.149092    140926.86   -48878.485    3806.4496   -52684.935   0.36784608 
   92700    272.92156   -29.692706    140930.71   -48998.581    3747.9205   -52746.501   0.36593334 
   92800    277.01446   -11.878862    140946.13   -49015.147    3804.1265   -52819.273   0.37574503 
   92900    272.61829    9.1475878    140906.87   -49043.401    3743.7558   -52787.157   0.36245967 
   93000    276.33934   -8.1817421    140921.34   -49055.396    3794.8554   -52850.251   0.35635191 
   93100    280.48721     55.12465    140930.26   -48977.144    3851.8164    -52828.96   0.37699823 
   93200    275.15063   -4.2735298    140961.58   -49036.638    3778.5313   -52815.169   0.36574275 
   93300    273.96672     41.87047    140910.71   -49079.649    3762.2732   -52841.922   0.35761723 
   93400    271.82528   -4.4842988    140910.67    -49139.16    3732.8656   -52872.025   0.37317728 
   93500    267.94372   -55.000369    140903.25   -49143.873    3679.5618   -52823.435   0.36612855 
   93600    273.35706    21.454948    140895.93   -49091.293    3753.9009   -52845.194   0.36441651 
   93700    272.60886    17.939273    140905.99   -49067.717    3743.6262   -52811.343   0.37268319 
   93800    277.05287   0.37168199    140921.02   -49072.578     3804.654   -52877.232   0.35112651 
   93900    275.91967    10.778543    140894.05   -49138.331    3789.0922   -52927.423   0.37213478 
   94000    275.82128   -5.9379268    140887.65   -49110.313     3787.741   -52898.054   0.37250053 
   94100    274.39422    53.206208    140928.75   -48995.285    3768.1439   -52763.429   0.35641008 
   94200    280.21271   0.28504482    140939.87   -48986.208    3848.0468   -52834.255     0.376417 
   94300    280.76541     12.97255    140930.04   -49005.986    3855.6368   -52861.623   0.37304945 
   94400    275.28825    34.207725    140909.78   -48991.062    3780.4212   -52771.483   0.36586098 
   94500    276.09828   -60.447057     140931.3   -49000.006    3791.5449   -52791.551   0.37279904 
   94600    279.67388    18.281629    140899.75   -49004.165    3840.6472   -52844.813   0.37633736 
   94700    275.51866     19.57228     140888.5   -49037.272    3783.5853   -52820.858   0.36122172 
   94800    272.62271   -15.613797    140872.16   -49076.905    3743.8164   -52820.721   0.37609618 
   94900    267.73577   -31.993972     140857.6    -49098.59     3676.706   -52775.296   0.38767166 
   95000    274.90253    50.750002    140831.74   -49058.989    3775.1242   -52834.113   0.35224473 
   95100    278.00779   -7.9362397    140841.23   -49021.954    3817.7675   -52839.721   0.38008415 
   95200    274.01344   -18.220372    140868.33   -49054.462    3762.9147   -52817.377   0.38535184 
   95300    279.05664    7.3571671    140855.03   -49004.464    3832.1709   -52836.635   0.35879545 
   95400    280.62196    9.0727552    140859.02   -48973.754    3853.6669   -52827.421   0.37281607 
   95500    272.91694   -11.074477    140877.93   -48991.865     3747.857   -52739.722   0.38649006 
   95600    277.01612    8.1976593    140852.53   -48977.455    3804.1494   -52781.604   0.36852314 
   95700    274.54345    6.3512306    140870.31   -49010.858    3770.1932   -52781.051   0.36749801 
   95800    278.86735    11.892152    140900.79   -48965.795    3829.5716   -52795.367   0.38148858 
   95900    273.53221   -26.314022    140886.19   -48980.153    3756.3062   -52736.459   0.37118832 
   96000    282.16797    40.036621    140882.66   -48948.424    3874.8975   -52823.321   0.36435911 
   96100    277.81928     8.887592    140936.53   -48901.604    3815.1788   -52716.783   0.38060187 
   96200    279.50391    39.372489    140957.98   -48923.983    3838.3132   -52762.297   0.36866111 
   96300    277.75138  -0.34853158    140931.73   -48942.548    3814.2464   -52756.795   0.36791999 
   96400    274.27922   -1.3570144    140921.72   -48991.076    3766.5646    -52757.64   0.37807656 
   96500    273.79021   -16.688561       140912   -48990.569    3759.8493   -52750.418   0.37083121 
   96600    273.21172    5.5062778     140902.1   -49040.912    3751.9051   -52792.817   0.36171491 
   96700    274.93104    -37.40523    140888.05   -49006.966    3775.5157   -52782.481    0.3779966 
   96800    273.31293   -3.4609686    140894.65   -49024.823     3753.295   -52778.118   0.36295817 
   96900    277.60533   -8.3412388    140880.67   -49035.371    3812.2408   -52847.612   0.37545796 
   97000    275.67284    16.366526    140886.11   -49103.749    3785.7025   -52889.451   0.36533703 
   97100    275.70408    6.5557413    140889.95   -49077.687    3786.1316   -52863.819   0.36522625 
   97200    274.60253   -4.5127862    140894.28   -49021.505    3771.0045    -52792.51   0.37942292 
   97300    282.10073    15.160034    140949.88   -48913.346    3873.9741    -52787.32   0.36314828 
   97400    274.65614    3.4365713    140925.52   -48995.854    3771.7407   -52767.594   0.37049436 
   97500    278.17197    22.745302    140926.82   -48975.373    3820.0222   -52795.395   0.36421757 
   97600    282.03991   -21.698983    140920.25   -48914.023     3873.139   -52787.162   0.37236924 
   97700     280.9804    7.8298394     140934.7   -48880.747    3858.5892   -52739.336   0.36361889 
   97800     282.1822    -30.25026    140923.85   -48988.915     3875.093   -52864.008   0.36614101 
   97900    277.72372   -1.9197521    140932.32   -48944.207    3813.8665   -52758.074   0.38338949 
   98000    275.17454    24.817518    140899.89   -49025.622    3778.8596   -52804.482   0.35913143 
   98100    274.48126    41.691219    140922.58   -49012.838    3769.3391   -52782.177   0.36303644 
   98200    270.03136   -1.0378899    140887.61   -49003.137    3708.2304   -52711.367    0.3805254 
   98300     275.7716   -12.887379    140923.42   -48953.849    3787.0589   -52740.908   0.36521739 
   98400    273.97624    13.772543    140922.81   -48989.043    3762.4039   -52751.447   0.36691319 
   98500    279.36397    8.4180407    140906.98    -48969.53    3836.3914   -52805.921   0.37256752 
   98600    275.15186    17.801688    140916.51   -48981.245    3778.5481   -52759.793   0.36809179 
   98700    280.42829    18.837378    140932.84   -48950.773    3851.0073    -52801.78   0.36279403 
   98800      272.557    1.2875509    140934.01   -48961.082    3742.9141   -52703.997   0.37012332 
   98900    279.44493   -20.345987    140912.46   -49017.391    3837.5031   -52854.894   0.36797813 
   99000    272.32803   -19.993401    140891.85    -49011.29    3739.7697    -52751.06   0.36596141 
   99100    273.63477   -20.859037    140874.85   -49065.943    3757.7146   -52823.657   0.37603299 
   99200    271.88678   -7.2873788    140874.12   -49073.777    3733.7103   -52807.487   0.37116528 
   99300    277.04043      45.0077    140916.44   -49004.217    3804.4831     -52808.7   0.36331547 
   99400    276.31989   -2.7647781    140928.99   -49045.489    3794.5882   -52840.077   0.37900964 
   99500    275.29143    13.480333    140947.18    -49001.34    3780.4648   -52781.805   0.35839401 
   99600    270.80388    -38.53007    140981.14    -49006.71    3718.8391   -52725.549   0.37678763 
   99700    272.89484    10.892975    140946.73   -49044.333    3747.5534   -52791.887   0.36590651 
   99800     271.8265    28.017841    140921.92   -49053.473    3732.8823   -52786.355   0.35843287 
   99900    272.62953    20.389458    140899.56   -49109.166    3743.9101   -52853.076    0.3747715 
  100000    275.26212    22.926086    140897.61   -49021.681    3780.0624   -52801.743   0.36631425 
Loop time of 119.763 on 6 procs for 100000 steps with 4608 atoms

Performance: 360.712 ns/day, 0.067 hours/ns, 834.982 timesteps/s
99.0% CPU use with 6 MPI tasks x no OpenMP threads

MPI task timing breakdown:
Section |  min time  |  avg time  |  max time  |%varavg| %total
---------------------------------------------------------------
Pair    | 100.82     | 101.9      | 103.83     |   9.8 | 85.09
Neigh   | 6.4106     | 6.5659     | 6.7989     |   6.3 |  5.48
Comm    | 6.7777     | 8.5338     | 9.3314     |  29.3 |  7.13
Output  | 0.1673     | 0.16833    | 0.17176    |   0.4 |  0.14
Modify  | 1.8543     | 1.9189     | 1.9802     |   3.2 |  1.60
Other   |            | 0.6746     |            |       |  0.56

Nlocal:        768.000 ave         774 max         763 min
Histogram: 2 0 0 1 1 0 0 0 1 1
Nghost:        1693.67 ave        1711 max        1687 min
Histogram: 2 1 2 0 0 0 0 0 0 1
Neighs:        0.00000 ave           0 max           0 min
Histogram: 6 0 0 0 0 0 0 0 0 0
FullNghs:      24304.0 ave       24505 max       24135 min
Histogram: 2 0 1 0 0 1 0 0 1 1

Total # of neighbors = 145824
Ave neighs/atom = 31.645833
Neighbor list builds = 6626
Dangerous builds = 0

undump              1
unfix               2
unfix               3
unfix               4




################################################
#######         Run Simulation         #########
################################################

reset_timestep      0
log                 log.run_${NAME}
log                 log.run_ice_276K_1atm_mW
