LAMMPS data file via write_data, version 29 Oct 2020, timestep = 200000

4608 atoms
1 atom types

0.48869269208359256 56.78181730791748 xlo xhi
0.43439350407482635 50.472726495925556 ylo yhi
0.43439350407482635 50.472726495925556 zlo zhi

Masses

1 18.015

Atoms # atomic

5 1 1.7420902913639507 1.962526630647813 2.360893490886388 0 0 0
10 1 6.770721446640226 3.387771725384336 3.3470701685387696 0 0 0
876 1 9.634295114505392 28.613908038104647 25.4482116002285 0 0 0
13 1 8.346635534743701 1.6833933946362265 2.0192729068343347 0 0 0
21 1 14.484257161055702 2.3314893478479366 1.857554811706361 0 0 0
18 1 12.615731771699341 3.2250528414532362 3.7366876968772536 0 0 0
314 1 0.6733443329954796 35.0725532308615 9.313656854421229 0 0 0
19 1 16.208999202205217 0.4535879696599825 3.4169885045623465 0 0 0
27 1 3.4748400204109613 6.510058180885135 3.671147156914809 0 0 0
8 1 5.086424094745585 4.89870151097707 1.8992832925194127 0 0 0
721 1 0.7328886370060681 38.16404348082884 19.454626732447704 0 0 0
16 1 11.291439108431751 5.0211266643974835 1.8903853499171783 0 0 0
35 1 9.982615328941923 6.80248399866113 3.4410391460688743 0 0 0
804 1 9.842372715907201 10.048800494078389 25.36715625180455 0 0 0
24 1 17.908359792738242 5.37943970558133 1.8401614201045082 0 0 0
43 1 16.016134484043583 7.0546512187122365 3.402806755392477 0 0 0
29 1 1.776170238542076 8.14569015522708 2.310496565014712 0 0 0
97 1 0.6163952344856168 25.271573914835383 0.6560381238947787 0 0 0
34 1 6.566201933616774 9.884976007981562 3.650958367226508 0 0 0
37 1 8.220685193201762 8.071705459206637 2.4526462938140217 0 0 0
45 1 13.94386078330858 8.483590522553925 1.9509218647741058 0 0 0
42 1 12.66926708879273 10.019409552369186 3.5353922387755246 0 0 0
865 1 0.8192212443087188 25.366766883373316 25.425105200509307 0 0 0
697 1 0.9645306968422072 32.005919052934615 19.489303798528013 0 0 0
51 1 3.3727840249158416 13.27733487678441 3.4482548491472054 0 0 0
32 1 5.062481477404792 11.315995110386742 2.0908516604700846 0 0 0
772 1 4.021835809300624 3.621288133168396 25.17513056305389 0 0 0
59 1 9.381784843773222 13.016018302564271 3.4306439480668187 0 0 0
40 1 11.140509774094793 11.594274130140528 1.8634720169906434 0 0 0
48 1 17.50521528644791 11.451717860319565 1.8003765985656965 0 0 0
67 1 15.875326896951833 12.959017768764907 3.514460276279638 0 0 0
53 1 2.1206346260486426 14.976450471831185 1.8132265306515174 0 0 0
884 1 16.146650861848286 28.37330714128642 25.293355832648093 0 0 0
58 1 6.649062782133842 16.574663076955968 3.435759320344208 0 0 0
61 1 8.540854615251831 15.27844350289307 2.11709748218329 0 0 0
553 1 0.6371518310654143 44.08488458158503 13.024532666828236 0 0 0
69 1 14.462196523392826 14.516916030262967 1.8522722641614702 0 0 0
66 1 12.895064026976545 16.132092186210844 3.5660820594418365 0 0 0
913 1 0.61068830680134 38.15865927041621 25.189682729127806 0 0 0
75 1 3.7661762071868026 19.370228202442572 3.4109676359697962 0 0 0
56 1 5.308907665617525 17.978850407492864 1.6066315795389332 0 0 0
908 1 16.171490074142213 34.93571921620185 25.38322764763838 0 0 0
83 1 9.333271053560468 19.225140748520552 3.764406130777317 0 0 0
64 1 11.05040270633732 17.72003037926806 2.1513634568261146 0 0 0
72 1 17.291661852687838 17.57005411468186 1.8558117820733104 0 0 0
91 1 16.06610307095915 19.201860594768668 3.384902461210193 0 0 0
595 1 15.992330432053434 0.5601989614722005 22.152771802149854 0 0 0
77 1 1.6729357303811365 20.865571744175814 1.8882920452495988 0 0 0
766 1 14.639349434595275 49.21022115384016 24.325595039334758 0 0 0
82 1 6.749136676138981 22.196234189224292 3.6599723533729587 0 0 0
80 1 5.388333201167132 23.635190609995444 1.5566457067297033 0 0 0
85 1 8.292996632390714 20.881685634841183 2.1470547224793166 0 0 0
88 1 11.534571188030341 23.80035964236382 1.7547113322993992 0 0 0
93 1 14.410543039392971 20.684453671653326 1.9739208189636046 0 0 0
90 1 12.73994194713144 22.161548666311774 3.599583928612052 0 0 0
433 1 0.6612041105921572 13.115984141221409 12.911918650639175 0 0 0
99 1 3.480648758173215 25.031376468160015 3.2890300455147883 0 0 0
101 1 2.194371981287116 27.048733569951576 2.388944368703142 0 0 0
109 1 8.288103204246696 26.929874720001802 2.0782115679106266 0 0 0
796 1 3.9009532595628484 9.81240878162692 25.129476085267942 0 0 0
107 1 10.013385768345525 25.332679311092694 3.6657781216830503 0 0 0
117 1 14.108260582212013 27.242489359058176 1.8477088644488644 0 0 0
96 1 17.37000567918092 23.629470646345375 1.7648880065897017 0 0 0
115 1 15.767042045397321 25.46877125630432 3.397906719769309 0 0 0
762 1 12.992824409992664 47.724240151096936 22.898968936348034 0 0 0
106 1 6.399220557918942 28.16413182161717 3.99101162385895 0 0 0
104 1 5.065127341509939 30.04725682904193 2.692867933689505 0 0 0
860 1 16.22399714358462 22.26683941946579 25.01522486837257 0 0 0
112 1 11.106629705626068 30.06712058120876 1.7390935028841896 0 0 0
114 1 12.838725366429182 28.919149528273227 3.379762823458856 0 0 0
120 1 17.059789154344834 30.29990471456129 1.9965923198002697 0 0 0
758 1 8.498818197201667 48.87569156678147 23.832472126871338 0 0 0
125 1 2.253230054439977 32.8035675685562 2.111528997137391 0 0 0
123 1 3.375871798931594 31.25171773019225 4.00186379172015 0 0 0
133 1 7.873677031542113 32.958379719039456 1.8514086297294883 0 0 0
131 1 9.67508642018623 31.58228911363331 3.478603246470597 0 0 0
141 1 13.860232575385902 33.45772224085501 1.9357299915041357 0 0 0
139 1 15.705128398763737 32.24959552892273 3.1833788198404096 0 0 0
128 1 4.964337745930726 36.42513136012534 1.9169994448807186 0 0 0
130 1 6.397449765248915 34.79732144896073 3.4700616184776165 0 0 0
674 1 0.6776348324577306 28.766039783828315 22.30807976513752 0 0 0
136 1 11.351348324784697 36.39997474149072 1.6962081460164393 0 0 0
138 1 12.601769934655017 34.70924265954191 3.528074858685621 0 0 0
144 1 17.660117716845814 36.39771990502029 1.9851611170570511 0 0 0
241 1 0.550751978931875 12.66057475671808 6.656203596413224 0 0 0
149 1 1.779317235445075 39.403765082025544 1.957304881290676 0 0 0
147 1 3.6472817371381407 38.105973055411006 3.3469560501677686 0 0 0
780 1 9.412490504584884 3.587587533755692 25.404366202832342 0 0 0
157 1 8.343706591901142 39.435114356032294 1.6727785806795428 0 0 0
155 1 9.950751685879547 38.1123171547582 3.479141824803266 0 0 0
924 1 10.224976320057724 40.90945713625354 25.347179001745484 0 0 0
165 1 14.41434527606701 39.46076749207687 2.138880916469172 0 0 0
385 1 0.6133526731623845 0.5430095296894353 13.379954160293721 0 0 0
152 1 5.230711795955374 42.319774576336606 2.2085975395524455 0 0 0
154 1 6.884616153596486 40.7042537572975 3.6672027879958984 0 0 0
160 1 11.537499002225841 42.61280532769107 1.7634624060753734 0 0 0
162 1 13.078053965299288 40.790935676312834 3.5924552456915144 0 0 0
161 1 12.849400227646527 38.38335321004167 0.5694192262136831 0 0 0
168 1 17.505177303523652 42.27040599382275 1.8391747798525644 0 0 0
171 1 3.6088845055370333 44.00902187787854 3.535429807040176 0 0 0
173 1 1.6046627961305857 45.547567259963664 1.8539201153756377 0 0 0
178 1 6.857152449329697 47.40272380074058 3.6335780104593205 0 0 0
181 1 8.165022574141389 46.04093311314543 1.6308073092322486 0 0 0
179 1 9.816090067246927 44.36007283827593 3.4961177344095087 0 0 0
189 1 14.380025611728676 45.62697485985578 1.582369295327608 0 0 0
100 1 3.7666616157163486 28.757755060435347 0.9693178553012057 0 0 0
187 1 15.932600977360003 43.949296061062924 3.051502707585092 0 0 0
140 1 15.723177326346047 35.125880529327254 0.622310728073332 0 0 0
3 1 3.371922574945489 50.32091360831803 3.848282066262629 0 -1 0
176 1 5.36498900312083 48.988363190924005 2.3532148278446163 0 0 0
11 1 9.877243658820884 0.4381373778260507 3.8549263715510786 0 0 0
184 1 11.415995872012054 49.05713889251036 1.8052070448958253 0 0 0
186 1 12.686610248601312 47.05467977227525 3.543256089375883 0 0 0
192 1 17.76117531309264 49.10545615965088 1.7890617064439072 0 0 0
4 1 3.239291073972454 3.2193834153046414 0.5514763387184324 0 0 0
129 1 6.421751360837386 31.407776596646936 0.5872601113017396 0 0 0
698 1 1.0548718594448734 34.75133609061987 22.55014546211913 0 0 0
196 1 3.8260651226488704 3.5469308170060767 6.711946159196468 0 0 0
7 1 5.107718366842659 1.9171419067494957 4.9715392608866695 0 0 0
201 1 6.232571656819797 50.15869208246773 6.57108376843054 0 -1 0
15 1 11.073985355982922 1.9593109355078704 5.588783955873523 0 0 0
204 1 9.637360789169232 3.673151332282873 6.5706852827592614 0 0 0
209 1 13.201897549157868 50.272006239646295 6.636127889287804 0 -1 0
23 1 18.078686506963777 1.8285737144417495 4.718571284930853 0 0 0
212 1 16.014268786476336 3.4956262667575064 6.165826014867201 0 0 0
6 1 2.111484213089941 5.065514982637346 5.730245261341329 0 0 0
225 1 6.916340508644102 6.658720172312811 6.678343493824295 0 0 0
14 1 8.369645548921103 5.142972469728028 5.000752391426988 0 0 0
22 1 14.390505672352242 5.09809772887613 4.848246043412755 0 0 0
233 1 13.032421570358778 6.651830493581815 6.66302210817901 0 0 0
754 1 6.589954438211405 47.35583959029186 22.298424490146644 0 0 0
220 1 3.2231439715293604 9.944655889334575 6.46472749444113 0 0 0
31 1 4.827365522922748 8.555284732963313 5.050773245258328 0 0 0
228 1 9.556680651731147 9.67584544168917 6.797354947482603 0 0 0
39 1 11.25819955536578 8.154635297230257 5.258461852647993 0 0 0
47 1 17.65753500561238 8.254052599572464 4.923960788611634 0 0 0
236 1 15.968517416233999 9.836426122067902 6.131031972629266 0 0 0
849 1 6.955543926105996 19.63707693848327 25.083308881690034 0 0 0
30 1 1.9871579905584913 11.590723928687593 4.928515319417392 0 0 0
249 1 6.405849927197039 12.857124950577589 6.300608409999902 0 0 0
38 1 7.9868098593883685 11.141936113915582 5.049282940321351 0 0 0
46 1 14.611041835071347 11.651579835551768 5.258950610772695 0 0 0
257 1 12.894015420427863 13.2768041570482 6.703027062264423 0 0 0
244 1 3.7635918193941182 16.037486117748756 6.722674303580382 0 0 0
55 1 5.269565930168388 14.937596490223122 4.9430735360053655 0 0 0
252 1 9.51634841793037 16.05584307068964 6.59404936075929 0 0 0
63 1 10.961013243828038 14.40291176382269 5.3254953176782305 0 0 0
260 1 16.144649720947534 16.504016030025007 6.585956572285311 0 0 0
71 1 17.83170906856509 14.394128202400417 5.141477001004422 0 0 0
54 1 1.9352098872578554 17.853790155318507 5.201048659128592 0 0 0
273 1 6.496348289348785 19.22846936163551 6.983030295922549 0 0 0
62 1 7.773203061529957 17.686724927286615 5.417370745095728 0 0 0
87 1 10.87559134997032 20.62664514865398 5.1426150669841 0 0 0
70 1 14.453123875504554 17.727629433096816 4.842125960276496 0 0 0
281 1 12.591402599547838 19.201398662653467 6.297980808581693 0 0 0
268 1 3.311644638564112 22.43478684162937 7.0242061205142035 0 0 0
78 1 1.7918759784710383 23.398834464263732 5.041229798966332 0 0 0
79 1 5.042984581274186 20.76823045514786 5.293468578990111 0 0 0
276 1 9.626412709934243 22.388722407681474 6.444878640265905 0 0 0
95 1 17.94938428911014 20.502038627429904 5.075965242123851 0 0 0
284 1 15.887401281642285 21.96332666690735 6.712218865862292 0 0 0
297 1 6.670960471725951 25.155921953321386 6.4970289519885 0 0 0
86 1 8.171961286403702 23.819055938348903 5.007655014649399 0 0 0
111 1 11.315349820216188 27.292159964707363 4.866248313714854 0 0 0
94 1 14.322554403603815 23.958893759233636 4.961770309656839 0 0 0
305 1 13.026761085865814 25.492681576474904 6.547434532849518 0 0 0
119 1 17.447043969271558 26.997031885697165 5.358914693657115 0 0 0
292 1 3.1631390828625467 28.296835314505593 6.788575439623066 0 0 0
102 1 1.4967213394926042 29.928633348421428 5.330392706950538 0 0 0
103 1 4.710456620106588 26.633432285137616 5.066066857809472 0 0 0
110 1 8.107445288789837 29.839738558306774 5.040085824404315 0 0 0
300 1 9.816465692946306 28.478134538260562 6.88240202709534 0 0 0
118 1 14.197791275877591 30.7603998068506 5.380034540198595 0 0 0
308 1 15.845820128417879 29.030447409446598 6.481846683589072 0 0 0
321 1 6.580567874600064 31.333146922013473 6.780248601852677 0 0 0
127 1 4.962148743638137 33.20675045699199 5.3388605258369655 0 0 0
135 1 11.25671313392533 33.11944022677361 5.303830785666438 0 0 0
329 1 12.753027118406816 32.0733357539114 6.979780475768695 0 0 0
143 1 17.642651413903067 32.955338685001436 4.801575977805431 0 0 0
124 1 3.420947001001882 34.756717604793245 0.5938318451629465 0 0 0
126 1 1.838778798518892 36.8198002096793 5.004035220944809 0 0 0
316 1 3.5285750173711845 34.94315621026424 6.6247394669299675 0 0 0
134 1 8.383903375812682 36.562621811086444 4.789670039768131 0 0 0
324 1 9.980211084946564 35.130046359910004 6.898595556276189 0 0 0
142 1 14.454845725342828 36.27274502799582 4.7950370762232755 0 0 0
332 1 16.217942427263136 34.8904843226927 6.401862115611833 0 0 0
151 1 5.30265384151055 39.22321783141851 5.106760095884773 0 0 0
345 1 7.1383479614261 37.82988686950288 6.555049393964183 0 0 0
159 1 11.43577722327349 39.49437560770854 5.088665006944869 0 0 0
353 1 13.237221326254453 38.308607555320926 6.57635691484463 0 0 0
163 1 16.178758540638682 37.98762193636602 3.5480836722590463 0 0 0
167 1 17.46408515033847 39.68203075906119 4.911815806716209 0 0 0
857 1 12.984709540711926 19.329960177728992 25.041003290405303 0 0 0
340 1 3.534464117491602 40.930994213688706 6.661303577114927 0 0 0
150 1 1.9538667768715319 42.8467752649459 5.104568839960107 0 0 0
158 1 7.888225434446083 42.91049579270062 5.201237097063087 0 0 0
348 1 9.822630558576423 40.827708171338635 6.351411200949705 0 0 0
166 1 14.399867131720292 42.54596660924986 4.845804852551867 0 0 0
356 1 15.949439194357927 41.12109234630882 6.788462456862793 0 0 0
369 1 6.60307273205887 44.70795535112067 6.819560808936393 0 0 0
175 1 5.022666269590482 45.79895274576872 5.053594726333671 0 0 0
183 1 11.268250192448312 45.66614263062086 5.108780414599766 0 0 0
377 1 12.820453911335536 43.94402431322376 6.570716170290056 0 0 0
191 1 17.414429289004783 45.73708932636085 4.40803316767529 0 0 0
364 1 3.5355463999569716 47.53549434007822 6.611393003243221 0 0 0
174 1 1.964623429738232 49.02153045284718 5.433581976932533 0 0 0
182 1 8.340208834577338 48.80499383351439 5.523401454326552 0 0 0
372 1 9.847413643603089 47.14257012775265 6.821375478646328 0 0 0
190 1 14.757713326587384 48.32269396338427 4.727180984540665 0 0 0
380 1 16.483827836495493 46.721874638405524 6.697134363861704 0 0 0
750 1 2.3371314409116417 48.41208373030113 23.860447300452677 0 0 0
197 1 2.706722506096399 2.2672196100033997 8.744307387752633 0 0 0
195 1 3.759556045815921 50.34528427561398 10.359441398894251 0 -1 0
1897 1 18.966901685475637 44.123869802624746 6.359200722262078 0 0 0
202 1 6.274820237503409 3.3239459135067846 9.997827519613121 0 0 0
205 1 7.6790752442559755 1.9789140379728272 7.917270763894644 0 0 0
203 1 9.759870616984026 0.7398635214314022 9.627330033584931 0 0 0
207 1 11.618774248226142 2.1788207333486795 10.96857905571295 0 0 0
213 1 14.76618056672946 1.9535043596145618 8.431178608046974 0 0 0
210 1 13.1098829126631 3.731031728395759 9.465478140730005 0 0 0
211 1 16.077456789794653 50.22898328264482 9.851800984901073 0 -1 0
148 1 3.3877728594117196 41.10067450139812 0.5721635270097307 0 0 0
219 1 3.483957192755774 6.526909060828428 9.687672940024136 0 0 0
200 1 5.314856071945643 5.006390399449617 8.142468231558794 0 0 0
208 1 11.480419268426216 5.268849119271261 8.317329108951066 0 0 0
227 1 9.667413258237056 6.651838792976337 10.111694730352207 0 0 0
216 1 17.618115883694617 5.066565941532401 7.86620889428082 0 0 0
235 1 16.02202716322899 6.346608721528232 9.671923932743713 0 0 0
221 1 1.6576600923902647 8.601853316231088 8.692344731271294 0 0 0
226 1 6.460126525886885 9.648466608938719 9.841768792741869 0 0 0
223 1 4.900849959094312 7.80993896181821 11.385456997036169 0 0 0
229 1 7.9593985690929125 8.009017405790193 8.675810976278234 0 0 0
231 1 11.406515526580987 8.160337105738666 11.433229499011563 0 0 0
237 1 14.473282277674315 8.401588254665125 8.202570204275698 0 0 0
234 1 12.743779894973157 9.844074799185135 9.971303379090624 0 0 0
243 1 3.2705408087265964 12.784829811840796 9.893542111116641 0 0 0
222 1 1.8810935970399372 11.429640259382902 11.601577713389272 0 0 0
224 1 4.809244900822334 11.250317301111364 8.000189744552483 0 0 0
251 1 9.734146918581212 12.815140517590137 9.59510896808291 0 0 0
232 1 11.581792884393769 11.452470663919941 8.035313083088298 0 0 0
238 1 14.860542171117027 11.23996449028742 11.24789984055615 0 0 0
259 1 16.097125084571985 12.821716837689417 9.450310028128783 0 0 0
240 1 17.591844596797483 11.289813926075208 7.809011937505533 0 0 0
245 1 1.9368347967951658 14.548552079867383 8.064844250491818 0 0 0
250 1 6.613733288976656 16.055127368857665 9.784874847246803 0 0 0
253 1 7.995707307322984 14.14150756486116 7.974800604931408 0 0 0
261 1 14.515699559445336 14.824999815969955 8.201808488401216 0 0 0
258 1 12.814278322307635 16.304114190237634 9.669667192601299 0 0 0
763 1 16.00588236368508 44.00288389104117 22.77979977576439 0 0 0
267 1 3.3706315577489065 19.358489011476937 9.770980562005297 0 0 0
246 1 1.9764984133559933 17.76798032745239 11.703650605725516 0 0 0
248 1 4.784352319693121 17.718482487804188 8.493481152707279 0 0 0
275 1 9.85412721012179 19.32637310713428 9.682227392613896 0 0 0
256 1 11.14367597281856 17.572043669096324 8.153446631461096 0 0 0
264 1 17.96692111624515 17.89828893226764 8.508660129961424 0 0 0
283 1 15.72427398276519 19.01531049957099 9.893445874433606 0 0 0
269 1 1.4993002406087388 20.954878633077158 8.377561753877643 0 0 0
274 1 6.898834589059561 22.445680614231513 9.266141609601396 0 0 0
277 1 8.43548142471851 20.52576390508896 7.964455277278669 0 0 0
285 1 14.186107995636542 20.424968022326006 8.084906574978111 0 0 0
282 1 13.195677051281866 22.029051047854317 10.134626476819593 0 0 0
291 1 3.258891061623696 25.465596413253557 9.601528275861256 0 0 0
293 1 1.515107023916697 26.812132903469678 7.86746624222564 0 0 0
272 1 5.09593524539169 23.904902703956527 8.227687659377338 0 0 0
299 1 9.899623332708984 25.009275016844626 9.724437067647305 0 0 0
301 1 8.262313647480271 26.58514709293052 8.025619855371597 0 0 0
280 1 11.595728620207652 23.691610145040006 8.037101454739352 0 0 0
288 1 17.3920257982416 24.037810223969245 8.484055320970915 0 0 0
307 1 15.950381098353656 25.66190783435486 9.911824231496796 0 0 0
298 1 6.738931654860366 28.45445031514054 9.885787948996871 0 0 0
296 1 5.005881554598382 29.5835111843395 8.11917969157801 0 0 0
304 1 11.009352721234116 30.302133407362284 8.61441064038097 0 0 0
309 1 14.446441827433432 27.182539761116374 8.080971596521533 0 0 0
306 1 12.995447309674034 28.492669096064567 9.759534079115669 0 0 0
312 1 17.83412456127053 30.08057075492092 8.568530756105721 0 0 0
50 1 0.5050462439625805 16.04208789723528 3.630790498899226 0 0 0
317 1 1.8771191987780844 32.868131822022974 7.829732763026484 0 0 0
315 1 3.317440317118148 31.378881146815182 9.610777608695326 0 0 0
319 1 5.0491834448391115 33.28919978433522 11.286819429374265 0 0 0
323 1 9.786214946978351 32.24941729450396 10.046571360449837 0 0 0
325 1 8.051221667442015 33.45500659653338 8.609226151790365 0 0 0
333 1 14.822994404536125 33.52218135763624 8.345946486702454 0 0 0
331 1 16.246267756235447 31.841220964306842 10.017954691305212 0 0 0
767 1 17.51896996190181 45.52983172332472 24.329075716158865 0 0 0
318 1 1.9217868467754091 36.68879295564412 11.151010216996948 0 0 0
320 1 5.041672122947367 36.40323950777204 8.011052452449114 0 0 0
322 1 6.488472457629541 34.75890354777443 9.786907218854955 0 0 0
328 1 11.714832608891909 36.82373097504581 8.210488298664835 0 0 0
330 1 12.904086159581388 34.949133896838944 9.712080360746247 0 0 0
336 1 17.850779072838343 36.17843303055202 8.08555763550292 0 0 0
937 1 0.6863015823879323 44.4447813943118 25.379550504177665 0 0 0
341 1 1.9300078368083549 39.29504423545217 8.110130141072977 0 0 0
339 1 3.8363866898139327 37.908248933120944 9.784122946296474 0 0 0
349 1 8.156520082156096 39.55856726382519 8.169140233232632 0 0 0
347 1 9.947204043462735 38.21473670584507 9.72452713121404 0 0 0
357 1 14.572628210600419 39.886854077738946 8.64291118480831 0 0 0
355 1 16.044153235647503 38.20601776865648 9.836118734616091 0 0 0
346 1 6.456115469992734 41.22577618371011 9.513246210950404 0 0 0
344 1 4.842812712612455 42.96487913429946 8.192770435283286 0 0 0
352 1 11.285899844929997 42.526788594496004 7.982891207798361 0 0 0
354 1 12.948416899816975 41.247259008582674 9.927555758223816 0 0 0
360 1 17.636523059207054 42.76676363033162 8.194425725856853 0 0 0
759 1 11.54657897937374 45.83306171632713 24.281371894080472 0 0 0
363 1 3.494074124687729 44.618690154389284 9.685030707460113 0 0 0
365 1 1.606191967845804 46.16999879750586 8.349764293868496 0 0 0
373 1 8.442310134662103 45.977878664133655 8.470746862236082 0 0 0
371 1 9.839135236329993 44.26863732855834 9.42615023136642 0 0 0
381 1 14.25240882402662 45.77488835215787 8.019833190832419 0 0 0
379 1 15.823626810180757 44.490808118101924 9.298635240084284 0 0 0
193 1 0.5453068819365504 0.6762308498598214 7.360316455459733 0 0 0
370 1 6.85430257790364 47.58538126225438 9.654522948533405 0 0 0
368 1 4.8593463413516025 48.98334513928766 8.326726195190801 0 0 0
376 1 11.665026704641138 48.80786936966603 8.317567357913479 0 0 0
378 1 12.743134747162753 47.04588271503276 9.819448973772465 0 0 0
384 1 17.590863345546794 48.84075707438392 8.086330684330601 0 0 0
755 1 9.914253324855821 44.705595681281345 22.23674096382965 0 0 0
389 1 1.8503560908197414 2.2074433397874342 14.832699105802499 0 0 0
388 1 3.264051917479539 3.874400148938527 13.294676387917605 0 0 0
199 1 4.862039235045188 2.285951577507009 11.948115925413946 0 0 0
397 1 8.30462818336865 1.8292002007782768 14.645171392545855 0 0 0
396 1 9.934511849411699 3.2531373069726306 13.000925279784266 0 0 0
405 1 14.539347989352212 1.5269171672890047 14.507228467291 0 0 0
401 1 12.938549349520187 0.54953428324261 12.70130121575782 0 0 0
215 1 17.402894738861118 1.8925924974705375 11.244227806022495 0 0 0
404 1 16.14768526349429 3.044924991748045 13.208204447568907 0 0 0
198 1 1.8770176301296981 5.076543971400248 11.256425054852512 0 0 0
417 1 6.708557378394886 6.350939428064255 12.647793371158217 0 0 0
392 1 5.229379558611863 5.249242357477957 14.666240874062074 0 0 0
206 1 8.215187805279982 4.897489322478247 11.313933172766824 0 0 0
400 1 11.363719009231865 4.790429032698054 14.360145246621414 0 0 0
214 1 14.535390108302902 4.641624103283494 11.641663137025425 0 0 0
425 1 12.923266722140822 6.461353315233846 12.86128881912597 0 0 0
408 1 17.360474267764236 4.953044846836181 14.424550877514218 0 0 0
1993 1 18.819462794805347 19.162577630614845 13.100364070075011 0 0 0
412 1 3.368044911786029 9.827883636638218 12.97314579242147 0 0 0
413 1 2.1939111413408727 7.8894076155673565 14.730408147752039 0 0 0
420 1 9.740978519854725 9.502435691168122 12.775807327136953 0 0 0
421 1 8.126155260526161 7.960639847131031 14.247468160763708 0 0 0
429 1 14.502088732963427 8.226738710851809 14.112493409237013 0 0 0
239 1 17.879832417031878 7.732686836813359 10.872512861011323 0 0 0
428 1 16.58202391456711 9.39549293369279 12.747762990166551 0 0 0
751 1 5.175335365556556 45.51298053293253 23.95698286477406 0 0 0
441 1 6.13636425541409 12.47160841931028 12.897062785518639 0 0 0
416 1 4.842474461442926 11.214681967694371 15.066438070742636 0 0 0
230 1 8.044709328302275 11.09703617354391 11.344434673876691 0 0 0
424 1 10.965035905258867 11.446418950699227 14.203930403589158 0 0 0
449 1 12.780893896372373 12.84047670146905 12.731085719581149 0 0 0
432 1 17.802396528378726 10.985375046923627 14.497072509281404 0 0 0
436 1 3.658129121690243 16.271561195230618 13.002624459696762 0 0 0
437 1 2.046799516809534 15.07153266765949 14.659486160183894 0 0 0
247 1 4.871272960068613 14.435046141838725 11.289827834397332 0 0 0
444 1 9.434129970609222 15.858265031453513 12.830008634603569 0 0 0
445 1 7.670261741294979 14.462030186264654 14.366462575027796 0 0 0
255 1 11.223017113561394 14.520436201343246 11.109632502804166 0 0 0
453 1 14.47992821147216 14.067163816640532 14.437281905515349 0 0 0
263 1 17.626978181519682 14.227613978994766 11.3196961783471 0 0 0
452 1 15.957643419162693 15.587762317228542 12.966856658262742 0 0 0
1922 1 19.140984471245684 3.51082045774312 15.985161899351958 0 0 0
254 1 8.189802232828688 17.620809432686144 11.323372944064195 0 0 0
465 1 6.916509969798139 19.241124755043746 13.08863655418204 0 0 0
440 1 5.058482480637602 17.93292956275265 14.435831942078543 0 0 0
448 1 11.114675683787786 17.32441176581235 14.654059586869488 0 0 0
262 1 14.212815415804169 17.1749469764779 11.597056384626367 0 0 0
473 1 12.596942258407447 18.83459837647002 13.188559704578426 0 0 0
456 1 17.221136571211346 17.43667888543978 14.59805385257372 0 0 0
460 1 3.4652392653059807 22.706811103696943 12.797825305740124 0 0 0
461 1 1.871958933839667 20.92343735067539 14.241078168315079 0 0 0
271 1 5.22547801776657 21.0050249959004 11.260655637774843 0 0 0
278 1 8.324857821144754 23.42019010123222 11.289884194555263 0 0 0
279 1 11.303157760684329 20.56042688402561 11.558218595926729 0 0 0
468 1 10.009044510601694 22.37692530454163 12.819796969516545 0 0 0
469 1 8.483132071288578 20.755689676800127 14.81799411617487 0 0 0
477 1 14.27723839802473 20.523404812712297 14.548557309540604 0 0 0
287 1 17.562337342144275 20.651970205727928 11.381949482942412 0 0 0
476 1 16.178650337620418 22.12847054820575 13.205398801188512 0 0 0
577 1 0.886065534577426 0.4775015807692782 18.90381898110748 0 0 0
270 1 1.8150318085544301 24.049908304519107 11.339814288076921 0 0 0
464 1 5.433610429344108 23.78464721760238 14.522838356945797 0 0 0
489 1 6.530770708756441 25.286946391742973 12.63999614484018 0 0 0
295 1 5.067153446007463 26.792021239664393 11.152021430856442 0 0 0
286 1 14.70054436440591 23.723978137696825 11.410833515904406 0 0 0
497 1 13.220432039660857 25.254480188285903 13.254247613968154 0 0 0
501 1 14.346511626349473 27.120866806696764 14.786681348164683 0 0 0
311 1 17.73101676947613 26.818430731117015 11.619562252119604 0 0 0
480 1 17.922961274758354 24.079760815600988 14.722757038669993 0 0 0
485 1 2.090163486294608 27.20565515163495 14.626022917573822 0 0 0
294 1 1.8431039359201749 29.957508958004688 11.052406120124493 0 0 0
484 1 3.78115541163833 28.31249270460868 12.576519095798792 0 0 0
493 1 8.257325870039534 26.91798778766492 14.170637897084504 0 0 0
492 1 9.984179610655183 28.442145007221193 12.911974451692062 0 0 0
302 1 8.37906208154256 29.96532255171776 11.35258142637539 0 0 0
303 1 11.830196435843131 26.74356145924284 11.626648550856151 0 0 0
310 1 14.809507348633552 30.020515644576395 11.563228602584802 0 0 0
500 1 16.04404944925374 28.18009758709908 13.04178590738617 0 0 0
2137 1 19.148059687602235 6.576170080571212 18.893508693774848 0 0 0
509 1 1.7818840854501234 33.01428226318972 14.28953090026074 0 0 0
513 1 6.792170521091877 31.81807770017661 12.614136872276658 0 0 0
327 1 11.44885719124751 33.49582364230834 11.365639802078148 0 0 0
517 1 7.880412173259218 33.163102200934475 14.699787680792715 0 0 0
521 1 13.031715526570041 31.840846555217365 12.903789010084706 0 0 0
335 1 17.963157964640036 33.2093765128339 11.57397010338372 0 0 0
747 1 4.02553774288622 44.094745035596056 22.004615717854247 0 0 0
508 1 3.3755466094140787 34.7959888245724 12.855874499202848 0 0 0
512 1 5.294334599953386 36.60909848292932 14.269000987778414 0 0 0
326 1 8.589444946765957 36.29823100316727 11.14572759373174 0 0 0
516 1 9.583272251282855 34.760986114357216 12.92103147055652 0 0 0
520 1 11.162959507908102 36.053963182341114 14.593366042594633 0 0 0
334 1 14.627243685681677 36.49739137364091 11.530417072160247 0 0 0
524 1 16.360336755228552 34.77893502948863 13.248929782150562 0 0 0
528 1 17.776934274535584 36.32707031479094 14.541457415427487 0 0 0
533 1 1.9762200289442367 39.750608279504135 14.507383663669708 0 0 0
343 1 5.290640222681889 39.78960754434761 11.307359261227035 0 0 0
537 1 7.106190037243162 38.09504474776825 12.710660926686137 0 0 0
351 1 11.499797892584754 39.66938493060751 11.750804371429943 0 0 0
541 1 8.755452978967975 39.509062114624584 14.45870574766414 0 0 0
545 1 12.531983038119144 37.6627274374773 13.120162554530815 0 0 0
549 1 14.333054752986927 39.351713627117306 14.432595495542254 0 0 0
359 1 17.65336744690326 39.440838921221435 11.672922943198214 0 0 0
532 1 3.7933039442736596 41.14859499645238 13.17070199546005 0 0 0
342 1 2.2104603000195078 42.62479351823341 11.593093382044284 0 0 0
536 1 5.326722371450145 42.66957404402562 14.732652376666483 0 0 0
350 1 8.17925344097626 42.50198385065771 11.069179346961215 0 0 0
540 1 9.874562639698562 41.65240675253265 12.743357739584402 0 0 0
358 1 14.775509766678942 42.760433268571454 11.20432843448254 0 0 0
548 1 16.11494049212176 41.00191802157472 13.061296960670099 0 0 0
552 1 17.571849432203447 42.73496591594898 14.589428392572756 0 0 0
557 1 2.2429720923956404 45.74809381835782 14.653024049679974 0 0 0
367 1 5.26758359631285 45.95430698958293 11.439609952357383 0 0 0
561 1 6.696882246782941 44.11956215635295 12.829742857581689 0 0 0
375 1 10.966120514485764 45.80528137868553 11.238471056742789 0 0 0
565 1 8.451865481923392 45.753892005168865 14.502826501946588 0 0 0
569 1 12.932966050317521 44.21115865763538 12.776152429509034 0 0 0
573 1 14.11635789161144 45.656458995966354 14.707972264916846 0 0 0
383 1 17.536222128230296 45.64717222159321 11.22978352257487 0 0 0
366 1 2.5141145616647993 48.784264813870735 11.92437315511288 0 0 0
556 1 4.1331020411671915 47.19006812582267 13.32133164281806 0 0 0
393 1 6.58073330279982 0.6902552266491231 12.85986130972096 0 0 0
374 1 8.28677238711844 49.29296397006614 11.322103778603719 0 0 0
564 1 9.725553300946093 47.63077771115492 12.717893360611134 0 0 0
568 1 11.325974534791946 49.086840096615504 14.45128632862729 0 0 0
382 1 14.429928382488397 48.58508134880747 11.398407518654137 0 0 0
572 1 16.14200014458633 47.17501396586234 13.12494576404324 0 0 0
576 1 18.073409141094313 48.79461574414196 14.60395549348093 0 0 0