LAMMPS data file via write_data, version 29 Oct 2020, timestep = 100000

8521 atoms
1 atom types

0.4520918956222033 104.03033542722795 xlo xhi
-0.28130720990253977 50.490667471248585 ylo yhi
-0.28130720990253977 50.490667471248585 zlo zhi

Masses

1 18.015

Atoms # atomic

1918 1 3.452796549439356 2.400716383093423 0.7726478854848069 0 0 1
1917 1 2.006357114428281 0.8922275750609363 2.46541266606342 0 0 1
1926 1 10.017680383416653 2.2883862189558055 0.9439677607417363 0 0 1
1919 1 7.926121488177896 0.8744972780115321 2.3848390583418557 0 0 1
1922 1 16.5912896741301 2.320845941633101 1.123075824388423 0 0 1
1920 1 14.902247423496584 0.7408169210324884 2.4647581112906716 0 0 1
2649 1 21.182685225622407 1.0453148441271014 2.606650801907554 0 0 1
2656 1 22.810715944139474 2.287219162128502 1.028730977363074 0 0 1
2651 1 27.284345845987456 0.966315971363684 2.412185133450372 0 0 1
2652 1 29.373038839743725 2.262166854990324 0.6828054024324535 0 0 1
2653 1 33.213237861131994 1.0505620399145812 2.5129447545808925 0 0 1
2112 1 0.4679801879727573 5.077259676921818 1.2346617487428844 0 0 1
1925 1 6.536009110299235 5.607522619299239 1.24387353761 0 0 1
1924 1 4.913492296386029 3.829828585277915 2.471044812488104 0 0 1
1928 1 13.048378516932893 5.157883115022416 0.9364523631911679 0 0 1
1927 1 11.364862766833067 3.8612002399116863 2.5132600148931106 0 0 1
1929 1 17.9336106560965 4.090445687160394 2.299740547090612 0 0 1
2589 1 19.394102287731805 5.946265980421316 0.9717630127639028 0 0 1
2657 1 23.964677039258895 4.1391192256531095 2.556692527810958 0 0 1
2658 1 25.826241275603596 5.215054349447189 0.7146589734586056 0 0 1
2659 1 30.53907392991264 4.128045211973945 2.363260275012209 0 0 1
2660 1 31.649885924685172 5.835796597659251 0.7714418128849583 0 0 1
1931 1 3.337851259587193 8.829646497681805 1.2986619851129684 0 0 1
1930 1 1.749673059946892 6.9129815602015325 2.692650864859952 0 0 1
1933 1 9.917622622034138 8.303159623735159 0.6802117768781373 0 0 1
1932 1 8.22519818970313 7.165970770061994 2.367983679162642 0 0 1
1934 1 14.194331307628469 7.1707279918086275 2.527617060680601 0 0 1
1935 1 15.996937104086788 8.722038436219352 1.0807860562569005 0 0 1
2662 1 21.131565030181886 7.615034541438762 2.252164356709891 0 0 1
2663 1 22.583094644615308 8.765132878770121 0.551661234955633 0 0 1
2664 1 27.424869744402866 6.80198290890466 2.2008040883529816 0 0 1
2665 1 28.846036149207897 8.93682963210534 0.5270605618430104 0 0 1
2667 1 34.788111523413164 8.718647624171902 0.9131880287197955 0 0 1
2666 1 33.101477812456096 7.022063322697976 2.58032944743547 0 0 1
1937 1 6.5653316203938825 11.557520780727986 0.8933939883194597 0 0 1
1938 1 5.1520885203033036 10.284549615113852 2.7005960927424946 0 0 1
1939 1 10.898914944625728 9.956227550700124 2.517613879018523 0 0 1
1940 1 12.877403387945463 11.442605621003176 1.038257676641453 0 0 1
2250 1 19.333243528457245 11.85233707235647 0.9400759577936817 0 0 1
1941 1 17.880089740029607 10.302748251424738 2.165159975518644 0 0 1
2669 1 23.997567857950923 9.904536789814557 2.5934851348893453 0 0 1
2668 1 25.39454921018853 11.474372734892649 0.7615724523334857 0 0 1
2670 1 30.44842497119089 10.400888641057678 1.9874845627562907 0 0 1
2671 1 32.21282243918421 12.11181683603504 0.5990082829687339 0 0 1
1943 1 1.9828257008009231 12.918813525084532 2.2162573019927394 0 0 1
1944 1 3.3802171278717297 14.713520135859797 0.8949709147430394 0 0 1
1945 1 8.06310680102677 13.205163025132657 2.462581972841527 0 0 1
1946 1 10.068918690391884 14.551853254368027 1.1490319386301324 0 0 1
1948 1 16.264962093729224 14.856121739384507 0.8178002315193422 0 0 1
1947 1 14.817608805644094 13.249332651686576 2.204422978991144 0 0 1
2673 1 21.090453547583323 13.188720609056714 2.5256485376811986 0 0 1
2672 1 22.165436328217154 14.823776817520127 0.6802208849669973 0 0 1
2674 1 27.233459576089295 13.137419591060276 2.0010763390960538 0 0 1
2675 1 28.948495493603776 14.970841304813282 0.4623373912683698 0 0 1
2676 1 33.83132878181349 13.663178266387394 2.1029996465327927 0 0 1
1951 1 6.509238326605 18.07137992320871 1.0651759497187665 0 0 1
1950 1 4.8959433326671435 16.464409430946116 2.4440287908432436 0 0 1
1847 1 8.136292407296537 16.11246789637289 -0.22390897639141868 0 0 1
1954 1 12.941791381956607 17.99240672842032 0.9710237475952217 0 0 1
1952 1 11.361301270881542 16.60097706358465 2.6013936613560618 0 0 1
2265 1 19.483545433667935 18.001962271183533 1.0393182442185684 0 0 1
1955 1 17.82915269176387 16.570665666179156 2.320703599428513 0 0 1
2677 1 23.92500901167479 16.429313154575137 2.480311448429061 0 0 1
2678 1 25.551819088517153 18.047978128145573 0.8807107248805714 0 0 1
2679 1 30.42160986310624 16.318730042644315 2.1995996446804575 0 0 1
2680 1 31.999086802173846 17.74437764066539 0.8102513965934208 0 0 1
1957 1 2.2336189270091915 19.436119447531702 2.094813952481669 0 0 1
1958 1 3.499683107642863 21.177343926802383 0.6264375209639869 0 0 1
1959 1 9.894406092044044 20.4862967941055 0.9775705928713427 0 0 1
1953 1 7.883209010100575 19.60477303767735 2.6105425245142944 0 0 1
1961 1 16.05673705486015 21.091394318897205 0.7465453799216306 0 0 1
1960 1 14.389683870986335 19.62356181965884 2.5159158453440083 0 0 1
2682 1 20.736490605670834 19.713307493815947 2.7497941541566764 0 0 1
2683 1 22.376406928444148 21.118494785501948 1.0270908532281708 0 0 1
2684 1 27.07317198017976 19.670840959059788 2.338208813395313 0 0 1
2685 1 28.916991492446506 21.541239944044182 0.8601469545493741 0 0 1
2681 1 33.039274718287736 19.21804540335503 2.760318984721902 0 0 1
2686 1 34.57050432289071 20.869841333273733 0.775527991593246 0 0 1
1965 1 6.52028922907122 24.18470218927684 0.47166171189803485 0 0 1
1964 1 4.728300540264142 23.11956742817236 2.2453293007017767 0 0 1
1967 1 11.44004388738819 22.599509020026893 2.130629609625293 0 0 1
1968 1 13.41129931587832 24.51278816871547 0.7393362143740019 0 0 1
1970 1 17.618630834346114 22.65220156121817 2.4213102798521087 0 0 1
2094 1 19.00027053966451 24.18151812687349 0.6222649126655783 0 0 1
2688 1 23.9239973147535 22.64216136271538 2.4182799255194896 0 0 1
2689 1 25.604944264609095 24.16247607956795 0.9471519341942332 0 0 1
2691 1 30.292496747336425 22.826859249095197 2.552583612199371 0 0 1
2692 1 32.11355159978514 24.605286673535623 1.3584775921049264 0 0 1
1962 1 2.1105218769285075 25.8914962176811 2.3278149897049722 0 0 1
1971 1 3.6717883062107752 27.545107151965993 1.1150333561388261 0 0 1
1966 1 8.14088890906493 25.696426329096365 2.1926597572537276 0 0 1
1973 1 9.898968137297466 27.431450909088827 1.0651476905371506 0 0 1
1969 1 14.689916058867688 25.87374508967182 2.3648870228013923 0 0 1
1975 1 16.49241650652958 27.65925841236085 0.5826147092204952 0 0 1
2693 1 20.525853033560132 25.71899616766264 2.1050069453517235 0 0 1
2694 1 22.357556291258167 27.33024137664874 0.8094442155505195 0 0 1
2690 1 26.926734585471618 25.84919934977958 2.6164344599866705 0 0 1
2696 1 28.293519336446092 27.416047147036792 1.02870312999149 0 0 1
2601 1 30.081846364631893 26.1338990899296 -0.1648029982267143 0 0 1
2699 1 34.75517174486165 27.579209995520305 0.9517945676232389 0 0 1
1576 1 0.45412188362079764 30.72681140000097 1.0584783741641284 0 0 1
1972 1 5.1231758120280695 28.863820302888787 2.656129865063998 0 0 1
1978 1 6.663027587171171 30.306123237655846 0.7724971703779249 0 0 1
1974 1 11.392279502019875 28.9501118922845 2.6100405163939344 0 0 1
1980 1 13.106644765044072 30.48231044207366 1.1015357261246124 0 0 1
1976 1 17.789686138820056 29.420316380843552 2.3524695540270977 0 0 1
2514 1 19.25100185402606 30.81421143812914 0.7102435595774558 0 0 1
2695 1 24.145059429818563 28.685421412995932 2.3656966202144947 0 0 1
2701 1 25.52372471862467 30.693441564534066 0.9922786875967797 0 0 1
2703 1 31.488590808074573 30.682113741822352 1.28724600740755 0 0 1
2697 1 29.716819274858025 29.117105101819707 2.522468981327364 0 0 1
1983 1 3.6864471685881455 33.80611570530556 1.2453735208962087 0 0 1
1977 1 2.0112178697074956 32.36030110014717 2.3722467381422256 0 0 1
1979 1 8.083442945325627 31.741812688232084 2.699719764655155 0 0 1
1986 1 9.546424970358057 33.18453677410456 1.2029370997792639 0 0 1
1877 1 11.27758571156006 32.05749574798264 -0.18419660842946378 0 0 1
1981 1 14.649441204192948 32.21340079434536 2.4534533807615175 0 0 1
1988 1 16.301532272495983 33.47959424857979 0.582024052334453 0 0 1
2700 1 20.852483390394735 32.239725223926825 2.366083519132892 0 0 1
2705 1 22.2193944738669 33.51507992546391 0.7124528798672269 0 0 1
2702 1 27.087638666468298 32.236042792065376 2.6747303810461682 0 0 1
2707 1 28.691768451338568 33.47914410429475 1.317100413591205 0 0 1
2615 1 30.111053499190653 32.03549417526767 -0.2299122723130738 0 0 1
2704 1 33.416173045130044 32.04755281294791 2.642974147721206 0 0 1
2709 1 34.7899668848333 33.81287392835061 1.232000793196399 0 0 1
2101 1 0.6274518721090313 36.839706298405616 0.8984663037943195 0 0 1
1984 1 5.206948839572257 35.30155951128589 2.5383478208197947 0 0 1
1992 1 7.160655038781903 36.48482697529056 1.2205983892143597 0 0 1
1987 1 11.27362760397106 34.86287531714362 2.1115268696548593 0 0 1
1994 1 13.177430047674616 36.48270903024678 1.2162082984475049 0 0 1
1989 1 18.02511472328427 34.85103704654888 2.342111244890209 0 0 1
2325 1 19.36464054828093 36.66174459852532 0.6559368243453841 0 0 1
2706 1 23.75194337122173 34.843047571747775 2.6738543354205535 0 0 1
2711 1 25.31901170090978 36.61197598061379 1.2979294566230437 0 0 1
2713 1 31.362296711677114 36.8806206339345 0.9192900776816084 0 0 1
1991 1 2.0587021215599113 38.52297301707921 2.675327715733864 0 0 1
1997 1 3.71939489255166 39.74407714393726 1.1217785250421717 0 0 1
1888 1 5.410337818770244 38.07675200978254 -0.13636999818989914 0 0 1
1993 1 8.36974998006706 38.291101346465126 2.5803613643249372 0 0 1
1999 1 9.901345337146092 39.652045166187364 0.7266318186299163 0 0 1
1995 1 14.80427068236507 38.29041912061521 2.6653791824103927 0 0 1
2001 1 16.2979547633104 40.20502746069931 0.9270312963038454 0 0 1
2710 1 20.74394158452618 38.16590576358766 2.143340857561953 0 0 1
2715 1 22.39129678390576 39.87548307751027 0.6727009105045313 0 0 1
2717 1 28.279768772606666 39.434414689546216 1.2758063979435224 0 0 1
2719 1 34.5478366243683 39.60687857140459 1.5030142825870874 0 0 1
1949 1 0.775970921835532 43.15169359456284 0.8874298505155369 0 0 1
1998 1 5.3608794885644055 41.56106340275838 2.446060685836473 0 0 1
2004 1 6.517143255390458 43.131378397923825 0.6625559582359578 0 0 1
2000 1 11.05345107965809 41.28241920388763 2.293592668463919 0 0 1
2006 1 12.920621863391293 42.885366710711025 1.064347428009811 0 0 1
2002 1 17.721057579253316 41.468858901226795 2.796450736490587 0 0 1
2432 1 19.31398972871047 43.10068473461783 1.1082634951704986 0 0 1
2716 1 23.74836282264151 41.3107193250715 2.708725089023203 0 0 1
2721 1 25.29157802407164 42.663674491321146 0.8879847232898126 0 0 1
2718 1 29.978039850864153 41.207894908204224 2.1857987774569656 0 0 1
2723 1 31.439752654410583 42.68159781977651 0.9852227420923738 0 0 1
2003 1 2.033234115641722 44.58124604873005 2.815485369246518 0 0 1
2009 1 3.3422240251446906 45.87742330253856 0.8538196311310167 0 0 1
2005 1 8.125855704573166 44.646504077143064 2.161305567033047 0 0 1
2013 1 9.864858842017044 46.23729893622232 1.041244047689876 0 0 1
1905 1 11.391381400256682 44.81908288002195 -0.2729601020669261 0 0 1
2007 1 14.338869391596432 44.211203106705995 2.5280872273214037 0 0 1
2015 1 16.096771937538847 45.85382491227661 0.8757508268067775 0 0 1
2720 1 20.979099444151547 44.58073934145959 2.6018631683394657 0 0 1
2726 1 22.490173343493417 45.96260140685325 1.1799424462401247 0 0 1
2722 1 26.643272367904892 44.45879581529417 2.544065065387319 0 0 1
2728 1 28.573808233254297 46.05480521220615 1.2392944599952043 0 0 1
2724 1 33.361582223978765 44.57983299936254 2.209849021661385 0 0 1
1470 1 0.567981751840948 50.00717406978454 0.6865388765599577 0 -1 1
2012 1 4.912886135071385 47.5816684443416 2.5174079692114173 0 0 1
2011 1 6.59717871306522 49.081723084026265 0.8320148097826718 0 -1 1
2014 1 11.163141678002239 47.81648440247595 2.577633910257016 0 0 1
1921 1 13.041119507891105 49.13486654495978 1.0032561812596998 0 -1 1
2016 1 17.958191834952974 47.49615209334057 2.147382284778778 0 0 1
2266 1 19.58510949432635 49.19047951872841 1.0673693887350897 0 -1 1
2727 1 23.970106439358297 47.59541448542549 2.714106084046714 0 0 1
2650 1 25.25813315015143 49.208289404318265 1.0506591595532073 0 -1 1
2729 1 29.899453788100306 48.006227478030254 2.5299463481425666 0 0 1
2654 1 31.769764135196926 49.15930476301108 1.1210282935810292 0 -1 1
2647 1 33.156576614020864 47.408159845493145 -0.19323206083341976 0 0 1
1563 1 0.5372720763911546 2.361849149356707 4.046556481301453 0 0 1
2027 1 6.642077683232151 2.3881735454192397 4.234425769396236 0 0 1
2019 1 4.802024845046733 0.6934530841293863 5.6632059990244255 0 0 1
2021 1 13.066244915161741 2.3054941995352793 3.6103867216372536 0 0 1
2020 1 11.549755557184982 0.7628066072039701 5.26083620610576 0 0 1
2024 1 17.516270232266002 1.0245524223698432 5.341728333280436 0 0 1
2446 1 19.589061129409735 2.52683294026926 3.8052548193913465 0 0 1
2732 1 24.046315469598603 0.9163322251811108 5.731804096057416 0 0 1
2733 1 25.49887575640439 2.0949912191582287 3.9615340026322405 0 0 1
2735 1 30.396597323218867 1.2008658575091686 5.370146217726446 0 0 1
2737 1 31.91867854013688 2.7116945425926433 4.01180103685236 0 0 1
2025 1 3.348177059165442 5.344927108323497 3.8556222838399545 0 0 1
2026 1 2.169130831535451 3.7380320663773574 5.606954409237105 0 0 1
2029 1 9.733174425917742 5.446493862870085 4.008651965011913 0 0 1
2028 1 8.168024684987202 4.190269433544183 5.893215312852317 0 0 1
2032 1 16.055565875312354 5.5943231572568 3.623126264668212 0 0 1
2031 1 14.357762890486764 4.0045991799576885 5.455459331817845 0 0 1
2741 1 21.06410968017957 4.086173653662082 5.641096621242052 0 0 1
2742 1 22.224411328660178 5.803091356702954 3.796467376869031 0 0 1
2743 1 27.012496659131013 3.657597380055618 5.434355403674298 0 0 1
2744 1 28.826837091052905 5.472460869672228 3.965866636251514 0 0 1
2745 1 33.50803899661506 4.22310509507734 5.384205064435705 0 0 1
2972 1 0.5301144873206791 8.933640305226048 3.990581595365671 2 2 -1
2034 1 6.832929105099907 8.543766352455732 3.93798031556799 0 0 1
2035 1 4.7858796258540215 7.060878475514692 5.693491172461147 0 0 1
2036 1 10.755144514110516 7.196312450069104 5.553090373669506 0 0 1
2044 1 12.361867040436309 8.360002532138182 4.122972506367465 0 0 1
2038 1 17.524348461534487 7.057946374454399 5.304381974492568 0 0 1
2452 1 19.356311982675408 8.546767722333582 3.917175075765938 0 0 1
2748 1 24.106685544826007 7.061519263727741 5.693736614245932 0 0 1
2747 1 26.02517794450048 8.406970515542662 4.016627397907439 0 0 1
2749 1 30.025767545220713 7.227006919469701 5.463737221364372 0 0 1
2750 1 31.721064989999267 8.846899052284838 3.9408248039840696 0 0 1
2039 1 3.5415584805743325 11.671734344997592 4.232376102888025 0 0 1
2040 1 1.9709795963078827 10.171578624049676 5.654595764134159 0 0 1
2042 1 9.642106444766968 11.707353322527064 3.754374235528843 0 0 1
2041 1 7.897876326444807 10.087761147547804 5.855765908865977 0 0 1
2045 1 14.173012921182838 10.025497980522754 5.338845998177742 0 0 1
2046 1 16.28433772837362 11.574467573176689 3.8523081829652543 0 0 1
2752 1 20.484962910022816 9.823736543885188 5.826368553161456 0 0 1
2751 1 22.41710879952149 11.431783702416562 4.521615183500309 0 0 1
2754 1 27.39874506078915 10.028983314172036 5.717779502041896 0 0 1
2755 1 28.790348573472226 11.64102523079747 3.5348890153544446 0 0 1
2756 1 33.27004867539905 10.420783581968264 5.5414342012350755 0 0 1
4880 1 34.97465253661073 11.950377261537769 3.9663407601887712 0 0 1
2961 1 0.6297265616555515 14.988773422806288 3.8202066348402113 1 3 0
2047 1 6.726922211775545 15.12794734308893 4.1061500249334975 0 0 1
2048 1 5.42477706219723 13.428501549572484 5.63063357526606 0 0 1
2049 1 11.50137551668183 13.155497174450188 5.402350352978539 0 0 1
2050 1 12.88181779995219 14.413674583354608 3.7830927902142344 0 0 1
2052 1 17.38397459673284 13.468335178706164 5.433559115137192 0 0 1
2188 1 19.260540987011538 14.819464273056397 3.800727623473212 0 0 1
2761 1 24.34065648804009 13.176077828294096 5.549210320520515 0 0 1
2760 1 25.506827465274 14.565093710131489 3.4302033010928565 0 0 1
2762 1 29.939734199791125 13.361383865445353 4.81927479247602 0 0 1
2763 1 31.865012797928873 14.622239713328565 3.934185638060171 0 0 1
2054 1 3.1163568283387577 17.95541452900516 3.9529744676929193 0 0 1
2055 1 1.6963526703311969 16.47360181286614 5.523208123450835 0 0 1
2056 1 9.760137728682164 18.06308562130446 4.285013543976769 0 0 1
2057 1 7.988784972834 16.637205854835006 5.587631256701132 0 0 1
2059 1 14.168226603549424 16.302112974211624 5.350112413598842 0 0 1
2060 1 15.728564178710577 17.78355975314831 3.9383250002527364 0 0 1
2765 1 20.944131681028626 16.483824478192965 5.161689902393265 0 0 1
2764 1 22.253718061924893 18.290078712425863 4.046345959556782 0 0 1
2768 1 26.666212666797293 16.238614548265733 5.3668917875553035 0 0 1
2767 1 28.243525341936568 17.5633435288372 3.6503002542718996 0 0 1
2769 1 33.06639364598868 16.391582079944634 5.684616681274739 0 0 1
2770 1 34.87977570854348 18.013658846323455 4.141377836191688 0 0 1
1467 1 0.4962429552118399 20.81573126785278 3.8328332838028185 0 0 1
2064 1 6.254330893121783 21.52950074894649 3.5489158442834814 0 0 1
2063 1 4.597404870052587 19.745859988815287 5.42860580274333 0 0 1
2067 1 12.882902337438491 21.200219635050146 4.217886329772485 0 0 1
2066 1 11.119715811038667 19.759243881041037 5.938569357415461 0 0 1
2068 1 17.35892994473489 19.270473972171107 5.599644502523938 0 0 1
1923 1 19.125530776928596 21.07101894111657 4.171893147647546 0 0 1
2773 1 23.583897705519576 19.68130149706176 5.383958476588136 0 0 1
2774 1 25.23110281780856 21.033060273445198 3.788547387354738 0 0 1
2775 1 30.084296512106974 19.27249719479503 5.351144962438503 0 0 1
2776 1 31.718121881189546 21.007333257954915 4.002599834552357 0 0 1
2069 1 1.7891623284152183 22.752013104570914 5.2624766681365305 0 0 1
1963 1 3.3658049939724375 24.354324945973673 4.062207146534027 0 0 1
2070 1 7.992027192334501 22.7118700714809 5.427443160077117 0 0 1
2072 1 9.65220794345531 23.994595469140748 3.9185901258000344 0 0 1
2077 1 16.21193446473704 24.50043528235564 3.7694954783708106 0 0 1
2075 1 14.417901423702029 23.07956415490998 5.466055519653211 0 0 1
2778 1 20.445763835550625 23.24781447178459 5.381340313940583 0 0 1
2779 1 22.548989146857682 24.619660095995368 3.806603359859526 0 0 1
2781 1 26.89218841264558 22.64307594090033 5.430872987309712 0 0 1
2782 1 28.565391935393585 24.36600249319923 3.995828688858505 0 0 1
2784 1 33.5342519649527 22.541118054659588 5.623648729102365 0 0 1
2785 1 34.87118982123877 24.16442162308595 4.167617993096297 0 0 1
1478 1 0.6970556176394795 27.443016510202067 3.9456984050028616 0 0 1
2071 1 4.718600985708711 25.76734291698339 5.718984251133561 0 0 1
2081 1 6.430265633429075 27.1992733362125 4.133028711326079 0 0 1
2073 1 11.2330122454841 25.629242765138812 5.409033122221914 0 0 1
2083 1 12.698094426864255 27.504172831368574 3.9736899897060676 0 0 1
2078 1 17.407882507534676 26.155441945050317 5.388383537344102 0 0 1
2095 1 19.038424415551138 27.458169100393132 3.6281595912543403 0 0 1
2780 1 23.790487971109744 25.868020525163125 5.712981327734919 0 0 1
2787 1 25.542518863417722 27.468743371090287 4.222987091164436 0 0 1
2788 1 30.09873439831527 25.81811666993817 5.631905962995341 0 0 1
2791 1 31.22733067125426 27.696623358373554 4.128976347784277 0 0 1
2698 1 33.557451772107385 26.46582605219372 3.0425833200335815 0 0 1
2080 1 2.199086021751879 28.949976278517024 5.65312347294843 0 0 1
2087 1 3.4757447575660123 30.49993960741245 4.0043104739315485 0 0 1
2082 1 7.869094888888486 28.791228666470445 5.6999263316569575 0 0 1
2091 1 9.490357889520098 30.347576440422525 4.208508494957143 0 0 1
2084 1 14.014914374486779 28.94810247922226 5.612999690143988 0 0 1
2086 1 16.10855369080173 30.567943775568633 4.253762178024278 0 0 1
2786 1 20.311988336428172 29.299263131653497 5.31605385346936 0 0 1
2792 1 22.241522856041144 30.710589671001127 3.856393815083858 0 0 1
2789 1 27.074276453322824 29.11811994411557 5.619276398806206 0 0 1
2795 1 28.669707400640295 30.787442991032865 4.26107983866348 0 0 1
2790 1 33.52075370749696 28.967788370778216 5.4860310403029775 0 0 1
2772 1 34.95043668076288 30.498595138991114 3.8802736575719745 0 0 1
2089 1 5.039819349473744 32.19182317243637 5.757599184503371 0 0 1
1985 1 6.622882261198346 33.559659534392324 3.9666878575859696 0 0 1
2090 1 11.581633087977613 32.11253263542045 5.077944307123679 0 0 1
1762 1 13.33103435947864 34.06612986715686 3.9819541305202684 0 0 1
1942 1 17.289300489152293 32.34827277375015 5.798362185649888 0 0 1
2197 1 19.42107693454219 33.48750950906927 4.319184387286359 0 0 1
2793 1 24.155543775337314 32.29300190297241 5.718623355021512 0 0 1
2753 1 26.080206158665874 33.92951685291375 4.235462634021637 0 0 1
2783 1 30.42779619142234 31.937088999404036 5.68881812660899 0 0 1
2771 1 31.970741337351388 33.58564063385282 4.181472222049537 0 0 1
1825 1 1.5448151114040587 35.20778853541091 5.834573980408958 0 0 1
1655 1 3.0761544655599597 36.619135175630674 4.098507855679314 0 0 1
1817 1 8.253335371534144 34.86574468564305 5.621330514358282 0 0 1
1682 1 9.803043694154834 36.63868023403904 4.106031889737425 0 0 1
2061 1 16.28182430113069 36.5492959972765 3.9606066235966875 0 0 1
1779 1 14.670532487232803 35.61183061974937 5.76320179006633 0 0 1
2746 1 20.71717412797806 34.894319538808574 5.714073456924451 0 0 1
2661 1 22.126044680290637 36.60988721085994 3.790270328998176 0 0 1
2708 1 30.19030900136683 35.159164856558604 2.892201995083041 0 0 1
2271 1 28.84093154020586 36.39972681166594 4.390437405178822 0 0 1
2766 1 33.42425209424313 35.28522868064546 5.701739870598926 0 0 1
1794 1 0.4620989432566052 40.09054137852583 4.397273038401546 0 0 1
1608 1 4.786875432755377 38.215832604239296 5.406432572206887 0 0 1
1990 1 6.633084286348394 39.59504749864071 4.046403930122412 0 0 1
2076 1 11.138806872847134 38.46703995338652 5.485055760584519 0 0 1
1886 1 12.624786390678842 39.90983907360064 3.8623627101559297 0 0 1
2053 1 18.01728269702759 38.179861738199904 5.5642149451904155 0 0 1
2194 1 19.57328439356871 40.02132956835557 4.140723221904498 0 0 1
2360 1 23.794984833995954 38.13906466143746 5.493503429652259 0 0 1
2712 1 26.92495070616204 38.08097932307605 3.1517158672094396 0 0 1
2740 1 25.504488914291255 39.85713295194098 4.431563530493103 0 0 1
2274 1 30.042760236220545 38.28739399962423 5.776101387301217 0 0 1
2714 1 33.06677106130757 37.94138709439588 2.9098314975806336 0 0 1
2655 1 31.542168167198067 40.021274798788056 4.060534741597533 0 0 1
2008 1 2.111242304098877 41.544436296025665 5.54213935822205 0 0 1
1865 1 3.780324364807823 42.98938587054735 4.198233243433028 0 0 1
1982 1 7.862552385854978 41.351325518973894 5.570311163423082 0 0 1
1709 1 9.49675138904149 42.920039952219966 3.932057237636152 0 0 1
1936 1 14.271578199032215 41.500101160735355 5.754949306017218 0 0 1
1692 1 15.968670426431228 43.12037494151225 4.15286267910007 0 0 1
2759 1 21.069909600781227 41.733647263413374 5.548964633242866 0 0 1
2549 1 22.765416640147308 43.11416941625359 4.4499458038288155 0 0 1
2725 1 27.308827601707062 41.29494775250906 5.705169459601401 0 0 1
2475 1 28.679925439880165 42.89627453893385 3.882588702860744 0 0 1
2608 1 33.37312074736995 41.57593216035825 5.6480256785430765 0 0 1
2378 1 34.957270165649554 43.23075875193378 4.185413891038916 0 0 1
3462 1 0.6930756265159035 46.12496494214565 4.304344269401775 2 -3 0
1831 1 4.968859785402454 44.62545276844787 5.699957852029247 0 0 1
1504 1 6.65226774754606 45.95777542372933 4.129864420164887 0 0 1
1752 1 11.087563413571475 44.66412069236722 5.484704344379326 0 0 1
1373 1 12.880256009615444 46.229644769951804 3.890066304886112 0 0 1
1627 1 17.41038482768569 44.930176935470314 5.8071462537407355 0 0 1
2802 1 19.246980230215485 45.94037097277199 4.271735936068918 0 0 1
2236 1 25.144525014207908 46.29849773741749 4.464025202708975 0 0 1
2463 1 30.409999963956206 44.6584023581504 5.378557209516773 0 0 1
2437 1 31.701943521257988 46.249044096507134 3.6564907047727115 0 0 1
1517 1 1.7369698297883338 47.9233320554617 5.575814478711574 0 0 1
2017 1 3.3486756932785045 49.08748731307335 3.9151157896310593 0 -1 1
1483 1 8.073842627034 47.829577469443976 5.474276169203058 0 0 1
1439 1 9.650175230223633 50.07623872246958 3.900456340290689 0 -1 1
1366 1 14.541533441093797 47.73528414110821 5.341244061346338 0 0 1
2023 1 16.327536684162652 49.09744526205006 3.853188682121811 0 -1 1
2365 1 20.71320404623976 47.96063271465013 5.703022498444497 0 0 1
2731 1 22.43573248264549 50.0802957206422 4.006661696982278 0 -1 1
2230 1 26.994447065716354 47.7841962111043 5.347062341873656 0 0 1
2216 1 28.730088747720217 50.409165157285926 4.040927186355604 0 -1 1
2206 1 33.1267554522693 47.6458760402482 5.459152851018678 0 0 1
2738 1 34.675720323541725 50.12814935794344 3.9866151382975357 0 -1 1
115 1 3.1980981979728282 2.0067597274584976 7.988944686342569 0 0 0
2033 1 9.793009745310595 2.0563587134907215 6.918864457526699 0 0 0
2079 1 16.20239145621921 2.660120561849161 6.988517168705793 0 0 0
1076 1 22.289682765487484 2.2579743529233194 8.199221358724362 0 0 0
749 1 27.215611046716923 0.4765394831419325 9.232016083460001 0 0 0
1359 1 28.86296989352725 2.368101580351271 7.93200738024373 0 0 0
2384 1 34.86299577316282 2.363333183445483 6.961927587371651 0 0 0
666 1 0.503331198317345 5.265996276220013 7.883258927725917 0 0 0
2123 1 6.417933108985533 5.590836673872551 7.097054812763425 0 0 0
1401 1 12.649347964025477 5.573948945500336 6.924313156941495 0 0 0
2823 1 19.416700206660156 5.802762648452452 7.080986281527947 0 0 0
2195 1 25.574622254592214 5.312259682443028 6.898874091739656 0 0 0
1361 1 31.689301935456246 5.903686856624932 8.041659109484717 0 0 0
687 1 3.0782491028695116 8.699340736741567 8.179820741566804 0 0 0
722 1 9.43361151578351 8.490079293776555 8.293686100889515 0 0 0
1545 1 15.93355253169661 8.611989628912312 7.112980238978842 0 0 0
1363 1 22.738852091626093 8.784584300207545 7.911376228185791 0 0 0
791 1 28.986346795120358 8.729772818071016 8.313787543184112 0 0 0
2811 1 34.56332627616842 8.723843670490856 6.837174588411959 0 0 0
7099 1 0.6422842724785482 11.460288953016013 7.385832004785331 1 0 0
738 1 6.97747514022888 11.805305048473114 8.195239755071418 0 0 0
2022 1 12.937140844910262 11.617467736537378 7.015980787058195 0 0 0
2102 1 19.197076783661196 11.628828121942702 6.8853210012787285 0 0 0
923 1 26.161253634080847 11.629177882892492 7.9919043158879735 0 0 0
2687 1 31.44740988392593 12.136732753972888 6.854394503904671 0 0 0
1446 1 3.8910654200487946 15.270331840071114 6.75619519950788 0 0 0
2043 1 9.543319084858913 15.056660151211801 6.91407061597207 0 0 0
2085 1 15.932994322709266 14.97010505549839 7.067882992327463 0 0 0
773 1 21.09049278995274 13.178861878118266 9.066017579381898 0 0 0
2629 1 22.578825413116913 14.667163237659109 6.610375965450929 0 0 0
2799 1 28.387150084310946 14.742153159704104 6.733639934674175 0 0 0
2819 1 34.856344294397715 14.849554281992619 7.102215680400099 0 0 0
2098 1 6.503382286725218 18.40949372394264 6.840530559795823 0 0 0
41 1 5.269178479003646 16.77666501786033 9.044846161770048 0 0 0
658 1 12.688006624807596 18.120202117843803 7.87401079751058 0 0 0
2758 1 19.37488132688299 18.041596916009752 6.9138401946492865 0 0 0
780 1 23.999311839754245 15.925892421799919 9.012254738978298 0 0 0
2800 1 24.92438032589822 17.772703606077254 6.962658463147901 0 0 0
1360 1 31.23816996060288 17.841606231094765 8.048129860270008 0 0 0
1838 1 3.289459117552157 21.19126417365686 6.958989890847942 0 0 0
2125 1 9.355700088396745 21.287920156094117 7.0486700608322925 0 0 0
1393 1 16.040264130343722 20.826816362136636 6.892741630047636 0 0 0
2352 1 22.020439829074867 21.434132672336492 7.163584931743111 0 0 0
2812 1 28.451167824958503 20.805813097978515 6.874682677359038 0 0 0
789 1 33.33211831766744 19.40604313488449 9.135887408939253 0 0 0
18 1 0.5733473749032736 24.074546138471074 8.09358042046918 0 0 0
51 1 5.348660186461557 22.437005538658028 8.99482493758629 0 0 0
650 1 6.509837375517233 24.436608941786847 7.949826634940834 0 0 0
53 1 11.499244960714291 22.602291383077045 9.19303064057671 0 0 0
2122 1 12.827470228089188 24.270287293887183 7.118090504629657 0 0 0
63 1 17.338806430533552 22.431281529694832 9.203214512089177 0 0 0
1381 1 18.61868876005224 24.52156009843416 6.921338642139939 0 0 0
2191 1 25.05766675833684 24.08095755050486 6.984461357614461 0 0 0
1357 1 31.523604484235435 24.035085681472456 8.005863556115512 0 0 0
106 1 3.725841710568908 27.5631928066019 8.407081711858396 0 0 0
2118 1 9.673089100679277 27.00469848737976 6.85510705393079 0 0 0
2093 1 15.63453371618383 27.592535440114485 6.918386474822359 0 0 0
793 1 20.373767503205276 26.055336245290075 9.18171716656614 0 0 0
2807 1 21.83581640686994 27.745328893843652 6.934910373456966 0 0 0
797 1 26.98854793316858 25.501659806496225 9.121264913604842 0 0 0
2817 1 28.39068943032729 27.40164175221443 7.0750831585426806 0 0 0
4485 1 0.6463887302778051 29.304625933295583 7.501777832692302 2 -1 1
116 1 6.382809207682172 30.2150885104285 8.02475376618655 0 0 0
69 1 11.071000826404113 28.873484346435013 9.17740176580589 0 0 0
2010 1 12.382173118406161 30.66992877646128 7.01249732873672 0 0 0
744 1 18.88695148001833 30.500439346625967 8.09475773051934 0 0 0
803 1 23.685600821682353 29.300190408010867 9.19339756601518 0 0 0
1356 1 25.531948159764827 30.65008427081693 7.90077963916249 0 0 0
1041 1 32.065727525819355 30.341451707125454 8.04556918014769 0 0 0
180 1 3.3798825970356754 33.56639798113294 8.031330147757698 0 0 0
1787 1 9.548113175362 33.1905588661122 6.86104855418973 0 0 0
108 1 15.690813395703124 33.93582198777084 8.059829171711343 0 0 0