LAMMPS data file via write_data, version 29 Oct 2020, timestep = 200000

4608 atoms
1 atom types

-0.12100813484149597 53.52100813484197 xlo xhi
0.171027269494612 50.7360927305042 ylo yhi
0.171027269494612 50.7360927305042 zlo zhi

Masses

1 18.015

Atoms # atomic

2253 1 1.0498152898896025 32.02753289981973 24.3101802584127 1 -1 0
4 1 5.116251018945981 1.5979738325284822 4.416504063707526 0 0 0
4301 1 0.3483386154250595 42.219225226331886 12.815759676547833 0 1 0
408 1 12.789948353248363 2.3108160914704285 1.2971567341158818 0 1 0
951 1 1.159046198108373 19.01973677911196 17.253412706839335 -1 0 0
495 1 -0.033224035718684486 22.778514299450688 16.728928738807213 1 1 0
2165 1 6.148641082405923 1.7052738991097773 0.40079819098106284 0 1 0
3719 1 1.5105256744830935 5.721264818518792 4.717204458956337 1 1 2
2787 1 14.392598357546156 31.568781610373048 4.015176279835547 0 0 0
1479 1 0.018720937069261118 46.91447061815826 16.969395319508624 0 -1 2
268 1 8.15826770427169 4.070829918721946 3.629599203249477 0 0 0
990 1 2.7132921699399244 19.116424617351907 12.293327468339415 0 0 1
617 1 1.067850614877253 50.50805962751744 1.4460477466212145 0 -1 1
2343 1 6.863671537174247 23.241336695833795 0.38232537567705444 1 1 1
1572 1 17.368589725776026 16.287158048375904 17.40783746789273 0 1 0
3144 1 5.415939548473857 13.304479271282833 4.758969029859334 2 0 1
1927 1 15.736581031209186 9.96493728210496 2.4538922421757 1 0 0
3166 1 6.003998182086556 6.250936197768055 0.967719600570658 1 0 1
2335 1 0.36632891465265416 18.79740522637189 7.024035572336693 0 0 0
3677 1 2.816508912245012 14.18401612343036 3.818417116741894 0 0 1
3538 1 5.474565790477454 16.584991637496064 6.4242899679274394 0 0 1
2384 1 7.389347624629465 10.898183658349973 2.299389883761322 0 0 1
2386 1 7.367403088891432 15.128738539314822 1.3244154414585387 1 0 1
1268 1 5.249228950035432 16.587291812364075 2.2074253871840814 -1 0 1
1110 1 2.100656178239178 43.930500002371645 18.94736732338775 -1 -1 1
1844 1 0.6223640786371866 8.439970834055252 12.080373759555169 1 0 0
1958 1 16.42722743185166 37.45660157687911 24.88461858725663 0 0 -1
1426 1 17.45001337454516 24.888313397807902 14.822185659573483 0 -1 0
1665 1 2.2753821099193714 30.094884930969933 15.23696459525872 1 1 -1
618 1 11.302893152552237 4.248037057160346 2.8758390261548334 0 1 0
257 1 8.510722249796343 19.237517419125403 2.654171578206589 -1 -1 0
2233 1 8.543082967520801 21.790159747970897 3.665395392221549 0 2 0
1593 1 12.597435127073464 19.699160603246256 4.559882743764653 0 0 0
3957 1 8.368578881246146 33.949313130627175 7.569726445100102 2 0 1
4461 1 0.9661041073486876 24.204867614755525 20.884864800740154 1 1 1
2216 1 13.805902868584623 16.74526228510921 3.3338038278000663 -1 1 -1
3072 1 0.08864680576724326 32.870571298581694 7.028794125845862 1 0 0
4095 1 4.582025258428941 7.0204782705549835 9.276760052579338 1 0 0
1256 1 1.1772223796950754 43.267476424024395 14.859035215078833 0 0 0
1523 1 3.085643966093322 21.02991805901758 6.217154633952326 0 -1 0
387 1 0.8343296003015401 30.91463223867398 17.855149523723615 2 0 0
2640 1 5.562086008802835 21.665442789219952 5.390073974235458 0 0 0
2673 1 14.428919307464287 21.01654370099597 2.960124640612447 0 0 1
4104 1 14.539226782156092 22.22446031317553 7.081028827069635 2 0 1
1922 1 17.558393148531472 6.020203559525876 2.63654909600482 1 1 0
4299 1 11.837017750282962 35.004230568803834 1.6455143634785592 2 -1 0
2191 1 4.9424431853084645 23.3054512982971 3.4799374062152473 1 -2 1
708 1 13.090332920802776 28.39555148139816 2.629150400253978 0 0 0
596 1 2.357495287976909 50.296089927721525 11.45870603746866 0 -1 0
1243 1 8.770067174408648 25.086715602658746 2.144895609189064 0 -1 1
2979 1 7.5522766966438235 3.6123547110545378 25.127479497004558 0 1 0
721 1 14.230208544215307 25.025891918947707 6.43175383915692 -1 0 0
1685 1 13.448873217448 48.82760522776813 2.421439475844827 -1 1 1
1677 1 4.290605404663715 29.815373131424614 5.760346453976575 1 0 1
2425 1 10.361838887387384 41.531768995263235 1.776160985666137 0 -1 0
1483 1 17.57690298364148 6.323224160779833 17.876718554374218 0 0 0
4262 1 16.121069126611822 35.057240682391466 2.9861445115664176 1 0 1
4589 1 6.374884954503933 32.55871163390492 5.189374278718746 1 0 2
2142 1 11.681424997279267 32.391037313036634 3.7411076446067155 1 0 0
1150 1 2.016316899074478 38.261830373156315 19.400926487481215 1 0 1
736 1 1.9750581712259878 48.33623522578918 7.703922187658372 1 -1 0
1330 1 2.297141382559099 37.49423868017409 7.028271623140351 1 0 2
966 1 2.255468778351576 4.567879179825674 8.439861345117501 1 -1 0
2117 1 3.768165841935368 34.020116528700214 2.2923923040911527 0 0 1
4515 1 5.820395881126615 32.553771230813425 2.077021823023599 0 0 0
3872 1 7.729589397139998 35.13536788905063 3.9431811788966424 0 0 1
4138 1 0.6433763248235131 39.07008083118615 22.23209400612802 1 1 1
1413 1 13.816958402870947 37.7762954722851 1.7912031461592928 0 -2 0
1238 1 17.233002588642425 47.49570907421773 0.5712350712705039 1 0 0
4092 1 2.02825451800871 11.173906994632844 19.577764266390023 1 0 0
1930 1 4.304687843712704 40.01890776852447 1.441003729983343 0 0 -1
2157 1 9.164724635144141 39.004948326570215 5.114062125266516 1 0 0
2149 1 12.46225802916166 40.52449665084116 4.41034408564007 -1 -1 0
137 1 16.883908896434104 41.27467625670536 1.4957060642078412 0 1 0
892 1 0.9393796308422533 12.940040451940824 14.552593816108738 0 1 0
2459 1 1.0914270240135013 22.977674685553154 4.935929932773144 0 0 0
3593 1 11.414626338524178 38.419495906761426 3.4293413920328324 -1 0 2
1955 1 12.911331420794518 46.0566832265946 2.647462708694053 1 0 0
3536 1 1.9098376397202794 41.19499645431789 16.552558626591512 1 0 0
1591 1 8.771130633070257 45.113313566411875 2.507830478300306 1 -2 1
1867 1 7.429464226202158 42.30689601558295 5.722347552542252 1 -1 0
3514 1 2.157956462737943 38.13603247746687 12.727336736223037 0 1 0
61 1 11.09309443600923 44.89109232547486 5.216333773941678 0 0 0
2834 1 0.561729777472025 46.0383621106926 14.473993091331659 -1 0 0
1693 1 5.846856296922642 12.824634557869777 1.15452066823465 2 0 0
3716 1 3.5992793852634652 27.417235566772685 3.8223127705251705 2 -1 0
4303 1 14.98861731657703 18.671197915335483 25.20031159986583 1 -1 1
4247 1 13.561556723991234 48.79434911399066 8.482820305360296 0 0 2
2660 1 11.788810658106614 43.08791260707595 3.548317362237063 -1 0 1
2867 1 11.436321222755982 50.66840251802064 3.052993895719741 0 0 0
2716 1 3.482981730004146 37.76616360105125 22.83972977145175 1 0 0
2991 1 4.572018286142091 48.34421513089502 1.9043250662209559 0 0 1
2858 1 8.370922279179505 22.031286663199438 24.812461850038066 0 0 -1
2818 1 0.6424941780027549 17.626561071866007 4.111892197728453 0 2 1
3151 1 9.128223646240757 49.948225572144324 1.7005816457744707 1 -1 1
314 1 15.133584919951524 47.39834161581052 4.900432711461443 -1 -1 0
954 1 17.285520904707766 7.6828037770851765 5.084977675930064 0 -1 1
4103 1 8.300425863018404 1.351076029989483 4.383563393945138 1 1 0
4561 1 2.931168536669618 3.933935988671008 3.725264099333281 1 2 1
3330 1 11.62586288116858 5.974594840852181 5.8080899855729315 -1 0 0
1172 1 0.3020361394195271 4.0819728195734735 6.142474490148297 1 2 0
3126 1 15.390472839580772 50.68226965581578 20.466073973316586 1 0 -1
1886 1 15.507016612057154 2.2636631756132672 1.5878023503981387 0 2 -1
4587 1 7.598296562507885 3.9328226527452883 1.0158570998006284 1 0 1
347 1 5.565406717697997 6.950631491412427 3.8846568065431883 2 1 1
156 1 13.967391841105869 5.493905364441573 7.082056553529485 0 0 0
4260 1 13.385248047008254 5.870407289893946 3.340353536163064 1 1 0
4218 1 1.6664836618475065 47.72135755777772 0.3595586945224183 0 0 1
1754 1 2.7479316114586156 18.47642858803232 0.694890598010478 1 2 0
3310 1 3.258622585038904 7.359540287473247 5.890997973651374 1 0 0
4070 1 8.771576293032345 8.479548644298154 2.395231196736829 0 1 0
384 1 4.985556798148843 10.006343118931639 8.131376160882741 1 2 1
1898 1 10.460140549199657 10.718328712864903 1.5818520669550435 0 0 0
2953 1 14.757658636027726 8.189583220417353 3.988990845090954 0 1 0
2423 1 3.2039510076865754 12.478004948614446 1.194721697656365 0 1 0
4163 1 8.271847882827936 12.977321298516685 4.1075856078521635 0 0 1
2498 1 9.737801877444943 11.883455547682946 6.520864816164291 0 -1 0
3240 1 13.282159149114594 13.767100667417683 1.7694873404006128 0 0 0
2056 1 4.970817405169363 13.788039277054068 7.859166890288483 1 0 -1
3869 1 5.795988552655685 18.846914207882147 4.156029898831015 1 1 1
3247 1 3.054776411297084 16.62410955981588 5.809266231896934 2 0 0
3339 1 11.211507146015563 19.002982604641915 2.3329423662710904 1 -1 1
3765 1 7.479751042918637 15.862135822903916 4.388530459075774 0 0 0
4246 1 11.994820260332334 16.157716415870063 5.471892089318328 1 -2 0
2400 1 13.743342490814303 16.108451837469357 7.712487225919944 1 -1 0
2513 1 16.768494044448907 17.169025255786664 3.9234153026916845 0 0 1
2246 1 1.378680842429662 46.23584864126853 11.475465724374855 0 -1 0
2369 1 9.384876252425114 19.35789305285664 7.1106164512063135 0 0 0
1014 1 16.90619060086523 17.628348176604074 6.87821138904245 -1 0 0
3697 1 7.064568543176111 5.954432180572582 23.848280924431492 2 1 0
2206 1 9.915657465204381 24.519244729202367 4.874866649039906 -1 -1 2
3781 1 2.198595868988366 40.76985713941356 0.33909886543406875 1 0 0
3944 1 16.667292946344695 33.44467016051898 19.885253725240343 1 0 0
1417 1 0.32297591801194836 50.46489904410315 19.593780834845216 0 -1 0
2238 1 10.492056959271833 21.192265337273994 5.636721071136643 1 0 1
2184 1 11.155224504463073 23.102958591990767 7.7393764353203816 0 0 0
2536 1 4.553248987114532 46.49429366122584 3.7330825906396945 0 0 1
3724 1 6.106112533144178 25.727362168879107 2.126469892846959 0 0 0
3026 1 12.39161237338573 23.272338909571975 3.3249498077381094 1 0 0
1768 1 10.360003143113993 21.941279486575603 1.281680128126971 0 1 -1
2499 1 4.477977211919877 20.58972470358428 8.569568385929845 0 0 2
346 1 11.775128834343437 25.98113740048801 7.05875372004895 0 1 0
795 1 15.750571147050078 26.662199242135344 7.927583622359209 -1 -1 1
4375 1 0.833521101761629 15.515055113946977 2.335242898858892 1 0 1
1695 1 0.5181611419770131 29.676427620813126 7.465717120452714 1 -1 0
3676 1 1.89810490608917 23.061846239080676 8.686147742277669 -1 -1 0
1183 1 11.622697006938608 32.09833532185317 7.150183292867008 0 0 0
3671 1 14.87383747337912 29.342224532931763 5.164416416263653 0 -1 0
2901 1 17.31799242353893 22.65822817058421 0.6054783662146757 0 0 2
2234 1 4.792806345944401 33.8504939185313 6.746125563488404 1 0 0
1174 1 2.974643181177437 29.238322929787017 8.623230268282432 0 -1 1
1580 1 5.937173215842142 28.24255961776577 7.636763393861663 -1 1 1
2823 1 7.640711987901936 25.773445040048266 6.146708347647163 0 0 1
1037 1 3.1682908026867453 15.224863251289591 0.3245833820931635 0 0 0
2099 1 8.866871592998168 29.286332889923738 6.152580223391267 1 1 1
1540 1 9.286423393727828 32.09804776582726 5.339359889061913 -1 1 0
1257 1 1.9362310584573161 32.162186848088695 1.3257872558437949 0 -1 0
2124 1 3.254489554691104 35.370326474461024 4.796426005920303 2 0 1
887 1 8.800916526293674 31.366804606343106 10.363030274024633 0 1 1
2800 1 11.65530530241914 35.64948675049531 4.709406475125852 0 0 1
748 1 13.977443140413607 35.70414961778617 6.065984278990371 0 0 0
2395 1 4.578852350969928 39.79770259074398 7.683113776089498 0 -1 0
536 1 0.330040722618256 34.56906557011321 4.860306472956881 1 0 1
4370 1 5.614960124069846 39.15814878472483 5.169463843682264 1 0 1
4120 1 7.242782068305745 38.11388452425538 7.5224798597436076 0 -1 1
4219 1 3.298578259337368 43.29357167739316 1.2810907558478293 0 -1 1
3475 1 12.571265166809958 40.69870638827676 9.59536824740953 2 0 0
4033 1 0.08744601011320452 16.696062273341358 13.933584447389164 1 1 1
1446 1 0.6961688544493849 38.662754428553455 3.935698662528344 0 -1 0
436 1 8.156777308674581 37.34408018854904 23.586542585149196 1 0 1
2516 1 3.4019033378946344 37.923916843490446 3.905499579401664 0 1 -1
2396 1 17.470001998591425 7.0283356484535275 11.075202589159543 1 0 1
1104 1 11.95573767416067 42.23716125433221 7.210364508762273 0 0 2
3238 1 16.61831845615296 40.43851025535609 7.002636778952416 0 -1 1
908 1 5.022417233587989 36.012063151551175 0.2387316350070763 0 -1 0
806 1 5.313912448989923 42.336248494522295 9.080820012792223 0 -2 0
3437 1 2.317292312654716 48.131767024645626 13.599787754492374 0 -1 -2
3703 1 9.405196160513617 41.02305039028283 7.372802083551668 1 0 1
613 1 16.408747667095916 42.769619046093766 5.685007891647001 0 0 0
2918 1 11.669468131153135 46.096548281750586 8.656299538952434 -1 -1 1
1835 1 1.228782478485269 27.529497038136025 19.719180372902045 0 -1 0
2654 1 4.574236003750195 42.11061124803638 5.698829780066195 1 1 2
3079 1 12.308983506338052 47.612836988559664 6.269455739806063 1 0 1
4061 1 10.26633089995344 49.491124215357175 6.050385841223355 0 0 1
316 1 8.3230233431178 44.64309155076151 5.875870741274572 0 0 -2
4505 1 17.02952230420567 50.27189828103634 9.772021188780865 2 -1 0
1603 1 2.919413761742689 49.615238535699945 4.093793053937485 -1 0 0
4510 1 3.0474197437386943 43.960460080155556 4.040503683576933 1 0 0
3785 1 6.5585302363359395 50.12586263162096 2.795366884591073 1 0 1
2701 1 6.1643535412891675 46.24104969995061 5.988924322723751 0 0 0
4042 1 16.188464141838114 49.69872733628334 6.585677292207178 1 0 0
1326 1 11.233031322486438 2.0144736300308734 5.4647516212093645 -1 0 0
4250 1 15.025137187285752 1.4480114851323609 5.223491188472893 1 0 1
3713 1 4.457494642041527 0.47627062444913093 7.2268569217779834 1 -1 -1
2279 1 5.9594377574113615 4.854827093684065 7.607023026253636 0 0 0
2708 1 7.118203167111298 50.25757540061417 6.80444753832747 0 1 -1
786 1 9.649116772148766 49.24405833443731 8.826048362375696 0 -1 0
1000 1 9.926054298254119 4.152590694975794 7.339577299737646 -1 0 1
260 1 1.792242637672083 3.7924766294715107 10.915867419099417 0 0 0
2161 1 5.6704499122181815 4.361873289912677 4.863914452839188 0 2 1
2136 1 0.29721557719056185 21.423402791238427 1.3174534974593404 1 1 0
162 1 10.797733144859958 4.080022599680502 9.86349606957681 0 1 0
1089 1 11.570625104607627 8.826854919286125 5.480634431326122 0 2 1
1057 1 8.96512926149174 27.457610956671864 0.5028357040954806 1 -1 0
3132 1 1.9051240068122466 12.25725538753006 5.327700533765897 1 1 0
1637 1 6.527542233427477 9.779592150830698 4.948434958334902 0 2 0
566 1 8.530820332769407 6.751594342084085 4.4884926031862955 0 0 0
2515 1 12.877234516157635 11.65087732486384 9.915592176849465 0 1 1
4374 1 14.161746946723754 10.225055538046702 6.04529377129411 0 0 1
626 1 13.428618495562516 8.586536231383686 10.253988757784832 0 -1 0
4583 1 17.62622829014393 38.32315001996035 5.5140561959353755 1 0 0
2367 1 2.2859261014620933 13.56531590497472 7.562891054454125 0 -1 0
18 1 6.200061057730986 11.733252329980505 9.611144359695858 0 -1 0
3411 1 12.368998038004374 13.105641744708782 5.479876985439914 1 0 0
4606 1 10.841451396990086 12.86388726908133 3.1074031426210555 1 1 1
3298 1 0.6526609517868157 39.17939516203856 8.591215953245417 0 -1 0
1552 1 5.420733247989283 15.738835640061726 10.625067549115073 -1 0 1
1155 1 6.871871965712874 17.350186127223623 8.691730791774352 1 0 1
3612 1 7.3600740772458915 19.639888935312733 10.630390876276362 0 0 1
945 1 11.61540215744448 14.01991437894574 8.507680412011815 -1 0 2
3024 1 1.5903697498572227 40.40744419609953 11.022492548649195 0 1 0
4388 1 14.868962218500613 12.016381340844077 8.059293353919369 2 -1 1
1676 1 2.068596098814858 16.81512386532932 8.606391285619173 0 1 -1
2594 1 3.7273223239272437 18.11432194254892 10.009546407294811 0 1 0
659 1 9.56752640860851 17.42916653678974 4.876469281350412 -1 0 0
1323 1 14.346696963948276 18.958291663808637 6.649935859682413 -1 1 -1
2018 1 1.8689089342618592 22.760166748485144 23.258719961912977 1 -1 0
3179 1 10.440409832201404 29.32282600080545 2.0197028758945303 1 0 2
3740 1 7.307014961868112 21.250735174459212 8.402662830779116 2 2 -1
2022 1 12.692303671984233 22.355642827935153 10.215061252616907 1 -1 0
2269 1 8.418355243696634 23.55320163489812 9.118075844375616 0 1 0
1539 1 4.780949038422387 22.199572934099272 11.185145338829747 1 -1 2
1283 1 6.121406472286936 16.835341858433303 13.330906686992257 2 0 1
356 1 16.02981906012373 33.265201970837566 5.66383800190855 0 -1 0
322 1 12.540308444473837 29.440222519525676 6.909593705010752 -1 2 0
1581 1 12.638830421948663 25.725914726668403 9.473919279732115 0 1 0
2486 1 14.316164122767935 28.865470844117954 8.651092563540448 0 -1 0
927 1 16.609072028977657 23.08113922793704 12.932673259877406 0 0 0
3476 1 3.742751132267298 24.95340140378835 10.385050691064402 0 1 -1
3670 1 5.323140441075955 26.223491369472335 11.997432377756098 0 0 0
3525 1 0.8924173962667676 25.74460152590692 7.906942721654739 0 -1 1
1805 1 5.759648903077418 24.148567006194213 7.242687482765402 0 0 1
3043 1 9.179669354261309 26.522530593600123 8.649273015652271 1 -1 0
3176 1 10.824309557887943 30.729256470643232 12.456520334597805 1 0 0
2297 1 2.742032907981838 33.19595425485579 8.534435787151232 -1 1 0
2451 1 0.580523051452055 35.464133247905124 12.5013197768733 0 0 1
2682 1 3.855984159943783 31.442665757311662 10.448656083333722 1 2 1
1680 1 7.79401303746996 27.209176743916426 10.687684868228668 0 0 1
4540 1 9.94307077619858 29.359786592014984 8.910728778106625 -1 1 2
1563 1 14.69943071910687 32.26087027960361 8.115776353036196 1 0 1
2079 1 1.6673220845403376 10.881269287487523 23.12531625344952 1 0 0
3968 1 15.921962604655402 18.94763927165717 1.1267473909165235 1 1 0
4508 1 3.7851307826646714 37.17220775262918 9.528556477712057 0 0 1
963 1 9.472717349074395 36.28281671932767 6.509969116641124 0 -1 2
4230 1 5.895958168720601 35.64234149641872 8.374182731500463 2 0 1
3616 1 13.967713859790374 37.218121686103885 8.409952851044729 2 0 0
606 1 4.094728366567399 35.957628694820116 12.370076876875187 -1 1 1
568 1 13.886473838036627 39.76765776867414 6.970561455898526 0 0 0
1382 1 13.136932102521484 32.0732305491332 10.960695854817605 0 1 0
3133 1 0.8669762063197776 41.637166947878356 7.467364091406852 1 -1 1
4037 1 4.164027002777244 41.729065168551784 11.613718953109062 0 0 0
4393 1 4.647098899214288 44.307167099592945 12.723256575660702 0 0 1
1749 1 9.08333311063917 39.454156308295154 9.863787058098099 1 -1 0
2331 1 13.653036995867803 44.19793193943286 7.900343017580513 1 0 2
2240 1 13.019710948971056 9.62693064751754 1.3454472801340487 0 -1 -1
2062 1 1.6626480069306524 43.79307564431643 10.528614672958051 0 0 0
206 1 9.09675058352231 45.540478260819356 9.496437512198943 1 0 -2
501 1 7.8744345315176005 43.34606059508296 8.774850112765261 -1 1 -1
2788 1 1.1056520019144114 35.76366276691313 22.849725483745207 2 -1 1
12 1 3.853819916076496 46.11636082565076 7.675134671907017 1 0 0
3739 1 4.030152746400602 46.9266097065336 10.603280381049663 1 -1 0
2133 1 4.642943022021534 49.64351575069591 9.887497845090238 2 -1 0
3439 1 6.744687701253785 47.524168402411945 8.737649847595918 0 0 0
468 1 3.8144257265893935 16.19664028285116 23.83390926110531 1 0 0
4318 1 7.748436890947812 2.4968674379633113 7.0511742791289755 1 -1 2
774 1 8.24055267560794 47.91092582922438 4.516212638753126 0 -1 -1
1187 1 12.010309665288258 46.198148004127006 11.224782868481881 0 0 2
904 1 13.040839999262342 0.6126890624203718 7.1352984801802 0 1 0
2620 1 13.336470433225932 2.401540224768894 8.728546107438017 0 1 1
1177 1 6.498092886908295 27.751220720876212 4.293503782719968 0 0 2
686 1 4.808830983151271 2.836868024464074 8.95668437813896 1 1 0
3915 1 8.080916507822765 5.43814846759197 11.419633214175223 1 1 1
4197 1 11.692066879303377 49.552121488513734 10.44758080323982 1 -2 1
1319 1 8.98819091270654 2.4739231397397994 15.036047991608982 -1 1 2
4259 1 14.26364368139728 47.283542773131614 23.224763302432887 1 1 2
4536 1 0.19526559840795382 3.9407530453437842 13.379511857469357 0 2 0
3964 1 7.824128780383054 6.221893641726708 8.707048713890153 1 1 1
3866 1 9.012915306417371 9.056899664964753 6.503276697113684 0 -1 1
4173 1 2.447214367029942 36.94398731024906 1.0338867252505684 1 0 1
1787 1 4.123646554142994 10.63974139445814 5.3158647619333275 1 1 0
1714 1 1.9501988586313614 9.150211174500775 8.367874645184179 1 -1 1
4529 1 8.009480243440567 8.988520254239118 9.200134577811582 0 2 1
637 1 10.543551791946053 9.305383013705866 10.402463754057328 0 0 -1
1317 1 14.964720446604389 8.582566902798918 12.73843334072554 0 2 -2
2803 1 15.594870511700245 46.95380430070651 8.49974869693241 0 0 1
3191 1 6.535850880141369 11.446002150173708 14.925543204597064 0 0 1
4153 1 1.8090388090477774 12.416964949319482 10.60749154246759 0 0 0
1321 1 8.743277461420213 12.580607504047052 8.952058594312664 0 0 0
4044 1 5.928154772986396 7.891704969289035 11.913129654457665 0 -1 -1
4436 1 12.224787669560653 13.229794059568277 12.270476306753434 -1 1 0
4595 1 14.937840931253968 12.0465275916186 12.646757149115752 0 0 1
889 1 3.599269709859263 13.659958412773197 14.590995141524953 0 1 2
3401 1 8.61091379978844 15.24025481925283 9.499584021976869 1 -1 0
2587 1 10.625260791786394 17.211300445510698 8.37949934846721 0 0 1
627 1 13.128393643452423 15.563862546150961 10.973550685768059 1 1 -1
4397 1 15.529998596706712 16.53243298061935 10.013790937373873 0 1 2
2374 1 4.087626641636412 13.557057464227505 11.827032944941369 1 0 2
2237 1 8.473890679504734 15.873972661176898 12.197867848350016 0 0 1
2795 1 9.507358036349586 11.869298126975176 11.878634836413973 1 1 1
2642 1 5.746917446937888 19.822582981901114 12.87101117967045 0 -1 0
4080 1 9.013655188341922 18.609947660045343 12.984395927549873 0 1 0
2390 1 15.106711194278038 18.420771348888074 13.921746703163382 0 0 0
3888 1 16.148818556462746 21.813823479692857 4.871410488335958 2 0 1
1612 1 2.2199734477952364 21.43819780461917 11.294384619191113 1 0 0
3820 1 8.533588918878706 20.382687399335918 15.14081687452341 0 -1 2
2843 1 7.67771376026779 22.91768505728664 11.853210590406894 1 0 1
287 1 11.713873675606274 20.85927425828998 12.482737056712358 0 2 0
407 1 1.9258588685472557 28.881050421034242 24.08938297714618 0 -1 -1
3424 1 0.3288167472217262 30.328445078375744 2.991340350444182 0 1 1
3963 1 2.6219491140636313 23.67016246958346 13.44370645476524 0 -1 0
1596 1 10.102376069699705 22.837425090006896 13.13287970052688 0 0 -1
539 1 14.683833750799915 24.414197970243578 11.22133981932468 -1 0 0
3667 1 0.7802318927819971 33.27783488259564 16.316411087603626 1 2 -2
3982 1 1.2348045529524014 25.968672767608037 11.207136067309664 1 0 0
172 1 3.9873395781910803 26.189028208271083 8.003241283813157 0 0 -1
942 1 0.7120171242050016 29.580211809377484 12.919812742790043 0 0 1
4321 1 10.530333527276778 25.10470575064044 11.163461908452017 1 -1 3
4213 1 10.661567672052323 27.697502730088257 12.4065019749568 1 0 1
2328 1 17.00311907587061 22.100613723132927 8.367762740012974 0 1 1
4198 1 1.2062364051025565 32.08569533774772 12.098286590764324 2 0 1
1227 1 8.330550709326724 28.391527118371627 14.049969575050573 -1 0 0
2987 1 10.822898538700025 33.54487565340308 9.165358425422264 1 0 2
577 1 9.202008748137763 38.013970373825174 1.5224790398496115 0 -1 1
2296 1 1.2332717150479973 35.50330608719709 9.482970375521312 0 0 0
2805 1 7.585439984764482 34.00303001981008 10.643197139734244 1 -2 1
4290 1 5.166429452921543 33.420701515919205 11.982129882722974 2 0 1
2700 1 7.193447690588345 37.07047105241139 10.825311268313325 1 -1 1
1817 1 6.615309780927512 29.91728147842049 10.054940497633627 0 0 -1
3394 1 11.106480303545549 36.18508686237564 8.964925869568058 1 -1 0
3589 1 11.46052628283536 35.40975724104739 11.762452521483727 0 -1 0
3653 1 16.22449649184993 24.285161625138052 2.6011284472765572 0 1 0
3826 1 5.08682662470006 38.02477165124813 14.121575871770716 1 0 0
178 1 5.432880930476246 36.620892920495535 24.854393979604097 -1 0 1
3779 1 6.316804805535698 40.858852156377566 13.13135488426117 2 1 -1
1359 1 11.448621187878908 38.54722003635902 10.663052103136668 -1 -1 1
1135 1 14.478016306186635 37.79460269451488 11.55238191215547 0 0 0
197 1 14.278930211170405 34.760892257344395 12.032424758134525 0 0 0
4222 1 13.626979826282799 37.5516902301199 14.160606620093299 1 0 1
2445 1 4.047516312057738 43.394954409492016 15.10355284993794 0 -1 1
2860 1 7.639915881290467 41.230230601024914 11.08376154943044 0 0 1
2254 1 8.370058790555047 38.34101227351704 13.271520802595754 0 0 -1
2007 1 10.643199626385364 42.06755067630321 11.2714244679098 0 -1 0
28 1 14.176234387041653 42.15282101896776 10.684386316589727 1 -1 0
1848 1 7.002420378766357 49.538964839949855 21.99518023936857 0 -1 -2
2622 1 2.878069561469934 43.7200074647521 8.101268610732635 1 0 0
2382 1 5.850802465958131 45.10650401248331 1.3474913308640781 1 1 1
3162 1 6.861151463319884 46.62357999921221 11.49751940241535 1 0 0
846 1 9.567431983174659 44.45314991574193 12.018726631600975 1 -1 1
1071 1 15.37799224993916 44.73501586910868 10.58092372976345 1 0 0
1962 1 10.722437486596375 48.18452260657372 13.024326152083963 -1 -1 0
4154 1 17.279099863557242 19.830608060440213 25.04173839984866 0 0 -2
569 1 6.701079836222473 0.27211287898195785 11.445949268683753 0 1 1
3046 1 7.98711389789994 48.785325419837065 12.962854264267133 1 0 1
654 1 8.74713036387698 1.0446515996202017 9.822333542605694 -1 1 0
1515 1 14.486283018711024 47.0531911357527 12.06510111131439 1 0 1
2892 1 9.962415353360159 44.3473841263811 23.790841567277994 0 -1 0
3091 1 8.273534377561342 41.13234231763859 3.3478943462583968 1 1 -1
37 1 0.273716009382624 1.9057389643926832 9.444112958940083 1 2 1
2766 1 1.191292370863697 48.290798800688705 5.233339690024843 1 -1 0
3322 1 0.5861250339807159 14.461984983037635 24.71908675437723 0 0 -1
2407 1 4.011231442027975 2.0427574761908334 11.747948491062262 0 0 1
3369 1 11.406156724245806 1.6523519775054327 10.895788327465436 1 2 -1
52 1 14.84737519850138 0.6691131140583773 10.434484897513158 0 0 0
1399 1 4.782016282475295 2.862027412883852 15.845743502277642 1 1 0
3237 1 8.118697974847029 2.739824739600026 12.324999275448581 1 0 -1
1996 1 1.2544404222831782 2.5564157675188874 17.2112629704668 -1 -1 0
2616 1 7.0272308580422145 0.6043004933376694 15.465346858141869 0 1 1
2000 1 15.729077789793555 50.56722333323491 13.338852753040578 0 0 -1
2678 1 15.440508337221662 4.191627441136753 10.585816676701432 0 0 0
263 1 12.463685612341088 4.819431989362086 24.36178003671338 0 0 -2
1370 1 16.418439390133962 4.731570675909843 14.889494541122671 0 1 0
2139 1 2.8050171704475266 9.777190692497708 11.035581347178468 1 0 0
3792 1 0.2640160942800272 7.121327162302652 8.400951037806795 0 1 0
4509 1 4.845319472612668 5.440515142702667 17.185828270798304 0 0 1
325 1 10.36131433036877 6.889966443166901 11.688711048006754 0 0 0
1480 1 15.609932932876069 7.740822746805403 7.568659265848125 1 1 1
1822 1 13.18550188096118 5.785808772808524 9.645479287768136 0 2 0
4382 1 13.633741860553789 1.7538258416849135 14.318141789948987 1 -1 1
319 1 14.140001497089244 4.117032101555214 13.010883915999019 -1 1 0
1448 1 3.5937405179374244 6.221376154273869 12.31295358831761 0 0 0
3725 1 9.080824795658398 7.662052305776496 14.143727712500812 1 0 -1
614 1 7.477343337287494 4.8202240101822875 15.553583417799146 -1 1 0
4527 1 10.333573443997018 9.895202743391804 13.943471435426762 1 0 0
740 1 12.735340504137426 6.6058661358263056 13.060760580923409 -1 1 1
1506 1 13.124430585867236 10.206995132295688 14.526027176423776 0 1 0
2856 1 5.259859290069438 10.813356465302753 12.035541058414774 0 -1 0
1697 1 6.06300346765345 7.891484775558941 14.951817692397752 0 0 0
3194 1 11.089048521250541 9.768937555960116 18.092986583973612 2 0 0
1658 1 15.261525254942198 14.893377888132589 13.299227028238837 1 0 0
2219 1 16.797296948298385 9.026527491421566 15.228523186360833 1 1 -1
1078 1 10.169478668901904 16.5281562301534 15.02876343059807 1 0 0
2132 1 8.48572848505042 13.503567747741915 13.747987630502397 0 0 0
3429 1 12.603839092455512 17.566653288865897 13.604278922947548 1 0 -2
1020 1 12.810856422984934 16.01644031530458 17.0609379693262 0 1 1
2454 1 6.306833705099758 38.43867734047143 0.283272292525141 0 0 0
2633 1 15.445619390310116 15.771411911514887 15.806829991552954 0 0 -1
4292 1 6.934049892505906 37.82410951855405 3.3559986306347604 1 0 1
719 1 3.986057923049196 15.875650684148237 15.748569971970815 1 0 -1
4202 1 6.255251984386162 18.119053203773053 16.231196998059577 0 0 1
1371 1 11.917284303823575 18.461405823419835 10.85061945544636 -1 0 1
3275 1 13.604610838943932 20.35485565073899 8.936798313973918 1 2 1
239 1 15.675977515263952 19.8296819050188 16.46884510369212 0 1 0
2214 1 16.774484521972997 30.26615353137702 8.609705440969757 0 1 2
2428 1 2.4859214818994575 17.911371948098527 15.19154797068282 1 1 1
3141 1 7.284788164804429 20.04972749771425 18.300659062193034 1 1 0
4342 1 5.888680917523083 22.353834121598755 18.38688025010456 0 -1 1
1442 1 11.933397405896677 19.638679090488964 15.65163081636104 0 1 1
2827 1 16.722431832052305 24.624896190055452 9.590531403622654 1 0 0
1070 1 2.7553804934805175 21.694103494020034 2.6123517207478466 0 0 -1
732 1 5.6663582806916795 14.134351013942839 23.95121667471008 -1 0 -1
3073 1 4.692004092608824 20.725538360038993 15.67339781366533 0 1 -1
406 1 2.06738561545649 21.355146027880426 15.033454546991242 0 2 1
2952 1 7.937761957179802 23.956082696329652 16.8524147497545 0 0 1
2664 1 9.885941603257152 22.61693603329519 18.16163312083356 0 2 2
4498 1 13.914716942603242 25.286561983745724 15.367621669393756 1 -1 0
1486 1 10.544378764192546 32.06187489749696 1.1093623878808043 -1 0 0
1864 1 0.7911433030312601 27.330101758280982 15.333106996050248 1 0 0
2829 1 4.785345871862552 24.338593114937645 14.009991492144238 1 1 1
797 1 2.745563400694576 28.27627746738668 11.415938908022431 0 0 -1
493 1 11.49234047168547 26.689248657816606 15.152629871086711 0 -1 1
2397 1 2.766960255397636 33.07305453893639 14.12377333567125 0 0 0
2168 1 5.712816465631235 29.05250265327185 12.448018078386417 0 -2 0
3124 1 6.186261012822735 28.42881501464862 18.64160105284281 0 -1 -1