
# Define the lattice
#
variable	    lattice_constant equal 6.36339
lattice		    diamond ${lattice_constant}
lattice		    diamond 6.36339
Lattice spacing in x,y,z = 6.3633900 6.3633900 6.3633900

# Define region
# multiples of lattice spacing
#
region 		    simbox block 0 9 0 8 0 8

# Create Atoms
#
create_box          1 simbox
Created orthogonal box = (0.0000000 0.0000000 0.0000000) to (57.270510 50.907120 50.907120)
  3 by 1 by 2 MPI processor grid
create_atoms        1 box
Created 4608 atoms
  create_atoms CPU = 0.000 seconds
mass                1 18.015

# Define potential
#
pair_style          sw
pair_coeff          * * /data/emrosky-sim/Freezing_Simulations/Melting/mW_fancy/mW.sw mW
Reading sw potential file /data/emrosky-sim/Freezing_Simulations/Melting/mW_fancy/mW.sw with DATE: 2019-02-27

# Add velocity/set timestep
#
velocity            all create ${TEMP} 120598 rot yes dist gaussian
velocity            all create 274 120598 rot yes dist gaussian
timestep            5.0

# Define output
#
compute	            1 all msd
thermo              100
thermo_style        custom step temp press vol etotal ke pe c_1[4]

# Neighbor lists
#
neigh_modify        delay 0 every 1 check yes

# Set fixes
#
fix                 1 all momentum 10 linear 1 1 1 rescale
fix                 2 all nve
fix                 3 all temp/csvr ${TEMP} ${TEMP} 500.0 928347
fix                 3 all temp/csvr 274 ${TEMP} 500.0 928347
fix                 3 all temp/csvr 274 274 500.0 928347
fix                 4 all press/berendsen iso ${PRES} ${PRES} 1000.0 modulus 20000
fix                 4 all press/berendsen iso 1 ${PRES} 1000.0 modulus 20000
fix                 4 all press/berendsen iso 1 1 1000.0 modulus 20000

# Run 0.5 ns equilibration
#
dump		    1 all custom 1000 eq.${NAME}.dump id type x y z vx vy vz
dump		    1 all custom 1000 eq.ice_274K_1atm_mW.dump id type x y z vx vy vz
run                 100000
Neighbor list info ...
  update every 1 steps, delay 0 steps, check yes
  max neighbors/atom: 2000, page size: 100000
  master list distance cutoff = 6.3065
  ghost atom cutoff = 6.3065
  binsize = 3.15325, bins = 19 17 17
  1 neighbor lists, perpetual/occasional/extra = 1 0 0
  (1) pair sw, perpetual
      attributes: full, newton on
      pair build: full/bin/atomonly
      stencil: full/bin/3d
      bin: standard
Per MPI rank memory allocation (min/avg/max) = 4.778 | 4.778 | 4.778 Mbytes
Step Temp Press Volume TotEng KinEng PotEng c_1[4] 
       0          274   -4574.7557    148418.52   -52790.792    3762.7302   -56553.522            0 
     100    218.70814   -660.16636    140934.46   -51642.424    3003.4297   -54645.854   0.28678469 
     200    219.41009   -47.764671    140252.16   -50757.565    3013.0692   -53770.634   0.37708816 
     300    226.56763    23.740598    140389.75   -50188.311    3111.3608   -53299.672   0.38903423 
     400    245.39081    5.6399236    140577.49   -49803.503    3369.8518   -53173.355   0.35405562 
     500     260.1941   -3.9497062    140713.66   -49532.162    3573.1394   -53105.301   0.36923339 
     600    263.97313    47.617834     140837.1   -49268.344    3625.0352   -52893.379   0.39149274 
     700    267.13547    53.301138    140862.84   -49198.316    3668.4624   -52866.778   0.33599098 
     800    271.13284   -15.171441    140901.74   -49117.833    3723.3566    -52841.19   0.37280686 
     900    274.43502   -18.128467    140958.57   -49101.424    3768.7042   -52870.128   0.36963885 
    1000      277.541    33.045815    140916.33   -49147.295    3811.3572   -52958.652   0.34935941 
    1100    275.46388    7.9977607    140926.49   -49086.539    3782.8331   -52869.372    0.3487262 
    1200    278.03017    57.432726    140954.72   -49090.076    3818.0749   -52908.151   0.35668327 
    1300    272.35917   -15.803889    140957.29   -48999.694    3740.1973   -52739.891   0.38159475 
    1400    274.54482   -27.417692    140976.13   -49093.284    3770.2119   -52863.496   0.33893088 
    1500    269.56499   -39.140384    140913.16   -49122.912    3701.8259   -52824.738   0.37191854 
    1600    275.00037    3.8904911    140934.82   -49067.517    3776.4679   -52843.985   0.37922618 
    1700    273.14933    28.493348    140941.86   -49087.633    3751.0483   -52838.681   0.34209538 
    1800    267.34616   -16.833961    140948.65   -49084.493    3671.3557   -52755.848   0.35333964 
    1900     282.2818    13.286152    140978.82    -48996.36    3876.4607   -52872.821   0.37634621 
    2000    278.94997   -25.518547     141001.6   -48949.978    3830.7061   -52780.684   0.36262493 
    2100    273.12463    -23.49532    140951.98   -49106.093    3750.7091   -52856.802   0.33936812 
    2200    280.33643   -21.821571    140948.73    -49049.84    3849.7458   -52899.586   0.37208044 
    2300    276.46285     25.95831    140951.08    -48979.87    3796.5515   -52776.422   0.37833423 
    2400    273.00901   -21.134708    140931.77   -49001.525    3749.1213   -52750.646   0.34728083 
    2500    274.53523   -9.7580817    140950.53   -49044.956    3770.0803   -52815.036   0.36894142 
    2600    274.00584    3.2997475    140946.29   -49077.465    3762.8104   -52840.276   0.38255623 
    2700    273.95621   -23.786808    140906.81   -49048.607    3762.1288   -52810.736   0.34952106 
    2800    274.70871    18.604326    140938.79   -48956.159    3772.4626   -52728.622   0.35273087 
    2900    277.23233    -17.90614    140975.36   -48985.407    3807.1185   -52792.526   0.38046992 
    3000    277.10098    39.617674    140935.49   -49033.981    3805.3147   -52839.296   0.34830763 
    3100    275.58366    17.715571    140940.89   -49006.955     3784.478   -52791.433    0.3472193 
    3200    270.51565   -4.6767149    140920.71   -49116.237    3714.8811   -52831.118   0.37281156 
    3300    269.47438   -7.5251664    140866.28   -49171.663    3700.5817   -52872.245   0.37214093 
    3400    273.61573   -4.1156183    140886.54   -49109.378    3757.4531   -52866.831   0.34875391 
    3500    270.54935   -42.200898    140895.88   -49071.217    3715.3438    -52786.56    0.3726173 
    3600     278.3479    18.194569    140914.55   -49080.614    3822.4381   -52903.052   0.37046372 
    3700    276.19944   -28.609459    140918.65   -49042.735    3792.9342   -52835.669   0.34768193 
    3800    271.15715    40.256838    140935.74   -49029.626    3723.6905   -52753.316   0.34924053 
    3900    277.01833   -26.704982    140915.47   -49038.926    3804.1797   -52843.106   0.37833462 
    4000    274.04116  -0.67008114    140892.01   -49076.691    3763.2954   -52839.987   0.36273626 
    4100     270.0206   -15.498949    140897.68   -49094.639    3708.0827   -52802.722   0.35086821 
    4200    276.87208    28.064303    140904.77   -49044.947    3802.1713   -52847.118   0.36587113 
    4300    269.35717   -44.302963    140892.15   -49181.604    3698.9721   -52880.576   0.37789219 
    4400     271.6934    2.3539068    140859.53   -49065.857    3731.0546   -52796.912   0.35348095 
    4500    271.62412    7.3997966    140872.45   -49124.148    3730.1031   -52854.251   0.34859363 
    4600    271.66055    17.533439    140869.44   -49155.173    3730.6035   -52885.777   0.39138055 
    4700    275.99041    20.634767    140891.65   -49062.225    3790.0637   -52852.289   0.34401007 
    4800    278.47598     40.55597    140895.96    -48964.87     3824.197   -52789.067   0.35346403 
    4900    278.50119    5.0832397    140924.36   -48939.277    3824.5431   -52763.821   0.39642554 
    5000     277.7661    8.0515468    140932.33   -49065.479    3814.4485   -52879.927   0.35866725 
    5100    276.31743    29.668859    140952.01   -48990.871    3794.5545   -52785.426   0.34164355 
    5200    275.46487    -1.068804    140964.54     -49067.1    3782.8466   -52849.947   0.37196195 
    5300     270.1466   -22.407654    140881.79   -49161.647     3709.813   -52871.459    0.3822409 
    5400    269.09435    20.688141     140881.8   -49131.196    3695.3628   -52826.559   0.32465098 
    5500    272.18615     16.85224    140890.73   -49098.865    3737.8213   -52836.686   0.37640405 
    5600    271.24347    23.709051    140852.29   -49129.227    3724.8759   -52854.103   0.38725818 
    5700    268.13463   -23.155388     140862.8   -49125.341    3682.1834   -52807.525   0.34008719 
    5800    274.64262    9.4047049    140866.15   -49067.251     3771.555   -52838.806   0.37520341 
    5900    270.48048   -19.929926    140892.66   -49144.727     3714.398   -52859.125   0.37685714 
    6000    269.28282   -19.692036    140855.03   -49119.866    3697.9511   -52817.817   0.35393316 
    6100    268.93215    38.178885    140843.01   -49192.744    3693.1355    -52885.88    0.3568471 
    6200    271.14849    11.122921    140853.57   -49171.945    3723.5716   -52895.516   0.38379719 
    6300    277.11985   -6.2326704    140896.84   -49055.625    3805.5738   -52861.199   0.36072532 
    6400    275.44901   -5.2830659    140912.57   -49111.631    3782.6288    -52894.26   0.34531381 
    6500    271.94371   -20.742447    140877.21   -49125.129     3734.492   -52859.621   0.37608667 
    6600    273.71978    20.008447    140859.54   -49129.248     3758.882    -52888.13    0.3678269 
    6700    267.37396   -7.5335097    140845.67    -49182.92    3671.7375   -52854.658     0.359217 
    6800    271.48159   -33.739058    140853.77   -49147.128     3728.146   -52875.274   0.36750249 
    6900    276.80979    31.271652    140897.51   -49069.747    3801.3158   -52871.063   0.37402922 
    7000    270.61627    -31.58549     140877.4   -49069.519    3716.2629   -52785.782   0.37048848 
    7100    273.45128   -41.769152    140884.44   -49072.779    3755.1948   -52827.974   0.34780625 
    7200    272.76849   -25.041205    140838.58   -49181.581    3745.8184   -52927.399   0.38279054 
    7300    270.45787    58.925972    140801.75   -49222.961    3714.0875   -52937.048   0.37722045 
    7400    272.74265   -12.110226    140862.61   -49126.271    3745.4635   -52871.734   0.34510028 
    7500    274.88253   -17.936975    140888.15   -49061.977    3774.8495   -52836.827   0.37221282 
    7600    270.47793    8.3188691     140897.8   -49031.444     3714.363   -52745.807   0.38825345 
    7700    271.93862   -10.302545    140884.18   -49126.005    3734.4221   -52860.427   0.34649701 
    7800    273.96266    6.8155261    140876.59   -49177.185    3762.2174   -52939.402   0.35569378 
    7900    268.28808   -38.875063    140904.49     -49127.1    3684.2907   -52811.391   0.39516726 
    8000    271.36638   -22.330146    140907.61    -49028.69    3726.5638   -52755.254   0.35628654 
    8100     277.2909    1.6740852    140918.34   -48999.055    3807.9228   -52806.978   0.35166914 
    8200     277.1558   -2.0346146    140903.51   -49017.875    3806.0675   -52823.943   0.39034789 
    8300    277.23527    7.4925771    140908.46   -48980.876    3807.1588   -52788.035   0.36504819 
    8400    277.63173    -3.443515    140941.97   -48958.569    3812.6033   -52771.172   0.34198508 
    8500    275.54931    13.539816    140916.83   -49038.724    3784.0062    -52822.73   0.38325303 
    8600    276.33144   -24.485858    140898.95   -49053.069    3794.7469   -52847.816   0.37825826 
    8700    274.76702   -22.217092    140903.19    -49024.81    3773.2633   -52798.073    0.3475642 
    8800    277.51137     21.92497    140925.99   -49062.169    3810.9504   -52873.119   0.36876418 
    8900     273.0982    20.526845    140899.74   -49122.844    3750.3462    -52873.19   0.39063328 
    9000    270.21171    20.860143    140898.12   -49049.492    3710.7071   -52760.199   0.36111697 
    9100    277.23454    4.6480715    140927.31   -49105.495    3807.1489   -52912.644   0.35079337 
    9200     277.4664   -21.141422    140917.44   -49004.913    3810.3328   -52815.246   0.38342073 
    9300    272.89497   -9.6946725    140856.79   -49142.013    3747.5552   -52889.569    0.3744274 
    9400     272.3253   -15.164783    140871.24   -49108.863    3739.7322   -52848.595   0.34585114 
    9500    268.57818    18.564222    140873.95   -49149.798    3688.2745   -52838.073   0.37794806 
    9600    269.47511   -10.911249    140855.65   -49143.266    3700.5918   -52843.857   0.38333561 
    9700    273.17549    17.145182    140875.72   -49028.688    3751.4075   -52780.096   0.34817084 
    9800    273.20009   -32.613776    140930.55   -48983.886    3751.7453   -52735.631     0.371571 
    9900    276.11133    10.521561    140906.89   -49006.367    3791.7243   -52798.092   0.38964038 
   10000    278.68146   -31.859932     140921.2   -49063.153    3827.0187   -52890.172   0.35100343 
   10100    275.75398   -6.9384955    140911.06   -49014.766    3786.8169   -52801.582   0.35127401 
   10200    274.80003   -53.941899    140936.28   -48991.147    3773.7167   -52764.863   0.39537456 
   10300    274.21985   -33.384431    140929.42   -48987.502    3765.7493   -52753.252   0.37261183 
   10400    274.55965    19.496069    140897.85   -48988.276    3770.4157   -52758.692   0.34378405 
   10500    269.58073   -9.3682729    140891.55    -49032.82    3702.0421   -52734.862     0.390475 
   10600     274.0662    20.720034    140902.01   -49055.675    3763.6393   -52819.315     0.382072 
   10700    276.82323   -2.6354584    140887.37   -49079.048    3801.5004   -52880.549   0.34148386 
   10800    267.27063   -19.504501    140859.53    -49206.97    3670.3185   -52877.289   0.38045782 
   10900    272.23336   -17.309855    140833.51   -49196.048    3738.4697   -52934.518   0.38477357 
   11000    272.22138    -7.256257    140810.33    -49203.08    3738.3052   -52941.385   0.35679595 
   11100    270.67208   -15.037251    140869.06    -49115.94    3717.0292   -52832.969   0.36000987 
   11200    269.95462   -7.4959343     140860.9   -49215.876    3707.1766   -52923.052   0.38568097 
   11300    271.23551    6.6259403    140813.62    -49133.97    3724.7665   -52858.736   0.36427056 
   11400    271.99439    16.525928    140852.02   -49116.612     3735.188     -52851.8   0.35623965 
   11500    279.74332    45.332663    140882.58   -49025.906    3841.6009   -52867.507   0.37692802 
   11600    274.16399    8.7562529    140924.01   -49016.871    3764.9822   -52781.853   0.36570477 
   11700    281.64513   -10.624979    140955.62   -48894.881    3867.7177   -52762.599   0.36140792 
   11800    276.80995   -12.887318    140937.12   -48960.926     3801.318   -52762.244   0.36940736 
   11900    279.73661   -8.6747564    140923.25   -49006.053    3841.5088   -52847.562   0.37906235 
   12000    278.71723    9.4917437    140925.83   -48973.904      3827.51   -52801.414   0.37181386 
   12100    278.76993   -2.9965832    140901.54   -49031.745    3828.2337   -52859.979   0.35461029 
   12200     277.0613   -16.835136    140858.97   -49030.378    3804.7698   -52835.148   0.38837654 
   12300    274.91502    37.544954    140864.78   -49083.189    3775.2958   -52858.485   0.37638037 
   12400    271.02491   -6.4546025    140890.87   -49076.516    3721.8745   -52798.391   0.34319083 
   12500    273.90129   -3.6905019     140899.1   -49009.238    3761.3747   -52770.612   0.37559203 
   12600    278.41656   -6.3076017     140926.8    -48974.53    3823.3811   -52797.911   0.38733485 
   12700    272.43599    3.0332139     140920.5   -49048.319    3741.2522   -52789.571    0.3470085 
   12800     274.8249    13.707286    140905.37   -49035.721    3774.0582   -52809.779   0.35553327 
   12900     273.4741    7.0057819    140878.59   -49092.498    3755.5082   -52848.007   0.40352779 
   13000    274.14201     9.045248    140895.45   -49067.315    3764.6804   -52831.995    0.3487039 
   13100    270.04604    14.090808    140911.48   -49143.401    3708.4321   -52851.833   0.34288089 
   13200    273.93889   -5.9830306    140861.66   -49166.959     3761.891    -52928.85   0.39422436 
   13300    270.73517   -17.194742    140862.32   -49244.394    3717.8955   -52962.289   0.34843553 
   13400    267.21256   -10.568969    140832.65   -49230.513    3669.5211   -52900.034   0.34751649 
   13500    275.61841    4.0645784    140846.14   -49145.127    3784.9552   -52930.082    0.3841525 
   13600    275.38624   -20.302735     140857.7   -49092.294    3781.7669   -52874.061   0.36755734 
   13700    273.02018    40.205086    140838.85   -49121.099    3749.2747   -52870.374    0.3418974 
   13800    276.06487     2.734045    140852.06   -49074.515    3791.0862   -52865.601   0.38247785 
   13900    275.89248    38.069027    140824.41   -49059.572    3788.7189   -52848.291   0.37687893 
   14000    277.75456    20.750308    140882.72   -48958.647    3814.2901   -52772.937   0.35670772 
   14100    275.16553    -4.736641    140896.18   -49044.441    3778.7359   -52823.177   0.37333891 
   14200    273.09762    3.7673977    140871.38   -49049.434    3750.3382   -52799.772    0.3792261 
   14300    275.19314   -9.0491715    140869.36   -49084.274    3779.1151   -52863.389   0.36447608 
   14400    273.90767    47.749476    140838.55   -49132.451    3761.4623   -52893.913    0.3563568 
   14500    266.14542    5.7634764    140842.18   -49152.201    3654.8665   -52807.068   0.37182735 
   14600     272.1365 -0.033109056    140828.63   -49105.611    3737.1395   -52842.751   0.37145458 
   14700    275.16853    49.520235    140850.28   -49060.406    3778.7771   -52839.183   0.35600289 
   14800    275.76625   -1.6893754    140878.24   -49037.191    3786.9854   -52824.177   0.36145194 
   14900    270.75679   -6.0933258    140874.42   -49047.857    3718.1925   -52766.049   0.38044989 
   15000    271.59866   -26.705588    140837.08     -49109.4    3729.7535   -52839.153    0.3724094 
   15100    270.24142   -3.7494169    140813.89   -49116.994    3711.1151   -52828.109   0.35466764 
   15200    271.49781    22.282976    140836.93   -49054.032    3728.3687   -52782.401   0.38863822 
   15300      272.247   -5.9699522    140833.85   -49134.347     3738.657   -52873.004   0.37405855 
   15400    268.10955   -32.805014    140805.31   -49122.632    3681.8391   -52804.471   0.34567188 
   15500    277.42889    28.111464    140856.65   -49065.992    3809.8178    -52875.81   0.37924605 
   15600    280.22705   -11.162457    140924.06   -48953.019    3848.2437   -52801.263   0.38159756 
   15700    274.11005   -33.984117    140929.83   -48969.919    3764.2414   -52734.161   0.34553535 
   15800    275.44777    3.3732988    140924.26   -48970.562    3782.6119   -52753.174   0.37104917 
   15900     278.2307    20.236968    140940.79   -48989.151    3820.8286    -52809.98   0.38460058 
   16000    274.73093    11.876493    140897.43   -49036.587    3772.7677   -52809.354   0.35154981 
   16100    273.21439    10.463631    140869.75   -49067.889    3751.9417   -52819.831   0.35739458 
   16200    273.49686     -8.36188    140888.04   -49077.048    3755.8208   -52832.869   0.38586193 
   16300    269.28221     6.858299    140880.51   -49090.474    3697.9427   -52788.417   0.36404645 
   16400    270.11454   -16.442091    140904.45   -49105.435    3709.3728   -52814.808   0.34905303 
   16500    271.56233    4.3586509    140919.99   -49033.339    3729.2546   -52762.594   0.38790381 
   16600    276.50747    1.1788441    140947.04   -48959.678    3797.1642   -52756.842   0.37034513 
   16700    274.57477    23.072057    140920.72   -48998.558    3770.6233   -52769.181   0.35704707 
   16800    271.24096   0.27693538    140875.97   -49046.036    3724.8414   -52770.877   0.37251402 
   16900    273.34178   -27.963905    140897.82   -49072.213    3753.6911   -52825.904   0.37512072 
   17000      273.894    24.507825     140853.4   -49118.117    3761.2746   -52879.392   0.35638798 
   17100    274.22184   0.71128052    140855.05   -49067.553    3765.7766   -52833.329   0.36438395 
   17200    273.71308   -8.8866823    140843.25   -49124.106      3758.79   -52882.896    0.3814805 
   17300    270.61068    -34.48224    140817.04   -49213.753     3716.186   -52929.939   0.36478892 
   17400      268.003   -1.4571075    140812.06   -49208.872    3680.3758   -52889.248   0.36256582 
   17500    269.88862    49.407561    140860.05   -49109.466    3706.2703   -52815.736    0.3708105 
   17600    272.83091    3.3668543    140859.15   -49116.281    3746.6756   -52862.957   0.38276277 
   17700    271.71944   -20.733689    140844.59   -49174.865    3731.4121   -52906.277   0.36432465 
   17800    270.01692    25.700968    140860.87   -49129.064    3708.0322   -52837.096   0.36103163 
   17900    278.22354    -12.30503    140881.59   -49076.065    3820.7304   -52896.795   0.38790767 
   18000    274.07627    36.006387     140901.9   -48991.654    3763.7775   -52755.432   0.35678817 
   18100    273.42152   -12.601738    140916.73   -49004.215    3754.7861   -52759.002   0.35624527 
   18200    274.84366    25.418791    140903.77   -49048.263    3774.3158   -52822.579   0.38227159 
   18300    274.41209    5.8933035    140889.24   -49052.062    3768.3893   -52820.451   0.37001617 
   18400    272.40571    16.935572    140895.22   -49139.279    3740.8365   -52880.116   0.34179919 
   18500    271.60591   -15.774314    140897.85   -49083.463    3729.8531   -52813.317   0.37840778 
   18600    274.94518   -23.561266    140895.25   -49035.421    3775.7099   -52811.131   0.38652411 
   18700    275.73607    7.9535727    140907.17   -49053.764    3786.5709   -52840.335   0.33932931 
   18800    270.87807    4.8154089    140898.58   -49072.137     3719.858   -52791.995   0.37264021 
   18900    276.75272   -7.9266112     140899.7   -49026.461    3800.5322   -52826.993   0.38874466 
   19000    273.31407    -11.51081    140882.85   -49052.758    3753.3106   -52806.068   0.34549729 
   19100     276.5896    17.476461    140888.77   -48965.229    3798.2922   -52763.521   0.36500454 
   19200    277.44082    25.890563    140875.44   -48997.328    3809.9816    -52807.31   0.39175416 
   19300     276.3667    10.554738    140917.93   -48895.935    3795.2311   -52691.166   0.35823364 
   19400    274.57062   -28.546824    140917.94   -48961.839    3770.5662   -52732.406    0.3615906 
   19500    273.41943    35.032407    140925.15    -48961.15    3754.7574   -52715.907   0.37854184 
   19600    276.53011    1.5674662    140953.56   -48954.327    3797.4751   -52751.802   0.36236073 
   19700    278.65524   -1.0558523    140962.68   -49005.504    3826.6586   -52832.162   0.34819455 
   19800    277.88719    7.2864646     140943.9   -48955.886    3816.1114   -52771.998   0.36943464 
   19900    276.41243   -18.678261    140931.41   -49037.855    3795.8591   -52833.714   0.36834275 
   20000    274.76751    16.032717    140914.15    -49062.61      3773.27    -52835.88   0.34971843 
   20100    269.74228     -30.2311    140878.92   -49100.935    3704.2607   -52805.196   0.36696096 
   20200    270.14334    11.405078    140853.89   -49077.681    3709.7682   -52787.449   0.38209947 
   20300    277.04083    25.723383    140891.27   -49050.056    3804.4886   -52854.545   0.36707548 
   20400    272.72202   -5.0308685    140878.65   -49098.757    3745.1802   -52843.937    0.3552622 
   20500    272.25368   -24.014149    140868.97   -49137.668    3738.7486   -52876.416   0.37166424 
   20600    269.08391   -22.367088     140848.1   -49156.041    3695.2195    -52851.26   0.37775816 
   20700    271.15956    5.8942486    140836.14   -49104.289    3723.7236   -52828.013   0.35330973 
   20800    272.41144   -11.451422    140866.21   -48971.702    3740.9152   -52712.617   0.37621415 
   20900    275.28999   -11.655019    140907.95   -49077.955    3780.4451     -52858.4   0.37828593 
   21000    272.86314    6.1082001    140880.39   -49085.011    3747.1181   -52832.129   0.34743167 
   21100    275.53882    54.344883    140923.69    -48972.13    3783.8622   -52755.992   0.35919082 
   21200    272.54636    2.7816994     140936.5   -48989.858    3742.7679   -52732.626   0.39009246 
   21300    275.00286   -16.912092    140942.03   -48986.327     3776.502   -52762.829    0.3582798 
   21400    278.11296   0.28192492    140913.69   -49022.673    3819.2118   -52841.885    0.3542918 
   21500    276.43293    -10.10493    140934.79   -48933.391    3796.1406   -52729.532   0.38522815 
   21600    279.35291     11.19484    140951.93   -48936.875    3836.2395   -52773.114   0.36308226 
   21700    269.46116   -18.224163    140920.86   -49063.762    3700.4001   -52764.162   0.35567791 
   21800    274.85539   -9.5127642    140883.79   -49099.295    3774.4769   -52873.772   0.36497924 
   21900    274.34293    40.735042    140853.17    -49069.08    3767.4396    -52836.52   0.38593794 
   22000    273.77075    -14.69449    140854.21   -49106.714    3759.5819   -52866.296   0.35510377 
   22100    272.97716   -29.152071    140856.65   -49147.181    3748.6839   -52895.865   0.36534225 
   22200    270.79053   -23.875675    140817.03   -49216.558    3718.6559   -52935.214   0.38149555 
   22300    271.39207    5.6926622    140843.92   -49114.483    3726.9165     -52841.4   0.35897899 
   22400    281.94005   -11.968771    140888.33   -49065.288    3871.7676   -52937.055   0.35708943 
   22500    274.85115    20.276139    140880.01   -49014.973    3774.4187   -52789.392   0.36608678 
   22600    276.19071   -23.343653     140886.6   -49056.321    3792.8143   -52849.135   0.37997687 
   22700    270.27238    47.283932    140868.08   -49109.929    3711.5404    -52821.47   0.34994393 
   22800    275.49828   0.36492711    140885.63    -49041.71    3783.3055   -52825.015    0.3658636 
   22900    273.71483   -7.6837438    140895.37   -49080.861    3758.8141   -52839.675   0.38503581 
   23000    271.09601   -22.403954    140866.48   -49147.037    3722.8509   -52869.888   0.34788708 
   23100    268.11723   -26.430289     140885.6   -49090.879    3681.9445   -52772.823   0.36199294 
   23200    272.36849    15.622979    140875.79   -49035.308    3740.3253   -52775.633   0.38955986 
   23300    274.08069    51.814252    140889.45   -49032.803    3763.8383   -52796.641   0.36113924 
   23400    270.53509   -27.017972    140874.64   -49084.312     3715.148   -52799.461   0.35690658 
   23500    278.66716   -1.0434748    140898.33   -48968.797    3826.8224    -52795.62   0.37758749 
   23600    276.74421   -18.880196    140905.34   -48989.355    3800.4153    -52789.77   0.37695169 
   23700    279.15619    3.2365195    140903.89   -48982.405     3833.538   -52815.943   0.35157575 
   23800    274.33404    1.0668474    140926.13    -48991.28    3767.3175   -52758.597   0.36761177 
   23900    273.59325    21.501746    140896.21   -49072.201    3757.1444   -52829.345   0.37595059 
   24000    278.26735    40.176153    140911.71   -49022.048    3821.3319    -52843.38   0.34419716 
   24100    278.32381   -20.263197    140907.37   -48958.335    3822.1073   -52780.443   0.36573077 
   24200    274.01826    31.095694    140881.48   -49078.739    3762.9809    -52841.72   0.37659391 
   24300    273.17559    1.1684968    140856.41   -49118.966    3751.4089   -52870.375   0.36448555 
   24400    272.58956   -22.807166    140864.18   -49139.568    3743.3612    -52882.93   0.36506308 
   24500    271.42975   -5.3228523    140841.56   -49094.787     3727.434   -52822.221   0.36762605 
   24600    270.65676   -17.159811    140814.52   -49141.825    3716.8189   -52858.644   0.38476665 
   24700    274.29866    51.843292     140821.8   -49144.662    3766.8315   -52911.494   0.35676831 
   24800    276.57793    28.982037    140849.33   -49086.784    3798.1318   -52884.916   0.35799078 
   24900    272.43424   -42.389338    140832.91   -49143.514    3741.2282   -52884.743   0.39256564 
   25000     270.3417   -20.463593    140815.01   -49129.274    3712.4922   -52841.766   0.36798993 
   25100    267.80091    10.581417     140808.8   -49181.205    3677.6006   -52858.806   0.35330737 
   25200     263.9383   -46.849772    140792.19   -49306.818     3624.557   -52931.375   0.38086712 
   25300    267.05349    34.915636    140812.49   -49150.285    3667.3366   -52817.621   0.37691385 
   25400    268.21472    8.2772353    140865.43   -49199.137    3683.2833    -52882.42   0.34431804 
   25500    272.15139   -14.691971    140861.57   -49084.984    3737.3439   -52822.328   0.38199239 
   25600    272.52044   -16.981146    140886.13   -49009.823     3742.412   -52752.235   0.38537311 
   25700    275.63432    1.5299833    140876.17   -49087.539    3785.1737   -52872.712   0.34554173 
   25800    278.60994    29.230611     140930.2    -48953.21    3826.0367   -52779.247   0.36527525 
   25900     277.6799    8.4762352    140949.11   -48979.224    3813.2647   -52792.488   0.37809629 
   26000    276.18593    16.216672    140940.24   -49028.668    3792.7486   -52821.417   0.35187236 
   26100    271.54336   -13.035558    140944.26   -49014.439    3728.9942   -52743.433   0.36290733 
   26200    270.07644   -39.388048    140904.48   -49113.112    3708.8495   -52821.962   0.38374378 
   26300    271.33817   -17.500836    140882.83   -49075.989    3726.1764   -52802.165   0.35629162 
   26400    269.01452    20.572477    140871.95   -49125.263    3694.2666    -52819.53   0.36099485 
   26500    278.77861   -18.893389    140908.46   -49041.707    3828.3528    -52870.06   0.37727474 
   26600    276.89914    15.394166    140923.28   -48993.497    3802.5429   -52796.039   0.36818508 
   26700    271.87639   -1.4449279    140929.42   -48997.015    3733.5675   -52730.582   0.36867622 
   26800    275.03396   -29.710351     140925.1   -49045.661    3776.9292    -52822.59   0.36504348 
   26900    271.54144   -7.7791621    140927.11   -48988.819    3728.9678   -52717.786   0.37759407 
   27000    278.35916   -49.078458    140950.95   -49019.606    3822.5928   -52842.199   0.36199851 
   27100    273.07866   -2.8122287    140950.69    -48966.07    3750.0778   -52716.147   0.36835357 
   27200    272.95894    6.3561846    140890.62    -49025.98    3748.4337   -52774.414   0.37178887 
   27300    280.61397    34.657439    140913.83   -48871.516    3853.5571   -52725.073   0.38037175 
   27400    281.65078    48.124971    140930.42   -48987.446    3867.7952   -52855.241   0.35619324 
   27500    274.73241   -24.610671    140903.81   -49089.216    3772.7881   -52862.004    0.3581453 
   27600    269.07218   -4.9678549    140875.72   -49138.174    3695.0584   -52833.232   0.38455869 
   27700    274.70175    60.386262    140908.35   -49043.104     3772.367   -52815.471   0.35695023 
   27800    275.41939   -3.4391024     140930.8   -49027.206    3782.2221   -52809.428     0.359981 
   27900    271.96045   -17.502036    140915.71   -49082.636    3734.7219   -52817.357   0.38310151 
   28000    268.08353    6.5779834    140881.84   -49147.798    3681.4817    -52829.28   0.35942236 
   28100    270.74788    9.1707929    140902.64   -49126.526    3718.0702   -52844.596   0.35011219 
   28200     270.3752    6.8786409    140893.92   -49089.131    3712.9523   -52802.083   0.38591679 
   28300    272.93486   -24.613452    140901.17   -49111.678    3748.1031   -52859.781   0.37616953 
   28400    272.06855  -0.82051256    140914.08   -49048.807    3736.2064   -52785.014   0.34734421 
   28500    274.60658    14.546284    140912.43   -49081.992    3771.0601   -52853.052   0.37735644 
   28600    271.63888   -22.453261    140882.07   -49085.045    3730.3058   -52815.351   0.38134924 
   28700    274.80487    30.747173    140885.41   -49083.436    3773.7832   -52857.219    0.3452201 
   28800    274.98516   -13.380177    140895.43   -49127.542     3776.259   -52903.801   0.36974582 
   28900    272.04912    1.0221106    140888.12    -49096.88    3735.9395   -52832.819   0.37763366 
   29000    272.78611     3.703236    140904.33   -49045.984    3746.0604   -52792.044   0.35244907 
   29100    277.87275    -12.04027    140914.21   -49039.837     3815.913    -52855.75   0.37177455 
   29200    282.79356    20.567061    140965.04   -48982.313    3883.4885   -52865.801   0.36054512 
   29300    279.45159  -0.58474342    140946.14    -48980.44    3837.5946   -52818.035   0.36104339 
   29400    277.24869   -7.6061976    140949.44   -48998.364    3807.3432   -52805.707   0.37103041 
   29500    271.32076    14.411952    140923.77   -49037.468    3725.9373   -52763.406   0.36445954 
   29600    273.29566    -23.34042    140911.13   -49005.734    3753.0577   -52758.792   0.37380147 
   29700    275.17015      17.1046    140901.87    -49078.35    3778.7993   -52857.149   0.36223373 
   29800    273.49454    -30.55691    140857.94   -49167.734    3755.7889   -52923.523   0.36129841 
   29900    270.48089    21.069434    140855.51   -49143.915    3714.4037   -52858.319   0.36118468 
   30000    271.20954   -4.5451298    140844.03   -49112.321    3724.4099   -52836.731   0.38083622 
   30100    270.96204    25.460914    140868.79   -49080.927    3721.0112   -52801.938   0.36334177 
   30200     272.6471    23.058959    140879.68   -49087.379    3744.1513   -52831.531   0.36002034 
   30300    274.07999    3.6106598    140851.95   -49074.828    3763.8286   -52838.657   0.39307894 
   30400    273.40679    25.759985    140855.24    -49110.28    3754.5839   -52864.864   0.35786955 
   30500     265.5725   -2.6975333    140827.23   -49207.108    3646.9988   -52854.107   0.36697621 
   30600    273.29213   -12.678722    140846.53   -49093.005    3753.0093   -52846.014   0.39049133 
   30700    270.95121    7.1132056     140852.5   -49120.155    3720.8624   -52841.018   0.36071035 
   30800    273.22515    39.247442    140850.99   -49051.803    3752.0894   -52803.892   0.36062215 
   30900    273.40409    25.449087    140894.94   -49032.606    3754.5468   -52787.153   0.38844919 
   31000    271.99022   -10.292155    140904.61   -49072.277    3735.1307   -52807.407   0.36526051 
   31100    271.21941   -16.545858     140891.7   -49081.471    3724.5454   -52806.017   0.35976907 
   31200    278.28769    39.116327    140856.54   -49024.762    3821.6113   -52846.374   0.39210102 
   31300    276.58656    26.098584    140889.66   -48962.285    3798.2503   -52760.536   0.37389782 
   31400    269.29702   -11.972329    140879.35   -49076.957    3698.1461   -52775.104   0.35773694 
   31500    267.16196   -13.420403    140882.15    -49029.71    3668.8262   -52698.536   0.38455557 
   31600    272.48151   -13.804553    140861.52   -49046.057    3741.8774   -52787.935   0.37677176 
   31700    276.71664     3.440322    140847.41    -49018.55    3800.0366   -52818.586   0.35662317 
   31800    276.12821    9.3947057       140866   -49078.723     3791.956   -52870.679   0.37218699 
   31900    272.35231    6.9929226    140863.18   -49070.077    3740.1031    -52810.18   0.37536619 
   32000    275.12149    15.779405    140863.25   -49022.288    3778.1311   -52800.419   0.36382771 
   32100    279.34972     40.50378    140874.64   -49057.847    3836.1957   -52894.042    0.3685743 
   32200    270.10479    6.8379127    140867.57   -49177.603    3709.2388   -52886.842   0.35949705 
   32300    273.71247    14.883855    140855.89   -49126.614    3758.7817   -52885.396   0.36735892 
   32400    268.65703    11.086083    140855.37   -49211.241    3689.3574   -52900.598   0.36501334 
   32500    271.08929    8.4905504    140875.45   -49081.397    3722.7586   -52804.155   0.35393036 
   32600    272.59139    3.5479945    140923.94   -49036.824    3743.3863    -52780.21   0.37681954 
   32700    272.73984   -18.120256    140900.73   -49124.515    3745.4249    -52869.94    0.3608358 
   32800    274.20611  -0.78414691    140900.16   -48998.256    3765.5607   -52763.817   0.36341337 
   32900    277.05631    5.7979111    140906.45   -49067.483    3804.7013   -52872.184   0.37793961 
   33000    277.00414   -12.904955    140914.18    -49057.25    3803.9849   -52861.235   0.37306669 
   33100    270.01004   -27.030175    140904.51   -49088.309    3707.9377   -52796.246   0.35161241 
   33200    271.88149    2.2646149    140913.27   -49068.586    3733.6375   -52802.223   0.37289163 
   33300     272.9863   -22.095956    140892.01   -49069.775    3748.8095   -52818.585   0.38451954 
   33400    276.46032    7.3279125    140883.87   -49089.806    3796.5168   -52886.322   0.34535561 
   33500    276.86611   -24.819954    140893.88   -49114.094    3802.0893   -52916.183   0.36650334 
   33600    272.96327    26.678002    140891.69   -49122.773    3748.4932   -52871.266   0.37952814 
   33700    277.53777    27.288897    140917.52   -49027.193    3811.3129   -52838.506   0.34795472 
   33800    279.30233    -5.230798    140962.85    -48926.02    3835.5449   -52761.565   0.36249609 
   33900    277.53514   -19.952569    140980.19   -48951.802    3811.2768   -52763.079   0.38030054 
   34000    274.92093   -11.339161       140921   -49081.167    3775.3769   -52856.544   0.35406218 
   34100    272.95085   -7.6311813    140899.12   -49100.365    3748.3226   -52848.687   0.36261598 
   34200    271.64557    10.070066    140916.64   -49099.735    3730.3978   -52830.133   0.36930476 
   34300    270.77677    17.754353    140895.92    -49132.55    3718.4668   -52851.017   0.35818151 
   34400     273.3604    57.705858    140884.44   -49058.594    3753.9468   -52812.541   0.35607008 
   34500    275.76967    1.8049434    140906.06   -48988.313    3787.0324   -52775.346   0.37306217 
   34600    275.25463   -8.1505549    140948.07   -48990.786    3779.9595   -52770.745   0.36803302 
   34700    275.55389   -37.153088    140900.28   -49096.676    3784.0691   -52880.746   0.36082129 
   34800    268.75701    10.344113    140885.24   -49088.147    3690.7303   -52778.877   0.37350239 
   34900    270.43164   0.27743532    140897.27   -49068.722    3713.7274    -52782.45    0.3613041 
   35000    272.60756    19.092118    140888.91   -49045.694    3743.6084   -52789.303   0.37892061 
   35100    277.61771   -16.840445    140894.01    -49061.97    3812.4107   -52874.381   0.37272471 
   35200    275.37278    24.941177    140898.47    -49004.93     3781.582   -52786.512   0.36212867 
   35300    271.05399   -54.403357    140873.26   -49078.434    3722.2738   -52800.708    0.3802368 
   35400    273.38569    16.409466    140881.68   -49086.175    3754.2941   -52840.469   0.36775189 
   35500    269.52372    27.331416    140852.43   -49068.699    3701.2593   -52769.958   0.35975737 
   35600    274.43828    21.809813    140870.95   -49045.819    3768.7489   -52814.568   0.37838547 
   35700    275.25331   -14.417185    140878.13   -49060.897    3779.9414   -52840.839   0.37245092 
   35800    283.00732    39.766269    140903.79   -48901.588     3886.424   -52788.012    0.3573584 
   35900    274.98704    -18.78299    140907.48   -49011.072    3776.2848   -52787.357   0.38208091 
   36000    274.06397   -12.420779    140883.76   -49066.685    3763.6086   -52830.294   0.36832754 
   36100    271.73922   -32.031932    140868.36   -49107.082    3731.6838   -52838.765   0.34765314 
   36200    269.73116    11.513423    140870.62   -49135.348     3704.108   -52839.456   0.38130679 
   36300    276.42223    8.9323572    140873.31   -49077.154    3795.9937   -52873.147   0.36837105 
   36400    269.50929   -4.6154237     140872.3   -49129.344    3701.0611   -52830.405   0.35732174 
   36500    274.62697    -6.361784    140883.31   -49102.893    3771.3401   -52874.233   0.37155731 
   36600    273.14609    6.6669659    140893.36   -49107.083    3751.0038   -52858.087   0.37165067 
   36700     274.9198   -5.7260733    140859.49   -49135.424    3775.3614   -52910.785    0.3491828 
   36800    267.59401    -26.62313    140824.77     -49196.8    3674.7593   -52871.559   0.37742416 
   36900    271.14356   -5.8922327    140835.01   -49127.642    3723.5038   -52851.146   0.38028901 
   37000    276.80534   -9.7405152    140840.41    -49104.58    3801.2548   -52905.835   0.35735995 
   37100    270.80812   -35.874318    140857.91   -49149.997    3718.8974   -52868.894   0.37814793 
   37200    269.22261    16.223305    140883.06   -49155.008    3697.1243   -52852.132   0.36642782 
   37300    270.24724     1.288903     140856.8   -49156.187    3711.1951   -52867.382   0.36325524 
   37400     269.4212   -23.904338    140866.78   -49168.574    3699.8513   -52868.425   0.36551068 
   37500      269.249   -4.3069268    140889.22   -49143.532    3697.4866   -52841.019   0.36692864 
   37600    263.94278   -2.6558995       140843   -49190.672    3624.6185   -52815.291   0.36787456 
   37700    268.81798    38.310717    140819.67   -49266.564    3691.5676   -52958.131   0.35890191 
   37800    265.71802   -12.867744    140812.83   -49288.379    3648.9971   -52937.376   0.36172673 
   37900    269.45363   -7.5793309    140823.07   -49197.456    3700.2967   -52897.753   0.37011243 
   38000    269.40069   -10.853875    140855.42   -49133.276    3699.5697   -52832.846   0.37588835 
   38100    275.79947    16.742161    140861.66   -49074.052    3787.4416   -52861.494   0.35813384 
   38200    272.27409   -2.5853532    140878.88   -49037.532     3739.029   -52776.561   0.37905944 
   38300    272.56143    2.0710868    140883.28   -49090.218    3742.9749   -52833.193   0.38270842 
   38400    275.24454   -28.622546    140868.74   -49029.467    3779.8209   -52809.288   0.36013389 
   38500     272.8607   -16.071226    140845.82    -49076.72    3747.0847   -52823.805     0.371156 
   38600      275.786   -4.1575725    140834.41   -49033.544    3787.2566     -52820.8   0.39496087 
   38700    275.38866   -15.327033    140866.56   -49003.517       3781.8   -52785.317   0.35970393 
   38800    270.78468   -17.878027    140849.98   -49040.943    3718.5755   -52759.519   0.37057816 
   38900    275.00685   -34.718791    140843.16   -48980.541    3776.5568   -52757.098   0.40314711 
   39000    274.92024   -17.717974    140850.19   -49038.018    3775.3675   -52813.385   0.36158979 
   39100    272.60699   -17.901239    140826.97   -49058.199    3743.6005     -52801.8   0.37124533 
   39200    271.36355   -18.180399    140819.86   -49182.628    3726.5249   -52909.152   0.38954696 
   39300    267.20016   -10.071972    140792.44   -49193.533    3669.3508   -52862.884   0.36663783 
   39400    268.96132 -0.089913844    140834.27    -49072.44     3693.536   -52765.976   0.36247919 
   39500    271.06267    29.632553    140862.89   -49056.927    3722.3931    -52779.32   0.39059655 
   39600    269.95332   -9.5262739    140874.41   -49057.504    3707.1588   -52764.663   0.37405701 
   39700    277.34806  -0.58995228    140872.45   -49041.862    3808.7077    -52850.57    0.3595994 
   39800    274.33703     9.541712    140851.44   -49057.283    3767.3585   -52824.642   0.39146844 
   39900    274.29238    2.7550211    140842.17   -49023.889    3766.7453   -52790.634    0.3699981 
   40000    270.86457    -8.595785    140861.48   -49096.205    3719.6726   -52815.878   0.37199893 
   40100    270.02697   -25.518519    140887.45   -49109.234    3708.1702   -52817.404   0.37105342 
   40200    273.33315    10.664585    140859.37   -49079.617    3753.5726   -52833.189   0.36645084 
   40300    273.68291    3.2911547    140837.46   -49086.152    3758.3757   -52844.528    0.3769376 
   40400    271.44885    35.659999    140834.16   -49164.885    3727.6962   -52892.581   0.37380188 
   40500    273.74606  -0.40218929    140843.16   -49031.049    3759.2429   -52790.292   0.36575229 
   40600    272.16478   -1.4275018    140867.28   -49096.907    3737.5278   -52834.435   0.37273788 
   40700    270.39864   -7.7506034    140868.18   -49110.453    3713.2742   -52823.727   0.38494881 
   40800    273.81951   0.28848515    140875.54   -49087.279    3760.2516   -52847.531   0.35158545 
   40900    273.19131    -2.437104     140850.9   -49077.997    3751.6247   -52829.622   0.38101676 
   41000    276.29702   -5.4953407    140875.52   -49142.858    3794.2743   -52937.132   0.37836974 
   41100    274.59359    4.8219196    140872.89   -49108.489    3770.8818   -52879.371   0.35100411 
   41200     275.1567    28.130639    140915.77   -49008.982    3778.6147   -52787.597   0.37708747 
   41300    273.34004    27.387425    140895.11   -49087.597    3753.6673   -52841.264   0.38095129 
   41400     273.3782    8.5122044    140880.12   -49031.252    3754.1913   -52785.443   0.34600322 
   41500    275.68747    19.430493    140877.83   -49045.836    3785.9035    -52831.74   0.37437516 
   41600    271.34115    -26.03353     140890.2   -49058.554    3726.2173   -52784.771     0.390609 
   41700    268.60744    9.5494472    140852.49   -49160.051    3688.6764   -52848.727   0.33929265 
   41800    273.45489   -18.762119    140866.57   -49077.342    3755.2444   -52832.587   0.38186916 
   41900    271.20507   -25.364285    140855.24   -49149.013    3724.3486   -52873.361   0.38386207 
   42000    272.17141    25.728782    140853.49   -49119.323    3737.6188   -52856.942   0.34780549 
   42100    270.04334   -14.004204    140829.71   -49182.306     3708.395   -52890.701   0.37169799 
   42200    267.95423   -22.463156    140830.04   -49147.974    3679.7061    -52827.68    0.3895995 
   42300    270.85481    -5.707131    140837.05   -49114.418    3719.5386   -52833.956   0.36481597 
   42400    273.04671    20.834234    140841.81   -49140.908     3749.639   -52890.547   0.36500101 
   42500    270.05498   -6.7040685    140852.13   -49105.664    3708.5548   -52814.218   0.38818033 
   42600     269.9092    -2.265056    140828.28    -49139.49     3706.553   -52846.043   0.36086325 
   42700    270.62923   0.67809877    140811.65   -49203.325    3716.4408   -52919.766   0.37581696 
   42800    271.21139     30.16714    140858.92   -49122.518    3724.4353   -52846.954   0.37779735 
   42900    271.62428    14.989944    140857.72   -49144.672    3730.1054   -52874.778   0.35251327 
   43000    265.96646   -34.022438     140859.8   -49163.458    3652.4089   -52815.867   0.38333387 
   43100     272.8684    24.960462    140899.63   -49086.659    3747.1904   -52833.849   0.36544576 
   43200    269.93373   -31.275112    140866.94    -49099.11    3706.8897       -52806   0.35815498 
   43300     272.4984    18.040958    140851.27   -49091.974    3742.1093   -52834.083   0.38457263 
   43400    272.45881    10.431967    140837.66   -49022.253    3741.5656   -52763.819   0.37578881 
   43500    274.66934   -7.5183303    140851.85   -49081.557     3771.922   -52853.479   0.35624227 
   43600    271.08758   -21.220662    140823.54   -49116.027    3722.7352   -52838.762    0.3921829 
   43700     273.2299    15.549622    140822.14   -49164.138    3752.1547   -52916.293   0.35952109 
   43800      271.092    5.1955016    140830.54   -49192.506    3722.7959   -52915.302   0.35108435 
   43900    273.84955   -15.374843    140852.87     -49116.3    3760.6641   -52876.965   0.38649449 
   44000    271.26358   -9.6619048    140854.87   -49201.718     3725.152    -52926.87   0.36106373 
   44100    272.89478    -11.52615    140852.97   -49159.488    3747.5527    -52907.04   0.34689147 
   44200    274.20596    5.4572929    140884.26   -49121.683    3765.5586   -52887.241   0.38381658 
   44300    268.62801    -27.06256    140884.02   -49124.588    3688.9588   -52813.547   0.37695674 
   44400    275.09985    12.041623     140909.7   -49134.331    3777.8339   -52912.165   0.33156853 
   44500     273.8089   -3.0826319    140915.92   -49139.624    3760.1059    -52899.73   0.38754409 
   44600    275.53569   -13.978367    140910.74   -49147.076    3783.8191   -52930.895   0.36718182 
   44700    272.01851    6.1114311    140917.47   -49133.187    3735.5192   -52868.706   0.34139491 
   44800    271.17692   -13.062931    140925.78   -49094.515    3723.9619   -52818.477   0.38388383 
   44900    276.19822    -8.624875    140941.66   -49084.506    3792.9175   -52877.424   0.36068473 
   45000     273.3634   -50.532511     140881.2   -49121.522     3753.988    -52875.51   0.35441984 
   45100    272.64449   -1.3062659    140930.04   -49012.399    3744.1156   -52756.514   0.38716252 
   45200    277.38892    5.2445815    140926.01   -49048.399    3809.2689   -52857.668    0.3702211 
   45300    278.69702    11.041181    140945.66   -49074.278    3827.2324    -52901.51   0.34326479 
   45400    272.87775    5.9918426    140895.78   -49127.171    3747.3188    -52874.49   0.38107679 
   45500    276.49501   -19.826462     140889.5   -49073.869    3796.9931   -52870.862   0.36217512 
   45600    271.14762   -53.723002    140927.62   -49070.486    3723.5596   -52794.045   0.35497754 
   45700     274.1701    5.7003628    140916.88   -49024.747    3765.0661   -52789.813   0.38666785 
   45800    271.07893   -22.828548    140895.91   -49095.387    3722.6163   -52818.003   0.35269755 
   45900    275.51603    12.017691     140881.3   -48963.306    3783.5492   -52746.856   0.36748378 
   46000     278.5711    13.815917    140903.47   -49022.394    3825.5032   -52847.897   0.38960029 
   46100    279.43651     6.734636    140939.48   -48934.834    3837.3876   -52772.222   0.35423435 
   46200     282.8294    8.9614181    140946.85    -48981.18    3883.9807   -52865.161    0.3525747 
   46300    275.12739   0.54564156    140930.69   -48970.604    3778.2121   -52748.816   0.39504432 
   46400    276.29734    13.590113    140913.09   -49023.081    3794.2787   -52817.359    0.3503109 
   46500    279.28886     5.004946    140941.97   -48991.312    3835.3599   -52826.672   0.35375511 
   46600    273.98424    -5.333915     140905.2   -49045.824    3762.5137   -52808.337   0.39681948 
   46700    278.64761    34.323822    140910.55   -48983.341    3826.5538   -52809.895   0.34274569 
   46800    275.51381    9.6372459    140917.09   -48991.593    3783.5187   -52775.112   0.36388611 
   46900    273.49519  -0.42651344    140909.47   -49047.968    3755.7978   -52803.766   0.39420286 
   47000    274.27579   0.18885369    140900.24   -49077.902    3766.5174    -52844.42   0.34650371 
   47100      273.124   -31.112828    140898.93   -49088.561    3750.7005   -52839.262   0.35354547 
   47200    275.24503    45.691428    140919.32   -49058.192    3779.8276   -52838.019   0.39436715 
   47300    270.05709   -36.831208    140897.25   -49179.148    3708.5838   -52887.732   0.35352106 
   47400    270.68469    33.928596    140887.42   -49113.469    3717.2023   -52830.671   0.35671581 
   47500    272.12694    2.0466998    140875.54       -49120    3737.0082   -52857.008   0.39723331 
   47600    274.95211    3.8375652    140883.77   -49113.301    3775.8051   -52889.106   0.34892868 
   47700     274.6535  -0.64111956    140890.56   -49040.081    3771.7044   -52811.785   0.36000396 
   47800    275.19538    6.8938587     140882.8   -49098.325    3779.1459   -52877.471   0.38216858 
   47900    273.87327    36.536438    140869.75   -49146.458    3760.9898   -52907.447   0.35191039 
   48000    272.42672   -51.696149    140883.77   -49108.335     3741.125    -52849.46   0.35907255 
   48100    276.56049   -1.7248784    140853.38   -49143.771    3797.8923   -52941.664   0.39331072 
   48200    275.32622    3.8424995    140862.36   -49137.901    3780.9426   -52918.844   0.34528433 
   48300    273.10825    15.970626    140874.48   -49091.923    3750.4842   -52842.407   0.36409717 
   48400    267.65343   -32.226835     140880.7   -49126.496    3675.5754   -52802.071   0.38848479 
   48500     270.4107   -40.361393    140845.63   -49206.256    3713.4398   -52919.695   0.34365063 
   48600    269.02943   -18.762806    140842.41   -49197.907    3694.4714   -52892.379   0.37791532 
   48700    271.73986    41.188971    140883.75   -49098.121    3731.6926   -52829.814    0.3796534 
   48800    273.89231        2.807    140864.54   -49087.491    3761.2513   -52848.742   0.35396272 
   48900     272.8195   -13.109223    140860.43   -49109.601    3746.5188   -52856.119   0.36852965 
   49000    274.38327    -27.12975    140869.23    -49139.16    3767.9935   -52907.154   0.38151556 
   49100    276.64874    -18.24108    140887.38   -49060.999    3799.1043   -52860.104   0.35376597 
   49200    275.68258   -1.2536402    140904.29   -49091.385    3785.8364   -52877.222   0.36662375 
   49300    274.13839   -24.405745    140882.37   -49160.201    3764.6306   -52924.832   0.38813539 
   49400    269.51467   -8.0146782    140859.58   -49173.593     3701.135   -52874.728   0.33877038 
   49500    270.81788   -39.020811    140893.92   -49121.856    3719.0314   -52840.887   0.37588986 
   49600    274.09173    19.622783    140863.45   -49116.682    3763.9899   -52880.672   0.38688082 
   49700    272.62407   -23.699627    140867.78   -49114.027    3743.8351   -52857.862   0.34472372 
   49800    274.95253    21.770447    140882.21   -49129.769    3775.8109    -52905.58   0.37433812 
   49900    274.12571   -3.5645445    140862.17   -49104.562    3764.4565   -52869.019   0.38814357 
   50000    270.68213   -10.221746    140855.76   -49117.651    3717.1672   -52834.818   0.34840146 
   50100     277.6003    19.609839    140884.22   -48984.944    3812.1716   -52797.115   0.38157103 
   50200    271.52292   -12.292706    140875.88   -49049.585    3728.7134   -52778.299   0.39674129 
   50300    278.62625   -9.5079167    140878.88   -49067.931    3826.2606   -52894.192   0.34220815 
   50400    275.04063    10.070289    140864.04   -49084.842    3777.0207   -52861.863   0.38312687 
   50500    277.45323    13.776571    140886.38    -49000.19     3810.152   -52810.342   0.38199036 
   50600    277.58249    2.0770212    140969.94   -48934.763     3811.927    -52746.69   0.34783546 
   50700    270.45936   -27.416264    140927.62   -49164.764     3714.108   -52878.873   0.37156495 
   50800    271.13893    8.6210557    140856.74   -49136.381    3723.4403   -52859.821   0.38183947 
   50900    271.85907   -26.131913    140846.19   -49162.675    3733.3297   -52896.004   0.35916123 
   51000    274.51093    15.586764    140857.72   -49121.458    3769.7466   -52891.204   0.37620373 
   51100    269.22728   -8.1212659    140857.74   -49133.839    3697.1884   -52831.028   0.38361322 
   51200    274.12717    18.372956     140856.7   -49184.404    3764.4765   -52948.881   0.34757226 
   51300    267.43639   -10.268419    140827.23   -49193.827    3672.5948   -52866.422    0.3863506 
   51400     269.1499    28.745462    140828.42   -49136.567    3696.1257   -52832.692    0.3733816 
   51500    266.48448   -11.127489     140834.2    -49190.22    3659.5227   -52849.743   0.35177313 
   51600    271.98853   0.30073285    140869.27   -49115.371    3735.1075   -52850.479   0.39419347 
   51700    276.41692    26.669444    140888.53   -49013.625    3795.9208   -52809.546   0.37253271 
   51800    277.89871   -11.410362    140895.85   -49066.957    3816.2696   -52883.226   0.34917187 
   51900    271.13577    26.847507    140876.59   -49124.523    3723.3968    -52847.92   0.39190041 
   52000    270.05497    26.628014    140842.53   -49104.341    3708.5546   -52812.895   0.37115695 
   52100    270.07028    31.459659    140826.57   -49182.899     3708.765   -52891.664   0.34597428 
   52200    270.51627    14.132367    140812.46   -49232.816    3714.8895   -52947.705   0.39662722 
   52300     270.4117   -19.192002    140805.21    -49209.26    3713.4536   -52922.714    0.3711943 
   52400    269.13975     1.190145    140793.23   -49291.573    3695.9864   -52987.559   0.34682142 
   52500    272.10649    8.8909716    140801.42   -49146.937    3736.7274   -52883.664   0.40338566 
   52600     277.0533    16.755818    140844.75   -49116.945      3804.66   -52921.605   0.37248535 
   52700    275.03044    32.210556    140853.99   -49055.307    3776.8808   -52832.187   0.34832411 
   52800     275.7349    25.210136    140902.52   -49029.296    3786.5549   -52815.851   0.39392888 
   52900    277.84716   -14.291678    140894.42   -49052.699    3815.5617   -52868.261   0.37186353 
   53000    283.32094    33.196134     140899.8   -49004.163    3890.7309   -52894.894   0.34094217 
   53100    274.94439    34.394656    140865.83   -49135.838    3775.6992   -52911.537   0.38952027 
   53200    266.84135    41.745732    140858.12   -49180.714    3664.4233   -52845.137   0.37680539 
   53300    270.91758    21.530971    140870.29   -49149.367    3720.4006   -52869.767   0.35425306 
   53400    275.43119    10.842964    140888.53   -49082.263    3782.3841   -52864.647   0.38658021 
   53500      278.038     16.69831    140919.84   -49073.889    3818.1823   -52892.071   0.37200657 
   53600    270.60102   -18.829116     140864.5   -49133.697    3716.0533    -52849.75   0.35899708 
   53700    271.42952   -6.8244357    140866.89   -49117.995    3727.4309   -52845.426   0.38842934 
   53800    275.56238    6.9237392    140852.27   -49138.415    3784.1857   -52922.601   0.37369236 
   53900    270.86565   -10.263027    140871.28   -49144.232    3719.6874    -52863.92   0.35764909 
   54000    271.45406    12.057156    140863.16   -49150.826    3727.7678   -52878.594   0.38841403 
   54100    268.61201    6.2088088    140888.22   -49129.894    3688.7391   -52818.633   0.35598085 
   54200    269.36235  -0.95810907    140905.68   -49085.983    3699.0432   -52785.026   0.37021953 
   54300    271.97602    24.083968    140908.36   -49014.428    3734.9356   -52749.364   0.39570154 
   54400    277.60412    2.2235177    140911.53   -48940.507    3812.2241   -52752.731   0.35511675 
   54500    275.59636    26.862385    140889.25   -48999.314    3784.6523   -52783.967   0.37593871 
   54600    271.01969   -15.951142     140897.9   -49021.369    3721.8028   -52743.172   0.39698772 
   54700     272.0991    18.587989    140872.34   -49076.504     3736.626    -52813.13   0.35838128 
   54800     278.4121    14.157592     140876.7   -49002.392    3823.3197   -52825.712   0.36823523 
   54900    274.49927    7.0506765    140874.41   -49015.947    3769.5865   -52785.533   0.39868321 
   55000    275.29783   -52.167583    140898.91   -49047.743    3780.5528   -52828.296   0.35890625 
   55100    273.46175    8.7189717    140885.16   -49066.069    3755.3386   -52821.408   0.36008437 
   55200    273.38591   -20.174171     140842.8   -49176.062    3754.2972   -52930.359   0.40332725 
   55300    266.43265    49.749358    140805.73   -49213.514    3658.8108   -52872.325   0.35245471 
   55400    268.96577   -38.755471    140822.81   -49179.111    3693.5971   -52872.708   0.36510626 
   55500    270.18747    -43.54713     140827.7   -49144.082    3710.3743   -52854.456   0.41132203 
   55600    278.34062    10.658845    140858.37   -49045.843    3822.3381   -52868.181   0.35646647 
   55700    280.39991   -10.680804    140880.72    -49012.19    3850.6175   -52862.808   0.36122967 
   55800    274.90723    9.6322027    140894.51   -48989.311    3775.1888     -52764.5   0.40699523 
   55900    276.25733    12.817268    140881.26   -49004.361    3793.7292    -52798.09   0.36099696 
   56000     274.6042   -9.2171648    140878.27   -49015.266    3771.0275   -52786.294   0.35944641 
   56100    275.90329    -10.02958    140892.67   -49000.224    3788.8672   -52789.091   0.39896117 
   56200    273.99425   -6.9281753    140855.55    -49036.74    3762.6513   -52799.391   0.36971549 
   56300    273.27527    12.437386    140829.08   -49098.743    3752.7778    -52851.52   0.36936448 
   56400    275.38888    6.7988457    140841.14   -49152.226    3781.8031   -52934.029   0.38712162 
   56500    266.84693    3.7089093    140832.17   -49196.651       3664.5   -52861.151   0.36701788 
   56600    267.25569   -20.729732    140792.43   -49249.935    3670.1133   -52920.048   0.37420219 
   56700    267.91703   -33.560252    140800.03   -49231.884    3679.1952   -52911.079   0.38961988 
   56800    272.20004   0.26866376    140822.31   -49126.895    3738.0121   -52864.907   0.37092247 
   56900    268.62608   -33.699542    140796.78   -49216.095    3688.9323   -52905.028   0.37769041 
   57000    268.74149    -26.95027    140787.94   -49198.655    3690.5172   -52889.172   0.38582658 
   57100    270.39556   -2.9271725    140831.05   -49125.077    3713.2319   -52838.309   0.36454696 
   57200    270.41849    19.122446    140856.14   -49075.325    3713.5468   -52788.871   0.38231799 
   57300     271.8484    1.3121665    140849.72   -49208.375    3733.1831   -52941.558   0.37600972 
   57400    273.82003    3.4049565    140858.93   -49095.473    3760.2587   -52855.731   0.34698853 
   57500    274.07185   -13.968706    140884.38   -49067.164    3763.7168   -52830.881   0.38460417 
   57600     270.1057   -10.097909    140838.65    -49165.68    3709.2514   -52874.932   0.38451612 
   57700    268.97041     29.76993    140849.53   -49081.193    3693.6609   -52774.854   0.35145846 
   57800    275.16511   -21.081012    140862.28   -49036.411    3778.7302   -52815.141   0.39354783 
   57900    276.98694   -18.353456     140869.2   -49070.677    3803.7486   -52874.426    0.3870572 
   58000    280.38494    4.8788712    140849.56    -49033.09     3850.412   -52883.502   0.34625044 
   58100    273.57078     24.11744    140824.53   -49077.241    3756.8359   -52834.077   0.38685566 
   58200    275.82464    16.376422    140869.54   -48979.589    3787.7872   -52767.376   0.39416442 
   58300    279.35044    5.8273896    140880.99   -49044.722    3836.2056   -52880.928   0.35279054 
   58400    278.96881   -23.697151    140886.75   -49086.126    3830.9648   -52917.091    0.3723613 
   58500    274.39244    14.387872    140868.87    -49088.61    3768.1194   -52856.729   0.39721489 
   58600    274.85249    3.7521537    140867.15     -49125.6    3774.4371   -52900.037   0.34792237 
   58700    275.71434    8.8467445     140858.4   -49082.472    3786.2725   -52868.744   0.36715075 
   58800     273.4238   -32.581001    140870.66    -49118.32    3754.8174   -52873.138   0.38700682 
   58900    275.02692    17.197049    140889.38    -49044.85    3776.8325   -52821.682   0.35537159 
   59000    275.88781    24.754748    140926.41   -49015.129    3788.6547   -52803.784   0.37420739 
   59100    279.57458    22.182006    140949.28   -48984.142    3839.2836   -52823.426   0.37984815 
   59200    271.13387   -32.839276    140928.61     -49093.2    3723.3708   -52816.571   0.36065018 
   59300    274.63261   -7.7387233    140898.24   -49079.877    3771.4176   -52851.294   0.37100523 
   59400    274.19779    2.9929927    140868.82   -49055.887    3765.4463   -52821.333   0.37340328 
   59500    272.19964    8.4508726    140865.69   -49159.349    3738.0066   -52897.356    0.3602382 
   59600    273.32483    1.7373148    140848.47   -49136.818    3753.4583   -52890.276   0.38204905 
   59700    271.59361   -32.815584    140858.26   -49067.948    3729.6842   -52797.632   0.37357813 
   59800    272.25977    6.3283454     140855.8   -49177.483    3738.8323   -52916.315   0.36029148 
   59900    266.62938    21.470123    140850.46   -49174.927    3661.5124   -52836.439   0.38873667 
   60000    271.26508    8.4584482    140837.39   -49140.367    3725.1727    -52865.54   0.35904214 
   60100    275.44592    45.464704    140841.01   -49100.487    3782.5864   -52883.074   0.36376526 
   60200     272.2658   -30.879177    140859.94   -49074.355    3738.9151    -52813.27   0.39394814 
   60300    273.56774      40.0537    140869.42   -49036.472    3756.7941   -52793.266   0.36654795 
   60400    277.14667     13.67076    140892.62   -48986.652    3805.9422   -52792.594    0.3613558 
   60500    273.76706   -10.120027    140879.99   -49010.878    3759.5313   -52770.409   0.40563496 
   60600    273.22643    4.8457627    140890.12   -49072.365     3752.107   -52824.472   0.36897508 
   60700    278.40357    55.954358    140933.43   -48905.094    3823.2026   -52728.297    0.3499099 
   60800    278.63911   -6.5428039    140968.49   -48934.907    3826.4371   -52761.344   0.39523346 
   60900    272.60703    3.9752306    140955.53   -49020.766    3743.6011   -52764.367   0.36388711 
   61000    275.30911     34.38894    140909.66   -49059.622    3780.7077   -52840.329   0.34593796 
   61100    274.31771   -11.390104     140891.9   -49044.499    3767.0932   -52811.592    0.3981016 
   61200    279.68093    51.596723    140891.21   -48985.956    3840.7441     -52826.7    0.3684331 
   61300    274.20568   -19.792601    140899.59   -49074.332    3765.5548   -52839.887   0.35876644 
   61400    274.41276    -18.03859    140907.32   -49119.099    3768.3984   -52887.498   0.38526949 
   61500     277.7464   -16.084909    140881.08   -49066.492     3814.178    -52880.67   0.37151026 
   61600    279.30275    10.393594    140881.34   -49112.788    3835.5506   -52948.339   0.35999645 
   61700    273.80135   -8.4741647    140857.49   -49163.073    3760.0022   -52923.075    0.3826731 
   61800    273.81073    -57.44391    140845.31   -49156.802     3760.131   -52916.933   0.37057635 
   61900    269.76499     5.361795     140857.5   -49054.965    3704.5725   -52759.537   0.37360581 
   62000    275.13431     3.865003    140864.47   -49066.322    3778.3073    -52844.63   0.38317465 
   62100    267.15673    21.242705    140879.05   -49132.828    3668.7543   -52801.582    0.3646883 
   62200    273.41466   -20.219825    140875.22   -49028.072     3754.692   -52782.764   0.38096011 
   62300    271.99991   -15.509654    140873.05   -49079.986    3735.2638    -52815.25   0.38730177 
   62400    273.16361   -20.251634     140842.2   -49123.012    3751.2444   -52874.257   0.35505858 
   62500     275.4069   -6.1520855     140879.1   -49118.991    3782.0506   -52901.042   0.37372526 
   62600    272.76537   -5.3822596    140871.92    -49136.99    3745.7754   -52882.766   0.38695488 
   62700    268.58596   -33.221541    140867.43   -49176.972    3688.3814   -52865.354   0.34973867 
   62800     269.5461    13.601338    140843.76   -49149.372    3701.5666   -52850.938   0.37663753 
   62900    269.65114   -1.3604763    140874.18   -49062.805    3703.0091   -52765.814    0.3937894 
   63000    268.81328   -22.148531    140872.08   -49092.398    3691.5031   -52783.901   0.35193302 
   63100    271.15155   -15.952847    140851.16   -49162.897    3723.6136   -52886.511   0.37591467 
   63200    272.83811    2.0502003    140866.37   -49043.548    3746.7744   -52790.323   0.39544772 
   63300    272.21421    2.1702439    140859.76   -49139.329    3738.2067   -52877.536   0.34659597 
   63400    267.65468   -13.340994    140828.42   -49220.504    3675.5926   -52896.097   0.37714442 
   63500    270.49566   -36.380502     140833.7   -49193.139    3714.6065   -52907.745   0.39741094 
   63600    269.21525   -15.035376    140832.35   -49236.969    3697.0232   -52933.993   0.35504561 
   63700    266.77146   -30.480348     140825.8   -49205.127    3663.4636   -52868.591   0.37369392 
   63800    266.56546   -15.668145    140813.11   -49272.496    3660.6347   -52933.131    0.3887162 
   63900    273.61128  -0.60783696    140812.79   -49174.028    3757.3921    -52931.42   0.36342953 
   64000    274.93416    26.117801    140871.96   -49089.525    3775.5586   -52865.084   0.36900458 
   64100    277.82981    12.977434    140891.42   -49047.583    3815.3233   -52862.906   0.38331704 
   64200    279.30185   -17.782006    140897.84   -49036.385    3835.5383   -52871.924   0.35728587 
   64300    274.05899   -19.077583    140886.01    -49067.77    3763.5403   -52831.311    0.3735264 
   64400    272.52605    2.1479251    140881.56   -49123.427     3742.489   -52865.916   0.37624213 
   64500    272.93818    5.5469311    140847.43   -49121.824    3748.1486   -52869.972   0.36547721 
   64600    270.68889    3.0182115    140848.74   -49145.132      3717.26   -52862.392   0.37235634 
   64700    272.95303   -2.3762861    140845.01    -49149.47    3748.3526   -52897.823   0.37659565 
   64800    269.97442    -15.31649    140850.58   -49098.255    3707.4485   -52805.704    0.3628761 
   64900     281.1544    42.667146    140903.89   -49027.308    3860.9787   -52888.287    0.3730957 
   65000     282.3811    24.254814    140910.46   -49010.683    3877.8245   -52888.507    0.3728985 
   65100    275.04389   -16.286342    140919.39   -49077.264    3777.0655    -52854.33   0.34877342 
   65200    272.56454    2.1167502     140898.8   -49092.319    3743.0177   -52835.336   0.37861132 
   65300    276.68188    7.8181172    140922.88    -49033.78    3799.5593    -52833.34   0.37810017 
   65400    272.40985   -32.102925    140898.17   -49076.384    3740.8933   -52817.277   0.35018179 
   65500    275.19314   -4.1076142    140906.07   -49010.303    3779.1151   -52789.418   0.38318956 
   65600    275.35719   -20.704972    140910.97   -49024.938    3781.3679   -52806.306   0.38552208 
   65700    279.01731    8.1838708    140924.38   -48986.858    3831.6309   -52818.489   0.35612677 
   65800    274.67495   -18.799852    140921.24   -49046.619     3771.999   -52818.618   0.37456208 
   65900    271.80389  -0.97115163    140898.26    -49057.13    3732.5719   -52789.702   0.38542322 
   66000    275.27255   -3.1575634     140895.1   -49070.235    3780.2056   -52850.441    0.3498448 
   66100     275.6309    13.647033    140896.12   -49047.726    3785.1267   -52832.853   0.37620262 
   66200    272.99089   -23.712961    140853.27   -49166.619    3748.8724   -52915.491   0.38688096 
   66300    279.89282    55.987109    140861.47   -49097.851    3843.6538   -52941.505   0.34256793 
   66400    274.27645    1.2603163    140855.83   -49102.092    3766.5266   -52868.618   0.38319324 
   66500    269.50831   -11.714505    140834.85   -49133.626    3701.0476   -52834.674   0.38513793 
   66600    273.32872    18.977181    140832.18    -49137.85    3753.5118   -52891.362   0.35304629 
   66700    276.46616     19.86285    140810.47   -49120.262    3796.5969   -52916.859   0.37870025 
   66800    269.82861  -0.27671633    140814.79   -49147.332    3705.4463   -52852.778   0.38304537 
   66900    273.36176   -27.067525    140830.52   -49158.888    3753.9655   -52912.854   0.36680707 
   67000    267.26239    27.830298    140801.84   -49262.535    3670.2053   -52932.741   0.36674453 
   67100    276.84648    20.393801    140833.29    -49102.82    3801.8197   -52904.639   0.37648651 
   67200    268.92573   -32.373026    140837.02   -49202.373    3693.0473    -52895.42   0.36045327 
   67300     269.0711   -12.782436    140849.31   -49127.246    3695.0436    -52822.29   0.37479649 
   67400     274.3411    6.1097852    140849.57   -49105.965    3767.4144    -52873.38   0.38074167 
   67500    278.87373    11.175595    140867.67   -49095.658    3829.6591   -52925.317   0.35605547 
   67600    277.43934   -13.070831    140909.02   -48966.956    3809.9613   -52776.917   0.38233061 
   67700     279.7968    11.925226       140916   -49032.917    3842.3352   -52875.252   0.37201813 
   67800     277.5495   -4.9464063    140919.98   -49075.603     3811.474   -52887.077   0.35504014 
   67900    274.20769     15.03307    140907.11   -49105.242    3765.5823   -52870.825   0.38340073 
   68000    274.68939   -19.748792    140841.91   -49132.299    3772.1973   -52904.496   0.36591408 
   68100    269.34716    16.934669    140843.88   -49137.814    3698.8347   -52836.649   0.36079088 
   68200    270.42837    8.8371466    140849.16   -49107.992    3713.6824   -52821.674   0.39148394 
   68300    274.38099    5.9956122    140904.65   -49059.626    3767.9621   -52827.588   0.36071563 
   68400    276.79532   -30.271958    140890.58   -49023.389    3801.1172   -52824.507    0.3602816 
   68500     274.6039    2.6053056    140909.79   -49020.709    3771.0233   -52791.732     0.387302 
   68600    270.95761   -44.308694    140886.39   -49108.934    3720.9503   -52829.884   0.36726739 
   68700    273.17834   -40.283324    140866.89   -49080.703    3751.4466   -52832.149   0.36493143 
   68800    274.71661    24.207972    140863.51   -49077.469    3772.5711    -52850.04   0.38782599 
   68900    268.52763    -2.931281    140837.36   -49075.506    3687.5804   -52763.086   0.37678974 
   69000    270.98798   -31.167076     140852.4   -49074.807    3721.3673   -52796.174   0.36649159 
   69100    273.58673   -16.379058    140839.97   -49141.322    3757.0549   -52898.377   0.38269581 
   69200     275.0297    4.4434502    140828.94   -49150.464    3776.8707   -52927.335   0.36806474 
   69300    268.61088    27.466843    140825.83   -49178.351    3688.7236   -52867.074   0.35591179 
   69400    265.05742   -9.1412961    140787.54   -49229.281    3639.9254   -52869.206   0.39269676 
   69500    274.77722   -9.1736182    140819.98    -49101.03    3773.4034   -52874.433   0.36880567 
   69600     278.7582    8.0641717    140898.13   -49006.505    3828.0726   -52834.578    0.3572062 
   69700    277.19527   -31.322127    140869.03   -49082.851    3806.6095   -52889.461    0.3885076 
   69800    272.05518      -32.541    140863.37   -49086.607    3736.0228    -52822.63   0.36103372 
   69900    271.07301   -16.004267    140825.83   -49175.141    3722.5351   -52897.676   0.36356462 
   70000    269.66928   -14.904941    140871.34   -49110.387    3703.2582   -52813.645   0.38434183 
   70100    268.27472    17.756312    140817.96   -49223.007    3684.1073   -52907.115   0.35002481 
   70200    272.87461   -5.7807267    140822.39   -49070.912    3747.2756   -52818.188   0.37879434 
   70300    273.81722   -2.1090627    140830.65   -49078.099    3760.2202   -52838.319   0.38036092 
   70400    275.78277    10.522847    140819.51   -48964.501    3787.2122   -52751.713   0.36293478 
   70500    276.22416    4.0636061    140833.78   -49043.572    3793.2736   -52836.845   0.37979057 
   70600    272.86622    10.994576    140815.63   -49090.723    3747.1605   -52837.883   0.38651102 
   70700    271.95564    13.301986    140806.88   -49066.746    3734.6558   -52801.402   0.36272038 
   70800    271.31636   -19.335043    140815.02   -49091.552    3725.8769   -52817.429    0.3747001 
   70900    272.97171   -33.589307    140826.67   -49091.275    3748.6091   -52839.884   0.39536191 
   71000    274.00412   -18.277723     140810.4   -49104.761    3762.7867   -52867.548   0.35227744 
   71100    270.46199    14.504344    140783.34   -49092.803    3714.1441   -52806.947   0.38347392 
   71200    271.58576   -6.9602279    140797.02   -49135.803    3729.5764    -52865.38   0.39358082 
   71300    268.59822   -41.692205    140786.76   -49185.168    3688.5497   -52873.718   0.35055477 
   71400    273.94667   -9.3934092    140790.99   -49129.595    3761.9979   -52891.593   0.38137175 
   71500    271.95323    26.200971       140797   -49077.746    3734.6228   -52812.369   0.39571174 
   71600    270.30528    7.2964096     140824.9   -49101.643    3711.9922   -52813.635    0.3538428 
   71700     271.2941    16.703302    140839.52   -49089.139    3725.5711    -52814.71   0.37669197 
   71800    267.92901    6.2839269    140825.42   -49254.942    3679.3598   -52934.302   0.37686638 
   71900    268.51148    31.715871    140800.72   -49201.763    3687.3585   -52889.121     0.348097 
   72000    268.08927 -0.032481028    140803.66   -49167.308    3681.5605   -52848.869   0.38030284 
   72100    271.42922    9.3676914    140844.74   -49040.123    3727.4267   -52767.549    0.3884338 
   72200     276.9518    29.743294    140882.04   -48940.669    3803.2661   -52743.935   0.36456769 
   72300    279.70727   -14.456228    140943.27   -48910.643    3841.1059   -52751.749   0.37454961 
   72400    276.47125   -2.2922782    140916.32   -49027.375    3796.6669   -52824.042   0.37720419 
   72500    278.03778   -39.086112    140922.68   -49027.566    3818.1794   -52845.745   0.35814253 
   72600    276.43235   -6.5076441    140918.14   -48970.131    3796.1327   -52766.264   0.37125559 
   72700     270.5894    2.1865764    140901.47   -49133.102    3715.8937   -52848.996   0.37928032 
   72800    274.07448    12.833986    140887.87   -49054.792     3763.753   -52818.545   0.35870118 
   72900    274.23143   -4.1817886    140863.63   -49062.153    3765.9083   -52828.061   0.37677526 
   73000    276.99214    -7.551663    140864.06   -49080.098      3803.82   -52883.918    0.3859604 
   73100      274.167   -21.853471    140861.32   -49035.284    3765.0235   -52800.307   0.35522183 
   73200    273.47001   -24.174758    140880.53   -49022.082    3755.4521   -52777.534   0.39488012 
   73300    273.36522   -11.351036    140882.82   -48998.427     3754.013    -52752.44   0.37988289 
   73400    273.50547    31.471331    140904.08   -48980.011     3755.939    -52735.95   0.35902101 
   73500    276.95077    0.1154326     140927.6    -48987.26    3803.2518   -52790.512   0.39016994 
   73600    276.25123   -26.406963    140880.47    -49023.57    3793.6453   -52817.215   0.37833565 
   73700     270.0629   -23.696027     140857.1   -49084.204    3708.6636   -52792.868   0.36081422 
   73800    268.51029    16.677003    140840.34   -49167.481    3687.3422   -52854.823   0.38455983 
   73900    271.64276   -8.5105216     140865.3   -49151.264    3730.3591   -52881.623   0.37194178 
   74000    275.56142    32.586071    140844.49   -49074.848    3784.1725    -52859.02   0.35297698 
   74100    281.34343    22.934465     140892.4   -48920.654    3863.5745   -52784.228   0.38994068 
   74200    275.71177   -52.804953    140905.73    -49080.32    3786.2373   -52866.558   0.37862041 
   74300    275.42855   -21.694562    140837.64   -49077.105    3782.3479   -52859.453   0.36423669 
   74400    270.15441   -45.111323    140823.96     -49106.4    3709.9202    -52816.32   0.38681216 
   74500    274.20274   -35.314239    140827.99    -49126.31    3765.5143   -52891.824   0.38491082 
   74600    274.70341   -9.8342769    140823.15   -49121.802    3772.3898   -52894.192   0.35935426 
   74700     276.5095    30.370415    140886.66   -49044.866    3797.1921   -52842.058    0.3782788 
   74800    274.15448   -19.926812     140832.5   -49094.523    3764.8515   -52859.374   0.38151682 
   74900    272.16771   -14.726817    140855.92   -49099.164    3737.5682   -52836.732   0.35702667 
   75000    275.04086     54.95289    140866.01    -49079.43    3777.0239   -52856.454   0.38016346 
   75100    278.59985    8.6228181    140911.88   -49018.812    3825.8981    -52844.71   0.36903297 
   75200    272.14679   -30.998999    140899.77   -49065.428    3737.2808   -52802.708   0.35919083 
   75300    270.25885   -9.0485057    140864.77   -49109.488    3711.3544   -52820.842   0.39242429 
   75400    271.16771     3.459807    140859.44   -49123.399    3723.8355   -52847.235   0.36056313 
   75500    273.81769    21.335632    140866.25   -49118.298    3760.2266   -52878.525   0.36066251 
   75600    277.09162      30.4889    140894.48    -49045.36    3805.1861   -52850.546   0.38586746 
   75700    276.93775    9.5118767       140949   -49009.047    3803.0731   -52812.121    0.3547118 
   75800    274.90965   -52.882697    140938.34   -49027.747     3775.222   -52802.969    0.3631873 
   75900    274.20728   -2.6980799    140897.38   -49046.227    3765.5766   -52811.803   0.39275668 
   76000    274.97715    9.8092756    140887.17   -49049.675    3776.1489   -52825.824   0.36207362 
   76100    271.19565    30.878729    140867.46   -49131.697    3724.2192   -52855.916    0.3574409 
   76200     269.4622    -18.95222    140881.16   -49182.865    3700.4144    -52883.28   0.38898646 
   76300    270.46939    19.056436    140882.04   -49127.963    3714.2458   -52842.209   0.35964704 
   76400    270.14632   -38.865259    140884.52    -49122.34    3709.8092    -52832.15   0.35539577 
   76500    271.63959    16.401847    140884.77   -49114.711    3730.3156   -52845.027    0.3894682 
   76600    268.05749    16.023814    140879.07   -49148.659    3681.1241   -52829.783   0.35859359 
[...]
   81900    269.05219    20.152112    140822.41   -49142.904     3694.784   -52837.688   0.37798742 
   82000    275.02429   -3.8195775    140845.84   -49063.658    3776.7963   -52840.454   0.35072626 
   82100    277.04931    8.8743754    140891.03   -49016.089    3804.6051   -52820.694   0.37852131 
   82200    277.59474    6.6228997    140888.97   -49023.311    3812.0953   -52835.407   0.37820522 
   82300      270.656   -20.400182     140882.4   -49100.803    3716.8084   -52817.611   0.35682397 
   82400    277.66558   -5.1396715    140903.35   -48982.508    3813.0681   -52795.576   0.38154536 
   82500    276.09973    4.6218187    140966.78   -48892.949    3791.5649   -52684.514   0.36960424 
   82600    274.39873    22.250009    140940.84   -48982.167    3768.2057   -52750.373   0.35789272 
   82700    276.74407   -9.5243094    140897.65   -49059.279    3800.4134   -52859.692   0.37084657 
   82800    274.92207   -27.743156    140883.35   -49072.725    3775.3926   -52848.117   0.36928782 
   82900    276.02017    21.886251    140891.48   -49024.625    3790.4723   -52815.097   0.36248427 
   83000    278.25544    35.838616    140904.57   -48968.592    3821.1683   -52789.761   0.37176178 
   83100    276.04372   -15.939678    140910.08   -49005.003    3790.7958   -52795.799   0.37015501 
   83200    277.01162   -43.495988    140884.74   -49034.754    3804.0875   -52838.842   0.35871381 
   83300    275.19035    19.420273    140822.71   -49022.379    3779.0768   -52801.456   0.38982022 
   83400     271.2506     -35.7866    140820.76   -49096.905    3724.9738   -52821.879   0.37671248 
   83500    270.73785   -48.281491    140791.84   -49195.861    3717.9323   -52913.793   0.35679755 
   83600    271.26434   -24.878183    140794.27   -49143.757    3725.1624    -52868.92   0.39060099 
   83700    274.00819    2.6533633    140820.12   -49173.674    3762.8426   -52936.516   0.35825294 
   83800    272.79983    23.635153    140822.86   -49134.953    3746.2488   -52881.202   0.35010015 
   83900    271.43597   -19.993036     140855.6   -49143.142    3727.5194   -52870.661   0.39506802 
   84000    268.69771    5.1962219    140857.34   -49162.474    3689.9159    -52852.39   0.35717693 
   84100    273.79561     8.191805    140876.32   -49089.854    3759.9233   -52849.777   0.35101323 
   84200    273.43921   0.10073888    140914.41   -49053.078    3755.0291   -52808.108   0.38595118 
   84300    277.22866    2.8447431    140903.58   -49103.712     3807.068    -52910.78   0.35639179 
   84400    271.35364   -11.098836    140862.39   -49093.258    3726.3888   -52819.646   0.35079486 
   84500    269.61503   -22.600215    140845.03   -49147.397    3702.5131    -52849.91   0.39424186 
   84600    271.93714    17.398415    140871.48   -49060.488    3734.4018   -52794.889   0.36426321 
   84700    267.49506  -0.88282842     140856.2    -49067.92    3673.4005    -52741.32   0.34931199 
   84800    274.21784    8.8151998    140855.33   -49067.389    3765.7217    -52833.11   0.38612004 
   84900    275.52694   -16.326633    140868.69   -48992.702    3783.6991   -52776.401   0.37095041 
   85000    270.21372  -0.80250175     140853.6    -49059.98    3710.7348   -52770.715   0.36198279 
   85100    266.67747    3.1739264    140843.57   -49076.459    3662.1728   -52738.631   0.39170299 
   85200    269.75538   -4.7285714    140855.98   -49119.292    3704.4405   -52823.733   0.36414448 
   85300     276.6499    6.1712236    140846.68   -49127.838    3799.1202   -52926.958   0.35486249 
   85400    272.68954    7.8015698    140863.81   -49158.964    3744.7342   -52903.698   0.38349472 
   85500    271.43892   -1.9613065    140899.22   -49106.275    3727.5599   -52833.835   0.35783449 
   85600    274.05731   -7.9188189    140875.69   -49134.956    3763.5171   -52898.473   0.36101403 
   85700    271.16609    46.572106    140885.63   -49081.144    3723.8132   -52804.957   0.37913988 
   85800    273.70397    2.2623518    140864.93   -49070.428     3758.665   -52829.093   0.35633004 
   85900    272.05944    1.1397889    140912.62   -49050.363    3736.0812   -52786.444   0.37527741 
   86000    274.70844    8.8440205    140888.26   -49090.893     3772.459   -52863.352   0.38449451 
   86100    275.60417    15.617228    140901.86   -49069.615    3784.7596   -52854.375   0.35155966 
   86200    276.44071   -17.499971    140926.72   -49035.941    3796.2474   -52832.188   0.37220207 
   86300    272.47944    16.243235    140914.89   -49079.489    3741.8489   -52821.338   0.39296937 
   86400    268.08641    12.999376    140880.91   -49134.964    3681.5212   -52816.485   0.34903397 
   86500    267.92273    -7.777808    140847.05   -49165.643    3679.2735   -52844.916   0.36766568 
   86600    275.72041    54.327674    140861.66   -49008.639    3786.3559   -52794.995   0.39532257 
   86700    277.11692    14.008033    140898.49   -49012.185    3805.5336   -52817.719   0.34131965 
   86800    276.72704    39.863207    140889.01   -49125.085    3800.1795   -52925.264   0.36183484 
   86900    274.04843    9.7740366    140870.89   -49109.111    3763.3953   -52872.507   0.38866019 
   87000    271.66473      12.7835    140883.37   -49087.063    3730.6608   -52817.724   0.35326938 
   87100    277.27393    16.133392    140880.03   -49062.522    3807.6897   -52870.211   0.37122629 
   87200    272.10459   -21.841831    140895.13   -49000.975    3736.7013   -52737.676    0.3957483 
   87300    272.51602    25.559089    140883.65   -49012.818    3742.3513   -52755.169   0.35672784 
   87400      272.057   -12.966796    140857.91   -49057.301    3736.0477   -52793.349   0.37050018 
   87500    273.40056    -4.166352    140850.77   -49032.207    3754.4984   -52786.706   0.39973308 
   87600    275.65345    18.504026    140852.57   -49057.029    3785.4363   -52842.465   0.35510447 
   87700    278.22665   -9.7471825    140883.48   -49034.573    3820.7731   -52855.346   0.36825657 
   87800    271.84652    -14.02912    140826.98   -49109.482    3733.1573   -52842.639    0.3907157 
   87900    272.04397    11.750293    140822.68   -49132.014    3735.8688   -52867.883   0.35453933 
   88000     272.1102  -0.78933262    140807.63   -49104.167    3736.7784   -52840.946   0.38080037 
   88100    277.48256    14.897922     140855.9   -49071.196    3810.5548   -52881.751   0.38091941 
   88200    271.47587   -28.089787    140838.76   -49173.659    3728.0673   -52901.727   0.35267778 
   88300    272.62025    25.751932    140827.26   -49115.879    3743.7826   -52859.662   0.38051583 
   88400    278.03518  -0.47326554    140869.82   -49049.174    3818.1437   -52867.318   0.37994755 
   88500    272.03456 -0.013413365    140875.47   -49123.642    3735.7396   -52859.382   0.35928261 
   88600    271.39418   -8.0301147    140867.55   -49112.414    3726.9455   -52839.359   0.38427517 
   88700     278.3207    0.7237789     140865.6   -49089.277    3822.0646   -52911.342   0.37057642 
   88800     269.0948    3.3394314    140850.71   -49147.632    3695.3691   -52843.001   0.35797007 
   88900    275.95321     31.73855    140858.87   -49085.887    3789.5528    -52875.44   0.38400033 
   89000    273.49722    37.135253    140890.25   -49050.213    3755.8257   -52806.039   0.38240681 
   89100    271.51386    7.0881363    140879.83   -49098.374     3728.589   -52826.963   0.35202114 
   89200    272.06994   -21.023268     140877.2   -49058.358    3736.2255   -52794.584   0.38601937 
   89300    271.65348   -13.134846     140858.7   -49164.764    3730.5063    -52895.27   0.38705333 
   89400    274.37966  -0.68334038    140906.03   -49073.866    3767.9439   -52841.809    0.3465989 
   89500    269.17039   -38.060163    140891.61   -49171.977    3696.4072   -52868.384   0.38623409 
   89600    271.33107    23.737665    140849.68   -49195.935    3726.0788   -52922.014   0.38236149 
   89700    271.15618   -14.039677    140868.97   -49115.687    3723.6772   -52839.364   0.35230959 
   89800    270.43495    27.896455    140892.04   -49057.058    3713.7728   -52770.831   0.38772896 
   89900    275.97661    5.6273085    140901.12   -49038.066    3789.8742    -52827.94   0.37558048 
   90000    277.09383    36.721752    140904.66   -49061.396    3805.2164   -52866.613   0.35714039 
   90100    275.79219     -10.3656    140910.93   -49043.568    3787.3417    -52830.91   0.37722865 
   90200    274.41822    -38.34347    140908.69   -49117.094    3768.4735   -52885.568   0.36965858 
   90300    273.20031   -8.0154825    140876.29   -49095.448    3751.7483   -52847.197   0.36444824 
   90400    278.39573    8.4326595    140874.93    -49073.38    3823.0949   -52896.475   0.37558852 
   90500     272.7352    30.189449    140856.99   -49084.333    3745.3612   -52829.694   0.37507539 
   90600    270.29379    29.028429     140883.4    -49105.91    3711.8343   -52817.744   0.36195223 
   90700    268.69982   -9.6733912    140880.52   -49136.637    3689.9449   -52826.582   0.38272532 
   90800    272.22947   -12.811213    140855.68   -49157.191    3738.4162   -52895.607   0.36003576 
   90900     266.9332   -14.292997    140874.06   -49129.205    3665.6847    -52794.89   0.36111094 
   91000    271.13803    5.6732317    140844.22   -49147.316    3723.4279   -52870.744   0.38466387 
   91100    270.03288   -23.286427    140807.34   -49247.276    3708.2513   -52955.528   0.35939992 
   91200    272.36255    -9.319971    140788.19   -49187.698    3740.2438   -52927.942   0.35578382 
   91300    272.49417    12.720988    140792.85   -49123.208    3742.0513   -52865.259   0.39542241 
   91400    272.00154    14.103114    140842.27   -49101.421    3735.2861   -52836.707   0.35968499 
   91500    280.18785    44.425243    140931.19   -48956.394    3847.7054   -52804.099   0.35576752 
   91600    277.59708     9.828242    140924.63   -49018.022    3812.1274    -52830.15   0.39021827 
   91700    276.02705   -7.6664294    140915.64   -49087.339    3790.5669   -52877.906   0.34854929 
   91800    272.28906   -6.5858739    140904.23   -49058.238    3739.2345   -52797.473   0.36248017 
   91900     276.0837    17.331009    140924.16    -49051.81    3791.3448   -52843.155    0.3827751 
   92000    273.79954   -23.122509    140919.55   -49097.691    3759.9773   -52857.668   0.36093466 
   92100    274.72394    14.831858    140907.86   -49079.734    3772.6718   -52852.406   0.35973858 
   92200    271.20166    34.386757    140924.86   -49108.971    3724.3018   -52833.273   0.38429756 
   92300    277.27335    14.982144    140960.75   -48995.468    3807.6818    -52803.15   0.36702203 
   92400     279.4607   -1.8957636    140931.37   -49035.897    3837.7197   -52873.617   0.35417351 
   92500    276.18382   -16.709354     140927.7   -49034.579    3792.7197   -52827.298   0.37764434 
   92600    274.65002    5.5854723    140937.37   -48950.608    3771.6566   -52722.264   0.36638143 
   92700     270.9525   -52.643992    140893.48   -49064.506    3720.8801   -52785.387   0.36392489 
   92800    273.29972   -25.668196    140893.12   -49073.555    3753.1136   -52826.669   0.38051094 
   92900    274.41833   -18.955286    140881.56   -49109.562     3768.475   -52878.037   0.35764604 
   93000    277.85699  -0.04458174    140863.06   -49111.744    3815.6966    -52927.44   0.36602656 
   93100    274.79806    4.5888696    140901.53    -49035.64    3773.6896   -52809.329    0.3850828 
   93200    271.86818     -39.3188    140910.06    -49098.69    3733.4548   -52832.145   0.36019168 
   93300    273.22216    17.333994    140898.27   -49143.529    3752.0484   -52895.577   0.36685294 
   93400    266.54403   -45.252888    140833.66   -49190.857    3660.3404   -52851.197   0.38257414 
   93500    272.60295    10.731005    140834.08   -49195.879    3743.5451   -52939.424   0.35276926 
   93600    266.81579   -25.728376    140826.12   -49147.913    3664.0724   -52811.985   0.37522714 
   93700    268.04522   -2.9583862    140854.41   -49129.154    3680.9557    -52810.11    0.3809917 
   93800    267.44541   -2.1749611    140844.88   -49122.971    3672.7187   -52795.689   0.35959833 
   93900     268.6751   -15.793321    140839.93   -49200.296    3689.6055   -52889.902   0.37014769 
   94000    269.01522    33.866894    140822.42   -49169.375    3694.2762   -52863.651   0.38473049 
   94100    273.47994   -6.0577658    140879.03   -49056.695    3755.5885   -52812.284   0.36065925 
   94200    276.00837    31.878073    140896.06   -49047.823    3790.3103   -52838.134   0.36581092 
   94300    276.05407    23.260812    140894.93   -49062.403    3790.9379   -52853.341   0.38057708 
   94400    272.05195    15.238956    140871.67    -49049.05    3735.9784   -52785.029   0.35863307 
   94500    275.42427    26.136424     140920.4   -49057.329    3782.2891   -52839.618   0.35671942 
   94600    276.84465   -6.5396626     140915.7   -49067.678    3801.7946   -52869.472   0.37507469 
   94700    275.07616    11.025074    140881.99   -49094.909    3777.5086   -52872.417   0.36002025 
   94800    271.01803   -7.1329276    140897.43   -49141.489      3721.78   -52863.269   0.36522352 
   94900    269.20843    25.014748    140869.62   -49165.142    3696.9295   -52862.071   0.37717665 
   95000    272.35157    5.4241769    140876.75   -49127.387     3740.093    -52867.48   0.36109429 
   95100    271.17765    -12.81191    140853.79    -49087.41     3723.972   -52811.382   0.36994187 
   95200    271.98109    13.126292    140862.28   -49114.677    3735.0053   -52849.682   0.36745951 
   95300    269.39714    21.751561     140865.7   -49066.907    3699.5209   -52766.427   0.36012409 
   95400    270.86635   -23.603933    140892.65   -49042.816     3719.697   -52762.513   0.37731956 
   95500    273.42186    -9.100055    140906.59   -49064.638    3754.7908   -52819.429   0.36471684 
   95600    275.10926    4.8353383     140882.5   -49048.427    3777.9632    -52826.39   0.35822585 
   95700    275.84655    16.376935    140877.86    -49079.75     3788.088   -52867.838     0.372749 
   95800    278.23595    2.0051947    140873.94   -49028.422    3820.9008   -52849.322   0.36863102 
   95900    272.60995   -12.963607     140865.1   -49046.864    3743.6412   -52790.505   0.35927059 
   96000    280.34197    5.6256005    140876.48   -49016.981    3849.8218   -52866.802   0.37736454 
   96100    279.47415     31.26271    140898.85   -48968.037    3837.9044   -52805.942    0.3634392 
   96200    277.51346   -16.963435    140896.13   -48990.579    3810.9791   -52801.558   0.35797862 
   96300    280.80062    16.196564     140893.4   -49007.065    3856.1203   -52863.185   0.37304344 
   96400    273.72051   0.47372925    140897.71    -49058.62    3758.8921   -52817.512   0.37664179 
   96500    280.35964   0.99534256    140888.69   -49053.395    3850.0645    -52903.46   0.35757213 
   96600    274.93624  -0.31626235    140866.22   -49103.963    3775.5871    -52879.55   0.37210006 
   96700     271.2165    12.854374     140863.2   -49074.102    3724.5056   -52798.607   0.37615252 
   96800    273.51052    23.210094    140867.35   -49088.348    3756.0083   -52844.357   0.35623019 
   96900    275.21953   -22.331584    140852.39   -49094.623    3779.4775     -52874.1   0.37692534 
   97000    271.58551     -10.1381     140867.6   -49172.657     3729.573    -52902.23   0.36977493 
   97100     274.4758   -5.5173347    140845.95   -49144.198    3769.2642   -52913.462    0.3583702 
   97200    275.55217    43.066757    140832.47   -49078.467    3784.0455   -52862.513    0.3728968 
   97300    278.69561    20.094716     140910.9   -48980.213    3827.2131   -52807.426   0.36395496 
   97400    276.34141   -23.112792    140893.23   -49070.732    3794.8839   -52865.616   0.36910471 
   97500      276.046   -34.303416    140891.98   -49039.235    3790.8271   -52830.062   0.37110725 
   97600    281.17238    22.175966    140912.76   -48979.943    3861.2255   -52841.168   0.36083548 
   97700    275.02901   -8.3272498    140943.87   -48951.548    3776.8612   -52728.409   0.37204341 
   97800     274.8697   -17.594382    140902.42   -49048.887    3774.6734    -52823.56   0.37004275 
   97900     275.5011    -20.02336    140893.81   -49014.434    3783.3441   -52797.778   0.36794851 
   98000    272.06418   -28.869235    140868.33   -49095.646    3736.1463   -52831.793   0.37644058 
   98100    273.36873    -14.82872    140879.21   -49079.641    3754.0612   -52833.703   0.37196034 
   98200    271.62154    17.270094    140863.46   -49071.014    3730.0677   -52801.082   0.36603125 
   98300    278.75149   -5.7293718    140887.86   -49014.062    3827.9805   -52842.042   0.36995804 
   98400    273.63442   -24.111746    140895.63   -49053.901    3757.7098   -52811.611   0.37196212 
   98500    275.28006    3.2194966    140873.91   -49032.467    3780.3087   -52812.775   0.36422033 
   98600    275.15649   -13.362571    140870.33    -49044.74    3778.6117   -52823.352   0.36701253 
   98700    281.33167    31.113702    140869.35   -49012.481     3863.413   -52875.894   0.37749314 
   98800    276.03684   -39.137629    140902.26   -49022.739    3790.7012    -52813.44    0.3540211 
   98900    276.37913    2.4812002    140867.41   -49075.199    3795.4017   -52870.601   0.36727823 
   99000    275.96798   -1.1954905    140873.39   -49072.103    3789.7556   -52861.859   0.37730982 
   99100    273.74679    2.4774968     140861.8   -49130.802    3759.2529   -52890.055    0.3556852 
   99200    271.48742   -13.542925    140865.47    -49135.23     3728.226   -52863.456   0.36914688 
   99300    279.37904    29.425328    140874.33   -49062.362    3836.5983   -52898.961   0.36863956 
   99400    277.33093    30.520222    140862.79   -49099.827    3808.4724   -52908.299   0.35530519 
   99500    275.31313   -1.6979615    140863.86   -49057.355    3780.7629   -52838.118   0.37043347 
   99600    272.74223   -3.4316692    140890.34   -49057.579    3745.4578   -52803.037   0.37086113 
   99700    275.30915   -27.310089    140861.05   -49091.867    3780.7083   -52872.576   0.36270804 
   99800    274.04116    3.7244154       140845   -49099.355    3763.2953   -52862.651   0.36699492 
   99900    271.08864    5.1422369       140826   -49153.248    3722.7496   -52875.998   0.37353457 
  100000      270.436    28.597281     140838.8   -49072.999    3713.7872   -52786.786   0.36712294 
Loop time of 118.981 on 6 procs for 100000 steps with 4608 atoms

Performance: 363.083 ns/day, 0.066 hours/ns, 840.471 timesteps/s
99.0% CPU use with 6 MPI tasks x no OpenMP threads

MPI task timing breakdown:
Section |  min time  |  avg time  |  max time  |%varavg| %total
---------------------------------------------------------------
Pair    | 100.83     | 101.42     | 102.27     |   4.5 | 85.24
Neigh   | 6.3765     | 6.5202     | 6.7695     |   6.6 |  5.48
Comm    | 7.2031     | 8.2818     | 8.9017     |  18.4 |  6.96
Output  | 0.16781    | 0.16854    | 0.17163    |   0.3 |  0.14
Modify  | 1.8637     | 1.922      | 1.9655     |   2.7 |  1.62
Other   |            | 0.6712     |            |       |  0.56

Nlocal:        768.000 ave         776 max         761 min
Histogram: 1 1 0 1 0 0 2 0 0 1
Nghost:        1696.17 ave        1716 max        1685 min
Histogram: 3 0 0 0 1 1 0 0 0 1
Neighs:        0.00000 ave           0 max           0 min
Histogram: 6 0 0 0 0 0 0 0 0 0
FullNghs:      24331.3 ave       24638 max       24132 min
Histogram: 1 1 1 1 0 1 0 0 0 1

Total # of neighbors = 145988
Ave neighs/atom = 31.681424
Neighbor list builds = 6586
Dangerous builds = 0

undump              1
unfix               2
unfix               3
unfix               4




################################################
#######         Run Simulation         #########
################################################

reset_timestep      0
log                 log.run_${NAME}
log                 log.run_ice_274K_1atm_mW
