LAMMPS data file via write_data, version 29 Oct 2020, timestep = 100000

8521 atoms
1 atom types

-0.1730693745832923 104.7659894545584 xlo xhi
-0.20819898469078169 51.32347594571841 ylo yhi
-0.20819898469078169 51.32347594571841 zlo zhi

Masses

1 18.015

Atoms # atomic

46 1 -0.14916037891629186 33.59198598839494 2.0432921064337375 0 0 0
286 1 4.63604998728137 2.9230652196085547 0.8053927390280491 0 1 0
377 1 6.273260401077137 1.3807806390548156 2.4815767480682913 0 1 0
288 1 11.020329725857277 2.7720305198986046 0.3342949896810802 0 1 0
287 1 12.821793528169383 1.2539108991706507 2.2446138831813207 0 1 0
804 1 19.220635543340606 1.3262839321462085 2.274850712116068 0 1 0
1074 1 25.504534289699052 1.797470665765057 2.1123572448524635 0 1 0
997 1 26.82954499729018 0.13880281215784163 0.3649225107962354 0 1 0
1003 1 30.089887367510162 2.9304275458388287 0.7909776596359015 0 1 0
998 1 31.746377706060578 1.3275515153078352 2.035053777539096 0 1 0
291 1 3.307282369569273 4.604633283590999 2.5817489268296425 0 0 0
199 1 9.578158265282763 4.326021040903443 2.156932300873438 0 0 0
289 1 17.53103267761791 2.991073473246859 0.7128875061776214 0 1 0
290 1 16.035038385621295 4.361763404089973 2.0768077624011805 0 0 0
1002 1 23.913521926644187 3.3587980324872024 0.8626609690168403 0 1 0
1001 1 22.393915427187377 4.602004292248497 2.5984664328590106 0 0 0
1004 1 28.698486026954022 4.5449580653771005 2.3941155762113047 0 0 0
196 1 1.6591251334580435 6.383028527648886 0.8920001923681082 0 0 0
358 1 0.016416512594634364 8.14871440628951 2.170339274579059 0 0 0
198 1 8.134909822385747 6.423143221563874 0.6557014552186098 0 0 0
298 1 6.259624288783386 7.751233102983413 2.2434364762037067 0 0 0
294 1 11.238456969634713 6.387280246581828 3.1212540163125806 0 0 0
204 1 13.136732967347408 8.289970665027644 1.961509420770423 0 0 0
200 1 14.192042498546327 6.370009550016926 0.44796601011034975 0 0 0
922 1 20.91804916924547 6.493505942790769 0.778860579200426 0 0 0
793 1 19.053464757130776 8.232994744159592 1.9996229863143515 0 0 0
928 1 25.589280656112443 7.997971446491398 2.3091015610106655 0 0 0
924 1 26.86585298161984 6.320633016571441 0.4391651768757866 0 0 0
925 1 33.50693077854103 6.444163891294097 0.512793257877095 0 0 0
930 1 32.01887777322324 7.944471889706826 2.2864829656559302 0 0 0
208 1 3.324484725851587 11.099551595755619 1.905532235610944 0 0 0
202 1 4.9472798035280565 9.778094216176813 0.3524461406204128 0 0 0
211 1 9.501880885642699 10.94856776947042 1.9920756529637647 0 0 0
203 1 11.143312068299906 9.493385897282854 0.42915693226207285 0 0 0
213 1 16.17541790455415 11.398990338119537 1.5585108363959777 0 0 0
205 1 17.381679274681552 9.36295849752824 0.1080207492291047 0 0 0
927 1 23.989557714613042 9.315621900764079 0.5945306314125589 0 0 0
1012 1 22.543025200200393 10.985215882709484 2.0734649609955724 0 0 0
929 1 30.484411902539904 9.811762598593287 0.7063145486954762 0 0 0
935 1 28.97525319521533 11.820731056022705 2.5072840872809254 0 0 0
207 1 1.3112538208999691 13.099264836117888 0.8840113654490822 0 0 0
216 1 6.084788189346356 14.192941724594354 2.2421776256770447 0 0 0
210 1 7.982923239245279 12.882590659178225 0.6804672698588741 0 0 0
218 1 12.82694263381038 14.301796861061764 2.0987655867521338 0 0 0
212 1 14.065557442616544 12.90549306763737 0.3373195990886979 0 0 0
932 1 20.834840856945778 12.519106044671773 0.5886765609201007 0 0 0
1054 1 19.189348054426347 14.174887741036283 2.2208493898923627 0 0 0
934 1 27.21220720037737 12.934731618707943 0.5927396478993583 0 0 0
1018 1 25.714037951000293 14.543996934786032 2.0174284008719834 0 0 0
937 1 33.38805475093047 12.629677842355461 0.8697673618126676 0 0 0
941 1 32.28073331542182 14.831247846525883 2.3540526625910725 0 0 0
313 1 2.7234428054617914 17.401148767624022 2.022835725576452 0 0 0
215 1 4.438966148657141 15.850119311102656 0.5306956522599191 0 0 0
217 1 11.011966168348232 16.125019800307175 0.6103703711436795 0 0 0
223 1 9.670896115562414 17.738235385247034 2.1836918856234506 0 0 0
220 1 17.1696648055652 15.707134945035605 0.7349559335405683 0 0 0
225 1 16.0495403314279 17.732067635060755 2.1108363430940935 0 0 0
1021 1 22.210762594440464 17.736469546663933 2.186409801005093 0 0 0
939 1 23.89373065775658 16.18816838118844 0.5213037026641032 0 0 0
940 1 30.54540524691637 16.270521662081162 0.675063154049261 0 0 0
1023 1 28.93444025934986 18.066885360495522 2.3819374738861425 0 0 0
221 1 1.323312148333103 19.212204075062026 0.6417168739746834 0 0 0
228 1 6.148028752234108 20.774140567950095 2.3331109413021336 0 0 0
222 1 7.674829367140776 19.4252771787954 0.6156203453987463 0 0 0
224 1 14.264987708194685 19.683143606110686 0.657832272237069 0 0 0
942 1 20.513351932692967 19.157182426616764 0.634542741155215 0 0 0
968 1 19.23943493377485 20.67323234038516 2.585321201293345 0 0 0
944 1 27.39816991666842 19.536676097308447 0.6835830130138344 0 0 0
949 1 25.315100620504516 20.917374013132417 2.2058636592110923 0 0 0
946 1 34.06294779338064 19.439146648256894 0.9022961662678903 0 0 0
1028 1 32.016480394106026 21.000388458185792 2.1944574548271563 0 0 0
105 1 -0.12405850963179217 21.22840733323792 2.220715795026564 0 0 0
227 1 4.780135403897762 22.53006077590636 0.641527018185403 0 0 0
229 1 10.767776044005952 22.573772723094063 0.46769542241409534 0 0 0
325 1 9.51712100507649 24.164888585247656 2.3127968778025596 0 0 0
230 1 12.56132345109076 21.331668048617917 2.3199360420007857 0 0 0
232 1 17.717446759720755 22.443861053000415 0.9451477850267433 0 0 0
947 1 23.462225667497176 22.751681488104463 0.9111228913164582 0 0 0
950 1 30.34495538464229 22.74695225412784 0.6414611833342062 0 0 0
233 1 1.608095284076288 25.945408983076778 0.663700183757104 0 0 0
234 1 3.358026733563362 24.356302541265276 2.2084248422550203 0 0 0
235 1 7.946268787168854 25.79642022870231 0.8685552611926388 0 0 0
237 1 14.157647090201078 25.81276713223325 0.6365794380234924 0 0 0
238 1 15.939357889824795 24.337634240081506 1.852966648382762 0 0 0
1030 1 21.78917720635183 24.344494426730698 2.368923269673945 0 0 0
951 1 20.541481683717507 25.893450666473424 0.37055415119597035 0 0 0
954 1 28.353569849473168 24.19135652058469 2.094341217603545 0 0 0
953 1 26.86682724782751 25.821966558727375 0.42446368026845827 0 0 0
1037 1 31.902235052882446 27.012175567394888 2.1418132314194 0 0 0
956 1 33.55656731244034 25.75548891904405 0.2769938067540414 0 0 0
307 1 -0.0899436906432015 27.66749108601453 2.003770983791892 0 0 0
242 1 4.887174103701613 29.25008339572086 0.35382762786196353 0 0 0
330 1 6.320767174343957 27.64060427559329 2.45098552701104 0 0 0
245 1 10.942036435934623 28.728791146424904 0.6696435693197641 0 0 0
240 1 12.685518141230046 27.300939470603705 2.509051300171336 0 0 0
241 1 17.691103124219083 28.970628935720846 0.5880066169738788 0 0 0
915 1 19.096707494866575 27.266008771975017 2.0851354024211406 0 0 0
959 1 23.709525156119092 29.185154443758794 0.5605297770964448 0 0 0
960 1 25.103342370673516 27.360074745373904 2.158131262463234 0 0 0
962 1 30.257898341622557 28.546952057862523 0.6332924070559892 0 0 0
334 1 3.0467681326788 30.40940869047499 1.609178224055595 0 0 0
243 1 9.322803617622895 30.264880930112003 2.44850368226813 0 0 0
249 1 8.2039370657597 32.164370033716494 0.7102798306305074 0 0 0
246 1 13.870478263046127 32.18442521453453 0.749120916529245 0 0 0
337 1 15.786461961531131 30.57026182159172 1.8451018377962782 0 0 0
967 1 20.642431280216428 32.23222264176319 0.9295960505289416 0 0 0
1039 1 22.088839911141214 30.567525103987848 2.183240426617995 0 0 0
965 1 26.81880280642176 32.24387443566959 0.3145360266087094 0 0 0
1041 1 28.486501284372977 30.55462705811424 2.1507440727510168 0 0 0
971 1 31.495291839031474 32.92868926705233 2.2241516472851064 0 0 0
970 1 33.326616711275484 31.777838482983853 0.7029563787309387 0 0 0
254 1 4.752729206275365 35.152314222979996 0.6585029279651327 0 0 0
250 1 6.315029401069895 33.62637222563544 2.2411203471481578 0 0 0
256 1 10.994539036222138 35.37313416937086 0.47564724979895245 0 0 0
251 1 12.361037467196262 33.82584240452574 2.4063350623661868 0 0 0
253 1 17.16168659191625 35.86594590505332 0.7724174203062643 0 0 0
721 1 18.84533812408568 34.073922043822634 2.177735855643493 0 0 0
973 1 23.843451150367372 35.43356715808671 0.704531752407137 0 0 0
969 1 25.266716095430873 33.91011061848267 2.186900646237846 0 0 0
975 1 30.34685147831569 35.43334054752914 0.8770711539705762 0 0 0
258 1 1.1728182562975022 38.16463633065766 0.8128677878239039 0 0 0
346 1 3.0434239541661707 36.7214454128231 2.3437376801912477 0 0 0
259 1 7.8384100040035545 38.464472641140155 0.905105360368355 0 0 0
255 1 9.462984067063422 36.757038849480416 2.186578539722419 0 0 0
257 1 15.606350687664742 37.19643119211158 2.260098800566426 0 0 0
261 1 14.308644023523142 38.9054179969286 0.3230490867347715 0 0 0
977 1 20.826285447832795 38.75697931165693 0.5953181373921582 0 0 0
972 1 22.14427145231003 36.98158509373932 2.373332368421321 0 0 0
979 1 26.77713849686985 38.65164629038744 0.5500804938394444 0 0 0
1046 1 28.385163070640328 37.02582934440698 2.3961357028456027 0 0 0
1048 1 34.72539513969581 36.903104559396425 2.248407615276685 0 0 0
981 1 33.050797834105666 38.948131410583805 0.39886647065562886 0 0 0
263 1 4.557905247657971 41.67001078645735 0.561898001853592 0 0 0
352 1 6.079588789303795 40.21667814082705 2.4256189695969317 0 0 0
260 1 12.489332325454575 40.354662620386925 2.0053226451209842 0 0 0
266 1 10.744932431292002 41.88247568020173 0.3175348004179597 0 0 0
268 1 17.441822826761882 41.61349018472574 0.3330890432431908 0 0 0
938 1 19.185446150800335 40.12293665714983 2.3044465853523026 0 0 0
983 1 23.932138880236245 42.2654686767644 0.43104786579077525 0 0 0
980 1 25.353081752232583 40.48297510026348 2.161529848788598 0 0 0
1053 1 31.44876427438923 40.51860245623859 2.0291482698243923 0 0 0
985 1 30.111706226162475 42.11747219818988 0.2566170827484934 0 0 0
269 1 1.3049783836539173 45.10910474735861 0.5884321667341045 0 0 0
262 1 2.6981495006000538 43.196874582644654 2.035973382900695 0 0 0
264 1 9.32142419145019 43.281915064409084 1.99448305009299 0 0 0
271 1 7.44528366364932 44.88566035116801 0.5982428963167483 0 0 0
273 1 14.41712766239624 44.62853057376058 0.5644886896930712 0 0 0
267 1 16.027491646069528 43.23417333627477 2.330680235507239 0 0 0
987 1 20.684483385470152 45.360222604098034 0.453715954748078 0 0 0
1055 1 22.102773330369676 43.67447216596222 2.060865077867985 0 0 0
1057 1 28.887251524333468 43.49161122434213 2.1851838864751856 0 0 0
990 1 33.10823118472819 45.21767310459669 0.5971055820613804 0 0 0
1059 1 34.69684714769204 43.944687397867945 2.3329350378438 0 0 0
275 1 4.256720137734576 48.12829221641769 1.2704874447832812 0 0 0
270 1 6.0513936697630974 46.37076826151353 2.282957434446625 0 0 0
278 1 10.969279930615228 47.771154424536824 0.26729608807630606 0 0 0
272 1 12.548419503194989 46.154125586415965 1.9974141348581336 0 0 0
279 1 17.32004625390448 48.22230282731328 0.6227718726176047 0 0 0
785 1 19.101402726051592 46.76451239662939 2.3873718418147454 0 0 0
989 1 27.264425023792107 45.48167622985263 0.7655517031494934 0 0 0
1063 1 25.528410019788772 46.73513154579075 2.4414252606052016 0 0 0
994 1 30.07511450216062 48.41980072154772 0.7425213421285917 0 0 0
991 1 31.900311957828045 47.18635846039378 2.254705916247005 0 0 0
282 1 1.1606049772253688 -0.16755081662013482 0.5500740011770346 0 1 0
371 1 2.465724062486565 49.745586219519446 2.74831515022755 0 0 0
284 1 8.14870233957082 51.31448428349645 0.6529977971487021 0 0 0
277 1 9.231516988985733 49.23814336626099 1.9589980702509697 0 0 0
285 1 14.15895367410911 51.07132935663677 0.26204264770633945 0 0 0
280 1 15.738522115528262 49.81416286141918 2.074605176456482 0 0 0
996 1 20.838509157410368 51.23462693654661 0.5366855207585661 0 0 0
1067 1 22.240007581487838 49.91402843086144 2.3279198456876036 0 0 0
992 1 23.931160251898053 48.48066663592065 0.3312861810353088 0 0 0
1069 1 28.473517846157517 50.178305685125274 2.1730311928901878 0 0 0
999 1 33.09762659815849 51.08342710462667 0.2468438613301161 0 0 0
23 1 -0.12866845755077858 27.128442404374454 8.718477130430356 0 0 0
484 1 3.1845804791771894 1.034887623358985 5.323899866990203 0 1 0
378 1 9.671069396907203 1.2974806352167234 4.923955511403975 0 1 0
486 1 11.227503052933312 2.8553104430400102 6.219555033035567 0 1 0
380 1 15.640159158506473 1.3497992324721608 5.322506089282726 0 1 0
1077 1 21.022927646435377 2.685721190430306 3.8121097909931922 0 1 0
1073 1 23.83855481373156 0.14941258535113183 3.8655384174184944 0 1 0
1153 1 22.210262006213462 1.2883884218258939 5.647797428668694 0 1 0
1076 1 30.119907557452827 -0.018990762841652797 3.640864259047192 0 1 0
1075 1 28.82061947158777 1.4111353215128515 5.559299923480965 0 1 0
1079 1 33.52709722073779 2.915100623078929 3.536792284769821 0 1 0
383 1 1.679527398785194 3.0113514981407854 4.010729771648726 0 1 0
38 1 0.08482375442948736 5.034880096282788 5.39862636361426 0 0 0
293 1 6.222472398994676 4.465289927745923 5.4546832683379645 0 0 0
384 1 7.952247409764832 3.0616681347656267 3.8642840940741188 0 1 0
385 1 14.333144080909017 2.992098072870331 3.600288444247002 0 1 0
386 1 12.650201583070231 4.598584248755683 4.7443993806082005 0 0 0
799 1 19.41195394033881 4.312801940566743 5.367347011044348 0 0 0
1078 1 26.962759402243158 3.0758679344368085 3.9319171976279668 0 1 0
1158 1 25.614840317058242 4.996759533002748 5.6886151250483445 0 0 0
1085 1 32.3461098945158 4.521675580305587 5.262015028385026 0 0 0
292 1 4.604947657958814 6.6468669362856 4.050284316763204 0 0 0
394 1 3.1730677246643486 8.416593714149215 5.25091916565564 0 0 0
295 1 9.788145578928466 7.877875592312396 5.062823889327251 0 0 0
296 1 17.8618741304495 6.100143753079787 3.7150190064452895 0 0 0
301 1 16.246769748607694 7.776111266903186 5.241826359430108 0 0 0
1005 1 24.044028909406716 6.7163168179521815 4.431160643148292 0 0 0
1008 1 22.161064648609738 8.284720760284703 5.68095636817825 0 0 0
1006 1 30.525397470243213 6.412007672417584 3.973280077244393 0 0 0
1010 1 29.035845163976692 8.037522694879833 5.574976553533527 0 0 0
297 1 1.5197262619689547 10.0626863847195 3.6248890125372015 0 0 0
299 1 8.031031561358857 9.405361481589205 3.696938368755955 0 0 0
402 1 6.419864136861741 11.040697891689673 5.458322041771067 0 0 0
300 1 14.806892773885675 9.766748705916022 3.4120871273079887 0 0 0
305 1 12.999076892134553 11.165976269719176 5.233038265216118 0 0 0
1007 1 20.835133590281416 9.596896690017692 3.7012772099202484 0 0 0
811 1 19.1150822011561 11.034900652593018 5.513135899224151 0 0 0
1014 1 25.18074702246135 11.016974488808602 5.1225222569683035 0 0 0
1009 1 27.33893728114192 9.428034585140509 3.8002638832330815 0 0 0
1011 1 33.31196884308428 9.786056588719926 3.936592038431593 0 0 0
1015 1 31.867677790427393 11.657438040658306 5.416143929161876 0 0 0
407 1 3.0424442277776707 14.474374866244785 5.084322228805836 0 0 0
303 1 4.557256861439136 12.532676453485273 3.8763464016076847 0 0 0
304 1 11.268309602406788 12.548763581829759 3.5867512762366003 0 0 0
310 1 9.811266744475493 14.578262646577121 5.24622653134792 0 0 0
306 1 17.57633393433112 12.540620417062577 3.7614314276134317 0 0 0
312 1 16.08896481116667 14.433257267292264 5.1548036112925955 0 0 0
1013 1 24.123210584015414 12.901243397630994 3.420010893894961 0 0 0
1093 1 22.274589048605986 14.313547244820846 5.133546650980641 0 0 0
1016 1 30.593130162573328 13.356889072189432 3.8052824330847717 0 0 0
1096 1 28.990942982595012 14.592602661917269 5.508463095487781 0 0 0
308 1 1.2653663209725925 16.154832554242365 3.9055006711297713 0 0 0
415 1 6.164908133893616 17.466647546700397 5.522072280680923 0 0 0
309 1 7.682129959902367 15.928085061670558 4.0024247778178355 0 0 0
311 1 14.28337212194638 16.144071182644073 3.601217202938561 0 0 0
316 1 12.650269100174869 17.863929552109955 5.292352446976804 0 0 0
1017 1 20.92775618748378 15.839592404238818 3.5597165601035217 0 0 0
833 1 19.300686483625434 17.479705170564127 5.4349133049739695 0 0 0
1019 1 27.253045031086817 16.3583422458922 3.3500435493048975 0 0 0
1100 1 25.734595509956687 17.3704076993224 5.413943601729384 0 0 0
1020 1 33.804709409654535 16.431532231673764 4.01225766180048 0 0 0
1102 1 31.71495227227323 17.627066080912176 5.745950905517771 0 0 0
314 1 4.535362788586423 18.915030762477617 3.7589126502936443 0 0 0
319 1 3.3811062834134282 21.0731937192602 5.3493924727009645 0 0 0
315 1 10.710696826108844 19.616399520032303 3.8138614731678686 0 0 0
323 1 15.545340229418807 20.934205741674695 5.525598105291931 0 0 0
317 1 17.298119192241654 19.37649863137882 4.109509529802745 0 0 0
1022 1 24.22577112200179 19.158277975099665 4.114200196470357 0 0 0
1105 1 22.36581378480991 20.814037233817146 5.598337088563084 0 0 0
1107 1 28.375541296654426 21.049783612400695 5.5676367986493585 0 0 0
1024 1 30.562256276608096 19.520440480451274 4.085526175612987 0 0 0
318 1 1.7586332751054927 22.787580770176053 3.8304268356404965 0 0 0
320 1 7.621808464652993 22.9375921608423 3.3971505883418556 0 0 0
321 1 9.326292476869604 21.610450470376218 5.150434950207888 0 0 0
322 1 14.184988183876706 22.926006938018187 3.754005768168759 0 0 0
702 1 18.681735821508415 24.119339746644066 5.5335405033573055 0 0 0
1026 1 20.50886698211376 22.436971776649592 4.239789087229574 0 0 0
1027 1 26.986526671844913 22.454480001077904 3.7315244798692087 0 0 0
1029 1 33.53620884089159 22.669902270807235 3.768187237914328 0 0 0
674 1 -0.12209226268212822 24.515332067805446 5.508092011051785 0 0 0
324 1 4.651345292941677 25.91510832808401 3.8151641832027403 0 0 0
428 1 6.25878867859154 24.250700052857052 5.1653462500495335 0 0 0
326 1 11.026239392964083 25.518291465626735 3.9909499604652545 0 0 0
327 1 12.60244183132181 24.232481132556067 5.816458651111069 0 0 0
328 1 17.539942305176492 25.552488963594822 3.709223428123078 0 0 0
436 1 16.000591858371898 27.144926924756657 5.540199555616484 0 0 0
1031 1 23.708513608772503 25.80082952333225 3.9325990670381916 0 0 0
1032 1 25.554288197263304 24.246400945878232 5.381661737505052 0 0 0
1033 1 29.949851922361148 25.68841884589143 3.6475150864631143 0 0 0
1113 1 31.74141718177076 24.22198127469658 5.197777003328909 0 0 0
333 1 1.6327555405978522 29.118364871316867 3.4348638788316186 0 0 0
329 1 2.763761474839954 27.326785110929936 5.4682422286415004 0 0 0
331 1 7.7743832004962306 29.00856845177725 4.123221934833777 0 0 0
433 1 9.632390785510207 27.355441349154983 5.580477124718983 0 0 0
332 1 14.514567778354333 29.07639194835996 3.94856955955058 0 0 0
1034 1 20.29732614144888 29.007481744434582 3.8312605445777894 0 0 0
1116 1 21.988876778734912 27.596575412628024 5.259235331712423 0 0 0
1035 1 26.714112906899967 29.118051571422548 3.947706694918784 0 0 0
1036 1 28.419791019501755 27.441714757705306 5.27972586249437 0 0 0
1121 1 31.316738319240667 30.202676431292755 5.325791532998465 0 0 0
1038 1 33.10315455419332 28.819506184306093 3.728136632967878 0 0 0
387 1 0.016687815331581174 30.597103315072772 5.157237368528343 0 0 0
340 1 4.276655304583374 32.16622580594265 3.514131719091097 0 0 0
335 1 5.982390099238206 30.722676721161946 5.26076832971636 0 0 0
342 1 10.502825328619076 32.31835215014013 3.8038455852165862 0 0 0
336 1 12.646947035347589 30.88611526460506 5.081639707876704 0 0 0
344 1 17.240950251781044 32.21930260582726 3.640317814360837 0 0 0
738 1 18.920498182706528 30.41585108969716 5.297108386881163 0 0 0
1040 1 23.701454756986664 32.42549408776116 3.7438657342799178 0 0 0
1119 1 25.46015401796216 30.911086740116996 5.418840208300674 0 0 0
1042 1 29.699579240232165 31.744946779057468 3.814897399640306 0 0 0
345 1 1.3256675547442045 35.12933185219903 3.780792959562081 0 0 0
443 1 3.2036519573305404 33.87215526292941 5.354307404764424 0 0 0
347 1 7.850755160593929 35.583445968773155 3.86376767922817 0 0 0
341 1 9.535504783114439 33.973033451673665 5.461630794236209 0 0 0
349 1 14.224488064707522 35.18063991635928 3.855440537371094 0 0 0
343 1 15.994093920642644 33.846225333803545 5.476533082430182 0 0 0
1043 1 20.362540575066078 35.49980556117212 3.8213484204739654 0 0 0
1123 1 21.815810198387542 33.57976085262654 5.311141274461164 0 0 0
1045 1 26.842963553290346 35.350151336076316 3.8113311067819877 0 0 0
1125 1 28.57328217030789 33.762965109408086 5.268034076278437 0 0 0
1047 1 32.927485184614376 35.088847166422774 3.7124279359759496 0 0 0
1127 1 34.68518036649452 33.67507769767923 5.058956009277904 0 0 0
13 1 0.00019862795214714568 36.95177314517026 5.388823500033427 0 0 0
353 1 4.610416811555683 38.44593645790082 3.920332726655098 0 0 0
450 1 6.5326757947322385 37.3545986928016 5.747430840813506 0 0 0
354 1 11.07079200516368 38.30221454956347 3.8324281385728627 0 0 0
348 1 12.758639757280372 37.03368552764905 5.492625791326499 0 0 0
357 1 17.578780598344892 38.57993270911325 3.6976244545494508 0 0 0
454 1 18.756383174202384 37.1334178376808 5.63165458099967 0 0 0
1051 1 23.632782742881624 38.733015424613455 3.8069663642150653 0 0 0
1044 1 25.210726629360618 37.08961907326641 5.447142713837148 0 0 0
1052 1 30.0083950362835 38.620393349775064 3.558817233237377 0 0 0
1131 1 31.835694117530373 37.07480186922122 5.259925882014011 0 0 0
359 1 1.1796512410030076 41.8781424832791 3.8138250566405087 0 0 0
456 1 3.1548959284743945 40.5982959595684 5.295965382274376 0 0 0
360 1 7.780578300654499 41.783092921535285 3.8261349631523247 0 0 0
355 1 9.378123066755535 40.04543890380717 5.2145840657766795 0 0 0
362 1 14.242343439838397 41.540778279158054 3.527101168835143 0 0 0
356 1 15.805050855702463 40.218378491274905 5.1765608444424345 0 0 0
1056 1 20.48661949592668 42.08465831459005 3.8978154427400398 0 0 0
1050 1 22.084163500445616 40.45572407798204 5.34897069204966 0 0 0
1058 1 26.93204003397226 41.875994805661854 3.6741827404562017 0 0 0
1134 1 28.545241068428556 40.308177297009735 5.144008875789879 0 0 0
1060 1 33.36765342832765 41.802729851670904 3.6636625077836804 0 0 0
364 1 4.304849882008771 44.662733279397706 3.645883088693476 0 0 0
463 1 6.257445304610282 43.34327564051421 5.473297637675509 0 0 0
365 1 10.828811817793133 44.77454219796752 3.513394779786876 0 0 0
361 1 12.360091907531801 42.940816537798284 5.150007037949609 0 0 0
368 1 17.356209948101803 45.04971053253542 3.980413098958821 0 0 0
885 1 19.106982244897406 43.61611332006515 5.577851860569317 0 0 0
1062 1 23.813581063203014 45.042988929617444 3.7488260915649243 0 0 0
1140 1 25.41288377076058 43.46676725347831 5.1951617076505405 0 0 0
1065 1 30.719597549364963 45.24621095489835 3.6370237474984766 0 0 0
1142 1 31.940626635958907 43.346480593692384 5.192361468838362 0 0 0
369 1 1.2069060904852542 47.75106501308059 3.9491193899620507 0 0 0
468 1 3.0945884165424653 46.358366288107376 5.516045962346285 0 0 0
372 1 7.643665053685367 47.92264933310533 3.980866442891889 0 0 0
366 1 9.592681006076363 46.52506551419802 5.275798888240683 0 0 0
375 1 14.182859868299976 47.984684072412264 3.676943270319127 0 0 0
367 1 15.56369425419086 46.6244857804934 5.915377386472668 0 0 0
1068 1 20.864470560508693 48.235088274068964 4.187260502553077 0 0 0
1061 1 22.687631486914768 46.70554154991433 5.5662780050030705 0 0 0
1070 1 27.412736600043964 48.31285701540153 3.767870037840719 0 0 0
1064 1 28.87401534723682 46.62304114888215 5.211779310418391 0 0 0
376 1 5.080258861651266 50.74705037609226 3.803274904991598 0 0 0
373 1 6.627675394823626 49.50247304042496 5.687448236097448 0 0 0
379 1 11.076399114353018 50.8237834638507 3.4799277013795598 0 0 0
374 1 12.464779346072712 49.26479401023747 5.435246477597291 0 0 0
381 1 17.34805939061168 -0.18544671542982455 3.791333365408125 0 1 0
957 1 19.16885524903329 49.90419946821052 5.6887778705165495 0 0 0
1149 1 25.7396394880206 49.984142493155396 5.0105758633736786 0 0 0
1072 1 33.638418488321165 48.52736067105684 4.014720691631696 0 0 0
1071 1 31.803238741894585 49.82625306596318 5.5244783643686555 0 0 0
185 1 0.002346402587522667 1.7014933204939475 8.732606904459507 0 1 0
485 1 4.525789937802377 2.7815801256895183 6.89241910784706 0 1 0
569 1 6.03496646929705 1.207936622282885 8.689030410991819 0 1 0
481 1 8.023499236096134 0.20521362276432553 6.738903470883589 0 1 0
482 1 12.772889128052741 1.481748344943296 8.343956434718114 0 1 0
412 1 18.851489284340616 1.5265712605162987 8.324889350520845 0 1 0
1159 1 23.78387400880338 2.9509611021543445 6.9117336526457835 0 1 0
1155 1 26.98386321006645 -0.014249675088378405 7.002550598265083 0 1 0
1156 1 25.40022115936068 1.2472885005265244 8.64207592083087 0 1 0
1226 1 31.581454477069258 1.3396869906468565 8.904866537919967 0 1 0
1157 1 33.36097160023234 0.11757651236104016 6.874674212915163 0 1 0
389 1 2.9193969616335265 5.375216068376133 8.574534937430627 0 0 0
391 1 9.8426821719289 4.213190805818684 8.39840730782852 0 0 0
488 1 17.473834713350104 3.0304948143267287 6.856329484939781 0 1 0
487 1 15.903354025107987 4.282405844348939 8.423566659859587 0 0 0
1082 1 22.681541395121467 4.536491304234698 8.479038396179122 0 0 0
1160 1 30.49625918100873 3.198786173584767 7.021449205212399 0 1 0
1084 1 28.73093513869629 4.403053318396504 8.88403133676566 0 0 0
388 1 1.6377329056959768 6.84288192317717 6.8124134210351235 0 0 0
161 1 0.008348502406789193 8.285283342073484 9.059177540074954 0 0 0
390 1 8.453237094192902 6.162339841861032 6.775420371396204 0 0 0
491 1 6.867306795613814 8.077612620298707 8.318569493480862 0 0 0
392 1 14.368783864838099 6.141896152916805 6.756962050428913 0 0 0
397 1 12.798850322638614 7.991492129090071 8.300939877028034 0 0 0
1081 1 20.822855249842096 6.348450145531805 7.105402623354006 0 0 0
1144 1 19.226718339613022 7.821938480303265 8.809768333464538 0 0 0
1083 1 27.16648187068637 6.605357049923293 7.072220594034304 0 0 0
1165 1 25.416824336173548 8.129459971612473 8.803515135714742 0 0 0
1086 1 33.68550251164816 6.5988036504129175 6.908862246221056 0 0 0
1089 1 31.943519172549223 7.8616511792455395 8.864519210002692 0 0 0
401 1 2.974650861369485 11.411536710639245 8.584531483631263 0 0 0
395 1 4.490822909238756 9.680811134809922 7.040361651164726 0 0 0
396 1 11.334905058403315 9.426083633502643 6.585857148494077 0 0 0
404 1 9.777863465081145 11.246088638253742 8.165070883189886 0 0 0
398 1 17.666354192935984 9.290909398532877 7.133693930877016 0 0 0
406 1 15.993739305329335 11.236471011769114 8.635359314487587 0 0 0
1087 1 23.694081710520344 9.923030224499456 7.2552052604643364 0 0 0
1168 1 22.20057952917347 11.124266861705516 9.008951062719685 0 0 0
1170 1 28.37828028362002 11.609495611395914 8.720978995920259 0 0 0
1088 1 30.327554976814763 9.684306900372798 7.347007254412572 0 0 0
400 1 1.4524646130222323 12.7981306612148 6.827500327452881 0 0 0
403 1 7.9150172339788 13.007998156161339 6.7748260236658755 0 0 0
409 1 6.280511866226457 14.519022038078056 8.529618878113512 0 0 0
405 1 14.2371763989612 13.035442309479787 6.717766335942055 0 0 0
507 1 12.86549534180903 14.97153065437719 8.295621859791034 0 0 0
1090 1 20.760038915716812 12.727608678838823 6.859944097707711 0 0 0
1104 1 19.44468880110062 14.44426508348488 8.626065756009188 0 0 0
1095 1 25.29986424251085 14.147003566111382 8.558386421969317 0 0 0
1091 1 26.97542547070352 12.857248649747362 6.620596811795083 0 0 0
1092 1 33.52427954987131 13.093371275446563 7.003101076832901 0 0 0
1175 1 32.066677147618165 14.572307335673129 8.812032895251077 0 0 0
408 1 4.597935426765865 16.11953681914409 7.077951204960507 0 0 0
414 1 3.1203829868120376 17.74550031829582 8.605587794258229 0 0 0
417 1 9.269599703329854 17.976624659647907 8.11929660945297 0 0 0
410 1 10.886848946594359 16.227614690851894 6.826514147027949 0 0 0
411 1 17.534173918894393 16.096496183387295 7.132692652723149 0 0 0
419 1 16.088066461453256 17.83648340882316 8.660717980352233 0 0 0
1094 1 23.819571346804533 15.940728330117796 6.845223225100687 0 0 0
1099 1 22.4363105005359 17.421346300254715 8.641684463522697 0 0 0
1097 1 30.257161663257428 15.955424011529416 7.293338070174256 0 0 0
1178 1 28.68251390662185 17.49755345726845 8.952894965733904 0 0 0
413 1 1.7108601405231443 19.410193871431176 6.976209590337907 0 0 0
416 1 7.651607533210078 19.459696365434986 6.456032691915618 0 0 0
422 1 6.43166691112455 20.885163727689232 8.552734578976262 0 0 0
418 1 14.2429327985931 19.283576899330548 7.056872511174727 0 0 0
424 1 12.665947575766783 20.909105726978176 8.318903796871794 0 0 0
1098 1 20.782175072771388 19.187339746942857 6.98158648779719 0 0 0
478 1 18.98096984525823 20.456097099891014 8.614201116434302 0 0 0
1101 1 26.986620780407513 18.921048969727867 6.929894953372685 0 0 0
1182 1 25.619407805480492 20.85712399567989 8.47944435701401 0 0 0
1103 1 33.37877594857538 19.581706723944183 7.213880291143661 0 0 0
421 1 4.7984332789507285 22.4452611005843 6.970744794635158 0 0 0
523 1 9.181149097472824 24.172245983037975 8.641998097189271 0 0 0
423 1 11.021453945999772 22.97757027667606 7.052672310843739 0 0 0
525 1 15.745534220892702 23.643705413446018 8.833832026907594 0 0 0
425 1 17.351180307481233 22.332118684721475 7.21263242695426 0 0 0
1106 1 23.808248335402222 22.594830293286126 6.986133384551465 0 0 0
1108 1 30.247846919324378 22.540019530682823 6.824820473547083 0 0 0
1185 1 31.784688591730486 21.32380840171467 8.729060136447801 0 0 0
426 1 1.535169408723205 25.824198323822472 7.2361012863028344 0 0 0
427 1 3.479226120836022 24.196674667083787 8.555408047124352 0 0 0
432 1 6.204514928230268 27.130059075959 8.48917799704353 0 0 0
429 1 7.904895013913279 25.554290439038528 6.59829788231561 0 0 0
430 1 14.460762743104102 25.63925910622596 7.147935283732936 0 0 0
460 1 18.807288712793937 27.187997588780316 8.868311870839925 0 0 0
1110 1 20.39596625588062 25.721298906203124 7.090963458209349 0 0 0
1111 1 21.998790521936783 24.23295653971169 8.471929896780605 0 0 0
1112 1 26.67114509906433 26.049247383466728 7.026130029885862 0 0 0
1189 1 28.644751379679665 24.498042509924787 8.158979154940175 0 0 0
1114 1 33.4808317108911 25.834066549609577 6.966560636403807 0 0 0