LAMMPS data file via write_data, version 29 Oct 2020, timestep = 200000

4608 atoms
1 atom types

-0.2988098900425058 53.698809890040664 xlo xhi
-0.28478723368018066 51.19190723367934 ylo yhi
-0.28478723368018066 51.19190723367934 zlo zhi

Masses

1 18.015

Atoms # atomic

571 1 1.722987048194681 5.165331305792407 3.426821535229718 1 0 0
1169 1 8.946382300075758 50.51807047677069 6.365136017055686 0 -1 1
3461 1 4.96551362646872 3.815733451931221 2.6390903669417405 0 0 1
2254 1 4.672835414183016 0.6834749792064138 2.0756748799726727 -1 0 0
3832 1 0.6665806907946137 34.49261425925555 18.98420205574133 1 1 1
2894 1 13.82733617169185 50.99129953565674 3.21915453579996 1 -1 0
1654 1 3.3974718735239398 25.564962812861086 -0.2040385159278462 1 -1 1
2062 1 3.1485555961499188 4.626488446901701 0.904115990144428 0 1 0
3677 1 5.414850509744289 5.732882076753875 5.839194838045377 0 1 0
1454 1 8.987441990148957 5.544469783234919 1.2043818469736531 -1 1 0
3434 1 5.344319667125136 10.114024292072124 25.365924865667797 1 1 0
1502 1 11.894394483717809 1.6836912939718245 1.5730184400494858 0 0 0
2658 1 4.459794481227398 48.884348639654704 24.180749786237648 0 0 1
2239 1 1.2160866373381545 8.156155920316463 6.155425752457059 1 1 0
1364 1 0.14588992721192334 15.053459108082468 13.898570034088364 -1 2 -1
2366 1 6.843816197336816 6.022475986514576 3.115072593566102 1 0 1
337 1 11.106848529819123 5.359227820874308 4.8017789460287945 0 -1 1
4173 1 15.994332746526755 9.176935670802985 21.230229031350866 1 0 -1
4454 1 12.320657403037993 4.536431126447012 2.160946256769785 1 1 1
647 1 7.086579606295795 9.827517916638563 20.876089026399555 0 1 0
4022 1 4.653470578912367 12.471221369343251 1.5040755836134092 0 0 1
3021 1 8.53234157492877 6.856779050249557 5.617142166490187 0 0 0
868 1 5.122373410312439 7.943444998759313 2.0070879800473973 1 -1 0
4341 1 12.617273297667314 35.327814724404504 0.5025736156993774 1 -1 1
1301 1 6.905210250815943 26.249071096840574 0.7324089213518559 -1 0 2
4351 1 10.010697781365346 0.4394810782941342 22.581922802357447 1 0 -1
1590 1 4.294053780220028 14.578865033568498 3.1584881554107533 1 0 0
1073 1 7.8048820146832725 14.302561694210299 3.552751215625907 -1 0 -1
713 1 11.881829161938214 16.27345150144307 4.5835924908421095 0 1 0
685 1 1.856711658305933 36.421481850714414 12.892036611942904 0 -1 0
825 1 13.356433747012993 11.932600319663269 3.108064378751034 0 0 1
610 1 12.688508605554642 46.67457903844314 2.7553532445120883 0 -1 2
773 1 4.510698080614646 17.435391851695528 2.6249900551540284 1 2 1
2303 1 9.07658388190808 13.79232879140944 1.4017346798571049 1 0 1
1234 1 8.868109356291168 23.45277307067761 -0.2025143200397399 0 1 1
2683 1 0.5902752752892675 7.423302386649361 20.186329704697428 0 0 0
2477 1 7.355866525468974 16.90952620830258 4.359196490678132 0 0 0
808 1 3.2201282913196834 28.57845095907878 25.109471620920296 0 0 1
58 1 9.75008009855557 18.83936460316931 1.4859301507498281 0 1 1
4281 1 2.3383193097539356 23.590467409661628 1.6918265398180794 0 -1 0
2251 1 6.815245376583807 19.05988352427281 1.932442042098303 0 -1 0
625 1 9.078843768491984 25.19241430833023 2.18759259899237 0 1 1
4255 1 6.547606010256955 1.548169091344632 24.565290257325223 1 1 0
1032 1 0.2645175129412891 46.42065383740817 5.316973820457498 0 0 1
3046 1 1.6159604967356436 22.44725245690643 23.76356146505895 2 1 0
2280 1 8.552569051140054 24.026769457180485 4.70270912595362 1 -1 0
6 1 12.350310907142424 26.11696636522746 0.9690291905850297 0 -1 0
3583 1 11.750939154691498 40.22434281077082 0.09893141622588225 1 0 0
1394 1 1.045734022470473 11.311522637861446 20.88533625787223 0 2 -1
145 1 3.735214035890989 28.385060609269452 0.761927629378583 1 0 1
774 1 5.292412857516674 27.282945199625818 2.6901883562252467 0 0 0
2734 1 9.078976574764454 13.294609132477479 22.543898588998548 0 0 1
4100 1 9.101581243761961 28.708904089348884 4.574646716822051 1 -1 1
2838 1 17.090689457864094 32.54409184019582 0.17441746024575833 0 0 1
167 1 11.579736137640888 29.971818761914488 1.1470121634530686 -2 -1 0
255 1 14.220867074552329 29.57436685500465 1.6571594906890577 0 0 1
4356 1 0.31465191423226413 48.89611993789171 3.7098689526094297 0 0 1
4151 1 1.7117274543812382 30.328469586779875 2.6589298974891777 1 1 1
4093 1 10.573506140007513 16.60111165305862 -0.15266240306730405 1 0 1
3253 1 4.050148568018314 32.441595866972094 4.389099047461067 1 -2 0
3856 1 8.31817868363689 35.31937118495583 1.9781804670949525 0 1 1
3119 1 11.30106214543406 7.110545482273472 1.1957927591140547 1 0 0
3940 1 16.197561627308033 31.31301454395477 3.1425228425196665 0 1 1
2697 1 3.3869697500445195 -0.1938094020005081 10.954336069907185 1 1 1
3827 1 7.170490350000476 33.16746026544257 0.548429252130191 1 -1 1
3773 1 5.290271451329692 31.338904991736378 2.1258230717110624 1 0 0
865 1 10.243891120994684 36.67891485290984 0.5486552928914763 -1 -1 1
3576 1 4.659646082560645 23.539198792331504 24.619500722359486 1 0 0
1926 1 15.508638398551131 34.44627234691829 2.3065666774100255 1 0 1
4542 1 12.631613558206164 33.847479324144985 2.8833901255660064 1 0 1
1831 1 1.1465575720101184 50.28491094154751 9.241613212061083 0 1 -2
2503 1 1.3802652061923466 38.37701670058772 8.685542742038466 0 0 1
3155 1 0.8211105108741403 27.967689089981562 0.10187991761584686 1 0 0
729 1 5.632469698523653 37.13120168626939 1.3842645433798932 -1 1 0
2217 1 13.765263146041779 13.479110426284974 23.833614024264698 0 1 0
3681 1 13.075026254038946 9.767445870268698 1.044755126598739 1 0 0
2885 1 0.5937209113954542 37.171355779730504 2.8556777463537366 1 0 1
1550 1 3.8641548638455543 40.72893102585108 1.9886383935021277 0 0 0
4513 1 6.499242304156521 39.73435282741961 1.0815187425113815 1 -1 1
449 1 6.534889165769832 9.445775449021042 0.15820663853388833 0 0 1
696 1 12.81103211917986 42.059545518291955 1.9883412910832967 0 -1 1
1143 1 16.929011855361008 41.87931179486276 0.7661973411696867 0 -1 2
2069 1 14.094006176457889 26.364022261731154 25.25376820195644 0 0 -1
4264 1 0.9135635161403373 27.186387654213878 18.19560412170976 1 1 0
2278 1 8.179154392680587 34.13265258293994 24.931747422942863 -1 0 0
2 1 1.5566544737759396 27.84390030115428 6.577251817101895 0 1 0
1431 1 2.1272679702947204 5.326406442193256 21.687211655881676 0 1 0
4558 1 1.4881421527513077 42.016218934991315 0.5082594262856218 1 0 0
764 1 16.003410225248768 41.73615634118897 10.262150810959227 0 -1 0
3476 1 8.054684510418797 0.4338532025582079 1.0534689762027294 1 1 0
4058 1 10.664136216904346 50.68812399519214 0.6437121842060888 0 0 1
4203 1 13.825234974374675 44.5853700168842 1.2472950659090387 0 -1 1
4374 1 3.1015901435725755 48.052453198172614 3.2467677557731474 1 0 2
3355 1 1.2406311078131689 47.78227474977464 15.68403165994539 2 0 0
3987 1 2.4803248875965713 42.68989556445152 9.732091361746134 0 0 0
4102 1 1.7958847671979568 45.38589103846408 10.249859783054259 1 -1 1
2870 1 5.406642748832511 1.5193720049331776 6.7620979393014204 1 1 0
3452 1 6.822896104844332 2.7931709205762267 4.950581060929646 2 0 0
593 1 9.038546353584806 49.26365184345897 9.238467491589466 0 -1 0
2393 1 10.855131998032297 1.527584691138859 4.15052792110952 1 2 -1
1389 1 16.50488370986215 23.250489490891738 0.7049086625696745 0 0 1
3282 1 8.40331370548036 4.582686639505366 8.655588932815284 1 1 1
4168 1 9.368349783060301 3.444910789365745 6.191227342409435 3 2 2
2029 1 13.00969234177753 3.5329309565469065 5.640695681617635 0 1 0
723 1 0.7201492570165906 3.3706692779367007 7.226283096451931 0 0 1
3692 1 3.1743277644654078 7.059017041447467 4.8026742030965766 1 2 -1
2814 1 6.528596638172281 6.758985916742578 8.19261410377486 0 0 1
615 1 5.42613906630709 10.416267298669712 3.463915325096856 1 0 -1
1435 1 9.590140184465024 9.782286758606238 4.776256171562278 -1 0 1
1109 1 15.155801247371492 4.50529829053075 3.75066511526419 1 1 0
1893 1 10.870154875402227 9.850763192330858 7.411081420639596 1 -1 0
2048 1 16.671663021098972 7.060745891473473 3.9980102429134794 0 0 -1
2085 1 2.4528095171655218 16.00722092163028 6.469217259088485 0 1 0
3810 1 2.1627261439833387 13.645116309175252 4.976534145767894 1 0 1
3684 1 3.7909768063212406 11.397193033525518 5.369000641248352 0 0 0
553 1 11.49612675108091 13.941641154520065 2.8980589449584544 0 0 1
3822 1 15.097581651292934 8.60126443819245 5.906708179363101 1 0 1
892 1 5.682445291980126 12.88869867935694 7.10053537182684 1 0 1
3416 1 9.48277009733942 12.65049561080527 4.9452338088566075 1 0 0
4554 1 14.209386018111406 17.137215816203277 4.041935645509042 1 1 0
4256 1 14.977143275155694 11.417664472384637 5.359728283390143 0 -1 1
4331 1 0.31321724376770455 2.235285644364531 18.168232969054195 1 0 -1
3306 1 5.450079797266144 15.492479544472019 5.872012008172449 1 1 0
1253 1 9.924090095647927 18.157144195643845 4.292453468751697 0 0 0
1510 1 6.316005722176677 19.37689812340092 5.041802886456031 0 0 1
2111 1 13.031710828893777 19.42726171423269 4.190127505852866 -1 0 0
4512 1 11.771951757924693 16.687257088919548 8.58994339393406 1 0 1
1509 1 13.836126811183012 38.22370597738323 0.04192708226647174 -1 0 0
2214 1 2.7293861707793736 19.797730903651175 3.2865135501851066 1 0 0
199 1 6.671384021320371 22.0085655380288 7.173148757200604 0 0 1
1277 1 5.854311598720225 22.057979141765152 1.9293758020383054 -1 0 1
1640 1 8.695161276006049 20.943246294902885 5.24519220575035 1 0 0
362 1 9.11657964263569 21.711863827393447 2.2076730702521936 1 -1 0
745 1 16.819671807055485 19.945743006001145 2.203124237779534 0 0 1
3705 1 17.138768330718612 47.57053710333419 1.3302888804132844 1 -1 0
475 1 0.9051523673069444 20.251647996125108 10.929423392131389 0 0 0
1270 1 3.754578596775766 21.96885603505006 5.259539727557648 0 0 1
1120 1 11.20138584650114 23.008523447896938 6.454187122208892 0 0 0
747 1 11.3318360780807 23.25513873265306 3.5743737908050885 -1 0 -1
639 1 13.842769390959901 23.996476187268257 2.6333604312565257 0 1 0
1412 1 14.928132371788074 21.53007082454071 3.4810952954439336 0 0 0
3791 1 0.36536370537982477 25.10487665447434 4.03716145147381 0 0 0
3281 1 5.746342113478793 23.677107912004224 4.354074459011857 1 1 1
380 1 8.74975460319706 26.07993132246238 6.792343881172162 0 0 1
3515 1 12.94243016810209 26.845874002591803 8.153192366619713 0 1 0
4360 1 13.385924970119305 24.324144193828108 7.481570224986661 1 0 1
1542 1 0.1268856855169483 24.581918042705514 8.268280704976554 1 0 0
883 1 14.30505496824629 27.246364068014877 3.190015310283795 0 1 1
3178 1 12.282601995702617 16.193368974950026 21.579938252557195 1 0 0
3315 1 3.6703983415361754 25.41084355999786 3.935979529414123 1 0 1
3141 1 6.325764941700122 28.16809917375047 5.02179701998646 2 1 0
967 1 9.878253776628876 27.80590518693063 1.7341540354448606 0 -1 0
2403 1 15.747139948654766 29.45048715496191 9.881638181737722 1 -1 0
2639 1 2.110873088434483 30.371298254645414 5.524418833141468 1 1 1
3006 1 7.1724351476144435 31.99961786028778 5.953388459411171 0 1 1
3418 1 13.223802166944333 30.04532184169998 4.832013341879424 1 0 0
1554 1 10.016867502654632 32.5056940940909 2.4328825874382853 0 1 0
31 1 1.4633825500073476 33.950832748082945 6.295818435932051 1 0 0
4372 1 2.550514513839119 34.6362143806268 3.3731324645454794 0 -1 1
1187 1 5.966940378483804 34.511832201201315 5.4767006815326535 0 1 1
236 1 13.963377646232628 32.64256656296621 4.808335997822769 -1 0 0
2682 1 -0.21275135240510515 39.186345067342884 12.517434356598228 0 0 1
4451 1 17.04457644419866 14.94449442404438 24.656387586993592 -1 -1 0
2005 1 4.679212351697205 36.45061601357982 3.843044050940021 1 0 0
2552 1 9.326137354673516 39.62220077053763 2.1434468897930237 0 -1 0
481 1 11.91239157056738 38.0262348119918 2.7725396627330547 -1 0 0
3631 1 11.232982692464164 36.219246553748036 4.310274137413282 0 0 -1
442 1 15.49021622109603 37.84878581852955 5.709381481109987 0 0 1
2222 1 13.081517302422892 2.366656115704057 25.055643819851138 0 0 0
1835 1 13.864494617340936 39.78640862987494 3.821339471368618 1 0 1
3247 1 15.896490326027838 39.48506019480361 1.6539832227292905 1 1 0
1009 1 17.310002623251556 31.745209518964348 21.26823205508186 0 0 0
1490 1 0.7457922664401686 44.02241740962023 2.2421020486566636 0 -1 1
3057 1 6.808893501515063 44.985902165494636 5.818412096422772 -1 0 0
744 1 9.57746010242171 45.691006177911575 5.83979959367029 0 -1 0
143 1 7.074327820747432 42.07564226555628 5.888004389740658 -1 -1 0
3538 1 8.792500136804852 42.24669657415237 3.222121705137247 0 -1 1
2350 1 2.916712182552888 45.65808362069282 5.1211899603358875 1 0 0
1744 1 5.439078348758492 45.34257640712697 3.6686976031805987 2 -1 1
2551 1 10.630121682712991 44.26266983806204 2.500717859121728 1 0 1
2469 1 11.469514648932869 49.11764969772116 2.7035886593864857 0 0 0
799 1 5.938309607664017 49.72705288381039 6.175989746085082 -1 -1 1
2681 1 1.771831461565446 51.14001671802083 2.242449433923472 1 0 1
1207 1 6.753363648591934 47.527242299816095 2.3026751512310244 1 0 1
4455 1 9.064593586651464 48.18804538369332 3.994986132008691 2 0 1
4068 1 6.613604753019698 48.46108830707617 10.376793270153776 1 1 0
914 1 8.371446807892303 0.389965463878408 3.825367580418492 0 0 1
4569 1 15.450606700923231 2.5902127960211083 6.868093571769471 1 1 0
3427 1 16.415843955750685 48.42265152003634 5.653836735767184 1 0 0
4576 1 1.9945888772690448 36.91651637871486 16.18324561767459 1 0 -1
1198 1 0.6086708446552397 12.0352816471201 8.276700837423505 1 0 0
2722 1 8.548421159742611 0.7943311777417392 8.451947623079967 0 1 -1
1828 1 12.95663498868813 0.9000339726558384 7.857369743932434 0 1 0
175 1 11.130837434319243 50.25867461695418 11.203977932528439 -1 0 0
1941 1 13.031893032477315 48.074990496790036 11.944309024761878 1 0 1
3077 1 13.921819666934871 50.239133968397496 9.815792698361786 0 -1 0
2856 1 15.82180243524704 4.354498418795236 9.31643130680611 0 0 0
3852 1 2.650750527064417 3.871468803662588 9.163260922697924 1 1 0
3002 1 4.935723867900239 6.990277090308058 10.773019784068886 0 0 0
4270 1 5.620650695258333 3.569607378834881 8.980609641996788 1 1 0
3878 1 10.80191104604098 2.6025617268445123 9.160143567399407 1 1 1
2614 1 13.20998059818932 4.290335695746824 10.130314261674682 1 1 1
214 1 2.7137438569496815 9.998666331336446 7.771300490268695 -1 1 -1
5 1 6.848095472256592 9.72721958450854 5.428181888195117 0 0 0
2181 1 10.483092630647935 7.213805708780813 7.8660451834417895 1 0 0
239 1 13.290051365098181 6.281847365408566 7.329395619044224 -1 1 -1
2715 1 -0.20374963088296266 31.7929621973549 5.148997949377073 -1 0 1
1750 1 1.1916505397625972 14.718736370310891 8.803529569577684 1 2 0
4327 1 3.715971665919917 12.627037120668026 9.410647633315174 0 1 1
2571 1 4.875170541474994 14.317996040446374 11.313408398156087 0 0 1
3470 1 13.48019272231699 10.281930043752302 7.903432603905488 1 1 1
3362 1 9.697210838247328 19.16343189752678 7.263625388235191 0 1 0
1337 1 8.487470970353568 13.855762338809829 7.50956097086268 1 0 1
2651 1 11.181830641064495 14.700257878469854 6.6744443092665655 1 0 1
3266 1 14.932634229182252 13.20406695809944 7.5193243903379665 0 0 0
1308 1 7.087527524466435 26.854021028017563 24.927099715188504 0 0 0
3519 1 1.1799702142643735 30.504714250281474 8.425508280039978 1 -1 0
3895 1 1.488542194692175 18.480326781423273 5.630849750486862 1 1 1
2679 1 10.465699038950659 17.66713924374984 11.000925517677684 1 1 1
1448 1 0.3097006404963264 22.23295128346569 0.5970244114022693 1 0 1
1862 1 14.630156414214287 13.553858991876023 0.7300548092738581 1 0 0
371 1 7.8632406616234345 30.893608931161562 3.4529945459023494 0 0 -1
1366 1 4.069652339680186 19.701419345705958 6.844890907351848 0 0 0
2879 1 4.437799521420428 21.610115729183388 9.098320939047609 0 0 1
1495 1 11.6415513476617 20.82779638662306 8.178862508836032 -1 1 0
2888 1 14.140058849234585 20.14894337990575 6.9336928378395095 0 0 1
1856 1 14.359577468010478 20.333910504029824 10.213644462197383 0 0 0
1283 1 8.656835567173621 23.724885524602993 8.039201971733075 0 0 1
1335 1 11.530217323677833 23.295221817955866 9.917148853037574 0 0 2
3277 1 16.84919200959376 21.60561616817651 6.805026235800227 0 0 0
1261 1 1.6287697841735456 23.62167974337831 6.15056627704015 0 0 1
4393 1 6.018692838286271 27.103833784018626 7.5922804344107 0 0 1
4506 1 10.752366299673486 26.28088883513063 11.613437248725058 1 0 1
2017 1 13.343205089209405 27.131712084874824 10.879262776222829 -1 0 -1
4213 1 14.638839182556154 23.197894232958642 9.663217742146227 1 0 1
979 1 14.831848576977139 25.215120752071122 5.533702493972617 -1 1 1
4300 1 3.0821265534142763 27.228504505418783 10.71766595215167 1 0 0
3354 1 3.454534241159788 25.875964744696454 7.024725615115031 -1 0 1
3934 1 10.615220357558293 28.0480320083727 7.874014307586808 1 -1 1
4470 1 14.874598527527844 28.258571041483687 6.545695368056326 0 0 0
1736 1 14.259825836005122 29.173280323309196 12.442748401332096 0 0 0
3003 1 17.229421296978032 25.08499475424672 11.935157475534544 1 -1 0
1312 1 5.060956351971086 30.140495455874916 6.192307661659084 0 0 0
3435 1 1.6059596195342623 30.946534431771155 12.334946956908212 1 0 0
1713 1 7.384911888976897 31.143338330219 9.506421905905375 -1 0 0
2302 1 9.385489047615554 32.241975089502674 7.266607085905597 -1 -1 1
1858 1 10.899188950974551 30.11138476314781 6.097997637192951 -1 -1 -1
1094 1 15.524021919228902 32.903439564782786 7.247359423641645 0 1 1
3197 1 3.0743222262392758 33.65760692885026 8.364089969259993 1 -1 1
3024 1 5.373503972277656 35.53484849940236 8.146788746016965 0 1 1
272 1 7.207555054074523 33.695992119611574 10.836333797617137 0 0 -1
3673 1 9.866796326566567 35.10006008634997 7.153375650747063 1 1 1
2916 1 13.626442559819953 35.75076739021573 5.78770991618092 -1 -1 1
4184 1 0.23103943377599023 5.9787895703863185 7.298969822943805 1 1 1
2505 1 1.348092071854259 35.60146104796236 10.105187596143743 0 0 -1
3390 1 7.2397894423716 38.62491105630744 4.367711508772076 0 -1 -1
61 1 8.32340484936417 35.80732805645425 4.903191035295487 -1 -1 0
3148 1 15.399705647011434 36.78833100139977 8.617472171693553 0 0 1
2457 1 14.673289937943538 40.964768165779134 6.081137334828467 0 -1 0
2823 1 0.5290786407706167 47.9748510329087 24.880358072084302 1 -1 0
2760 1 3.6346981781727647 39.45097781266777 10.589109220956383 0 -1 0
2778 1 5.26042965375556 40.69456803391486 4.3908610882418 -1 0 1
2009 1 8.953915900376444 39.92260154254481 6.273182326437084 1 0 0
522 1 11.181131236629788 40.86300582456931 4.619978882875047 0 0 0
2617 1 12.690704476033353 37.2032575200716 7.90533107959701 0 1 1
4435 1 12.555047970894389 39.76074431062679 7.64115044920562 0 -1 0
179 1 3.7905877220804642 38.73219843585184 5.732471931776763 0 0 0
1118 1 8.100155723141318 42.56194601012071 8.605488020383198 -1 -1 1
397 1 14.290005079691348 43.81087716629105 5.827661673501951 -1 0 0
409 1 14.933117289881004 43.41934656000929 12.560071284842772 0 0 1
3824 1 6.1399525463976365 42.850458206424264 2.254522245888293 0 0 0
1016 1 6.238941001302981 47.329461732452145 7.486016151570686 1 -1 0
4373 1 10.843342619569714 46.84735736903751 8.051247119102062 1 0 1
1728 1 3.459040683420993 46.49946189104858 7.787377202013493 0 0 1
1052 1 11.546513748699619 43.65172842679475 5.5739193674550735 0 0 1
464 1 14.093527354267472 46.86570524291031 5.239968059529347 -1 -1 0
975 1 16.823502146925815 44.46951801020691 4.839784280357551 0 -1 1
278 1 17.19413597900148 37.22278279801235 2.5427333944020902 -1 0 -1
4477 1 5.387898819292239 51.13379383012631 9.15918068331078 1 -1 1
654 1 3.201848877380017 49.35974298295089 7.795227837783836 0 -1 1
1122 1 11.785527023630888 50.78124958061987 5.899509849386907 -1 0 1
846 1 12.700947229240992 48.37970535082921 7.010536432281567 1 0 1
1306 1 15.329934316387117 48.48483545639151 8.297571918400074 1 0 2
3518 1 2.78614066706893 38.0690293688195 1.389179098706628 1 0 -1
2835 1 17.426278547938185 16.196126704509965 7.528465995094705 0 1 0
3923 1 2.554606702795969 2.4893759812425973 11.546142819133209 0 0 0
1530 1 3.5921855796202187 3.7376224764123966 5.8111059137490155 0 1 0
1587 1 11.955133516815435 0.9425696227249438 12.541233357420413 0 0 0
3344 1 15.004763524031063 16.53016800584266 11.390096305948044 1 1 -1
627 1 -0.09744726254364172 10.567987278659368 2.142369280551501 0 0 0
1493 1 6.138078790299554 6.17805852567034 13.04787220404333 0 0 0
3566 1 15.492982136822471 6.982360331901356 14.835644991479995 0 0 0
638 1 2.0207462353758503 8.908627391841797 11.476162998311601 -1 1 0
4089 1 3.1153945785648642 46.200484643986115 1.0506465804698562 1 -1 1
103 1 8.584106635875884 8.172166888256003 9.975716790372386 0 0 0
446 1 12.603662410688452 6.9530625486735405 10.37523267574369 0 -1 1
580 1 9.987225617751267 5.983106874637688 14.392953315333779 -1 1 0
2299 1 -0.257788493482309 46.49433767822599 8.117592618102902 0 0 0
4223 1 0.5371887027554556 19.811162674723136 16.43668619870404 1 1 0
2198 1 6.375278018278518 9.974658760398077 8.142488072282847 -1 0 0
3502 1 7.271960129409719 13.290663450426125 12.564245113625107 1 1 -1
4260 1 9.58705538926401 14.259008489074738 10.569056954570263 1 0 1
3051 1 10.580440627323146 11.542409683758528 11.27240976970125 0 2 0
4163 1 8.825111780734906 11.446810214526923 9.01727589077738 1 0 1
3395 1 14.246484881905358 9.055259175862002 10.14955103276485 1 -1 0
3653 1 16.481268479532993 28.667152073118604 17.939038142347915 0 1 0
184 1 2.3442014598569405 33.728054006135 0.38515385315827666 0 0 0
2415 1 2.8576244493961327 14.382002059651255 13.466917219659342 1 0 0
3026 1 3.415125950317452 18.594653688357344 9.849917349312747 0 -1 0
1871 1 7.459691556344819 16.200699848945405 10.85403935568 0 1 0
787 1 12.46833467266186 15.268207603762315 11.063985249765379 0 0 -1
1783 1 15.727368647051232 17.529565951660658 13.959169982804402 0 0 0
2999 1 17.116460800233863 12.52357467219139 9.159956489384042 1 0 0
605 1 15.623932494525226 13.508251523322583 11.362011136079314 0 -1 0
4472 1 2.4409355400105226 16.028467304912805 10.810552592315554 1 -1 0
1452 1 4.572797924218644 18.765882954016913 12.533750705858244 0 1 1
1751 1 14.4988498653007 17.804651370510815 8.734085152898645 1 -1 0
472 1 15.047398118437599 15.69502728672445 6.72224758246266 0 0 1
3065 1 5.505008404223648 17.615490327629477 7.943113847447629 1 0 0
2943 1 8.023463328653275 18.614088188272103 9.353861758438633 1 0 1
3608 1 8.080076042615936 21.870321347988142 13.056898349086032 1 0 -1
4401 1 9.470533885020206 21.155865226001186 10.805707546400551 0 1 0
2637 1 10.095783440005523 50.113220526475075 24.57464808895766 -1 0 0
4469 1 15.014210340657582 4.490602917920418 0.9292818197534778 1 0 0
2063 1 1.6094671239842817 41.502522719168226 15.209831213785682 1 -1 0
2097 1 1.7786942166026005 22.537292621034553 9.520586260072376 0 -1 -1
2168 1 0.7810772660180492 17.68202513784513 12.477454866420006 1 1 0
2815 1 5.661710781449386 21.417779281068196 11.749116429379514 0 0 1
2739 1 11.797670930526941 22.505192039071183 12.976750496394118 1 0 1
242 1 11.749641736099123 20.06836633718993 11.746465546057582 -1 0 -2
3459 1 16.08413472681117 20.22116670795219 12.312440231222736 0 1 1
897 1 3.7604437932737023 17.506170264795724 0.004349539539525882 0 0 1
2657 1 8.456436000894545 24.156791688923953 10.935590789967149 0 0 0
3286 1 9.615654940433307 24.172590189348142 14.114049592288593 0 1 0
3736 1 14.005862570521646 24.47145122204239 12.237998321654375 0 -1 1
1309 1 6.10438294264006 28.422170369156216 12.298718666448451 0 2 1
2705 1 4.163102257147301 24.735720651825684 9.685228654092755 0 0 0
1213 1 6.700384287295543 26.43247786582109 10.453102001358186 1 1 0
27 1 4.996273397731553 29.379053484065764 9.344210531294477 1 0 0
2196 1 10.457486783431968 28.957757588102464 10.577514162941645 0 1 1
1498 1 11.489702105120132 31.07588690021833 9.540964633479245 -1 0 -1
221 1 11.160757069593155 33.61723235006596 11.271769389785037 -1 -1 1
499 1 13.775797491398835 30.922439199761882 7.953471982880021 0 0 0
2913 1 16.07927167991691 33.52221548785252 13.498531825821273 0 -1 0
1567 1 4.850863138142115 1.024978356478592 22.09150636475045 0 1 0
687 1 5.5284045980961185 37.64359210038246 13.07725899351565 0 0 0
3572 1 8.386280531772575 36.7688566401857 13.27901992081402 1 -1 0
2794 1 7.549768310787646 37.85196038318958 15.573116507644984 -1 1 1
3120 1 15.178414195899549 37.600844918892705 11.572025633908943 1 -1 0
3660 1 11.211030826088072 25.96788652715712 25.207172991083688 1 -1 -1
1903 1 4.784932361299256 38.20226362687433 8.497980580565518 2 0 1
320 1 11.024912884483536 36.07931152328186 10.044745860865596 1 1 1
3955 1 8.083712610164776 36.36962399282605 9.420451136380759 0 -1 1
3534 1 1.7205539389669915 41.32848342426941 12.334181657715378 0 0 1
4159 1 7.347815167590501 38.735003743812 8.412947047047403 1 1 1
3582 1 5.7300259426356215 40.35867647134319 12.092226742271391 0 0 0
4063 1 7.950289751328658 40.59072236417032 10.52185191308888 1 -1 0
1287 1 9.878237833457812 38.171381586525854 11.323089668561122 -1 0 1
2645 1 14.147593280666696 39.65353446730741 10.203788633008775 1 -1 1
455 1 4.669105007063719 45.54760531104955 11.046521318875769 0 -2 0
1050 1 6.816986939348814 45.148679997662086 9.646365096276398 -1 0 1
3053 1 10.743279310489891 42.15932122550544 7.910908708477171 0 0 0
2314 1 12.667673930129684 42.278045643719736 10.394741705083646 0 -1 1
1850 1 11.905046473133838 43.44111207620226 13.37078850223435 0 0 0
3842 1 3.6191229334556527 48.2386246656756 10.939072522378833 1 0 0
4050 1 1.325264507968271 47.60334094950328 12.736602172880914 1 -2 1
4135 1 4.952559479577685 47.71629482904699 13.564972370067437 1 0 1
4167 1 6.954723127533586 49.899065219049746 12.649029041153035 1 0 0
3339 1 8.602155508497763 46.56616510595177 11.46083491289587 -1 -1 0
8 1 15.545594167578942 46.088721639790634 12.427683193636378 0 -1 -2
594 1 12.437610921529302 44.83818130667345 9.086695391588536 -1 -2 0
1884 1 13.856535299747387 13.221904848673912 21.151579226758013 0 1 0
2423 1 5.060115658565715 1.68896594740166 13.719566445585823 1 1 1
2830 1 7.349963148562618 0.5591899402288926 11.094676875661824 0 1 0
2080 1 6.4526436373420335 3.5377859922378585 11.606006918694193 1 1 0
1033 1 14.642653936952012 1.9860762383028137 12.649574322454752 0 2 0
817 1 15.652004379642998 50.733965044843515 11.914661825915145 0 0 0
2246 1 16.2527237763084 40.02915827577527 18.3081519453186 0 0 0
1451 1 3.587814240870493 50.61868336936787 18.337386760297225 0 0 1
3513 1 11.080337221727337 0.4182774525558741 17.40931657045279 1 1 -1
1257 1 15.093376985072872 2.242011280658352 15.401479909519372 0 0 0
1840 1 16.80059576977344 1.7989637810423122 10.38197043422921 -1 2 0
514 1 9.614817859714938 15.658956401259022 23.712583681632186 -1 0 -1
2858 1 17.67296622760455 12.66942078936002 4.570896852506211 1 2 1
3664 1 9.543592754203116 2.3707175663028757 11.803865075721992 2 0 1
3820 1 10.032506528550272 3.0402357167031795 14.397358532618567 2 1 0
2381 1 12.242669690506919 2.360499253555026 16.04859145026145 1 0 0
3992 1 14.340936761254516 5.0612848901856955 16.19158391610595 0 0 1
80 1 6.285082444014536 2.6256978318228175 0.5102654217272423 1 2 0
1446 1 2.2736024335076865 5.804809527322758 14.508796498130673 1 0 2
606 1 4.631103709001365 3.925685364710156 15.15349988348645 1 0 -1
142 1 4.682114627366879 10.0407665176319 10.311315834500991 0 0 0
4209 1 8.800669461624059 5.902144814030634 11.577581790274346 0 0 1
4404 1 3.9169418763536497 8.222008349764282 13.359350025289617 -1 2 0
2250 1 13.537290742881453 10.724577823626193 12.135058717175298 1 1 -1
859 1 9.523657334864428 9.596716853685766 22.269283972412634 0 1 0
1822 1 1.2481995565510247 4.853972059085583 24.225182281793423 0 2 1
3665 1 1.4721849641723739 43.04083206861536 19.054712799078988 2 0 1
3028 1 3.619146216136823 11.53102811982493 14.59019405921428 0 1 1
526 1 6.73283895308011 8.729151075722198 15.132176942181795 0 1 -1
257 1 8.57314416756521 9.3760277135128 12.865757102077465 0 1 0
2318 1 11.216481138878931 7.90411344980663 12.994168687006924 0 1 0
2116 1 13.075334541827266 12.686385801768385 9.837339057184183 0 1 0
950 1 5.736935684369469 10.787449718744078 12.626550137060729 -1 0 1
3037 1 6.77471906597812 17.43406188812192 13.262623650868195 1 0 0
3759 1 10.432065155714609 14.70662238033367 16.0055697173594 0 -1 0
2899 1 13.937012324810016 13.576073462793815 13.874392647282876 0 0 1
3685 1 9.873764674508077 23.255770906269806 24.138847672243884 1 0 -1
413 1 2.1195932246520224 17.91084561036267 15.256234666731288 0 -1 0
1773 1 8.457094105681888 19.601693268318446 14.520487699537867 0 -1 2
2619 1 11.847077944078787 16.090216359246906 13.870617689661499 0 1 2
3636 1 0.28530235068675724 45.2430559986436 17.349468087459794 2 -1 1
3794 1 16.67815794780633 34.7131051583487 22.376872728198464 0 1 0
4261 1 1.6678769595147391 19.366216915931336 21.06364722637338 1 1 -1
1793 1 1.108510981838158 17.726736220252338 18.77712938039309 0 0 -1
223 1 3.6196920762296223 19.32710329209149 18.285678111933684 0 -1 1
636 1 8.512682429650747 20.3435521962021 17.47098828243205 0 0 -1
3447 1 11.156190771172925 19.024497047303246 14.208518535679975 -1 -1 1
2599 1 2.0944144104569444 26.38231740399967 13.249643610381804 1 1 1
1299 1 4.361942151589448 23.630861435593676 12.650778916360773 0 1 1
724 1 4.454930652015887 21.97947027688071 15.027618328082692 0 1 0
385 1 13.34956999298255 24.730410087742637 16.449746610337833 0 0 0
2700 1 12.925741238083974 22.23783937781574 15.509748067342574 1 0 0
1342 1 1.0204871855037154 23.174288633596603 12.460515082876666 1 0 1
856 1 4.336619787534327 26.27269765296833 15.052747899238057 0 1 1
3522 1 6.602032569652487 25.266648503279637 13.346913716712859 1 1 0
1340 1 11.553966787653696 26.54658684336349 14.714724458081076 0 1 0
3299 1 15.794031279562443 25.64985025198947 14.43914708109233 0 2 0
1139 1 16.421712839713038 39.54642164548602 8.278816875778128 -1 0 1
3128 1 16.267240812146557 23.3357196295532 16.762014523660554 1 1 0
1247 1 17.331815143809788 50.853058174290496 1.2682045627488114 0 -1 1
1824 1 3.675826690012956 29.257981030696147 14.289350023181795 0 0 0
590 1 9.417635378863267 31.095770608146836 14.05452267411092 1 0 0