LAMMPS data file via write_data, version 29 Oct 2020, timestep = 0

9216 atoms
1 atom types

-0.11708829057717551 104.71000837055357 xlo xhi
-0.18070875316627166 51.29598571419325 ylo yhi
-0.18070875316627166 51.29598571419325 zlo zhi

Masses

1 18.015

Atoms # atomic

5 1 1.9924283178395465 1.550989171338881 1.3937016871552637 0 0 0
3 1 3.4801093262001443 50.95803997408473 3.4342891565372913 0 -1 0
2 1 0.23522715035379754 3.213728378279313 3.2434744621598144 0 0 0
913 1 0.10025491684022306 37.90846248761612 25.322927717407943 0 0 0
13 1 8.275208709719596 1.149327636042405 1.6909113042576087 0 0 0
21 1 14.330198628439653 1.2832459257334599 1.2902529460866623 0 0 0
18 1 12.761346117912337 2.8787103946883965 3.018146124759643 0 0 0
19 1 15.833040359941515 50.74962253166969 3.000955033744271 0 -1 0
8 1 4.877210753936523 4.4649653969542795 1.5617821029942638 0 0 0
674 1 0.018972537416645896 28.745078361022248 22.150134427537488 0 0 0
16 1 11.424180623910182 4.273896296110013 1.1592693063965955 0 0 0
24 1 17.77307934053038 4.260010122001296 1.3468616957613369 0 0 0
505 1 0.07308767576428105 31.84482807327706 12.683437367114701 0 0 0
29 1 1.5386286838658307 7.997306246119361 1.7036973269862712 0 0 0
956 1 15.904712808479324 47.502359538079915 25.35148753223691 0 0 0
37 1 8.202818227251543 7.796786938398491 1.424026167601366 0 0 0
35 1 9.871085568348914 5.665521368011619 2.6844604651890474 0 0 0
45 1 14.790086989479967 7.696713681291349 1.5093169566767852 0 0 0
43 1 16.41980559387764 5.940313381892051 3.0177519010784746 0 0 0
801 1 6.336488224889102 6.448344513163566 25.288656056811714 0 0 0
578 1 -0.06249727133419011 3.4755699183286426 22.143763794634907 0 0 0
32 1 4.370519714248148 11.000236762161574 1.6678711468707486 0 0 0
458 1 -0.05564191814656528 22.031978095499188 16.009538504823485 0 0 0
40 1 11.2369679151895 10.941719732203131 1.4232478319080037 0 0 0
42 1 12.932469445491625 9.293393094180313 3.0586444716496692 0 0 0
929 1 12.718666556086431 38.606729491277505 25.380874526129166 0 0 0
48 1 17.670762655948735 10.973141544816494 1.5002843887790782 0 0 0
122 1 -0.08597785245762027 35.180199111279805 2.7381652127715705 0 0 0
53 1 1.6060508038505275 14.023136898001493 1.3142432048613475 0 0 0
51 1 2.7587389367150776 12.532674232282085 3.368209753582756 0 0 0
61 1 7.955018370937799 14.206187228796427 1.5022301764552386 0 0 0
59 1 9.784392501071947 12.544716506126282 3.2010897131907616 0 0 0
746 1 0.3219966944636569 48.11248714094937 22.71578098186433 0 0 0
69 1 14.252938482346178 14.62817756791468 1.273232228518734 0 0 0
67 1 15.95801534893166 12.675027576497499 2.803036151796684 0 0 0
56 1 4.907003432144971 17.72497546584776 1.5599002084963824 0 0 0
64 1 11.175091350008767 17.539143578008066 1.7182980445625982 0 0 0
385 1 0.15762251352800677 -0.03801202543336103 12.693229771769161 0 0 0
72 1 17.63545603697922 17.30079026852803 1.3324307652606275 0 0 0
77 1 1.6486496932541146 20.478647616370026 1.225730573468208 0 0 0
766 1 14.177330076475915 49.05926844120013 23.65946206382675 0 0 0
75 1 3.074001539522286 19.19690514774644 3.312028227013959 0 0 0
85 1 7.664295820633532 20.693689999975454 1.9622861320087557 0 0 0
83 1 9.842484070915933 19.328185229482784 3.0384903605028026 0 0 0
93 1 14.348727312248156 21.23086823814741 1.5119969976218368 0 0 0
290 1 -0.07611197615359877 28.488625559418423 9.341475406595507 0 0 0
80 1 4.56030525338337 23.92478841532384 1.4446788206875907 0 0 0
82 1 6.111801200237204 22.574072402271447 3.349837588898191 0 0 0
833 1 12.321053707690606 12.64079872161906 25.302475273398493 0 0 0
88 1 11.124396220426632 24.17262201097133 1.5384206270840861 0 0 0
96 1 17.77295185462267 23.82307438197588 1.5869689554826485 0 0 0
33 1 6.507321485834548 6.052811249459331 0.18752614613942625 0 0 0
99 1 3.0236705183860706 25.679297179890877 2.8404396358985116 0 0 0
107 1 9.332620073022612 25.56560996594959 2.971729241440272 0 0 0
117 1 14.684468002025609 27.486592730535275 1.7785190169254759 0 0 0
948 1 9.257651034311305 47.7139770586907 25.122531430642365 0 0 0
101 1 1.0095262213350957 26.83395011901391 1.3611115449758502 0 0 0
104 1 4.397295141007292 29.967812340150857 1.088299797928123 0 0 0
109 1 7.835031878053181 27.20807001557544 1.333907113598484 0 0 0
123 1 3.506426676663425 31.74407699782418 2.590668507673499 0 0 0
131 1 9.404584085826292 31.738749859956027 2.936125777498072 0 0 0
112 1 11.22679067869041 30.337923081558017 1.7877963821048795 0 0 0
120 1 17.44012413190183 30.331561133510643 1.5184812371517504 0 0 0
139 1 15.74544041571972 31.93363067653424 3.0113529958103 0 0 0
180 1 9.277056106569027 47.45192266192659 0.06919335985348843 0 0 0
125 1 1.8068743916863137 33.75446481879284 1.1278593256616265 0 0 0
130 1 6.220855963358016 35.35454385054389 3.1078261948643116 0 0 0
133 1 7.723778854736246 33.65870221242511 1.2633220495335817 0 0 0
138 1 12.459561945292908 35.190813114387794 3.103476362195253 0 0 0
141 1 14.105695686015661 33.62831626137745 1.600456126788651 0 0 0
28 1 2.9140896797127622 9.449629344053024 -0.06313079666264958 0 0 0
147 1 3.10627295186956 38.659576887055906 3.251083215250887 0 0 0
128 1 4.538595897150171 37.138936507062766 1.5661340615110775 0 0 0
155 1 9.14628306819646 38.19582030774234 2.768840586568821 0 0 0
780 1 9.452810498115914 3.190235536185172 25.105493824983125 0 0 0
136 1 11.152477279441936 36.69685894166169 1.311793316288887 0 0 0
722 1 0.04048679242363726 41.487489728148105 22.599119650965108 0 0 0
163 1 15.771491374418133 38.27359152259953 3.1077401572909418 0 0 0
144 1 17.3228889000586 36.7723155413446 1.5092618599446181 0 0 0
149 1 1.187562996027678 39.832697449553365 1.7848111595054992 0 0 0
157 1 7.867188847567229 40.115751729382794 1.1898293167998952 0 0 0
162 1 12.61281038994411 41.287034275351445 2.867230567631874 0 0 0
165 1 14.104299933466509 39.885237885704726 1.3335290793168115 0 0 0
482 1 0.3137718941050995 28.66113257204183 15.790549178493075 0 0 0
673 1 0.14782468069763355 25.352794534574624 19.19748479023892 0 0 0
152 1 4.4077438280866605 42.83492892738913 1.388046304079143 0 0 0
179 1 9.091820927868486 44.1558517465174 2.959634182533128 0 0 0
160 1 10.75136808298564 42.68923704593554 1.4275685119517532 0 0 0
187 1 15.91776715844361 44.46704213754762 3.0035934646140823 0 0 0
168 1 16.89279967003822 43.28937753168995 0.9128692141255634 0 0 0
173 1 1.982976385161653 45.68848267084739 1.286322403879144 0 0 0
1537 1 18.82255889457369 50.72841486561185 0.14698114696793935 0 -1 0
181 1 7.455278789976495 45.51828116477418 1.275589642172755 0 0 0
186 1 12.822141336797221 47.59179465247381 3.056642392647024 0 0 0
189 1 13.973781987887715 46.116482687927586 1.2742255517615584 0 0 0
137 1 12.578561910587071 31.864228706804514 0.015169141387011795 0 0 0
176 1 4.597105021576684 49.58033544013146 1.2527050377909554 0 0 0
697 1 0.4082428691984712 31.727908010829406 19.091814725272098 0 0 0
11 1 9.675307883802942 50.746908273522266 3.4014110395330177 0 -1 0
184 1 10.961492289540512 49.076490365444585 1.6726883703479698 0 0 0
192 1 17.26453223665031 48.937688283301526 1.4681772356145257 0 0 0
7 1 4.92392595499042 1.5220203996503148 5.100022606471934 0 0 0
15 1 11.651624731778288 1.1249733567334412 4.740920847920561 0 0 0
23 1 17.45726436217795 1.135892632758193 4.427387782164038 0 0 0
242 1 -0.051036888697695876 16.13823792280387 9.518709797313079 0 0 0
6 1 1.7154158567204345 4.885273395599014 4.878705966512387 0 0 0
196 1 3.120921726692392 3.1320337804822707 6.484737897742159 0 0 0
10 1 6.591999967651103 3.032043832773369 3.289695689972919 0 0 0
14 1 8.259416448455854 4.66278554063835 4.848705750144118 0 0 0
204 1 9.78565125465196 2.6905606919097917 6.333990518159497 0 0 0
22 1 14.440926648040925 4.432060752369512 4.364938558366626 0 0 0
233 1 12.912528394567405 5.997297470460519 5.9495115481743515 0 0 0
27 1 3.399444085431581 6.177254521662046 2.836956479253214 0 0 0
31 1 5.211790744389075 7.824325017521022 4.494120090321466 0 0 0
39 1 11.310874094132167 7.5281078130941985 4.302810528165091 0 0 0
47 1 17.86113530377443 7.596711890288173 4.922019489160389 0 0 0
30 1 1.247846432570607 10.635532572006824 4.8133972050129845 0 0 0
34 1 6.3554481787199455 9.424999851984916 2.913869962518986 0 0 0
38 1 8.136645881661906 10.646412487995974 4.636051372302064 0 0 0
228 1 9.863257718374648 9.30290468799968 6.302497419521178 0 0 0
46 1 14.43029253601727 11.181952282583532 4.466218008302124 0 0 0
809 1 12.911710835611963 6.401942437982044 25.064378427706732 0 0 0
55 1 4.718444469460487 14.200011738979276 4.71356836138013 0 0 0
249 1 6.331697373996968 12.252510572516467 6.363735040930236 0 0 0
63 1 11.105658433345154 14.383410080272657 4.793023684522246 0 0 0
257 1 12.801520359524217 12.836802657557191 6.398448415693475 0 0 0
71 1 17.48387180866619 14.075643322809336 4.560286203346088 0 0 0
54 1 1.54387963925538 17.45695662595956 4.631599480964455 0 0 0
58 1 6.344479397343727 15.905874482729565 3.301879735969383 0 0 0
62 1 8.00332678885937 17.632962343530505 4.670204329220225 0 0 0
252 1 9.397351260597574 15.928187847804939 6.223313464685137 0 0 0
66 1 12.865498348840278 15.877667574084416 3.298957719914729 0 0 0
70 1 14.636339530153657 17.594580408867166 4.671067596595216 0 0 0
79 1 4.820318934541423 20.78641976519875 4.95926249470028 0 0 0
273 1 6.344475206235996 19.12250699472197 6.281875725202621 0 0 0
87 1 11.323068983799883 20.86734157622055 4.755795321115214 0 0 0
91 1 15.882623145426855 18.98838794580316 2.7300648450181915 0 0 0
95 1 17.083823010825448 20.45852420831284 4.780834220860067 0 0 0
268 1 3.2694230991736344 22.472357972413352 6.142713542217315 0 0 0
78 1 1.4327569185612075 24.156301395774722 4.745574354954027 0 0 0
86 1 7.878930158550748 23.89456018291288 4.902659455711648 0 0 0
276 1 9.513824938838392 22.16030418275131 6.477301672661743 0 0 0
90 1 12.894519041819233 22.607240345188316 3.1091790022460404 0 0 0
94 1 14.330589978999843 24.067388738117067 4.7941027794807844 0 0 0
284 1 15.844931984911296 22.236607218651937 6.3757253795527395 0 0 0
297 1 6.538828290032082 26.09836651479309 6.254861838548541 0 0 0
103 1 4.831775243366416 26.987044986477393 4.305244396416202 0 0 0
111 1 11.065453413140444 27.204659565781068 4.455978625868147 0 0 0
115 1 16.055274909741424 25.775302374299518 3.2512128077765508 0 0 0
119 1 17.49394837310635 27.16898026467462 5.1511770514282915 0 0 0
106 1 6.330318821374797 28.725534882983716 2.9144833739818887 0 0 0
300 1 9.520338758090448 28.640460192473256 6.114894300357823 0 0 0
114 1 12.840527999744243 28.627382225436545 3.4003330126259073 0 0 0
102 1 1.5686143278352822 30.521773341320362 4.487323548478098 0 0 0
506 1 0.143278269778725 34.954511780492126 15.853461789091716 0 0 0
321 1 6.244185097594648 31.764554936439808 6.548236900916109 0 0 0
110 1 7.889356109207339 30.374945233423208 4.54726225065283 0 0 0
135 1 10.85247528715414 33.58418400271286 4.606084407281404 0 0 0
329 1 12.364648961108031 32.083949904065776 6.4484621097951305 0 0 0
118 1 14.12908085468228 30.414481822265234 4.8118760691269 0 0 0
386 1 0.08122885490925844 3.2089232819326683 16.349875412480436 0 0 0
316 1 2.7742756221933327 34.833032864994365 6.640348961977727 0 0 0
127 1 4.496132722892237 33.55487176335622 4.75909099376665 0 0 0
324 1 9.067321132344459 35.03280743876499 6.408545151898046 0 0 0
143 1 17.51845145496613 33.330545380462425 4.511683679001919 0 0 0
332 1 15.923029757613051 35.24696292691506 5.840051445700048 0 0 0
758 1 7.809753992792522 49.34376876707262 23.500574992994483 0 0 0
126 1 1.6350995699502413 36.676303360758894 4.654975237688814 0 0 0
345 1 6.256868970796171 37.93458917495775 6.310095756312333 0 0 0
134 1 7.712423268637401 36.60302251978598 4.657978045128116 0 0 0
142 1 14.006338754963863 36.86813478176791 4.735009115738882 0 0 0
340 1 2.9850262335901534 41.6109191000357 6.646947777695149 0 0 0
154 1 6.220019022625664 41.37086011991808 2.8179073246394624 0 0 0
151 1 4.982288199234117 40.21441550394604 5.099580016801603 0 0 0
348 1 9.364192481695927 41.12443085899031 5.978212836364387 0 0 0
159 1 11.01691452507879 39.70876660677169 4.145120729382731 0 0 0
167 1 17.201656590464708 39.892939850639294 4.668176353943424 0 0 0
356 1 15.892185857194274 41.25847514041587 6.439473255863515 0 0 0
217 1 0.0009549225167083814 6.355200957982794 6.487338974124086 0 0 0
171 1 2.793537950915691 44.30564436187443 3.409502160587073 0 0 0
150 1 1.1955142228232811 42.80515542643589 4.638090809264896 0 0 0
158 1 7.683286257118347 42.80493679312862 4.799228379086697 0 0 0
377 1 12.779030220610636 44.205418098386474 6.02610519484555 0 0 0
166 1 14.338402219372782 42.34348596298253 4.4894568816645775 0 0 0
554 1 0.0752331588839259 48.10885214181528 16.023653203435707 0 0 0
175 1 4.6397568275709276 45.69408890363505 5.10215981215803 0 0 0
178 1 5.9468192607793195 47.539250574526505 2.756224849501077 0 0 0
372 1 9.626994647179444 47.59426208933783 5.923132721923003 0 0 0
183 1 10.882141318189605 45.61591594993746 4.378399775949377 0 0 0
191 1 17.604524858136585 46.07181664749369 4.668210621584984 0 0 0
174 1 1.8526185299143565 48.89140697936422 4.698752994765478 0 0 0
182 1 7.655305851646725 48.98248947656751 4.567538613544161 0 0 0
209 1 12.73028723333908 50.72519020926731 6.492176011596803 0 -1 0
380 1 15.953646824197879 47.642355514989816 6.2500403906301605 0 0 0
190 1 14.249095339121745 49.18515670412563 4.833199452883266 0 0 0
197 1 1.7302442301175964 1.3086980318620849 8.191411835342555 0 0 0
201 1 6.494821144611086 50.67160519583594 6.498220544818085 0 -1 0
205 1 8.199119738599022 1.3487699263831117 7.955365211364446 0 0 0
203 1 9.640828342789018 50.730579686419844 9.45499435540265 0 -1 0
213 1 14.249789904861114 1.29569294451045 7.747851404519828 0 0 0
212 1 15.810936851007275 2.6050641979954734 6.088497233084668 0 0 0
200 1 5.014890683802461 4.7001414379031665 7.6524334476230225 0 0 0
208 1 11.20431224315023 4.415736881602087 7.729062394557973 0 0 0
210 1 13.195606310414464 3.2136056038619056 9.259779976972723 0 0 0
216 1 17.436023575874167 4.285448638178867 7.408268839938241 0 0 0
626 1 0.20739601975622163 15.692146453983773 22.33792897875622 0 0 0
221 1 1.3827440703673253 8.01776861589785 8.183431531907441 0 0 0
219 1 3.39382700773343 6.0201889207784465 9.203862515304989 0 0 0
225 1 6.793676951858323 6.384880118145316 6.401938423097988 0 0 0
229 1 8.047295313834113 7.801325614182953 7.9801046027230935 0 0 0
227 1 9.56463234543748 5.869366183001836 9.290313597270595 0 0 0
237 1 14.123439799075728 7.824203587476812 7.6373230449857585 0 0 0
235 1 16.231049196879216 6.31930818428288 8.857211362103333 0 0 0
220 1 3.1734560020621325 8.97113168673777 6.049238723212555 0 0 0
224 1 4.507119361781179 10.765688133828172 7.830492780296434 0 0 0
226 1 6.151185432806668 9.110278632506354 9.540148729787024 0 0 0
232 1 11.07310647950121 11.040295324663452 7.91008249218328 0 0 0
234 1 12.88614650011444 9.219017628642293 9.396889700837926 0 0 0
236 1 16.002548389025094 9.271548720805692 5.8023027451257265 0 0 0
240 1 17.22423531042194 10.622856321441692 8.034535131054414 0 0 0
245 1 1.3947895324623112 14.124185803493091 7.941395550627806 0 0 0
253 1 7.73953015496815 14.337031574078098 7.915326865106543 0 0 0
251 1 9.733467248682818 12.651789728602843 9.481725389666744 0 0 0
261 1 14.322657287399034 14.59462287710076 7.957493754960055 0 0 0
259 1 16.10530592575786 12.645628558947399 9.408947578580554 0 0 0
244 1 3.150218281806019 15.942526305733313 6.482385222749272 0 0 0
248 1 4.847924614810521 17.4385025980936 7.941205897400742 0 0 0
250 1 6.214358522719284 15.684455826354904 9.630985026330594 0 0 0
256 1 10.829176887853272 17.482167907886893 7.767559767008512 0 0 0
258 1 12.62081071329986 16.241388466682046 9.617824183666112 0 0 0
260 1 16.085766739122384 15.908412297328681 6.199824792054748 0 0 0
264 1 17.7714328219885 17.352394843878887 8.244502723473888 0 0 0
269 1 1.6792688257883042 20.85020688283979 7.963355405854175 0 0 0
267 1 3.4273332286185556 19.26279589936791 9.506431958073499 0 0 0
277 1 8.010679969330699 20.70137708837948 8.167991918164207 0 0 0
281 1 12.908220397095333 18.979769946181925 6.398725856289951 0 0 0
285 1 14.215431193857828 20.71770655098319 7.936263595938847 0 0 0
283 1 15.99524104062251 19.244147515872474 9.15135301164719 0 0 0
579 1 3.3602616980539466 -0.04629787214479996 22.31837690872813 0 0 0
282 1 12.744872896944827 22.204291120192437 9.806737669927081 0 0 0
288 1 17.745117293186482 23.872199150878735 7.887742598475508 0 0 0
272 1 4.954849112285693 24.15135545376197 7.6538134609208095 0 0 0
299 1 9.385746139539165 25.165070274688492 9.746254651826991 0 0 0
305 1 12.550945287849753 25.470439318918938 6.461016143747931 0 0 0
280 1 11.003251356908729 23.630619384510716 7.9692924502669165 0 0 0
309 1 13.928568754475176 27.082566548178594 8.048685001060242 0 0 0
293 1 1.719304708080651 26.9924418302228 7.168922026070082 0 0 0
292 1 3.416486171865416 28.902976745706233 5.911739291773295 0 0 0
301 1 8.268073335039519 27.062532764746646 8.009885355710797 0 0 0
298 1 6.38118099428812 28.522975109103847 9.539092579296033 0 0 0
306 1 12.42073841964762 28.72223246815321 9.704131022705399 0 0 0
308 1 15.65547242496705 28.87438235012757 6.622267791323365 0 0 0
312 1 17.216265608932115 30.76015933003751 8.071956649201255 0 0 0
296 1 4.82054765756166 30.047289039871337 7.958163695148032 0 0 0
323 1 9.525777026869847 31.650301544592534 9.484608963920397 0 0 0
304 1 11.055697940827837 30.267873387808766 7.7755031103848955 0 0 0
331 1 15.66258913237066 32.089225088284834 9.558050784116144 0 0 0
317 1 1.2444562062123996 33.05639722398695 8.112363859186189 0 0 0
325 1 7.902936263462015 33.35591363143753 8.20450302110363 0 0 0
330 1 12.548896396838444 35.24408691861139 9.30354645587244 0 0 0
333 1 14.366267024686898 33.796388531339474 7.623067758206288 0 0 0
339 1 2.7681600355661518 38.083266452173305 9.33416449159538 0 0 0
320 1 4.625931561612734 36.558031706051835 7.861661839304915 0 0 0
347 1 9.3843681851117 38.16821620207128 9.292718425885964 0 0 0
353 1 12.505394596874876 38.41032294508024 6.248606566262142 0 0 0
328 1 10.806357647574224 36.77026991556454 7.617559355223574 0 0 0
355 1 16.083280764706288 38.12052541080867 9.628556913917317 0 0 0
336 1 17.4961029592593 36.50157140759791 7.633097002828941 0 0 0
341 1 1.376475328545968 39.993456409577334 7.888167694205614 0 0 0
346 1 6.117826542691445 41.25377382263619 9.580885029534873 0 0 0
349 1 7.5102293596634055 39.77025041193082 7.897967956469527 0 0 0
354 1 12.60792053295586 41.037362289154444 9.295646383402113 0 0 0
357 1 14.47463491958909 39.513394972864205 7.864249763073103 0 0 0
434 1 -0.10383316702191274 15.940846013224917 15.687941896466468 0 0 0
344 1 4.325067793792582 43.00942263024413 8.569495270020056 0 0 0
369 1 6.422797537331874 44.19427688176664 6.512156590392847 0 0 0
371 1 9.294556906942733 44.11808965148464 9.257271305877543 0 0 0
352 1 11.030465784807477 42.65266587781197 7.567374243849741 0 0 0
360 1 17.374456312944325 43.103332938808705 7.922470762178055 0 0 0
379 1 15.7946195431549 44.69349457669861 9.372755067901974 0 0 0
193 1 0.23869729212231416 50.844273875363214 6.3001672672175815 0 -1 0
365 1 1.2322559578003072 46.24180213573261 7.849850453957263 0 0 0
364 1 3.144276156124156 47.58064778132746 6.508936383147587 0 0 0
373 1 8.21289754019477 46.19221526744765 7.952664437896264 0 0 0
381 1 14.216736383738459 45.94931976880348 7.562126408509681 0 0 0
368 1 4.703992926613054 49.32912071460291 8.104896785711347 0 0 0
378 1 12.881002888185566 47.661747257634545 9.542582387986128 0 0 0
376 1 11.081461113716943 49.17824715768009 7.63430166261106 0 0 0
384 1 17.585217629842187 49.39705640849452 8.012490249061928 0 0 0
211 1 16.090819452449 50.766283915162916 9.374955303851817 0 -1 0
195 1 3.3766430050854344 51.00889467057179 9.879357733626803 0 -1 0
199 1 4.6729237811619795 1.5722549445468519 11.34632630556238 0 0 0
393 1 6.288722743647435 50.86969998372068 12.749226867946765 0 -1 0
207 1 11.299355631954471 1.3129452145275098 10.418287211320177 0 0 0
396 1 9.850591615595363 2.8019502059285273 12.357785573738191 0 0 0
215 1 17.91570609945829 1.0261150742992882 11.01141869838563 0 0 0
198 1 1.5909940868527042 4.984429967776743 10.921384866474943 0 0 0
202 1 6.325834995133832 2.6754428347132655 9.541406237213922 0 0 0
206 1 8.095352307947739 4.327806381410519 10.9933573513918 0 0 0
214 1 14.863984180703278 4.688808032457537 10.70881002502414 0 0 0
404 1 16.302324913823483 2.7002944554833843 12.536597061523379 0 0 0
601 1 -0.10404285694323803 6.54527096479242 19.25848477486661 0 0 0
223 1 4.6252838671738346 7.451784740913186 11.172573969220663 0 0 0
231 1 11.329176414187918 7.467854705489075 10.883287820301732 0 0 0
425 1 13.058097103992338 6.086542724556744 12.527818343552193 0 0 0
239 1 17.6304705534847 7.4597202288726105 11.057781600953911 0 0 0
266 1 -0.016958467683808653 22.570451652301962 9.301996450051046 0 0 0
222 1 1.3369055289882537 11.070076270608887 11.201697133305712 0 0 0
230 1 7.7468229585403705 10.843570700741733 11.298517829183952 0 0 0
420 1 9.873688112578233 9.495188445734653 12.540992538784725 0 0 0
238 1 14.341022086348328 11.059326380593415 10.897738312936264 0 0 0
428 1 16.14468834251097 9.350337776400679 12.449667160183985 0 0 0
243 1 2.793426354353396 12.315062757319813 9.32104085117395 0 0 0
247 1 4.603413153667664 13.827329552722624 11.055265510981863 0 0 0
255 1 10.772158569234357 14.52795000199727 11.110155707549747 0 0 0
449 1 12.709661463993926 12.777349789142267 12.587069241494442 0 0 0
263 1 17.352552645824584 14.288305069743618 11.405488329705385 0 0 0
246 1 1.8296462039815826 17.695747837690988 11.126703396013957 0 0 0
436 1 3.4503881543061237 15.98318991020308 12.644048409755019 0 0 0
254 1 7.686565821838388 17.845599177365262 10.693889422234252 0 0 0
444 1 9.389231276432342 16.5198734483381 12.445303160135698 0 0 0
262 1 14.242743116621098 17.834026315110076 11.050363864135285 0 0 0
452 1 15.601643767744658 15.844350222449533 12.820066044046573 0 0 0
271 1 4.71927191332061 20.819938556392998 11.111457027690493 0 0 0
275 1 9.579856204798011 19.07158616779981 9.610692636424735 0 0 0
279 1 11.08736447564819 20.423545068001975 11.28705525460727 0 0 0
473 1 12.661885223278409 19.139106598888425 13.11061626330368 0 0 0
287 1 17.594117751490455 20.457706079784323 11.00562930351444 0 0 0
460 1 2.8337020067112855 22.230109185143256 12.762771361848886 0 0 0
274 1 6.386912645785117 22.543593528107262 9.748733848626022 0 0 0
278 1 7.838977771790488 23.910098188294562 11.419186104621028 0 0 0
286 1 14.571971074192769 23.977849322252823 11.244720070427368 0 0 0
270 1 1.7039027716510566 24.019777463224248 10.73156247544861 0 0 0
291 1 3.11640671750269 25.309443834684064 8.907824691430235 0 0 0
489 1 6.048896593842 25.62237763169092 12.555518822137287 0 0 0
497 1 12.706342943562593 25.7856417983689 12.37658131720899 0 0 0
307 1 15.842508240909604 25.47012534747792 9.143496592228528 0 0 0
650 1 -0.09810865669899038 22.029060335367255 22.026505120849272 0 0 0
750 1 1.8681701668162212 49.611392084570355 24.155769680809478 0 0 0
295 1 4.344981691301636 27.064386557003093 10.810745742820618 0 0 0
492 1 9.598220368712601 28.86926647340447 12.756166981352074 0 0 0
303 1 10.564508855166737 27.216350593708686 11.10015050580641 0 0 0
500 1 16.049918672168083 28.74259365036267 12.771053369913298 0 0 0
311 1 17.295444700370112 27.117406727890245 10.936797206915074 0 0 0
294 1 1.3971424258300484 30.02433118957337 11.077122475588038 0 0 0
315 1 3.11306610697966 31.61474608348446 9.641600427279927 0 0 0
302 1 7.915268248689145 30.477960800170337 11.16000866740178 0 0 0
521 1 12.817916497671236 31.926653061339156 12.787128909086105 0 0 0
310 1 14.282200854018049 30.075584511842383 11.151690409985406 0 0 0
767 1 17.242109268309928 45.92868766461781 23.483615677251727 0 0 0
577 1 -0.06775332890744323 50.958048269311334 19.38795654095462 0 -1 0
322 1 6.1459915801371 35.106249658223774 9.723394355442045 0 0 0
319 1 4.6783870995788215 33.33739722492477 11.21651336413135 0 0 0
327 1 11.131869553525506 33.19382865716824 11.128702563704707 0 0 0
516 1 9.441006566934956 34.9351931207283 12.50938383337047 0 0 0
524 1 15.861077302114497 35.10794819452221 12.471401179984738 0 0 0
335 1 17.632914607090086 33.47125051210968 10.994042705182444 0 0 0
194 1 0.08928825713052305 3.072500055041813 9.4683870248647 0 0 0
318 1 1.25128190063164 36.7659413418381 11.1101193298771 0 0 0
326 1 7.84516626223781 36.67099319090653 11.122416102634258 0 0 0
545 1 12.419793868824847 37.827481602210455 12.444875704427265 0 0 0
334 1 14.30003717879123 36.42893708022321 10.82370135512639 0 0 0
762 1 12.872812063862135 47.51459298158905 21.81046029165229 0 0 0
343 1 4.373146187210785 39.54756118676113 10.942356543514677 0 0 0
351 1 10.890147541010638 39.659250813533546 10.810009589775488 0 0 0
540 1 9.655335588899554 41.407906451627966 12.570533344173885 0 0 0
548 1 15.619978210137546 41.50722064389659 13.20942945973374 0 0 0
359 1 17.410581423171074 39.93412556396096 11.276529635148496 0 0 0
342 1 1.278507671217272 42.63259790026632 11.245269314211138 0 0 0
1658 1 18.849734480888046 35.45958541529065 2.9991982802947335 0 0 0
363 1 2.535982578102014 44.62499110097403 10.04574624325721 0 0 0
350 1 7.708399091516677 42.80399915258637 11.276982495397538 0 0 0
561 1 6.693493418027869 44.38213730555135 12.981743492803796 0 0 0
569 1 12.524369613657894 44.14471186120805 12.729810814815398 0 0 0
358 1 14.240617071798308 42.86596770544081 10.973383586236825 0 0 0
367 1 5.147727863164836 45.62538676980088 11.099580434454436 0 0 0
370 1 6.339456558710491 47.78848163694724 9.779292431127 0 0 0
564 1 9.73364034514886 47.705270508014465 12.219065358041593 0 0 0
375 1 11.137470680347075 45.70203798906667 10.776578218251762 0 0 0
572 1 15.696361532089458 47.75753328522046 12.61719071210712 0 0 0
383 1 17.40243956171898 46.22392533051823 11.087651635605283 0 0 0
759 1 11.041830974075953 46.18884034804405 23.83087564850745 0 0 0
366 1 1.750624727745652 49.417312798244524 11.306813962203936 0 0 0
374 1 8.016652213181663 49.467575750759764 11.160524531271243 0 0 0
382 1 14.390740942334581 49.398079914942755 10.896810545161452 0 0 0
401 1 12.709594018924797 51.0028520896076 12.039700800277922 0 -1 0
481 1 0.08955927040763242 25.496938203083594 12.452098320781934 0 0 0
389 1 1.7088748262709819 1.7680607980316487 14.105508423590225 0 0 0
387 1 2.989171442020157 0.30196083349902914 15.865749887434603 0 0 0
397 1 8.517107378890831 1.088244804482561 14.068554842782426 0 0 0
395 1 9.90507002210765 50.617869832800054 15.689810172908363 0 -1 0
405 1 14.426342701265941 1.067822927431745 14.050116215470315 0 0 0
170 1 0.23916065961212785 47.2383865221078 3.16202623569469 0 0 0
388 1 3.242571557220637 3.3400935556115687 12.545680166402327 0 0 0
392 1 4.558920795057664 4.602962150345492 14.333213449917865 0 0 0
400 1 11.395700817788095 4.34850642432964 13.87919386973533 0 0 0
402 1 12.858084161347712 2.915445522314797 15.592446732605119 0 0 0
408 1 17.720394767171015 4.213476410211396 14.4264461510322 0 0 0
602 1 0.0036064858599217375 9.277837228311604 22.152101865028968 0 0 0
413 1 1.5238042010809956 7.716955728753608 14.120579233401186 0 0 0
411 1 3.0443663899561346 6.331841170756894 15.875735768064082 0 0 0
417 1 6.485903879216649 5.961398009235951 12.752861759079117 0 0 0
421 1 7.979461759221975 7.926599310697872 14.067961129176963 0 0 0
419 1 9.840320471998481 6.1665696191548065 15.4567227008735 0 0 0
429 1 14.294875650762705 7.954014183146747 14.010962319894467 0 0 0
427 1 16.049564435202964 6.156962253961349 15.926509369406897 0 0 0
412 1 3.1120874258863127 9.39141150593381 12.37926097608832 0 0 0
416 1 4.665919031497917 11.034818193434278 14.370762898456928 0 0 0
418 1 6.346700287086134 9.43601104255704 15.820881750210663 0 0 0
424 1 10.948122748514185 11.142780754094376 14.119594105157628 0 0 0
432 1 17.588355519648598 11.011802140321347 14.425445941167 0 0 0
2090 1 18.904265407610342 47.93411671066079 15.61637065379174 0 0 0
437 1 1.7819240397793965 14.321964359480246 14.269129834567398 0 0 0
435 1 3.189943030063872 12.659046910507701 15.89676961317399 0 0 0
441 1 6.231219895334419 12.380491654072156 12.816543981227692 0 0 0
445 1 7.7163330970061565 14.371414038006558 13.749507926193195 0 0 0
443 1 9.332598989863973 12.889924659385168 15.410997264881265 0 0 0
453 1 14.30062590874483 14.195482478268424 14.349706694068056 0 0 0
451 1 16.143790951269317 12.749932928847823 15.95184097946137 0 0 0
772 1 3.364888539312246 3.263286411235513 25.37952616246092 0 0 0
440 1 4.866202967392403 17.353793397717897 14.263670869394877 0 0 0
442 1 6.497694060797444 15.79536053264417 15.843972788340729 0 0 0
448 1 11.082584134400287 17.88553463952233 14.345510975038959 0 0 0
450 1 12.725323211818916 15.819276987600249 15.610391486282325 0 0 0
456 1 17.40555714880205 17.240771696393406 14.505300425607645 0 0 0
461 1 1.6064207569184548 20.72912554634142 14.528744245428747 0 0 0
459 1 3.5484033051626613 19.103338336251632 15.846643404097385 0 0 0
465 1 6.3250002764761595 19.157306080958055 12.460198550729924 0 0 0
469 1 7.969350338813127 20.459505633187927 13.891621330219118 0 0 0
477 1 14.518223444911815 20.544383645130083 14.440672309424151 0 0 0
464 1 4.617911495431372 23.738929650628545 14.257305397332704 0 0 0
466 1 6.2707844321684005 22.033593042214555 15.780484016551217 0 0 0
468 1 9.695003000952207 22.258734849293777 12.874886511642154 0 0 0
472 1 11.27623197698276 23.95043982775695 14.192548822919235 0 0 0
474 1 12.591895774384952 22.121965009582063 16.057300649039977 0 0 0
476 1 16.056409677082158 22.048445028124064 12.834651915709228 0 0 0
480 1 17.428374430178668 23.96271842850274 14.579721304476132 0 0 0
485 1 1.6422516298278045 26.728303432765415 14.045129581358406 0 0 0
483 1 2.701854538989164 25.21117540014002 15.854296289309081 0 0 0
491 1 9.639253490960407 25.58339223525603 15.638994431903726 0 0 0
499 1 15.869931522841465 25.33295321815423 16.16818698025343 0 0 0
1585 1 18.919091385552132 12.794707689318638 0.020602190766040848 0 0 0