
# Create simulation box of size 50 x 50 x 50 Angstrom
#
lattice	            sc 1
Lattice spacing in x,y,z = 1.0000000 1.0000000 1.0000000
region 	            all block 0 ${X} ${YZ_LO} ${YZ_HI} ${YZ_LO} ${YZ_HI} units box
region 	            all block 0 53.4 ${YZ_LO} ${YZ_HI} ${YZ_LO} ${YZ_HI} units box
region 	            all block 0 53.4 -0.104078480513909.0 ${YZ_HI} ${YZ_LO} ${YZ_HI} units box
region 	            all block 0 53.4 -0.104078480513909.0 51.0111984805129.0 ${YZ_LO} ${YZ_HI} units box
region 	            all block 0 53.4 -0.104078480513909.0 51.0111984805129.0 -0.104078480513909.0 ${YZ_HI} units box
region 	            all block 0 53.4 -0.104078480513909.0 51.0111984805129.0 -0.104078480513909.0 51.0111984805129.0 units box
create_box          1 all
Created orthogonal box = (0.0000000 -0.10407848 -0.10407848) to (53.400000 51.011198 51.011198)
  3 by 1 by 2 MPI processor grid

# fill box with 4175 randomly distributed atoms
#
create_atoms        1 random 4608 63782 all
Created 4608 atoms
  create_atoms CPU = 0.001 seconds
mass                1 18.015

# Define potential
#
pair_style          sw
pair_coeff          * * /data/emrosky-sim/Freezing_Simulations/Melting/MLmW_fancy/ML_mW.sw mW
Reading sw potential file /data/emrosky-sim/Freezing_Simulations/Melting/MLmW_fancy/ML_mW.sw with DATE: 2019-02-27

# Run minimization
#
minimize            1.0e-8 1.0e-8 10000 1000
WARNING: Using 'neigh_modify every 1 delay 0 check yes' setting during minimization (../min.cpp:187)
Neighbor list info ...
  update every 1 steps, delay 0 steps, check yes
  max neighbors/atom: 2000, page size: 100000
  master list distance cutoff = 6.0032907
  ghost atom cutoff = 6.0032907
  binsize = 3.0016454, bins = 18 18 18
  1 neighbor lists, perpetual/occasional/extra = 1 0 0
  (1) pair sw, perpetual
      attributes: full, newton on
      pair build: full/bin/atomonly
      stencil: full/bin/3d
      bin: standard
Per MPI rank memory allocation (min/avg/max) = 4.236 | 4.249 | 4.255 Mbytes
Step Temp E_pair E_mol TotEng Press 
       0            0    7188213.2            0    7188213.2    4896737.5 
     657            0   -49822.794            0   -49822.794   -512.02652 
Loop time of 1.27323 on 6 procs for 657 steps with 4608 atoms

98.8% CPU use with 6 MPI tasks x no OpenMP threads

Minimization stats:
  Stopping criterion = max force evaluations
  Energy initial, next-to-last, final = 
      7188213.21760833  -49822.4920341183  -49822.7938854168
  Force two-norm initial, final = 1.6503258e+08 4.6769694
  Force max component initial, final = 87884183.0 1.2057650
  Final line search alpha, max atom move = 0.057629031 0.069487069
  Iterations, force evaluations = 657 1000

MPI task timing breakdown:
Section |  min time  |  avg time  |  max time  |%varavg| %total
---------------------------------------------------------------
Pair    | 0.97531    | 1.0556     | 1.1894     |   7.0 | 82.91
Neigh   | 0.027188   | 0.028501   | 0.03008    |   0.5 |  2.24
Comm    | 0.032676   | 0.16778    | 0.24947    |  17.7 | 13.18
Output  | 0          | 0          | 0          |   0.0 |  0.00
Modify  | 0          | 0          | 0          |   0.0 |  0.00
Other   |            | 0.02133    |            |       |  1.68

Nlocal:        768.000 ave         784 max         743 min
Histogram: 1 0 1 0 0 1 0 0 0 3
Nghost:        1577.33 ave        1610 max        1562 min
Histogram: 1 2 1 0 1 0 0 0 0 1
Neighs:        0.00000 ave           0 max           0 min
Histogram: 6 0 0 0 0 0 0 0 0 0
FullNghs:      21795.7 ave       22717 max       20741 min
Histogram: 1 1 0 0 1 0 0 1 1 1

Total # of neighbors = 130774
Ave neighs/atom = 28.379774
Neighbor list builds = 28
Dangerous builds = 0

# Add velocity/set timestep
#
velocity            all create ${TEMP} 120598 rot yes dist gaussian
velocity            all create 292 120598 rot yes dist gaussian
timestep            5.0

# Define output
#
compute	            1 all msd
thermo	            100
thermo_style        custom step temp press vol etotal ke pe c_1[4] density

# Neighbor lists
#
neigh_modify        delay 0 every 1 check yes

# Set fixes
#
fix                 1 all momentum 10 linear 1 1 1 rescale
fix                 2 all nve
fix                 3 all temp/csvr ${TEMP} ${TEMP} 500.0 928347
fix                 3 all temp/csvr 292 ${TEMP} 500.0 928347
fix                 3 all temp/csvr 292 292 500.0 928347
fix                 4 all press/berendsen iso ${PRES} ${PRES} 1000.0 modulus 20000
fix                 4 all press/berendsen iso -1000 ${PRES} 1000.0 modulus 20000
fix                 4 all press/berendsen iso -1000 -1000 1000.0 modulus 20000

# Run 0.5 ns equilibration
#
dump                1 all custom 1000 eq.${NAME}.dump id type x y z vx vy vz
dump                1 all custom 1000 eq.liq_292K_-1000atm_ML.dump id type x y z vx vy vz
run                 100000
Per MPI rank memory allocation (min/avg/max) = 3.486 | 3.501 | 3.505 Mbytes
Step Temp Press Volume TotEng KinEng PotEng c_1[4] Density 
     657          292    801.76218       139522   -45812.877    4009.9168   -49822.794 4.0189577e-33   0.98799126 
     700    165.15359    -872.3493    140707.54   -44976.098    2267.9869   -47244.085   0.25026201   0.97966686 
     800     216.7171   -871.18466    141377.02   -43685.946    2976.0875   -46662.033   0.78554367   0.97502777 
     900    240.38858   -895.46607    142079.79   -42893.234    3301.1583   -46194.393    1.3978633   0.97020495 
    1000    257.96057   -825.62898     142310.5   -42345.683    3542.4672   -45888.151    2.0615517   0.96863207 
    1100    270.35217   -1122.2792    142441.94   -41922.795    3712.6361   -45635.431    2.7738832   0.96773827 
    1200    279.75341   -1039.4782    142797.36   -41592.522    3841.7394   -45434.261    3.5553128   0.96532959 
    1300    284.66559   -927.97882    143017.11   -41363.958    3909.1964   -45273.155    4.3558184   0.96384631 
    1400    284.54747   -1045.9114    143133.35   -41269.601    3907.5743   -45177.176     5.348434   0.96306355 
    1500    285.89285   -1208.3036    143021.44   -41172.275    3926.0498   -45098.325    6.3311618   0.96381716 
    1600    290.45473   -1327.0573    142817.13   -41126.351    3988.6962   -45115.047    7.3266273   0.96519597 
    1700    293.20066   -1071.7478    142777.72   -41158.027     4026.405   -45184.431    8.2296154   0.96546235 
    1800    291.46188   -1102.7409    142801.15   -41085.407    4002.5271   -45087.934    9.2901175   0.96530395 
    1900    292.74766   -1184.1854     142832.1   -41028.946    4020.1841    -45049.13    10.405499    0.9650948 
    2000    290.61678   -1009.7136    143132.89    -40982.39    3990.9216   -44973.312    11.562804   0.96306667 
    2100    293.89347   -1080.0175    143266.41   -41073.132     4035.919   -45109.051    12.678439   0.96216911 
    2200    291.08792   -1049.9721    142797.14   -41046.604    3997.3916   -45043.996    13.717945   0.96533104 
    2300    291.89866   -554.22325    143328.16   -40964.634    4008.5252   -44973.159    14.494799   0.96175458 
    2400     290.7405   -1048.5531    143193.49   -40992.826    3992.6206   -44985.447    15.517144   0.96265913 
    2500    294.47272   -1006.8731    143008.98    -40986.87    4043.8736   -45030.744    16.531529   0.96390112 
    2600    293.30271   -887.66272    143046.26   -40830.465    4027.8065   -44858.271    17.710964   0.96364994 
    2700    291.03762    -1065.635    142675.77   -40921.214    3996.7008   -44917.914    18.800961   0.96615224 
    2800    294.86948   -1143.2902    142697.15   -40958.216    4049.3222   -45007.538    20.174051    0.9660075 
    2900    290.83414   -1196.4745    142358.52   -40897.189    3993.9066   -44891.096    21.464058   0.96830535 
    3000    298.53471   -1082.1534    142252.62   -40873.069    4099.6554   -44972.724    22.880737    0.9690262 
    3100    294.53572   -912.29754    142269.39   -40862.418    4044.7389   -44907.157    24.197732   0.96891195 
    3200    295.58491   -1111.2974    142373.73   -40895.382    4059.1469   -44954.529    25.277705   0.96820188 
    3300    294.21869    -655.5148    142592.04   -40904.369    4040.3852   -44944.754    26.568148   0.96671957 
    3400     293.7812   -1055.4792    142865.76   -40857.558    4034.3774   -44891.936    27.668748   0.96486741 
    3500    299.55252   -1084.0488    142690.15     -40753.5    4113.6325   -44867.132    28.762717    0.9660549 
    3600    297.01218   -1009.5785    142812.52   -40821.881    4078.7471   -44900.628    29.991403   0.96522711 
    3700    297.64772   -1228.5382    142886.22   -40831.365    4087.4746    -44918.84    31.196836   0.96472928 
    3800    299.36712   -1044.9001    142958.93   -40859.792    4111.0865   -44970.879    32.174547   0.96423856 
    3900    287.32204    -1122.585    142380.42   -41080.507    3945.6764   -45026.183    33.309308   0.96815641 
    4000    290.93325   -805.39224    142303.56   -41060.188    3995.2676   -45055.456    34.399586   0.96867932 
    4100    291.83532   -903.08832    142537.92    -40977.43    4007.6554   -44985.086    35.285487   0.96708665 
    4200    291.67562   -994.84447    142529.82   -40982.045    4005.4622   -44987.507    36.363771   0.96714156 
    4300    290.60598   -1107.8145    142636.29   -40963.977    3990.7734   -44954.751    37.733415   0.96641968 
    4400    292.14538   -859.46877     142506.9   -40905.163    4011.9133   -44917.076    38.973629   0.96729716 
    4500    289.75815   -931.42172    142610.79    -40914.36    3979.1305    -44893.49    40.321543    0.9665925 
    4600    286.87542   -952.39281    142714.55   -40871.627    3939.5431    -44811.17    41.423156   0.96588973 
    4700    285.15895   -838.70296    142808.74   -40918.596    3915.9715   -44834.568    42.421356   0.96525267 
    4800    293.48783   -1156.8269     142662.8   -40899.865    4030.3487   -44930.214    43.414685   0.96624009 
    4900    294.18258   -1149.8586     142115.2   -41005.735    4039.8893   -45045.624    44.532841   0.96996322 
    5000    293.43789   -755.09738    141946.98   -41008.628    4029.6628   -45038.291    45.699642   0.97111274 
    5100    287.14686   -1050.8646    142251.02   -41054.352    3943.2707   -44997.623    47.023032    0.9690371 
    5200    291.32837   -717.47454    142223.91   -41113.021    4000.6937   -45113.714    48.034198   0.96922182 
    5300    286.01865   -931.93383    142897.03   -41082.939    3927.7774   -45010.716    48.995278   0.96465631 
    5400    294.31825   -1104.4921    142801.86   -40940.144    4041.7524   -44981.897    49.837549   0.96529916 
    5500    292.80272   -1105.6427     142932.1   -40918.488    4020.9402   -44939.428     51.01687    0.9644196 
    5600    297.71485   -832.55394    143238.31    -40822.74    4088.3966   -44911.136    52.084439   0.96235788 
    5700    292.46143   -1120.0017    143004.44   -40885.612    4016.2535   -44901.865    53.262129   0.96393171 
    5800    298.22084   -964.14758    143048.07   -40841.542    4095.3451   -44936.887    54.206955   0.96363773 
    5900    284.93901   -965.62337    142888.41   -41022.421    3912.9511   -44935.372    55.227406   0.96471448 
    6000    288.08243   -1263.5302    142713.03   -41066.255    3956.1184   -45022.373    55.927249   0.96590004 
    6100    293.05096   -1107.9993    143020.92   -41032.818    4024.3493   -45057.167    56.850561   0.96382066 
    6200     292.1012   -924.28171    143046.19   -41099.637    4011.3066   -45110.944    57.776434   0.96365037 
    6300    290.92198   -961.56561    143163.64   -41112.505    3995.1128   -45107.618    58.853718   0.96285981 
    6400    289.65457   -1251.0933    143041.43   -41083.966    3977.7081   -45061.674    59.834349   0.96368245 
    6500    288.48042     -1191.71    142721.27   -41085.723    3961.5839   -45047.307    60.787489   0.96584426 
    6600    293.22928   -1430.3596    142608.74   -41116.602    4026.7981     -45143.4    61.851635   0.96660637 
    6700    291.10771   -892.08498    142427.36   -41153.559    3997.6634   -45151.223    62.723498   0.96783732 
    6800    284.28335   -1090.8983    142046.66   -41215.246    3903.9473   -45119.194    63.412136   0.97043124 
    6900    291.51048   -900.06301    142050.79   -41120.177    4003.1944   -45123.371    64.671981   0.97040302 
    7000     291.6069   -1048.6674    141940.92   -41069.953    4004.5185   -45074.472    65.742926    0.9711542 
    7100    288.61999   -1263.7375    142416.22   -41142.571    3963.5006   -45106.072    67.071247   0.96791302 
    7200    287.76926   -944.58469    142865.71   -41137.818    3951.8178   -45089.636    68.392761   0.96486775 
    7300    288.21215   -900.82881    143021.28   -41128.613    3957.8999   -45086.513     69.68636    0.9638182 
    7400    288.45588   -870.91569    142974.82   -41205.406    3961.2469   -45166.653    70.728709   0.96413142 
    7500    291.38977   -1076.9487    142762.13   -41053.443    4001.5368    -45054.98    71.416035   0.96556782 
    7600    287.03901   -756.70879    142996.85   -41089.071    3941.7896   -45030.861    72.107231   0.96398287 
    7700    288.61121   -1250.4665     143311.7   -41071.487    3963.3799   -45034.867    73.573595   0.96186508 
    7800    291.19448   -971.49425    142911.76   -41065.692     3998.855   -45064.547    74.601376   0.96455682 
    7900    284.41467     -1121.62    142880.96   -41188.067    3905.7506   -45093.818    75.276206   0.96476478 
    8000    292.14487   -909.05669    142752.51   -41099.759    4011.9062   -45111.666     76.31401   0.96563284 
    8100    291.96425   -975.06256    143040.32   -40989.938     4009.426   -44999.364    77.415382   0.96368995 
    8200    289.97131   -1019.1084    142769.91    -41065.62    3982.0577   -45047.678    78.368376   0.96551518 
    8300    290.36537     -1006.95    143070.01   -40971.414    3987.4691   -44958.883    79.958911   0.96348993 
    8400    287.70334   -888.27927    142912.14   -41049.034    3950.9126   -44999.946    81.304854   0.96455426 
    8500    289.45816   -1097.3686     142644.9   -41065.033    3975.0108   -45040.044    82.225115   0.96636133 
    8600    297.68181   -962.92149    142550.58    -41015.78    4087.9428   -45103.723    83.127597   0.96700074 
    8700    292.79213   -901.99997    142509.83   -40997.624    4020.7949   -45018.418    84.204159   0.96727728 
    8800    293.96656   -1227.8769     142547.5   -40976.263    4036.9229   -45013.186    85.322277   0.96702162 
    8900    293.22743   -956.13265    142663.61   -41008.179    4026.7726   -45034.952    86.782192    0.9662346 
    9000    295.82316    -989.6211    142791.75   -40915.479    4062.4187   -44977.897     88.00867    0.9653675 
    9100     293.4094   -1162.0938    142977.59   -40943.064    4029.2715   -44972.336    88.926126   0.96411274 
    9200    291.34567   -873.38359    142810.58   -41012.681    4000.9312   -45013.613    89.946523   0.96524025 
    9300    295.75191   -1332.7246    142856.61   -40964.692    4061.4403   -45026.133    91.259765   0.96492922 
    9400    290.08344   -999.39336    142327.27   -41026.609    3983.5974   -45010.206    92.340263   0.96851795 
    9500    291.61351   -1038.2029    142139.86   -41065.467    4004.6093   -45070.076    93.181992   0.96979493 
    9600    284.82359   -856.65606       142364   -41128.545    3911.3661   -45039.912    94.318975   0.96826809 
    9700    296.22721   -981.05513    142409.62   -40998.979    4067.9674   -45066.946    95.323569   0.96795793 
    9800     295.8909   -915.98533    142402.98   -40950.499     4063.349   -45013.848    96.507473   0.96800301 
    9900    288.69279   -976.08242    142697.54   -40930.134    3964.5003   -44894.634    97.618243   0.96600486 
   10000    285.77888   -1198.8575    142632.38   -41056.854    3924.4847   -44981.338     98.56418   0.96644618 
   10100    286.03981     -1141.87    142538.56   -41062.799    3928.0679   -44990.867      99.3765   0.96708229 
   10200    287.04297   -1056.2119    142432.97   -41058.957    3941.8439   -45000.801    100.53273   0.96779924 
   10300    294.55158   -861.12166    142415.61   -40958.911    4044.9566   -45003.867    101.57224   0.96791719 
   10400    292.58034   -779.41701    142479.94   -40898.279    4017.8864   -44916.166    102.49096   0.96748019 
   10500    293.59859   -1196.7883    142599.75   -40927.537    4031.8696   -44959.407    103.29509   0.96666733 
   10600    300.01081   -1052.9246    142931.27   -40920.311     4119.926   -45040.237    104.86641   0.96442516 
   10700    297.87107   -952.16199    142454.07    -40961.41    4090.5418   -45051.952     105.9121   0.96765585 
   10800    293.35258   -1018.7738    142644.64   -40925.718    4028.4913    -44954.21    106.84669   0.96636311 
   10900    290.80272   -1320.3909    142671.35    -40882.19    3993.4751   -44875.666    108.10486   0.96618216 
   11000    292.25241   -1031.7675    142611.41   -40881.522     4013.383   -44894.905    109.22534    0.9665883 
   11100    291.32374   -761.14734    142768.29   -40914.455    4000.6301   -44915.085    110.56682   0.96552614 
   11200    292.70001   -1028.7527    143187.35   -40908.785    4019.5297   -44928.315    111.83874   0.96270036 
   11300    290.26105   -1198.6154    142833.18   -40974.861    3986.0366   -44960.897    112.74476   0.96508748 
   11400    284.18779   -895.22057    142620.15   -41032.618     3902.635   -44935.253    113.60033   0.96652903 
   11500    290.99254   -888.24432    142686.58   -41101.677    3996.0818   -45097.758    115.51133   0.96607904 
   11600    285.88409   -1066.3186    142415.33   -41168.252    3925.9295   -45094.181    116.84884   0.96791912 
   11700    287.47223   -870.69133    142340.85   -41041.727    3947.7389   -44989.466    118.27165   0.96842556 
   11800    289.87893   -900.39962    142318.66   -41085.324     3980.789   -45066.113    119.25529   0.96857658 
   11900    284.92581   -855.93613    142443.74   -41142.948    3912.7698   -45055.717    120.40786   0.96772604 
   12000    286.42007   -1092.4059    142857.98   -41109.794    3933.2899   -45043.084    121.48515   0.96491996 
   12100    292.44696   -1086.5909     142608.1   -41053.957    4016.0548   -45070.012    122.22234   0.96661074 
   12200    299.60486   -1010.8209    142552.33   -40893.026    4114.3513   -45007.377    122.83203    0.9669889 
   12300    300.12228   -1084.6758    142754.98   -40843.952    4121.4568   -44965.409    123.74827   0.96561615 
   12400    298.65222   -931.04027       142988   -40800.481    4101.2691    -44901.75    125.46822   0.96404254 
   12500    296.55608   -1002.9276    142966.26    -40884.75    4072.4837   -44957.234    126.32458   0.96418914 
   12600    294.25616   -1169.9434    142967.34   -40928.312    4040.8998   -44969.212    127.78825   0.96418189 
   12700     292.4868   -974.12427    142962.17    -40923.99    4016.6019   -44940.592    128.84384   0.96421676 
   12800    291.05351   -892.99024    143071.27   -40947.337    3996.9191   -44944.256    129.93102   0.96348147 
   12900     296.3811   -874.42452    143190.19   -40955.789    4070.0807    -45025.87    130.94007   0.96268132 
   13000    295.64478    -850.0946    143136.97   -41047.266     4059.969   -45107.235    131.63426   0.96303922 
   13100    291.09112   -691.90598     143166.6     -41033.2    3997.4356   -45030.636    132.44298   0.96283989 
   13200    296.32628   -1149.8853    143029.37    -40930.55    4069.3279   -44999.878    132.98316   0.96376373 
   13300    288.61089    -956.8295    143093.66   -40933.358    3963.3756   -44896.733    133.87978   0.96333072 
   13400    289.46687   -807.41432    142896.28   -40977.657    3975.1304   -44952.788    135.36427   0.96466131 
   13500    296.28396   -969.81357    143026.29   -40963.369    4068.7466   -45032.116    136.69257   0.96378449 
   13600    295.20964   -951.82111    142909.83   -41016.302    4053.9936   -45070.296    137.94194    0.9645699 
   13700    287.46176   -774.03883    142808.96   -41046.227    3947.5951   -44993.822    138.91145   0.96525121 
   13800     290.6274   -793.96534    142990.44    -41082.75    3991.0674   -45073.818    139.78955   0.96402608 
   13900    287.88746   -1065.2157    143002.13    -41055.78    3953.4411   -45009.222    139.98468    0.9639473 
   14000    287.03171   -970.17005    142817.83   -41137.329    3941.6894   -45079.019    141.08612   0.96519125 
   14100    296.47136   -1123.5203    142845.13    -41078.28    4071.3202     -45149.6    142.62024   0.96500676 
   14200    292.19703   -1149.5917    142575.74   -41052.278    4012.6226     -45064.9    143.47541   0.96683008 
   14300    287.87404   -1045.6156    142542.09   -41091.488    3953.2567   -45044.745    144.35211   0.96705836 
   14400    297.39265   -808.26514    142754.79   -41017.046    4083.9718   -45101.018     145.7645   0.96561743 
   14500     290.3653   -1082.2514    142629.04   -41080.223    3987.4682   -45067.691    146.35979   0.96646878 
   14600    297.35233   -769.45376    142870.84   -40939.251    4083.4182   -45022.669    147.06428   0.96483312 
   14700    287.57767    -1007.236     143023.4   -40964.694    3949.1867   -44913.881      148.592   0.96380398 
   14800    296.54658   -970.01947    143318.82   -40991.702    4072.3532   -45064.055    149.52764   0.96181726 
   14900    291.95222   -1032.1339    143313.28   -40977.333    4009.2607   -44986.594    150.45238   0.96185447 
   15000     291.6651   -821.41112    143297.86   -41076.801    4005.3178   -45082.119    151.45287   0.96195794 
   15100    292.28602   -919.73597    143289.69   -41124.197    4013.8446   -45138.042    152.65144   0.96201278 
   15200    284.45343   -842.70462    143088.31   -41178.088    3906.2829   -45084.371    153.78332   0.96336672 
   15300    290.05762    -998.8518    143002.38   -41083.895    3983.2429   -45067.138    154.51929   0.96394564 
   15400    294.83192   -863.09177    142938.21    -40959.28    4048.8065   -45008.086    155.10524   0.96437837 
   15500    295.04083   -926.89351    143056.23   -41017.323    4051.6753   -45068.998    156.54309   0.96358279 
   15600     289.6057   -808.57021    142733.84    -41065.51    3977.0369   -45042.547    156.99617   0.96575921 
   15700    292.74377   -1090.5634    142518.24   -41038.113    4020.1307   -45058.244    157.87453   0.96722015 
   15800    285.37357   -953.06693    142752.57   -41036.788    3918.9188   -44955.707    159.03414   0.96563248 
   15900    289.05741   -1252.0582    142528.94   -41014.532    3969.5075    -44984.04    160.33922   0.96714754 
   16000    289.04529   -1020.1439    142290.42   -41078.753     3969.341   -45048.094    160.90303   0.96876881 
   16100    294.92219   -894.24669    142404.33    -41075.82    4050.0461   -45125.866    161.80278   0.96799383 
   16200    294.13677   -1245.1037    142115.69   -40937.392    4039.2602   -44976.652      163.148   0.96995986 
   16300    292.09346   -1123.9467    142150.12   -40904.454    4011.2003   -44915.655    163.92206   0.96972496 
   16400    293.04238   -871.75262    142116.89   -40876.432    4024.2314   -44900.663     164.8595   0.96995167 
   16500    293.19937   -746.69087    142202.95   -40865.978    4026.3873   -44892.365    165.68254   0.96936467 
   16600    293.91672   -952.29169    142171.88   -40848.188    4036.2384   -44884.426    166.90536   0.96957651 
   16700    289.46037   -989.09705    142134.58   -40940.757    3975.0411   -44915.798    167.77402   0.96983094 
   16800    293.06701   -936.17448    142137.95   -40849.083    4024.5696   -44873.652    168.66716   0.96980798 
   16900    294.46366   -1021.9196    142241.97   -40877.208    4043.7493   -44920.957    170.68934   0.96909874 
   17000     295.7797   -784.47836       142563   -40873.513     4061.822   -44935.335    172.02767   0.96691651 
   17100    295.79566   -959.55619    142457.86    -40884.33    4062.0411   -44946.372    173.20092   0.96763013 
   17200    288.76259   -1188.1511    142161.96   -40904.321    3965.4589    -44869.78    173.99764   0.96964418 
   17300    291.54712   -739.54719    142523.62   -40927.302    4003.6977       -44931    175.17974   0.96718365 
   17400    296.10116   -1080.3979    142407.89   -40935.908    4066.2364   -45002.145    176.05472   0.96796966 
   17500    290.29291   -961.49482    142397.65   -40937.406    3986.4741    -44923.88    177.49073   0.96803928 
   17600    290.24117   -862.69125    142778.16   -40978.024    3985.7636   -44963.787    179.20197   0.96545942 
   17700    289.48956   -1029.4596    142949.83   -40926.094     3975.442   -44901.536    180.52565       0.9643 
   17800    288.58682   -839.32903    142906.55     -40992.7    3963.0451   -44955.745    181.86708   0.96459201 
   17900    285.41408   -696.86046    142729.81   -41049.219     3919.475   -44968.694    182.65679   0.96578643 
   18000    289.94298   -1012.4185    142987.13   -41051.007    3981.6686   -45032.676    183.59972   0.96404845 
   18100    295.83029   -1085.9554    142475.35     -41082.4    4062.5166   -45144.917    184.34153   0.96751135 
   18200    288.52137   -1019.8148    142308.68   -41046.476    3962.1463   -45008.622    185.44772   0.96864448 
   18300    295.25303   -1024.5778    142448.23   -41086.195    4054.5893   -45140.785    186.79149   0.96769552 
   18400    287.60268   -1069.7834    142618.31   -41147.014    3949.5302   -45096.545    188.28598   0.96654154 
   18500    291.37585   -900.12296    142785.12   -41051.061    4001.3456   -45052.407    189.95363   0.96541235 
   18600    294.45164   -1148.1185    142889.51    -41039.69    4043.5842   -45083.274    190.92638   0.96470701 
   18700    291.75111   -1102.1624    143163.72   -40936.486     4006.499   -44942.985    192.32063    0.9628593 
   18800    285.81694   -790.20597    143051.81   -41013.044    3925.0074   -44938.051    193.27348   0.96361254 
   18900    292.16345   -1005.4416    142506.43    -41004.04    4012.1614   -45016.201    194.30157   0.96730032 
   19000    290.39895   -791.96998    142643.56   -41005.712    3987.9303   -44993.642    194.90389   0.96637044 
   19100    286.72181   -860.49567    142678.62   -41038.615    3937.4336   -44976.049    195.75019   0.96613297 
   19200    292.60698   -923.00613    142645.76   -40972.811    4018.2522   -44991.063    196.39026   0.96635551 
   19300    294.36427   -1111.6751    142484.04   -40961.821    4042.3844   -45004.205    197.44894   0.96745235 
   19400    296.06274   -928.23469    142759.04   -40997.767    4065.7087   -45063.475     198.8486   0.96558871 
   19500    294.71994   -881.43062    142777.75   -40972.072    4047.2687   -45019.341    199.83035   0.96546219 
   19600     291.9728   -817.03902    142751.25   -40951.035    4009.5433   -44960.578    200.25379   0.96564141 
   19700    293.29731   -1157.7679    142971.11    -40966.59    4027.7322   -44994.322    201.64148   0.96415646 
   19800    290.92178   -1163.2629    142261.33   -40991.321    3995.1101   -44986.431    201.01914   0.96896688 
   19900     290.4673   -963.89283    142436.64   -40901.055    3988.8689   -44889.924    202.26414   0.96777429 
   20000    295.40823   -1023.8464    142578.37   -40857.311    4056.7206   -44914.032    203.09724   0.96681225 
   20100    293.03341   -940.82866    142784.23   -40867.654    4024.1083   -44891.763    204.39091   0.96541835 
   20200    295.78154   -1172.7898    142680.58   -40830.557    4061.8471   -44892.404    205.79393   0.96611969 
   20300    297.49729   -1075.5272    142675.09   -40801.758    4085.4088   -44887.167    206.79533   0.96615688 
   20400    293.51229   -971.31663    142212.07   -40886.346    4030.6845   -44917.031    207.10831   0.96930251 
   20500    294.28029   -767.01761    142815.04   -40835.977    4041.2311   -44877.208    209.01133   0.96521006 
   20600    296.81837   -991.19377    142737.35   -40915.963    4076.0855   -44992.049    209.88795   0.96573542 
   20700    288.53936   -797.00034    142540.54   -41034.786    3962.3932   -44997.179    210.27374   0.96706883 
   20800    283.62555   -1230.4905    142202.55   -41073.213    3894.9139   -44968.127    211.36732   0.96936744 
   20900    288.69719   -701.74465    142386.76   -41036.525    3964.5607   -45001.086    212.70656   0.96811331 
   21000    289.88998   -714.84549    142747.39   -40912.011    3980.9408   -44892.952    213.82056   0.96566749 
   21100     294.2179   -1164.7768    142564.57   -40991.189    4040.3743   -45031.563     214.8858   0.96690583 
   21200     285.0713   -1015.0065     142537.5   -41081.662    3914.7678    -44996.43    215.53214   0.96708947 
   21300    291.19806   -906.95938     142499.2   -41092.133    3998.9041   -45091.037    216.26089   0.96734938 
   21400    293.73594   -855.88741    142827.22   -40984.497    4033.7558   -45018.253    217.90419    0.9651278 
   21500    295.03452   -1245.3857    143066.74   -40913.734    4051.5887   -44965.323    219.09081   0.96351195 
   21600    292.34055   -1057.5133    142609.91   -40957.729    4014.5935   -44972.322    219.47475   0.96659842 
   21700    296.33312   -979.77474    142588.27   -40948.549    4069.4219   -45017.971    220.25083   0.96674511 
   21800    294.54221   -885.85612    142491.86   -40886.114     4044.828   -44930.942    220.84357   0.96739923 
   21900    294.31388   -880.45421    142298.21   -40851.036    4041.6924   -44892.728    221.95944   0.96871573 
   22000    292.95348    -1009.628    142699.84   -40906.064    4023.0107   -44929.074    223.47635   0.96598931 
   22100    294.81181    -956.8404    142775.31   -40838.018    4048.5303   -44886.548    224.60405    0.9654787 
   22200    288.64504   -826.57184     142932.5   -40832.351    3963.8445   -44796.196    225.94691   0.96441686 
   22300    293.42368   -942.20357     142805.6   -40878.947    4029.4677   -44908.415    226.50853   0.96527391 
   22400    297.13131   -995.03737    142902.43   -40960.542    4080.3831   -45040.925    227.35959   0.96461985 
   22500    291.34074   -1125.3321    142884.81   -41003.279    4000.8635   -45004.143    228.71851   0.96473881 
   22600    289.88412   -904.54836    142920.02   -41029.252    3980.8604   -45010.112    229.24363   0.96450107 
   22700     295.1353   -1147.0716    142953.42   -40999.764    4052.9726   -45052.736    230.82685   0.96427578 
   22800    291.60449   -962.53727    142771.67   -41106.142    4004.4855   -45110.628     231.3881   0.96550332 
   22900    290.45262   -1055.8553    142735.06   -41118.431    3988.6672   -45107.099    232.82483   0.96575094 
   23000    299.22038    -1313.604     142806.7   -40956.683    4109.0714   -45065.755    234.09395   0.96526648 
   23100    292.86173   -823.33203    142618.56   -41012.159    4021.7506   -45033.909    235.01355   0.96653983 
   23200     291.6879    -723.2422    142972.01   -40996.007    4005.6308   -45001.638    236.50994   0.96415038 
   23300    287.90398   -1000.1923    143080.75   -41096.558    3953.6678   -45050.226    237.45057   0.96341762 
   23400    292.18976   -1093.7952    142604.72   -41031.554    4012.5227   -45044.076    237.62722   0.96663361 
   23500    294.45146   -941.42804    142400.11   -41084.892    4043.5817   -45128.474    239.06123   0.96802254 
   23600     283.6581   -1039.1751    142756.77   -41104.467    3895.3609   -44999.828    241.32976   0.96560403 
   23700    290.52682   -1013.6124    142999.97   -41101.859    3989.6862   -45091.545    242.75033   0.96396183 
   23800    289.69486   -851.25347    143056.36   -41058.681    3978.2613   -45036.943    243.86157   0.96358191 
   23900    294.89494   -1132.1136    143040.21   -40974.553    4049.6719   -45024.225    244.88741   0.96369068 
   24000    295.04894   -976.67569    143090.98    -40968.87    4051.7867   -45020.657    246.45654   0.96334872 
   24100     297.7257    -943.2388    143079.95    -40994.38    4088.5456   -45082.926    247.77989   0.96342301 
   24200    289.13522   -704.05854    143436.81   -40897.757     3970.576   -44868.333    249.50799   0.96102609 
   24300    286.57954   -1041.5677    143405.64   -40959.686    3935.4799   -44895.166    250.11838   0.96123495 
   24400    289.17445   -726.34729    143477.89   -40900.213    3971.1147   -44871.328    251.69599   0.96075096 
   24500    295.52393   -1028.9595    143183.37   -40904.205    4058.3096   -44962.515    252.37839   0.96272715 
   24600    293.63551   -748.81043    143236.14    -40936.82    4032.3766   -44969.197    254.05805   0.96237247 
   24700    289.20662   -982.57176     143101.3   -40919.361    3971.5565   -44890.917    254.40652   0.96327924 
   24800     291.3674   -907.60682     143138.5   -40902.929    4001.2296   -44904.159    255.40495   0.96302892 
   24900    290.88584   -823.89261    143125.76   -40971.507    3994.6165   -44966.124    256.85481   0.96311467 
   25000    291.46856   -1090.8045    143492.69   -40985.271    4002.6188    -44987.89    257.93333   0.96065185 
   25100    293.88972   -1193.3487     143328.6   -41006.974    4035.8676   -45042.842    259.24345   0.96175166 
   25200    292.54782   -1015.8659    142867.68    -41043.79    4017.4399    -45061.23     259.7443   0.96485443 
   25300    287.12064   -934.79437    143234.62   -41059.373    3942.9106   -45002.283    261.05325   0.96238265 
   25400    294.32136   -1009.3982    143215.37   -41003.513    4041.7952   -45045.308    262.36921   0.96251203 
   25500    286.71759   -1177.4439    143385.08   -41071.631    3937.3756   -45009.006    263.76342   0.96137281 
   25600    288.65329   -995.52655    143302.66   -41125.208    3963.9578   -45089.166    264.35201   0.96192574 
   25700    285.57122   -958.02889    143176.19   -41122.145     3921.633   -45043.778    264.94866    0.9627754 
   25800    287.69109    -1344.332    142952.96   -41187.928    3950.7443   -45138.672    265.66351   0.96427887 
   25900    286.33809   -1016.6051    142979.12   -41268.876    3932.1641    -45201.04    266.42059   0.96410242 
   26000    286.83338   -1022.0586    142807.88    -41104.34    3938.9657   -45043.305    267.04986   0.96525846 
   26100    292.24578   -771.52729    143068.01   -41110.805    4013.2921   -45124.097    268.06662   0.96350339 
   26200    297.48532   -842.13943    143317.55   -41025.117    4085.2445   -45110.362    269.50827   0.96182582 
   26300    291.20766   -1056.0583    143277.85   -41104.327     3999.036   -45103.363    270.48964   0.96209228 
   26400    292.80705   -1076.1875     143264.1   -41087.893    4020.9998   -45108.893    271.42833   0.96218462 
   26500    298.76723   -987.19676    143397.94   -40936.846    4102.8484   -45039.695    272.02768   0.96128661 
   26600    294.04342   -1028.3773    143294.95   -41028.601    4037.9783    -45066.58    272.88885    0.9619775 
   26700    294.30454   -1172.7828    142937.65    -40967.25    4041.5642   -45008.814    273.99204   0.96438214 
   26800    293.28707   -1092.3501     142844.2   -40984.173    4027.5916   -45011.764    274.54759   0.96501302 
   26900    286.80038   -806.99871     142816.4   -41076.033    3938.5126   -45014.545    275.39567   0.96520087 
   27000    286.50841   -962.24025    142977.85   -41062.041     3934.503   -44996.544    276.60926   0.96411098 
   27100     286.8066   -1027.9157    142834.86    -40985.64     3938.598   -44924.238    277.21438   0.96507614 
   27200     287.9408   -1186.8064    142701.03   -40888.302    3954.1734   -44842.475     278.0778   0.96598121 
   27300    293.74099   -971.15412    142790.33   -40824.992    4033.8252   -44858.817    279.15203   0.96537709 
   27400    289.17108   -928.03985    142912.68   -40810.803    3971.0684   -44781.872    281.34057    0.9645506 
   27500    292.44137   -1063.5436       142646   -40900.156     4015.978   -44916.134    281.32628    0.9663539 
   27600    294.67273   -943.38506    142950.13   -40848.215    4046.6203   -44894.835    282.31947   0.96429792 
   27700    294.28138   -1121.9076    143107.19   -40839.799    4041.2462   -44881.045    283.61856   0.96323964 
   27800    297.56525   -1075.8018    142969.64   -40846.801    4086.3422   -44933.143    284.49384   0.96416636 
   27900    294.08638   -1086.5553    142960.75   -40836.681    4038.5682   -44875.249    284.89831   0.96422629 
   28000    294.24419   -1062.5262    143135.46   -40805.782    4040.7353   -44846.518    286.53555   0.96304935 
   28100    287.31036   -1076.9202    142559.82   -40895.643     3945.516   -44841.159    286.47565   0.96693808 
   28200    286.18422   -770.35611    142454.72   -41018.208    3930.0511    -44948.26    286.65284   0.96765145 
   28300    288.78721   -1163.1056    142598.78   -41020.143    3965.7969    -44985.94     287.8698   0.96667392 
   28400    288.25627   -839.62471    142635.52   -40915.648    3958.5058   -44874.154    289.31932   0.96642491 
   28500    289.21546   -849.57829     142826.2   -40953.808    3971.6779   -44925.486    290.50963   0.96513465 
   28600    297.91511    -869.7463    143221.73   -40989.485    4091.1466   -45080.632    292.08328   0.96246927 
   28700    287.63497   -862.46313     142992.5   -41054.592    3949.9737   -45004.565    293.54789   0.96401223 
   28800    289.56217   -1102.1639    143331.54   -41017.174    3976.4391   -44993.613    295.04298   0.96173191 
   28900    288.68631   -1020.7629    143346.73   -41010.268    3964.4112   -44974.679    296.71486   0.96162998 
   29000    291.21504   -968.66157     143150.9   -40995.804    3999.1373   -44994.941    297.43615   0.96294548 
   29100    290.32612   -1002.6207    143079.22    -40945.01    3986.9301    -44931.94     298.2725   0.96342791 
   29200    295.10831   -1027.2649    142927.88   -40995.962     4052.602   -45048.564    299.56861   0.96444804 
   29300    291.86322   -1050.1534    142767.91   -40956.332    4008.0384   -44964.371    300.22548    0.9655287 
   29400     285.4973   -832.23156    142545.92   -41000.126    3920.6179   -44920.744    300.78769   0.96703237 
   29500    290.82109   -1057.0983    142902.83   -40907.854    3993.7273   -44901.581    301.87631   0.96461714 
   29600    298.88313   -1110.0741    142806.38   -40955.444    4104.4401   -45059.884    303.10109   0.96526862 
   29700    294.88092   -1186.1431    142865.74    -40934.42    4049.4793   -44983.899    304.71501   0.96486755 
   29800    291.90204   -1000.5674     142428.8   -40869.866    4008.5716   -44878.438    304.93774   0.96782755 
   29900    290.08639   -824.64398    142507.88   -40882.524     3983.638   -44866.162    306.71775    0.9672905 
   30000    293.90592   -954.91385    142723.52   -40868.345      4036.09   -44904.435     308.0511   0.96582904 
   30100    294.67891    -1178.758    142754.37   -40879.202    4046.7053   -44925.907    308.13163   0.96562031 
   30200    293.67322   -791.95598    142715.41    -40877.51    4032.8944   -44910.404    309.15361   0.96588388 
   30300    292.12347   -1008.9333     142474.5   -40870.822    4011.6124   -44882.434    310.24839   0.96751712 
   30400    289.18447   -796.78889    142598.58   -41059.044    3971.2523   -45030.297    311.45448   0.96667524 
   30500    290.15421   -998.37934    142782.15   -41031.521    3984.5693    -45016.09    312.82076    0.9654324 
   30600    288.82463   -1209.9029    142796.36   -41027.343    3966.3107   -44993.654    314.00764   0.96533633 
   30700    293.49011   -871.00457    142537.89    -41018.57    4030.3799    -45048.95    314.36367   0.96708683 
   30800    285.45236   -856.80369    142905.23   -40975.977    3920.0008   -44895.978    315.48824   0.96460089 
   30900    290.96879   -966.42691    142533.74   -41003.922    3995.7557   -44999.678    316.60361   0.96711501 
   31000    297.83155   -1332.5039     142266.1   -41020.533    4089.9991   -45110.532    317.41462   0.96893441 
   31100    287.46919   -953.11704    142040.25   -41189.782    3947.6971    -45137.48    318.28988   0.97047504 
   31200    288.07647   -922.36755    142512.33   -41131.638    3956.0365   -45087.675    319.80868   0.96726031 
   31300    293.59807   -919.93338    143011.29    -41093.07    4031.8624   -45124.932    321.98104   0.96388554 
   31400    290.00776    -924.1643     143082.8    -41111.63    3982.5582   -45094.188    323.20029   0.96340382 
   31500    296.13159   -783.33458    142772.49   -41005.266    4066.6543    -45071.92    323.48897   0.96549771 
   31600    287.47595   -1108.1363    142605.16   -41009.115    3947.7899   -44956.905     324.8105   0.96663063 
   31700     293.3534   -838.54822    142524.78   -41026.657    4028.5025   -45055.159    325.30409    0.9671758 
   31800    288.25546   -1009.4625    142625.18   -41026.345    3958.4945    -44984.84    326.99543   0.96649493 
   31900    286.35719   -1106.9229     142679.7   -40979.425    3932.4264   -44911.851    328.23284   0.96612562 
   32000    290.16537   -827.01295    142664.71    -40943.75    3984.7226   -44928.472    328.97032   0.96622715 
   32100     290.0894    -1144.946    142611.98    -40982.06    3983.6793    -44965.74     329.3263   0.96658439 
   32200    292.11909   -939.64651    142695.26   -40987.281    4011.5522   -44998.833    331.06721   0.96602028 
   32300    287.28208    -1107.322    142441.83    -40992.49    3945.1276   -44937.618    331.23374   0.96773903 
   32400    291.05638   -923.32652    142646.09   -40893.722    3996.9585   -44890.681    332.60153    0.9663533 
   32500    289.45813   -842.19603    142824.34   -40977.821    3975.0104   -44952.831    333.56261   0.96514727 
   32600    291.67184    -1146.962    142863.93   -40964.609    4005.4103   -44970.019    334.77743   0.96487975 
   32700    287.21732   -1061.2641    143174.61   -40934.487    3944.2382   -44878.725    336.42716   0.96278607 
   32800    294.30072   -1043.8982    143377.49    -41021.38    4041.5116   -45062.892    337.89928   0.96142369 
   32900    288.99182   -1107.1586    143020.29   -41120.141    3968.6067   -45088.748    338.32582   0.96382491 
   33000    290.28574   -1259.6011    142738.85   -41141.738    3986.3756   -45128.114    338.80896   0.96572526 
   33100    295.57528   -1234.0429    142678.29   -41095.039    4059.0146   -45154.054     340.0377   0.96613516 
   33200    297.76826   -875.85212    142812.45   -41071.871    4089.1299   -45161.001    341.39659   0.96522757 
   33300    296.72294   -951.91357    142799.76   -41040.389     4074.775   -45115.164    343.06204   0.96531338 
   33400    292.97353   -830.45902    142699.06   -41078.046     4023.286   -45101.332    343.25793   0.96599456 
   33500    292.99295   -821.74093    142952.11   -40983.213    4023.5527   -45006.766     343.7803   0.96428457 
   33600     293.8506   -938.63854    142880.57   -41026.938    4035.3304   -45062.268    344.74203   0.96476738 
   33700    294.77257   -1057.9402    142750.03   -41051.384    4047.9913   -45099.375    345.90465   0.96564966 
   33800    289.63114   -1022.3237    142935.57   -41009.676    3977.3863   -44987.063    347.84655   0.96439614 
   33900    295.83388   -1102.4665    142995.59    -40998.24     4062.566   -45060.806    349.31051   0.96399138 
   34000    287.34095   -1103.3421     143077.4   -41031.362     3945.936   -44977.298    350.42551   0.96344019 
   34100    286.76877    -1110.726    142584.95   -41121.157    3938.0785   -45059.235    350.73328   0.96676766 
   34200    287.44646    -1074.993    142653.63   -41090.564     3947.385   -45037.949     351.5341   0.96630217 
   34300    289.82308   -1132.0817    142544.55   -41023.453     3980.022   -45003.475    352.21315   0.96704163 
   34400    298.31077   -896.62661    143026.53    -40904.21    4096.5801    -45000.79    354.03786   0.96378286 
   34500    298.67613    -908.4325    142838.61   -40861.478    4101.5973   -44963.075     355.1288   0.96505081 
   34600    291.63882   -1037.2414    143131.94   -40935.677    4004.9569   -44940.634    356.69583   0.96307309 
   34700    292.65988    -764.0552    142945.82   -40998.231    4018.9787    -45017.21    357.45507   0.96432704 
   34800    290.58893   -1063.4479    142805.94   -41036.402    3990.5392   -45026.942    358.15393   0.96527159 
   34900     290.7847   -829.12121    142481.59   -40997.856    3993.2276   -44991.084    358.78976   0.96746896 
   35000    290.96636   -1120.2662     142651.9   -41083.817    3995.7223    -45079.54    359.94631   0.96631391 
   35100    289.36967   -1063.3804     142672.5   -40989.215    3973.7957   -44963.011    361.22675   0.96617438 
   35200     302.2976    -834.3034    142768.42   -40834.379    4151.3296   -44985.708    363.35011   0.96552526 
   35300    295.35411    -964.0721     142999.3   -40953.979    4055.9775   -45009.956    365.31684   0.96396639 
   35400    287.10815   -1096.8432     142911.7   -41053.492     3942.739   -44996.231    365.79514   0.96455724 
   35500    289.56551   -954.89565    142714.39   -41049.944     3976.485   -45026.429    366.48566   0.96589081 
   35600    292.36517    -959.2054    142774.45   -41079.956    4014.9315   -45094.887    368.00244    0.9654845 
   35700    294.34553    -1060.406    143063.33   -41018.553    4042.1271    -45060.68    369.85797   0.96353494 
   35800    296.51875   -1180.2556    143268.77   -41005.441     4071.971   -45077.412    371.54191    0.9621533 
   35900    290.97104   -830.62943    143305.17   -40956.805    3995.7866   -44952.591     372.2799   0.96190892 
   36000    290.61795   -1308.6784    143485.04   -40933.307    3990.9377   -44924.245    373.30169   0.96070305 
   36100    292.89694   -1082.1377    143133.29   -40952.417    4022.2342   -44974.651    373.01652     0.963064 
   36200    294.16128   -1136.1045    142812.82   -40920.272    4039.5969   -44959.869    373.49564   0.96522508 
   36300    289.44003   -817.30233    142923.49   -40930.339    3974.7618   -44905.101    375.15092    0.9644777 
   36400    303.52484   -929.48992    143232.63   -40802.699    4168.1828   -44970.882    377.60552   0.96239604 
   36500    298.93329   -1329.7387    143105.17   -40771.501    4105.1289    -44876.63    379.61458   0.96325324 
   36600    295.22465   -1137.3895    143119.26   -40940.433    4054.1996   -44994.633    380.42905   0.96315841 
   36700    296.32471   -1079.0081    143043.01   -40981.227    4069.3062   -45050.533    381.39065   0.96367181 
   36800     286.0247   -1137.3897    142755.33   -41007.484    3927.8605   -44935.345    381.97754   0.96561381 
   36900    289.51252   -947.91326    142705.46   -41100.228    3975.7573   -45075.985     383.0284   0.96595127 
   37000      291.475   -931.85274    142708.06   -41049.392    4002.7072   -45052.099    384.27963   0.96593364 
   37100    288.03147   -1056.1929    142584.17   -41087.314    3955.4187   -45042.733     385.0673   0.96677292 
   37200    288.84026   -789.65919    142695.08   -41041.933    3966.5254   -45008.459    386.06595    0.9660215 
   37300    286.80245      -885.49    142700.63   -41021.166    3938.5411   -44959.707    386.43741   0.96598393 
   37400    288.94022   -856.22102    142941.81   -41037.221    3967.8981   -45005.119     387.7345    0.9643541 
   37500    285.63846   -868.67331    143030.25   -41063.074    3922.5564    -44985.63    388.09566   0.96375777 
   37600    288.26078   -963.56522    142714.33   -41024.768    3958.5676   -44983.336    389.10567   0.96589119 
   37700    294.21076   -1181.3583    142619.61   -41042.691    4040.2764   -45082.968     389.5528   0.96653267 
   37800      287.509   -1113.4918     142519.9   -41048.573    3948.2438   -44996.817    390.59102   0.96720888 
   37900     289.2632   -960.16002     142475.8   -41071.193    3972.3335   -45043.526    391.74511   0.96750827 
   38000    293.52743   -984.63974    142673.94   -41026.039    4030.8924   -45056.932    392.98567   0.96616464 
   38100    293.68689   -1066.3631    142835.01   -41058.393    4033.0822   -45091.475    394.32641   0.96507517 
   38200    290.08533   -1032.0553    142397.69   -41103.266    3983.6234   -45086.889    394.14695   0.96803897 
   38300    284.72226   -837.78303    142332.82   -41196.157    3909.9747   -45106.131    395.61348   0.96848021 
   38400     288.8075   -1045.3604    142449.05   -41256.942    3966.0755   -45223.018    397.54768   0.96768998 
   38500    285.52385   -937.13124    142290.09   -41230.155    3920.9825   -45151.137    397.97292   0.96877106 
   38600    291.38681   -1147.7621    142185.43   -41093.755    4001.4961   -45095.251    398.46497   0.96948416 
   38700    288.70804    -693.1006    142519.26   -41066.978    3964.7097   -45031.688    399.95068   0.96721328 
   38800    289.23536   -1122.5184    142297.93   -41007.328    3971.9512    -44979.28    401.04954   0.96871768 
   38900    294.90319    -999.6041    142437.66   -40886.505    4049.7851    -44936.29    402.57538   0.96776733 
   39000    297.00586   -1108.5089    142325.09    -40898.85    4078.6602    -44977.51    403.68447   0.96853278 
   39100    293.92581   -759.98285    142078.51   -41017.767    4036.3632    -45054.13    404.28469   0.97021371 
   39200    293.81678   -867.70149    142296.84   -40978.482     4034.866   -45013.348    405.52532   0.96872507 
   39300    292.76568    -1075.397    142634.87   -40948.785    4020.4316   -44969.217    406.61315    0.9664293 
   39400    294.45855   -723.52449    142546.82   -40964.606    4043.6791   -45008.285    408.04537   0.96702624 
   39500    302.05666   -1048.7143    142449.09   -40897.632    4148.0209   -45045.653    409.51884   0.96768969 
   39600    292.83747   -1172.9459    142808.73   -40901.154    4021.4174   -44922.572    411.90969   0.96525274 
   39700    288.90123   -923.34918    142783.69   -41002.498    3967.3627   -44969.861     413.8306   0.96542199 
   39800    289.86539   -1127.6422    142476.15   -40988.591    3980.6031   -44969.194    414.62671   0.96750589 
   39900    288.98344   -914.37639     142702.1   -41172.077    3968.4917   -45140.569    416.06308   0.96597402 
   40000    286.41516   -742.76882    142886.38    -41041.28    3933.2225   -44974.502     417.7511   0.96472816 
   40100    295.28854   -792.59611    142867.61   -41039.799     4055.077   -45094.876    419.35664   0.96485489 
   40200    292.22951   -947.72952    142599.29   -41004.185    4013.0686   -45017.254    419.99094    0.9666704 
   40300     291.1874   -892.75189    142774.22   -41059.747    3998.7577   -45058.505    422.09369   0.96548602 
   40400    288.68217   -859.29254    143107.31   -41054.935    3964.3544    -45019.29    423.39618    0.9632388 
   40500    291.98476   -1072.8877    143072.91   -41033.869    4009.7076   -45043.576    425.07729   0.96347042 
   40600    292.38844   -882.46112    142874.79   -41016.262    4015.2512   -45031.513    425.85166   0.96480646 
   40700    290.98341   -792.84135    143366.39   -41019.072    3995.9565   -45015.029    427.60285   0.96149812 
   40800    291.84555   -1146.4532    143480.32   -40993.484    4007.7958   -45001.279    428.90932   0.96073463 
   40900    288.36002   -1128.4486    143320.17   -41043.868    3959.9305   -45003.798    429.14728   0.96180824 
   41000    299.10204   -906.17178    143815.72   -41006.483    4107.4462   -45113.929    431.15369    0.9584941 
   41100    295.62824   -1196.3602    143483.37   -41025.195    4059.7419   -45084.936    432.21225   0.96071425 
   41200     298.7578   -916.36041    143315.22    -40922.86    4102.7189   -45025.579    433.14478    0.9618414 
   41300    286.37084   -782.61605    143475.15   -41070.149    3932.6138   -45002.762    434.47014   0.96076931 
   41400    291.04339   -703.15952    143297.06    -41029.71    3996.7801    -45026.49    435.41401    0.9619633 
   41500    292.44357   -1050.7124    143566.46   -41040.746    4016.0081   -45056.754    436.99756   0.96015821 
   41600    292.21148   -1027.6774     143913.1   -40990.774    4012.8211   -45003.595    438.36791   0.95784549 
   41700    287.02437   -1334.1566    143519.74   -41093.676    3941.5885   -45035.264    438.63588   0.96047076 
   41800    291.99904   -1165.7364    143152.29   -40987.847    4009.9036    -44997.75    438.13895   0.96293618 
   41900    294.05381   -861.34619     143192.3   -40996.042     4038.121   -45034.163    438.89778   0.96266709 
   42000    294.93287   -1154.4811    143289.99   -41038.705    4050.1928   -45088.898    439.55892   0.96201082 
   42100    287.02958   -891.03108    143238.54   -41016.701    3941.6601   -44958.361    440.40213   0.96235636 
   42200    292.10299   -1152.4053    142824.37   -40987.535    4011.3312   -44998.866    439.94541   0.96514705 
   42300    290.07255    -852.1429    142752.55   -41103.021     3983.448   -45086.469    440.35231   0.96563262 
   42400    294.66571   -1141.6254    142744.03   -41049.906    4046.5239    -45096.43     440.9143   0.96569023 
   42500    287.91127   -978.02141    142971.45   -41089.973     3953.768   -45043.741    442.63063   0.96415417 
   42600     292.8126   -903.07679    142743.34   -41103.335    4021.0759   -45124.411    443.41606   0.96569493 
   42700    283.79946   -1123.0254    142738.34    -41177.92    3897.3021   -45075.222    443.78159   0.96572871 
   42800    288.50904   -1082.1764    142502.89       -41134     3961.977   -45095.977    444.74176   0.96732438 
   42900    288.26842   -909.26845    142202.05    -41115.08    3958.6725   -45073.752    445.11052   0.96937083 
   43000    287.44699     -940.232    142806.45   -41024.468    3947.3922    -44971.86    447.17417   0.96526817 
   43100    287.85753   -894.52787     142678.5   -41029.613    3953.0299   -44982.643    447.97765   0.96613376 
   43200    293.49455   -994.44146    142699.86   -41036.701    4030.4409   -45067.142    448.61862   0.96598914 
   43300     293.5161   -769.19958    142729.66   -41045.476    4030.7368   -45076.212    449.90115    0.9657875 
   43400    293.12157    -1033.327    143005.07   -41085.206    4025.3189   -45110.525    450.40558   0.96392746 
   43500    287.55796   -818.06985    143008.54   -41046.733    3948.9162   -44995.649    450.84268   0.96390406 
   43600    292.13251   -894.37409    143000.76   -41073.259    4011.7366   -45084.996     452.0264   0.96395652 
   43700    290.14947   -1098.4693    142867.99   -41042.398    3984.5042   -45026.902    452.41368   0.96485236 
   43800    295.68749   -1191.1243    142535.07   -40971.197    4060.5557   -45031.753    452.70323   0.96710598 
   43900    290.88826   -896.96134     142958.9    -41060.62    3994.6498    -45055.27    454.69228   0.96423878 
   44000    287.13882   -872.98429    143037.35   -40996.081    3943.1603   -44939.241     454.9536   0.96370998 
   44100     294.9453   -1269.1376    143163.23   -40884.632    4050.3634   -44934.995    455.44913    0.9628626 
   44200    290.66065   -1154.3762    143059.43   -40979.591     3991.524   -44971.116    457.20931   0.96356118 
   44300    291.60791   -1020.7783    143372.69   -41103.882    4004.5324   -45108.414    458.16811   0.96145591 
   44400    287.47039   -1209.7927    143165.55   -41099.434    3947.7136   -45047.148    458.14813   0.96284696 
   44500    287.91956   -1236.5344    143047.28     -41101.3    3953.8818   -45055.182     458.5913   0.96364303 
   44600    285.31226    -1069.374    143161.14   -41099.505    3918.0769   -45017.582    459.73758   0.96287666 
   44700    286.84747   -1081.8348    142947.87   -41110.703    3939.1592   -45049.862    460.30051   0.96431318 
   44800    288.69565   -1124.6067    142670.53   -41024.653    3964.5395   -44989.193    461.15022   0.96618776 
   44900    289.70299   -1361.5925     142933.4   -41044.574    3978.3729   -45022.946    463.32148   0.96441085 
   45000    290.88647   -1194.8499    142777.63   -41053.988    3994.6251   -45048.613    464.14307   0.96546296 
   45100    293.65826   -829.19999    142836.14   -40996.985     4032.689   -45029.674    465.67119   0.96506752 
   45200    289.43025   -681.84884     143213.4   -41021.252    3974.6276    -44995.88    467.43956   0.96252528 
   45300    294.45702   -977.81367    143216.32    -41073.74    4043.6581   -45117.398    468.81199   0.96250563 
   45400    286.68717   -933.03127    143155.14   -41130.256    3936.9579   -45067.213    469.81737   0.96291701 
   45500    292.47212   -874.10398    143392.96   -41047.846    4016.4003   -45064.246    471.58218   0.96132001 
   45600    287.72242   -1122.3274    143314.26   -41090.276    3951.1746    -45041.45    472.63274   0.96184788 
   45700    293.37104   -803.29821    143399.07   -40998.569    4028.7448   -45027.314    473.40343   0.96127902 
   45800    289.16466   -1045.3516    143192.78   -40988.535    3970.9803   -44959.515    473.66623   0.96266387 
   45900    298.00871    -1052.686    142878.14   -40996.974    4092.4321   -45089.406    473.97589    0.9647838 
   46000    284.92347   -929.92604    143031.99    -41073.69    3912.7378   -44986.428     475.2858   0.96374605 
   46100    286.53332   -967.44345    142550.97   -40997.771    3934.8451   -44932.616    474.39868   0.96699807 
   46200    290.43351   -866.83248    142996.43   -40970.655    3988.4048    -44959.06    476.36116   0.96398575 
   46300    291.11216   -1095.9554    143246.21   -40976.418    3997.7245   -44974.143    478.12363   0.96230479 
   46400    288.45391   -870.00327    143319.87   -41002.675    3961.2199   -44963.895    478.35323   0.96181024 
   46500    296.68001   -1104.8886     143116.1   -40963.778    4074.1855   -45037.963    479.24428   0.96317966 
   46600    295.43995   -1054.1635    142990.23   -40915.933    4057.1563   -44973.089    480.40933   0.96402754 
   46700    292.89262    -910.5669    143000.88   -40882.896    4022.1748   -44905.071    482.20563   0.96395572 
   46800    293.45537   -1103.6595    142911.05   -40883.559    4029.9029   -44913.462    484.01384   0.96456166 
   46900    294.91415   -1100.0464     142419.8   -40894.158    4049.9356   -44944.094     484.2594   0.96788873 
   47000    292.53676   -778.57877    142687.54   -40975.347     4017.288   -44992.635    486.26239   0.96607257 
   47100    292.63556   -949.83063    142807.15   -40916.658    4018.6447   -44935.302    487.42663   0.96526342 
   47200    292.35355   -890.21404    142934.03   -40941.617     4014.772   -44956.389    489.09755   0.96440654 
   47300    286.58281   -797.74091    142947.63   -40893.658    3935.5247   -44829.183    490.75036   0.96431479 
   47400    292.15802   -1316.7296    142835.89   -40833.302    4012.0869   -44845.388    491.40286   0.96506918 
   47500    294.96459   -980.86672    142487.95   -40885.419    4050.6283   -44936.048     491.9687    0.9674258 
   47600    297.98448   -932.76088     142515.5   -40865.854    4092.0993   -44957.953    493.37679   0.96723874 
   47700    289.30182   -1135.5839    142389.43   -40985.368    3972.8638   -44958.232     494.0457   0.96809513 
   47800    294.07347   -1073.9282    142288.02   -41049.255    4038.3909   -45087.646     495.0757   0.96878509 
   47900    297.81482   -963.80638    142318.52   -41011.609    4089.7694   -45101.378    495.89355    0.9685775 
   48000    291.64233   -823.12038    142779.41   -41042.522     4005.005   -45047.527    498.22747   0.96545097 
   48100    293.46374    -747.7752    142845.26   -41072.388    4030.0177   -45102.405    499.78961   0.96500588 
   48200    289.43289   -983.47753    142819.61   -41080.446    3974.6638    -45055.11    501.73409   0.96517919 
   48300    294.09902   -1001.0897     143359.5   -41039.006    4038.7418   -45077.748    504.43749   0.96154437 
   48400    287.26673   -774.01786    143224.72   -40991.002    3944.9167   -44935.919    504.62534   0.96244919 
   48500    288.42501   -874.87704    143175.87   -41087.906    3960.8229   -45048.729    505.22977   0.96277758 
   48600    291.46248   -1213.0145    142695.05   -41079.183    4002.5352   -45081.718    505.01539    0.9660217 
   48700    289.83809   -1010.1992    143008.83   -41159.098    3980.2282   -45139.326    506.25515   0.96390216 
   48800    290.78396   -965.78465    142887.36   -41120.179    3993.2174   -45113.396    506.81466   0.96472153 
   48900    291.44329   -993.44729    142695.74   -41054.577    4002.2717   -45056.848     506.9994   0.96601708 
   49000     295.3647   -934.01318    142742.51   -41030.263    4056.1228   -45086.385    507.78844   0.96570051 
   49100    292.18786   -1111.3131       142787   -41100.456    4012.4967   -45112.953    509.60722   0.96539962 
   49200    288.93261   -1090.9333    142232.21   -41190.904    3967.7936   -45158.698    509.18021   0.96916528 
   49300    286.64101   -1118.2009    142034.96   -41122.954     3936.324   -45059.278    510.55136   0.97051119 
   49400    285.91324   -675.73254    142272.34    -41117.06    3926.3298    -45043.39    511.92755   0.96889189 
   49500    295.98013   -1057.1088    142560.07    -41061.71    4064.5744   -45126.284    514.07929   0.96693639 
   49600    294.62339   -1015.8328    142686.95   -41046.663    4045.9428   -45092.606    516.24914   0.96607652 
   49700    290.18677   -845.50485    142716.73   -41013.799    3985.0164   -44998.816    517.39602   0.96587494 
   49800    296.44186   -1134.8799     142790.5   -40975.329    4070.9151   -45046.244    518.09636   0.96537599 
   49900    287.84161     -788.325    142606.16   -41032.489    3952.8114     -44985.3    518.11949   0.96662386 
   50000    291.33411    -1461.941    142385.03   -41049.257    4000.7725   -45050.029    518.76967   0.96812507 
   50100    293.86285   -763.37532    142360.97   -41030.462    4035.4987   -45065.961    519.27593   0.96828868 
   50200    287.88317    -782.0455    142542.62   -41038.916    3953.3821   -44992.298    520.72127   0.96705475 
   50300    293.90695   -1014.5339    142395.39   -40966.297    4036.1042   -45002.401    521.97603    0.9680546 
   50400     289.0215   -944.22993     142257.8   -41014.127    3969.0144   -44983.141    523.15786   0.96899094 
   50500    290.17636   -775.86011    142441.88   -41033.475    3984.8736   -45018.349    524.60334    0.9677387 
   50600    291.66931   -826.75536    142487.04     -41033.3    4005.3756   -45038.676    526.07855   0.96743195 
   50700    290.78925   -806.68817    142716.47   -40937.476    3993.2901   -44930.766    527.65561   0.96587674 
   50800    287.35044   -1144.3436    142730.07   -40930.421    3946.0664   -44876.487    528.99392   0.96578467 
   50900    292.94022   -964.53081    142701.56   -40928.707    4022.8285   -44951.535    530.63878   0.96597762 
   51000    290.21251   -833.09265    142620.53   -40942.675      3985.37   -44928.045    530.98963   0.96652647 
   51100    297.52451   -1042.1502    142400.17   -40932.483    4085.7826   -45018.266    531.34059   0.96802213 
   51200    295.90246   -1182.3636    142551.02   -40821.929    4063.5077   -44885.437    532.12418   0.96699776 
   51300    294.95109   -984.66748     142737.3    -40863.09     4050.443   -44913.533    533.88472    0.9657358 
   51400    291.94798     -1004.01    142372.38   -41037.669    4009.2024   -45046.872    534.32662   0.96821108 
   51500    290.55372   -1169.9822    142287.51   -41059.829    3990.0556   -45049.885    535.77737    0.9687886 
   51600    294.68884   -824.10303    142120.87   -41033.836    4046.8416   -45080.678    535.56733   0.96992453 
   51700    291.55392   -1044.8046    142630.64   -41086.542     4003.791   -45090.333    537.89187   0.96645795 
   51800     287.4333   -1002.3512    142536.35    -41087.81    3947.2041   -45035.014    538.27554   0.96709731 
   51900    285.68242   -1178.2234    142265.32   -41184.235    3923.1601   -45107.395    538.57552   0.96893972 
   52000    285.54685   -1182.7085    142194.14   -41111.598    3921.2983   -45032.896    538.90761   0.96942475 
   52100    292.96197   -1105.0851    142150.16   -41126.036    4023.1272   -45149.163    540.71834   0.96972467 
   52200    286.40397   -772.66838    142237.66   -41142.617    3933.0688   -45075.685    542.50128   0.96912815 
   52300     293.1561   -1101.5737     142060.1   -41088.201    4025.7931   -45113.994    543.07072   0.97033942 
   52400    292.35207   -900.39459    142108.28   -40997.354    4014.7517   -45012.106      544.121   0.97001046 
   52500    286.41608    -995.5319    142176.05   -40988.988    3933.2351   -44922.223    545.32884   0.96954809 
   52600    292.85587   -1112.1536    141926.52   -41100.873    4021.6701   -45122.543    546.14523   0.97125272 
   52700    291.90915   -1038.9406    142277.26   -41076.934    4008.6692   -45085.603    547.34396   0.96885839 
   52800    288.29339   -1144.6268    142152.35   -41134.906    3959.0155   -45093.921    548.08528   0.96970973 
   52900    287.22112   -934.72522    142149.08   -41209.049    3944.2904   -45153.339    549.82231   0.96973204 
   53000    283.68519    -1074.466    142223.19    -41255.64     3895.733   -45151.373    552.03502   0.96922672 
   53100    289.56924   -935.86747    142190.31   -41290.735    3976.5362   -45267.272    553.24671   0.96945087 
   53200    288.81652   -1023.5103    142383.33   -41099.647    3966.1994   -45065.847    554.62063   0.96813665 
   53300    294.02085   -885.32182    142453.54   -41084.492    4037.6684    -45122.16    556.02653   0.96765949 
   53400    297.83839    -774.4747    142674.45   -40977.632     4090.093   -45067.725    557.66295    0.9661612 
   53500    297.73562   -901.50598    142775.12   -40982.348    4088.6817    -45071.03    559.32657   0.96547997 
   53600    290.72433    -1079.774    142679.12   -40970.178    3992.3986   -44962.577    559.48413    0.9661296 
   53700    290.92659   -981.22964    142661.33    -41053.33    3995.1761   -45048.506    560.00456   0.96625006 
   53800     284.4413   -791.76229    142581.34    -41117.89    3906.1163   -45024.007     561.0145   0.96679214 
   53900    291.69481   -941.86915     142451.6   -41086.007    4005.7258   -45091.733    561.50469   0.96767267 
   54000     288.6674   -860.28034     142382.9   -41076.813    3964.1515   -45040.965    562.28205   0.96813952 
   54100    293.14227   -1201.0914       142577    -41060.07    4025.6032   -45085.673    564.44165   0.96682156 
   54200    288.54359    -905.2639    142812.97   -41093.148    3962.4514   -45055.599     566.0891   0.96522407 
   54300    298.30206   -945.29683    142717.49   -41010.475    4096.4604   -45106.935     567.1977   0.96586979 
   54400    287.80566   -1138.8501    142893.42   -41115.016    3952.3176   -45067.333    568.43516   0.96468067 
   54500    287.28417   -903.35665    142541.62   -41096.558    3945.1562   -45041.714    569.21131   0.96706151 
   54600    290.45432    -911.5957    142813.46   -41105.111    3988.6907   -45093.802    571.39206   0.96522075 
   54700    290.37043   -898.02777    143206.59   -41064.231    3987.5387    -45051.77     572.5876   0.96257102 
   54800     297.9937   -1078.6305    143244.59   -41074.499    4092.2258   -45166.725    574.57988   0.96231567 
   54900    295.09085    -790.8645    143357.95   -40985.163    4052.3623   -45037.525    575.51328   0.96155477 
   55000    293.57692    -1008.039     143452.1   -40929.368    4031.5721    -44960.94    576.47011   0.96092367 
   55100    298.11728    -997.6769    143480.26   -40946.082    4093.9229   -45040.004    577.19737   0.96073507 
   55200    292.64553   -1086.2687    143263.36   -41043.785    4018.7816   -45062.566    577.29326    0.9621896 
   55300     295.6001   -944.82831    142942.01     -41025.6    4059.3555   -45084.955    576.96946   0.96435272 
   55400    297.20266   -1187.4457    142945.06   -40965.569    4081.3628   -45046.932    577.82546   0.96433213 
   55500    293.26627   -1019.1903    143088.34   -41003.842     4027.306   -45031.148    577.98253   0.96336652 
   55600    293.90975   -861.64055    143472.72   -40919.104    4036.1426   -44955.247    578.58504   0.96078553 
   55700    297.88881   -1104.8667    143671.52   -40927.666    4090.7855   -45018.452    579.63967   0.95945611 
   55800    289.22809    -941.1909    143091.26   -41064.361    3971.8513   -45036.213     579.3412   0.96334687 
   55900    291.93454    -876.3299    143165.27    -41133.49    4009.0179   -45142.508     580.5759   0.96284887 
   56000    288.15739   -861.31723    143602.16   -41144.306    3957.1478   -45101.454    582.58089    0.9599195 
   56100    290.13802   -1065.7824     143266.2   -41166.437     3984.347   -45150.784    582.96122   0.96217051 
   56200    287.53639   -1231.3975    142951.57   -41121.032    3948.6199   -45069.652    583.45168   0.96428821 
   56300    291.57524   -946.55828    142735.01   -41041.811    4004.0838   -45045.895    584.74208   0.96575127 
   56400    292.32174   -830.41527     142897.4   -40903.653    4014.3351   -44917.988    586.20422    0.9646538 
   56500    295.94007   -1004.0502    142967.12   -40980.932    4064.0242   -45044.956    587.10488   0.96418337 
   56600    294.41226   -943.45347    143111.12   -40965.161    4043.0435   -45008.204    588.16267   0.96321319 
   56700     291.3714   -1177.9767    142827.88   -40996.912    4001.2845   -44998.196    589.13804   0.96512334 
   56800    291.56093   -1008.5185     142731.6   -40956.851    4003.8872   -44960.738    590.16604   0.96577436 
   56900    292.51889   -1156.0853    142771.59   -40983.642    4017.0426   -45000.684    591.63529   0.96550381 
   57000    289.68552   -1128.3059    142610.06   -41073.725     3978.133   -45051.858    592.55603   0.96659742 
   57100     282.9172   -887.91663    142851.95   -41130.328    3885.1865   -45015.515    593.71638    0.9649607 
   57200    287.66944   -1197.4774    142612.96   -41175.014     3950.447   -45125.461    594.39725   0.96657778 
   57300    286.97997   -1002.5228    142498.93   -41140.064    3940.9788   -45081.043    593.45555   0.96735127 
   57400    286.29613   -1118.6968    142731.96    -41122.05    3931.5879   -45053.638    593.82982    0.9657719 
   57500    293.28371   -1094.1916    142566.05   -41030.861    4027.5455   -45058.407     595.2826   0.96689584 
   57600     289.9239   -1169.4114    142478.94   -41125.785    3981.4065   -45107.191    595.61344   0.96748695 
   57700     291.7303   -1069.2724    142439.96   -41078.315    4006.2131   -45084.528    596.08799   0.96775169 
   57800    288.36939   -1049.3158    142439.92   -41018.695    3960.0591   -44978.755    598.14292   0.96775197 
   57900    289.08657   -983.70612    142338.84   -41109.424    3969.9079   -45079.332    597.99341   0.96843923 
   58000    290.00761   -1221.3263    142307.29   -41067.544    3982.5562     -45050.1    598.79851   0.96865393 
   58100    287.30669   -968.26855    142300.64   -40964.797    3945.4656   -44910.263    599.73114   0.96869918 
   58200    288.00557   -1060.0436    142495.67   -41036.234    3955.0629   -44991.297    601.73193   0.96737334 
   58300    292.12042   -1007.4376    142427.02   -41031.689    4011.5704    -45043.26    602.42239   0.96783961 
   58400     289.9594   -1014.7882    142387.34   -40995.801    3981.8942   -44977.695    603.65007   0.96810933 
   58500    295.64026   -964.91668    141705.32   -40870.115     4059.907   -44930.022    603.04773   0.97276885 
   58600    294.92187   -907.08739    141966.21   -40993.466    4050.0417   -45043.508     603.4242   0.97098119 
   58700    290.55637   -818.26394    142284.88   -40971.376    3990.0921   -44961.468    605.29931   0.96880652 
   58800    296.73088   -1127.8264    142668.35   -40926.042    4074.8841   -45000.926    607.74659   0.96620252 
   58900    290.56683   -1275.3449    142647.79   -40899.703    3990.2357   -44889.939     609.1144   0.96634179 
   59000    292.49235   -898.56517    142718.12   -40970.696    4016.6781   -44987.374    609.94966   0.96586553 
   59100    292.04328   -812.81757    142723.67   -40959.958    4010.5112   -44970.469    610.28415   0.96582798 
   59200    291.03353   -1005.5136    142732.23    -41028.09    3996.6447   -45024.734    612.29531   0.96577008 
   59300    285.58122   -669.00372    142922.63   -41018.217    3921.7704   -44939.987    613.50967   0.96448349 
   59400     294.8405   -710.46844    142666.08   -41006.242    4048.9243   -45055.167    615.05159   0.96621786 
   59500    291.73266   -1222.1617    142511.81    -41068.31    4006.2456   -45074.555    615.42528   0.96726383 
   59600    298.10984   -1013.6123    142720.09   -40955.733    4093.8208   -45049.554    616.28609   0.96585222 
   59700    293.74538   -1034.4233    142779.33   -40973.607    4033.8854   -45007.493    617.59852   0.96545146 
   59800    285.73223    -1098.077    142864.05   -41026.583    3923.8442   -44950.428     618.8099   0.96487897 
   59900    296.63916   -1062.6912    142687.24   -41023.326    4073.6245   -45096.951    619.62311   0.96607458 
   60000    293.54735   -1189.8981    142416.62   -41036.043    4031.1659   -45067.209    619.35883   0.96791034 
   60100    286.29102   -1148.5881    142516.82    -41049.02    3931.5178   -44980.538    620.96924   0.96722978 
   60200    291.54499   -956.71326    142771.72   -41076.853    4003.6683   -45080.522    623.10702   0.96550294 
   60300    292.31638    -1097.431    142508.93   -41028.346    4014.2616   -45042.607    623.26906   0.96728335 
   60400    288.13206   -987.15413    142317.94   -41046.464       3956.8   -45003.264    623.23611   0.96858148 
   60500      285.526   -1032.8053    142017.71   -41100.752     3921.012   -45021.764    623.35262   0.97062903 
   60600    285.69407   -1113.2062    141998.48   -41024.869    3923.3201   -44948.189    623.75425   0.97076052 
   60700    288.45486   -805.63476    142369.62   -41029.163    3961.2328   -44990.396    626.33997   0.96822985 
   60800    289.40764   -1166.5209    142433.41    -41015.29     3974.317   -44989.607    627.15995   0.96779625 
   60900     288.8919   -1288.8474    142238.81   -40959.373    3967.2346   -44926.607    627.44361   0.96912028 
   61000    295.15172   -865.40242     142470.5   -40905.449    4053.1982   -44958.647    629.46594   0.96754424 
   61100    291.73671   -895.52294    142775.41   -40874.325    4006.3012   -44880.626    632.21833   0.96547801 
   61200     292.9724   -1146.4423    143108.81   -40910.575    4023.2705   -44933.846    634.88762    0.9632287 
   61300    292.25212   -1054.3575    143086.78   -40868.545     4013.379   -44881.924    635.64306     0.963377 
   61400    295.39827   -992.47289     142725.8   -40814.673    4056.5839   -44871.257    635.86697   0.96581357 
   61500    293.51423   -1351.6029    142521.16   -40826.319    4030.7111    -44857.03    636.55677   0.96720038 
   61600    289.73895     -1101.65    142321.07     -40950.9    3978.8668   -44929.767    636.51802   0.96856018 
   61700    292.98792   -1094.5983    142332.88   -40963.392    4023.4835   -44986.876    637.54123    0.9684798 
   61800    296.03222   -1061.8751    142151.76   -40985.054    4065.2897   -45050.343    638.03763   0.96971374 
   61900    288.22987   -1035.9746    141982.73   -40953.796    3958.1432   -44911.939    638.52504   0.97086823 
   62000    295.29395   -1022.4721    142441.29    -40977.41    4055.1513   -45032.561    641.03415   0.96774266 
   62100    290.65519   -1034.1212    142357.56    -41014.52    3991.4491   -45005.969    641.70158   0.96831188 
   62200    286.59946   -895.67705    142378.85   -41019.218    3935.7535   -44954.972    642.79255   0.96816712 
   62300    290.85262   -994.70074    142565.26   -41027.832    3994.1604   -45021.992    643.86983   0.96690117 
   62400    291.67999   -1083.7286    142557.92   -41056.758    4005.5223    -45062.28    644.58053   0.96695092 
   62500    294.87166   -1164.8614    142412.42   -41016.003    4049.3522   -45065.355    645.32987   0.96793886 
   62600    291.03206   -948.83423    142453.38   -40994.155    3996.6245    -44990.78    645.65793   0.96766057 
   62700    291.96496   -1194.0656    142415.54   -41029.152    4009.4356   -45038.588    645.99901   0.96791764 
   62800    296.27736   -1046.5865    142436.68   -41040.653     4068.656   -45109.309    646.94206   0.96777401 
   62900     287.3274   -1092.9564    142399.51   -41042.993    3945.7499   -44988.743    647.63125   0.96802663 
   63000    291.89258   -1136.1518    142003.38    -41005.65    4008.4417   -45014.091     646.5506   0.97072698 
   63100    293.44199   -920.48259    142365.77   -41017.947     4029.719   -45047.666    649.26975   0.96825603 
   63200    292.81285   -1035.1658     142544.3   -41040.146    4021.0794   -45061.225    650.90741   0.96704332 
   63300     287.6965   -1009.8676    142553.01   -41095.873    3950.8186   -45046.692     651.5085   0.96698427 
   63400    283.15071   -861.98614    142963.39    -41167.34    3888.3931   -45055.733    653.99215   0.96420851 
   63500    288.00395    -1229.045     143072.2   -41028.872    3955.0408   -44983.913    655.32539   0.96347522 
   63600    291.07491   -868.05129    142727.35   -41034.195    3997.2129   -45031.407     655.5416   0.96580309 
   63700    289.39515   -993.61831    142710.71   -41148.223    3974.1454   -45122.369    655.71076   0.96591568 
   63800    282.44801     -977.383    142670.93    -41094.07    3878.7432   -44972.814    656.97811   0.96618503 
   63900    287.74965   -1088.4498    142582.39   -41061.273    3951.5485   -45012.822    657.39216   0.96678502 
   64000    293.59541   -962.82466    142483.53   -41111.745    4031.8259   -45143.571      658.044    0.9674558 
   64100    285.93322   -719.94284    142351.15   -41101.549    3926.6042   -45028.153    658.14613   0.96835548 
   64200    286.81534    -1022.088    142601.46   -41079.468    3938.7181   -45018.186     659.8051   0.96665572 
   64300    281.35795   -692.64271    142407.39   -41143.372    3863.7739   -45007.146    660.12543   0.96797304 
   64400    286.92389   -1011.1313    142873.96   -41109.027    3940.2087   -45049.236    661.86291   0.96481203 
   64500    279.91774   -1199.6949    142636.27   -41141.629    3843.9961   -44985.625    661.92756   0.96641981 
   64600    293.82947   -1044.3201    142753.55   -41051.132    4035.0401   -45086.172    663.24635   0.96562581 
   64700    286.88637   -938.90189    142985.78   -41015.606    3939.6934   -44955.299    664.04466   0.96405752 
   64800    295.56192   -1048.0659    143214.41   -40909.778    4058.8312   -44968.609     666.0609   0.96251847 
   64900    290.71624   -1012.0558    143114.08   -40931.842    3992.2875    -44924.13    666.85609   0.96319328 
   65000    287.27951   -1163.9061    142734.22   -40987.485    3945.0923   -44932.577    666.78698    0.9657566 
   65100    289.80663   -684.86919    142788.05   -41068.257    3979.7961   -45048.053    668.36407   0.96539251 
   65200    292.64824   -658.26659    143168.05   -41007.532    4018.8189   -45026.351    670.31496    0.9628302 
   65300    292.19406   -989.51468    143189.19   -41033.883    4012.5817   -45046.465    671.61361     0.962688 
   65400    290.53703   -858.57522    143195.09   -41147.246    3989.8264   -45137.072    672.91274   0.96264833 
   65500    293.74006   -991.37565    143308.56   -41054.716    4033.8124   -45088.529    674.20439   0.96188612 
   65600    292.00433   -1111.2925    143268.75   -40930.109    4009.9763   -44940.085    674.77674   0.96215345 
   65700    298.29315   -862.39756    143296.15   -40908.411    4096.3381   -45004.749     675.9708   0.96196942 
   65800    291.28641   -1132.8069    143190.75   -40989.987    4000.1174   -44990.104     675.1091   0.96267754 
   65900    293.37966   -1075.8384    142940.35   -40992.093    4028.8632   -45020.957    676.12719   0.96436394 
   66000    292.85052   -1146.1332     142805.8   -41014.084    4021.5967    -45035.68    676.30788   0.96527255 
   66100    292.04623    -963.3555    142852.96   -41005.524    4010.5517   -45016.075    677.78309   0.96495388 
   66200    294.44367   -823.24854    142843.49   -40950.765    4043.4748    -44994.24    678.25691   0.96501783 
[...]
   84600    288.08029   -1066.5398    142339.11   -41143.351     3956.089    -45099.44    867.32448   0.96843741 
   84700    291.34836   -989.28542    142478.39   -41114.643    4000.9681   -45115.611    869.28871    0.9674907 
   84800    296.87784   -1000.7786    142573.92   -41027.056    4076.9023   -45103.958    870.83568   0.96684241 
   84900    288.03889   -1012.5718    142460.61   -41025.097    3955.5206   -44980.618    872.33299   0.96761144 
   85000    289.00698   -1154.5565    142532.72   -41018.338    3968.8149   -44987.153    873.96026   0.96712191 
   85100    289.87607    -1009.068    142328.87   -41032.035    3980.7498   -45012.785    873.35677    0.9685071 
   85200    290.89767    -816.8231    142400.88   -40945.724     3994.779   -44940.503    874.73109   0.96801734 
   85300    297.38312   -1243.0817    142389.19   -40942.875    4083.8411   -45026.716    875.66823   0.96809676 
   85400    284.99269    -912.2362       142168   -40943.756    3913.6883   -44857.444    875.53282   0.96960302 
   85500    295.05572   -824.45164    142162.71   -40936.668    4051.8799   -44988.547     876.4252   0.96963903 
   85600    292.47188    -947.8873    142683.14    -40936.73     4016.397   -44953.127    879.79783   0.96610238 
   85700    290.00087   -1045.2293    142563.42   -40965.725    3982.4635   -44948.188    880.47652   0.96691368 
   85800    291.19586   -891.78526    142596.65   -40904.998    3998.8739   -44903.872    882.05981   0.96668829 
   85900     291.6226   -1117.5562    142497.35   -40963.876    4004.7342   -44968.611    882.33353   0.96736194 
   86000    289.71731   -877.96027    142937.69     -41016.4    3978.5696   -44994.969    885.68871   0.96438189 
   86100    295.74543   -926.99131    143010.61   -40964.597    4061.3513   -45025.949    886.61618   0.96389013 
   86200    295.16261   -962.72026     143040.1   -41018.282    4053.3476    -45071.63    886.54839   0.96369144 
   86300    293.67757   -1140.7591    143161.06   -41074.971    4032.9542   -45107.925    889.09392    0.9628772 
   86400    287.88017   -990.45063    143374.28   -41071.082    3953.3408   -45024.422    891.51331    0.9614452 
   86500    290.98809   -1181.8098    143432.97   -40972.231    3996.0207   -44968.251    892.96632    0.9610518 
   86600    290.95289   -1167.2119     143177.4   -41033.815    3995.5373   -45029.352    892.78988   0.96276729 
   86700     287.7033   -1150.0562    142901.83   -41050.553    3950.9121   -45001.465    893.45577    0.9646239 
   86800     290.8799   -1227.7707    142501.32    -40990.09     3994.535   -44984.625    892.45553   0.96733504 
   86900    291.05565   -1156.0463    142412.87   -41022.278    3996.9485   -45019.227    892.47444   0.96793583 
   87000    290.78692   -975.99909    142892.78   -41030.147    3993.2581   -45023.405    894.65464   0.96468499 
   87100    294.70637   -996.60695    142554.16    -41059.09    4047.0823   -45106.173    894.27685   0.96697647 
   87200    296.83743   -694.67619     142758.6    -40992.53    4076.3473   -45068.877    895.93404   0.96559169 
   87300    294.51688   -757.02138    142907.57    -40917.13    4044.4802    -44961.61    897.67828   0.96458513 
   87400    291.80027   -1065.0159    142990.47   -40982.755     4007.174   -44989.929    898.96102   0.96402589 
   87500     292.7943   -995.45003    143202.89   -41027.566    4020.8247    -45048.39    900.35147    0.9625959 
   87600    289.69333   -759.67547    143049.36   -41028.107    3978.2403   -45006.348    900.81065   0.96362904 
   87700    290.84192   -1073.6151    142836.91   -41013.637    3994.0134   -45007.651     899.8106   0.96506232 
   87800    291.41906   -1211.8571    142822.84   -40937.504     4001.939   -44939.443    900.84775   0.96515737 
   87900    294.48843   -925.30418    142699.84   -40917.229    4044.0895   -44961.319    901.06852   0.96598929 
   88000    298.47085   -966.05095    142890.46   -40969.889    4098.7783   -45068.668    901.73073   0.96470064 
   88100    291.78464   -984.89034    142900.14   -40974.572    4006.9594   -44981.531    902.71476   0.96463528 
   88200    292.13891   -1037.6897    142811.17   -40912.959    4011.8244   -44924.783    902.93989   0.96523627 
   88300    294.90839   -721.05651    143115.05    -40925.52    4049.8566   -44975.377    904.68465   0.96318673 
   88400    286.58909   -1117.5798    143119.91   -41003.341     3935.611   -44938.952    906.00213   0.96315405 
   88500    287.59529   -1166.2495    143191.35   -41017.301    3949.4287    -44966.73    907.66391   0.96267347 
   88600    287.86695   -938.05327    142815.65   -40990.489    3953.1593   -44943.649    906.36742   0.96520595 
   88700    294.72537   -1051.7316    142425.73   -41020.766    4047.3432   -45068.109     905.5581   0.96784844 
   88800    288.74455   -928.01327    142459.99   -41009.698    3965.2111   -44974.909    907.39771   0.96761563 
   88900    287.85946   -1059.6123    142485.68   -41078.596    3953.0565   -45031.652    908.52751   0.96744118 
   89000    290.44651   -1165.5449    142342.22    -40961.13    3988.5834   -44949.713     908.7889   0.96841622 
   89100    292.39406    -1046.518    142540.77   -40941.128    4015.3283   -44956.456    911.31974   0.96706732 
   89200    291.05499   -1124.6355    142306.33   -41065.486    3996.9394   -45062.425    910.64188   0.96866048 
   89300    294.87436      -947.49    142156.02   -41041.922    4049.3892   -45091.311    911.68008   0.96968469 
   89400    289.52555   -1039.4687    142427.76    -40986.45    3975.9362   -44962.386    913.43293   0.96783463 
   89500    287.61073   -738.86805     142136.5   -41100.547    3949.6408   -45050.188     913.4435   0.96981788 
   89600    293.88248    -735.0271    142522.73   -40998.394    4035.7682   -45034.162    915.95856   0.96718967 
   89700     295.9371   -974.04804    142821.02   -40974.962    4063.9834   -45038.946    918.13525   0.96516964 
   89800      295.414   -732.79943    142574.07   -41035.103    4056.7999   -45091.903    918.51289   0.96684142 
   89900     287.1352   -999.06298    142280.01   -41083.898    3943.1105   -45027.008    918.23518   0.96883967 
   90000    288.88677   -1146.5583    142098.18   -41013.167    3967.1641   -44980.331    918.82945   0.97007938 
   90100     292.7442   -1248.4459    142367.54   -40964.776    4020.1366   -44984.912    921.01987   0.96824399 
   90200    289.73772   -1231.8226    142066.06   -41144.777    3978.8499   -45123.627    921.20309   0.97029871 
   90300    292.81108   -1032.0298    142244.22   -41101.891     4021.055   -45122.946    923.17994   0.96908346 
   90400    291.31315   -1211.1646    142495.75   -41015.574    4000.4846   -45016.059    924.64025    0.9673728 
   90500    291.90079   -1005.4466    142435.88    -41020.11    4008.5545   -45028.664    926.00322   0.96777946 
   90600    296.14242   -960.76135    142674.44   -40998.175     4066.803   -45064.978    929.64261   0.96616124 
   90700    298.87879   -1075.6291    142932.71   -41026.253    4104.3805   -45130.634    930.91765   0.96441544 
   90800    292.95346   -907.47544     142887.6   -41019.392    4023.0103   -45042.403    931.40439   0.96471995 
   90900    283.92116   -860.65522    143078.43   -41094.442    3898.9734   -44993.416    932.48442   0.96343327 
   91000    290.98843    -966.5044    142947.74   -41054.897    3996.0253   -45050.922    932.44601    0.9643141 
   91100    297.59956   -1030.8878    142884.15   -41029.742    4086.8133   -45116.556     934.2313   0.96474325 
   91200    293.29005   -1097.7713    142873.17   -41023.482    4027.6326   -45051.115     935.1354   0.96481738 
   91300    284.85851   -809.26557    142602.38   -41094.021    3911.8457   -45005.867    934.89203   0.96664946 
   91400    288.11708   -825.31309    142825.69   -41113.435    3956.5943   -45070.029    937.62459   0.96513813 
   91500    287.25027   -894.46642    142816.59   -41101.677    3944.6907   -45046.368    938.28871    0.9651996 
   91600     294.9785    -1118.684    142673.05   -41095.688    4050.8193   -45146.508     938.1138   0.96617067 
   91700    286.60523   -946.78377    142292.06   -41203.784    3935.8326   -45139.617    938.22392   0.96875764 
   91800    290.61826   -1238.6239    142237.62   -41226.282    3990.9419   -45217.224    938.49906   0.96912838 
   91900    285.48511    -1046.201    142416.03   -41153.364    3920.4505   -45073.814    940.22157    0.9679143 
   92000    287.76275   -1001.5744    142711.92   -41019.018    3951.7285   -44970.747    942.27282    0.9659075 
   92100     288.9014   -791.45354    142793.09   -40925.576    3967.3651   -44892.941    943.46555   0.96535846 
   92200    296.63632   -1092.5719    142948.74   -40887.406    4073.5855   -44960.992    944.95748   0.96430735 
   92300    296.79069   -1004.9402    143028.31   -40946.572    4075.7054   -45022.278    946.60331   0.96377083 
   92400    292.13425   -1207.5389    142660.99   -40964.312    4011.7604   -44976.072    946.40248   0.96625236 
   92500    294.23986   -1130.6855    142368.88   -40932.545    4040.6759   -44973.221    946.69995   0.96823492 
   92600     296.2681   -1009.8957    142428.23   -40881.789    4068.5288   -44950.318    948.41845   0.96783145 
   92700    292.85098   -1083.1281    142070.42   -40966.339    4021.6031   -44987.942    947.94741   0.97026892 
   92800    289.44109   -949.88344     142076.6   -40986.642    3974.7763   -44961.418    948.75316   0.97022673 
   92900    292.42871   -920.57764    142051.41   -40963.288    4015.8041   -44979.092      950.153   0.97039881 
   93000    295.03722   -1126.5744    142058.69   -40965.827    4051.6257   -45017.452    951.40189   0.97034905 
   93100    287.53803   -1050.9362     142551.1   -40990.633    3948.6424   -44939.275     954.6745   0.96699725 
   93200     289.7132   -1010.0946    142557.04   -40916.979    3978.5132   -44895.492    955.08157   0.96695694 
   93300     294.7203   -1050.4617    142622.02   -40835.017    4047.2736   -44882.291    956.04273   0.96651639 
   93400    293.15312   -1078.8621    142839.59   -40949.547    4025.7522   -44975.299    957.25419   0.96504416 
   93500    295.56159   -1247.7013    142981.91   -40916.791    4058.8267   -44975.618    959.93917   0.96408364 
   93600    283.57191   -997.01134    142737.14    -41003.32    3894.1773   -44897.497    959.65822   0.96573686 
   93700    289.59806   -1114.7784    142632.61   -40979.613    3976.9319   -44956.545    959.47902   0.96644464 
   93800    299.43494   -1015.3378    142647.36   -40862.134    4112.0179   -44974.151    961.06748   0.96634467 
   93900    292.82963   -725.26562    142836.04    -40913.92    4021.3099    -44935.23    963.62111   0.96506817 
   94000    285.98217   -1033.3638    142721.06   -41026.777    3927.2765   -44954.053    964.15416   0.96584566 
   94100    289.06466   -760.66993     142531.6   -41040.362     3969.607   -45009.969    963.95682   0.96712953 
   94200    290.04127   -1168.5416    142756.41   -41050.962    3983.0184   -45033.981    965.45535   0.96560648 
   94300    295.88935   -1008.6349     142932.5   -40997.889    4063.3276   -45061.216    966.49184    0.9644169 
   94400    289.25738   -962.04972    142764.17    -41036.37    3972.2535   -45008.623    966.88577   0.96555401 
   94500    287.98684   -1119.8208    142691.36   -41099.542    3954.8058   -45054.348    967.41105   0.96604671 
   94600    282.38197   -927.44239    142892.51   -41176.908    3877.8363   -45054.744    970.05405   0.96468679 
   94700    291.18633    -873.9804    142948.78   -41027.213     3998.743   -45025.956    970.88818   0.96430704 
   94800    285.06779   -1069.7684    143195.72   -41011.842    3914.7196   -44926.562    973.95551   0.96264408 
   94900    290.79819   -1160.2052    142804.43   -41059.529    3993.4129   -45052.942    973.45325    0.9652818 
   95000     285.8018   -1014.6497    142917.88   -41031.308    3924.7995   -44956.108    974.11734   0.96451552 
   95100     295.5674   -875.55722    142653.13   -40938.184    4058.9065   -44997.091    973.56693   0.96630561 
   95200    290.31187   -1046.0383    142772.51   -41018.271    3986.7344   -45005.006    976.25023   0.96549761 
   95300    294.71789   -992.40304    142985.25   -40967.749    4047.2405   -45014.989    978.93415   0.96406109 
   95400    292.10418   -1042.7481    142952.31   -40981.546    4011.3475   -44992.894    980.30895   0.96428323 
   95500    288.15483   -951.81271     142800.9   -41009.844    3957.1127   -44966.957    980.54042   0.96530565 
   95600    294.80062   -1053.2633       142607   -41071.557    4048.3766   -45119.933    980.38534   0.96661819 
   95700    293.47407   -812.54626    142828.71   -41011.768    4030.1596   -45041.928    982.64932   0.96511767 
   95800    295.85855   -1053.5421    142876.68   -40988.178    4062.9047   -45051.083    984.09291   0.96479369 
   95900    294.94913   -1079.1856     142993.5   -40988.103     4050.416   -45038.519    986.11153   0.96400547 
   96000    286.89383   -971.72854       142736   -40936.683    3939.7959   -44876.479    986.60092   0.96574458 
   96100    290.09331   -988.56565    142921.11   -40888.215     3983.733   -44871.948    988.62958   0.96449374 
   96200     296.8242   -898.50179    142684.04   -40921.834    4076.1656       -44998    988.52039   0.96609627 
   96300    290.76389   -1229.4159    142645.05   -40957.541    3992.9418   -44950.483    989.65495   0.96636031 
   96400    290.96949   -1012.4135    142902.24   -40980.891    3995.7652   -44976.656     990.1935   0.96462108 
   96500    294.78709   -947.00576    142834.24   -40955.835    4048.1908   -45004.025    991.05102   0.96508031 
   96600    296.10327     -1042.08    142490.46   -40936.202    4066.2653   -45002.467    989.33533   0.96740876 
   96700    295.55684   -1357.8717    142493.32   -40888.902    4058.7614   -44947.663    989.91614   0.96738932 
   96800    294.72869   -1094.0699    142479.76   -40860.686    4047.3889   -44908.075    989.95014   0.96748142 
   96900    294.13419   -1068.4855    142563.16   -40926.629    4039.2247   -44965.853    991.53627   0.96691544 
   97000    293.75435   -1063.7699    142375.61   -40947.381    4034.0087    -44981.39    992.43858   0.96818914 
   97100    290.34704    -939.8763    141987.82   -40978.283    3987.2173     -44965.5    992.62134    0.9708334 
   97200    292.76592   -863.32229    142091.17   -40934.343    4020.4349   -44954.777    994.00834   0.97012728 
   97300    292.53791   -1088.5596    141999.87    -40982.99    4017.3038   -45000.294    996.15803   0.97075101 
   97400    290.56856   -752.08273    142203.27   -40952.688    3990.2595   -44942.947    997.66973   0.96936252 
   97500    294.45809   -743.15615    142528.63   -40927.832    4043.6728   -44971.505    1000.2192   0.96714963 
   97600    290.42283   -958.14202    142818.57   -40986.169    3988.2582   -44974.427    1001.9266   0.96518622 
   97700    291.25702    -1018.717    142581.25   -40964.947    3999.7138   -44964.661    1001.1221   0.96679272 
   97800    293.48268   -1027.0817    142915.87   -40930.139    4030.2778   -44960.416    1003.9096   0.96452908 
   97900    298.51841   -680.83715    142718.92   -40892.705    4099.4315   -44992.137    1003.6273   0.96586014 
   98000     292.5455   -1189.5721    142679.92   -40883.916     4017.408   -44901.324    1004.6141   0.96612415 
   98100    293.80462   -1062.4779    142427.15    -40951.01    4034.6989   -44985.709    1005.0669   0.96783877 
   98200    295.45294   -920.34449    142656.26   -40912.996    4057.3346   -44970.331    1008.7729   0.96628439 
   98300    301.46801   -951.54002    142780.97   -40882.126    4139.9372   -45022.063    1010.9546   0.96544043 
   98400    293.76917   -1362.2238    142670.18   -40948.284    4034.2122   -44982.496    1010.5867   0.96619011 
   98500    292.34395   -642.29217     142702.6    -40906.84    4014.6402    -44921.48    1013.3598   0.96597062 
   98600    290.69162   -948.01212    142839.72   -40960.882    3991.9494   -44952.831    1014.3638    0.9650433 
   98700    295.40337   -1101.4502    142635.62   -40925.652    4056.6539   -44982.306    1014.2164   0.96642424 
   98800    290.45799   -897.88642    142800.99   -40994.196     3988.741   -44982.937     1015.663   0.96530503 
   98900    295.34157   -925.14107    142876.19   -40964.799    4055.8052   -45020.605    1017.3031   0.96479701 
   99000    293.00582   -859.34442    142872.99   -40921.674    4023.7293   -44945.403     1018.726   0.96481858 
   99100    298.86561   -1170.9074    142885.09   -40921.802    4104.1994   -45026.002    1019.6919   0.96473687 
   99200    289.28145   -1019.9803    142855.66   -40957.198    3972.5841   -44929.782      1021.16   0.96493561 
   99300     292.5063   -1069.4748    142960.93   -40951.647    4016.8697   -44968.517    1023.1752    0.9642251 
   99400    289.16232   -965.12231     142821.1   -40924.895    3970.9482   -44895.843    1024.4693   0.96516912 
   99500    289.46116   -977.48429    142500.94   -40943.319     3975.052   -44918.371    1023.5684   0.96733762 
   99600    290.02678   -906.53737    142806.74   -41049.504    3982.8194   -45032.324    1026.4466   0.96526618 
   99700    291.52907    -1016.524    142903.54    -40994.36    4003.4497    -44997.81    1027.5669   0.96461232 
   99800    291.13163   -1299.4782    142852.95   -41003.113    3997.9918   -45001.105    1028.1543   0.96495394 
   99900    293.29064   -943.37396    142592.17   -40943.915    4027.6407   -44971.555    1027.9825   0.96671869 
  100000    293.89908   -780.92676    142512.58   -40987.435    4035.9962   -45023.432    1028.4536   0.96725858 
  100100    291.98943   -925.78208    142736.35   -40986.592    4009.7716   -44996.364      1030.83   0.96574218 
  100200    295.16705   -1209.1414    142854.18   -40960.756    4053.4086   -45014.165    1032.7902   0.96494563 
  100300    292.79415   -1112.5162    142617.74   -40982.844    4020.8226   -45003.666    1032.6041    0.9665454 
  100400    287.57604   -1357.2634    142559.78   -40966.432    3949.1644   -44915.596    1034.5045   0.96693831 
  100500     287.9138   -982.74821    142444.25   -41034.515    3953.8028   -44988.318    1035.0437    0.9677226 
  100600    289.86659   -1064.7958    142483.07   -41000.892    3980.6196   -44981.512    1036.4905   0.96745889 
  100657    289.14791   -911.03834     142502.5   -40939.714    3970.7502   -44910.465    1037.5442   0.96732699 
Loop time of 110.867 on 6 procs for 100000 steps with 4608 atoms

Performance: 389.657 ns/day, 0.062 hours/ns, 901.983 timesteps/s
98.9% CPU use with 6 MPI tasks x no OpenMP threads

MPI task timing breakdown:
Section |  min time  |  avg time  |  max time  |%varavg| %total
---------------------------------------------------------------
Pair    | 92.024     | 93.17      | 95.409     |  11.5 | 84.04
Neigh   | 7.0248     | 7.052      | 7.1032     |   1.0 |  6.36
Comm    | 5.7122     | 7.9256     | 9.029      |  39.0 |  7.15
Output  | 0.19033    | 0.19104    | 0.19425    |   0.3 |  0.17
Modify  | 1.8576     | 1.899      | 1.9537     |   2.3 |  1.71
Other   |            | 0.6289     |            |       |  0.57

Nlocal:        768.000 ave         777 max         759 min
Histogram: 2 0 0 0 1 0 0 2 0 1
Nghost:        1548.33 ave        1559 max        1539 min
Histogram: 1 0 1 1 0 1 0 1 0 1
Neighs:        0.00000 ave           0 max           0 min
Histogram: 6 0 0 0 0 0 0 0 0 0
FullNghs:      21556.0 ave       21979 max       21166 min
Histogram: 2 0 0 0 0 2 0 1 0 1

Total # of neighbors = 129336
Ave neighs/atom = 28.067708
Neighbor list builds = 7055
Dangerous builds = 0

undump              1
unfix               2
unfix               3
unfix               4


################################################
#######         Run Simulation         #########
################################################

reset_timestep      0
log                 log.run_${NAME}
log                 log.run_liq_292K_-1000atm_ML
