

read_data data.ice_${TEMP}K_${PRES}atm_ML group ice
read_data data.ice_292K_${PRES}atm_ML group ice
read_data data.ice_292K_-1000atm_ML group ice
Reading data file ...
  orthogonal box = (-0.11708829 -0.10407848 -0.10407848) to (57.387598 51.011198 51.011198)
  3 by 1 by 2 MPI processor grid
  reading atoms ...
  4608 atoms
  reading velocities ...
  4608 velocities
  read_data CPU = 0.023 seconds
read_data data.liq_${TEMP}K_${PRES}atm_ML add append shift ${X_HI} ${YZ_LO} ${YZ_LO} group water
read_data data.liq_292K_${PRES}atm_ML add append shift ${X_HI} ${YZ_LO} ${YZ_LO} group water
read_data data.liq_292K_-1000atm_ML add append shift ${X_HI} ${YZ_LO} ${YZ_LO} group water
read_data data.liq_292K_-1000atm_ML add append shift 51.0111984805129 ${YZ_LO} ${YZ_LO} group water
read_data data.liq_292K_-1000atm_ML add append shift 51.0111984805129 0.104078480513909 ${YZ_LO} group water
read_data data.liq_292K_-1000atm_ML add append shift 51.0111984805129 0.104078480513909 0.104078480513909 group water
Reading data file ...
  orthogonal box = (-0.11708829 -0.18070875 -0.18070875) to (104.71001 51.295986 51.295986)
  3 by 1 by 2 MPI processor grid
  reading atoms ...
  4608 atoms
  reading velocities ...
  4608 velocities
  read_data CPU = 0.013 seconds

write_data data.icewater_test
System init for write_data ...
WARNING: Communication cutoff is 0.0. No ghost atoms will be generated. Atoms may get lost. (../comm_brick.cpp:167)

# Define potential
#
pair_style sw
pair_coeff * * /data/emrosky-sim/Freezing_Simulations/Melting/MLmW_fancy/ML_mW.sw mW
Reading sw potential file /data/emrosky-sim/Freezing_Simulations/Melting/MLmW_fancy/ML_mW.sw with DATE: 2019-02-27

# Delete water and ice atoms that are overlapping
#
delete_atoms overlap 2.5 water ice
System init for delete_atoms ...
Neighbor list info ...
  update every 1 steps, delay 10 steps, check yes
  max neighbors/atom: 2000, page size: 100000
  master list distance cutoff = 6.0032907
  ghost atom cutoff = 6.0032907
  binsize = 3.0016454, bins = 35 18 18
  2 neighbor lists, perpetual/occasional/extra = 1 1 0
  (1) command delete_atoms, occasional, copy from (2)
      attributes: full, newton on
      pair build: copy
      stencil: none
      bin: none
  (2) pair sw, perpetual
      attributes: full, newton on
      pair build: full/bin/atomonly
      stencil: full/bin/3d
      bin: standard
Deleted 695 atoms, new total = 8521

# set timestep
#
timestep 10.0

# Define output
#
compute 1 all msd
thermo 50
thermo_style custom step temp press vol etotal ke pe c_1[4]

# Neighbor lists
#
neigh_modify delay 0 every 1 check yes

# Set fixes
#
fix 1 all momentum 10 linear 1 1 1 rescale
fix 2 all nph iso ${PRES} ${PRES} ${PCOUPL}
fix 2 all nph iso -1000 ${PRES} ${PCOUPL}
fix 2 all nph iso -1000 -1000 ${PCOUPL}
fix 2 all nph iso -1000 -1000 10000.0
fix 3 all temp/csvr ${TEMP} ${TEMP} ${TCOUPL} 837492
fix 3 all temp/csvr 292 ${TEMP} ${TCOUPL} 837492
fix 3 all temp/csvr 292 292 ${TCOUPL} 837492
fix 3 all temp/csvr 292 292 5000.0 837492


# Fix ice atoms in place
#
velocity ice set 0.0 0.0 0.0
fix 4 ice setforce 0.0 0.0 0.0

# Run 1.0 ns equilibration of water
#
dump 1 all atom 1000 eq.all.${NAME}.dump
dump 1 all atom 1000 eq.all.coexist_292K_-1000atm_ML.dump
run 100000
Neighbor list info ...
  update every 1 steps, delay 0 steps, check yes
  max neighbors/atom: 2000, page size: 100000
  master list distance cutoff = 6.0032907
  ghost atom cutoff = 6.0032907
  binsize = 3.0016454, bins = 35 18 18
  1 neighbor lists, perpetual/occasional/extra = 1 0 0
  (1) pair sw, perpetual
      attributes: full, newton on
      pair build: full/bin/atomonly
      stencil: full/bin/3d
      bin: standard
Per MPI rank memory allocation (min/avg/max) = 4.591 | 4.598 | 4.603 Mbytes
Step Temp Press Volume TotEng KinEng PotEng c_1[4] 
       0    135.21773   -1877.1981    277776.09   -83442.054    3434.0572   -86876.112            0 
      50    160.57735   -1281.3307    275809.54   -83165.783    4078.1029   -87243.885   0.89747254 
     100    166.32529    -642.7703    272759.05   -82851.412    4224.0804   -87075.492    1.9252698 
     150    175.18202   -769.36824    271594.77   -82523.745    4449.0105   -86972.756    3.0446213 
     200    176.45729    -596.9104    271965.12   -82292.933    4481.3979    -86774.33    4.1160674 
     250    182.85762   -1154.2592    273137.35   -81982.633    4643.9438   -86626.577    5.1264823 
     300     187.9391   -1153.4245     273987.4   -81636.756    4772.9957   -86409.752    6.3607109 
     350     193.1232   -1396.8003    274214.87   -81424.861    4904.6536   -86329.514    7.7916674 
     400    193.79186   -1089.3005    273712.31   -81202.833    4921.6354   -86124.469     9.174842 
     450    200.86719   -748.98694    273386.18   -80941.903     5101.324   -86043.227    10.581167 
     500    203.88016   -999.99616     273829.3   -80739.282    5177.8428   -85917.125    12.035047 
     550    208.14794   -957.50193    274425.26   -80539.091    5286.2296   -85825.321    13.590369 
     600     212.2706   -943.41998     275054.2   -80341.625    5390.9306   -85732.556    15.275615 
     650    216.12584   -960.44301    275332.17   -80140.172    5488.8403   -85629.012    17.088803 
     700    219.29946   -1028.1378    275352.61   -79949.881     5569.439    -85519.32    18.820432 
     750    222.51121   -1251.4722    274987.21   -79789.601    5651.0063   -85440.608    20.817054 
     800    224.70121   -704.28851    274687.88   -79608.378    5706.6245   -85315.002    22.925743 
     850     227.9937   -1084.7447    275073.53   -79410.812    5790.2423   -85201.054    24.984386 
     900    229.74926   -983.12604    275520.74   -79236.473    5834.8274     -85071.3    26.951846 
     950    232.30867    -916.7392    276073.01   -79073.146    5899.8274   -84972.973    29.096229 
    1000    239.65908   -1223.2606    276510.75   -78930.226    6086.5022   -85016.728    31.378592 
    1050    239.44823    -869.8492    276416.51   -78808.001    6081.1473   -84889.148    33.725974 
    1100    237.65636   -1148.5365    276125.69   -78705.391    6035.6401   -84741.031    36.159599 
    1150    240.71102   -800.14084    275910.45   -78588.118    6113.2179   -84701.336    38.749091 
    1200    246.92555   -1089.6967    276082.92    -78493.41    6271.0451   -84764.455    41.105679 
    1250    250.33779   -934.42527    276306.45   -78388.509    6357.7042   -84746.213    43.627483 
    1300    246.28746   -932.82274    276511.96   -78287.114    6254.8399   -84541.954    45.899585 
    1350    248.26981   -966.65337    276768.52   -78194.283    6305.1846   -84499.468    48.485148 
    1400    248.00106    -793.3847    277044.97   -78061.826    6298.3593   -84360.186    50.759526 
    1450    254.66979   -1090.3995    277301.12   -77949.852    6467.7218   -84417.574    53.484113 
    1500     250.1775   -1073.4288    277313.82   -77870.718    6353.6333   -84224.351    55.939935 
    1550    256.51504   -854.93125    277154.95   -77791.342    6514.5847   -84305.927    58.549132 
    1600    254.84921   -860.72118    277020.87   -77702.127    6472.2784   -84174.406    61.480748 
    1650    260.04405   -1034.6775    277132.78   -77636.752    6604.2091   -84240.961    64.619741 
    1700    260.12194   -1081.1412    277282.72   -77531.985    6606.1873   -84138.172    67.867521 
    1750    260.71562   -1023.9202    277376.01   -77468.817    6621.2646   -84090.082    71.163954 
    1800    262.08992   -1216.7924     277612.7    -77366.36    6656.1671   -84022.527    74.466132 
    1850    267.01234    -1026.286    277737.97   -77280.724    6781.1793   -84061.904     77.43449 
    1900    268.36312   -862.54837    277700.33   -77189.545    6815.4844    -84005.03    80.230283 
    1950    268.07379   -855.23494    277732.25   -77110.895    6808.1365   -83919.031    83.503608 
    2000    266.75898   -1032.8902    277961.25   -77012.166    6774.7448    -83786.91    87.193503 
    2050    271.04621   -953.59788    278334.06   -76991.926    6883.6254   -83875.552    90.523192 
    2100     267.1842   -1053.1561    278715.06   -76947.551    6785.5439   -83733.095    93.667131 
    2150    275.05778    -940.2103     278261.2   -76898.173    6985.5054   -83883.678    96.226286 
    2200    272.89978   -836.21255     277779.3   -76834.916    6930.6996   -83765.616    99.085896 
    2250    274.44284   -1039.0201    277910.46   -76802.785    6969.8881   -83772.673    102.51449 
    2300    275.07605   -1111.6514    278432.39   -76697.469    6985.9693   -83683.438    105.67733 
    2350    277.72357   -1210.2069    278596.29   -76615.431    7053.2071   -83668.638    108.85356 
    2400    282.57463   -969.80728    278422.37   -76588.978    7176.4071   -83765.385    111.86024 
    2450    277.48049   -937.39028    278468.68   -76540.376    7047.0338    -83587.41     115.1746 
    2500    281.28279   -926.91003    278438.23   -76469.761    7143.5989    -83613.36    118.45335 
    2550    284.05745   -882.98835    278615.14   -76442.039    7214.0655   -83656.104     121.6838 
    2600    283.26473   -831.84183     278640.1   -76423.244    7193.9331   -83617.177    124.83575 
    2650    280.78918   -1137.4072    278779.33   -76333.748     7131.063   -83464.811    127.98449 
    2700    284.95721   -832.62293     278746.5   -76307.693    7236.9164    -83544.61    130.83791 
    2750    282.35153   -1113.8895    278947.42   -76317.888    7170.7411   -83488.629    133.61345 
    2800    282.60049   -944.25607    279071.59    -76288.57    7177.0638   -83465.634    137.27822 
    2850    282.66777    -1214.599    279055.55   -76283.764    7178.7726   -83462.537    140.28749 
    2900    286.22279   -892.72386    278827.19   -76309.955    7269.0576   -83579.013    142.73608 
    2950     289.6845   -1044.5285    278780.09   -76307.331    7356.9729   -83664.304     146.4236 
    3000    286.84606    -1197.849     278719.4    -76261.47    7284.8865   -83546.357    149.89668 
    3050     282.7399   -891.24934    278489.88   -76274.673    7180.6042   -83455.277    152.70433 
    3100    286.23983   -790.19454     278410.5   -76259.346    7269.4904   -83528.836    156.30068 
    3150    286.79287   -907.23435    278695.14   -76270.099    7283.5356   -83553.635    160.16648 
    3200    286.84969   -645.83974    279186.77   -76222.439    7284.9786   -83507.418    163.42543 
    3250    285.61501   -1030.7645       279474   -76183.202    7253.6221   -83436.824    167.04961 
    3300    288.14044   -1095.0724    279379.11   -76129.868     7317.759   -83447.627    169.88947 
    3350    291.53676   -1152.0429    279060.63   -76039.831    7404.0137   -83443.845     173.1819 
    3400    289.86268   -907.65385    278722.16   -76095.372     7361.498    -83456.87    176.41173 
    3450    288.43792   -833.31378    278629.54   -76121.236    7325.3141    -83446.55    179.21036 
    3500    288.42472   -937.51427    278799.96    -76102.56    7324.9788   -83427.538    182.36621 
    3550    287.13184   -1087.3818    279121.47   -76049.833    7292.1441   -83341.977    185.06738 
    3600    292.59969   -1175.6011    278989.68   -76068.336    7431.0085   -83499.344    188.03083 
    3650    286.36797   -899.35284     278824.9   -76080.527    7272.7447   -83353.271    190.44327 
    3700    291.03139   -911.15881    279051.58   -76075.053    7391.1791   -83466.232    193.49817 
    3750    289.34889   -1368.9718    279655.22   -76088.815    7348.4495   -83437.265    196.41597 
    3800     288.6822   -1175.9992    279382.87   -76090.218     7331.518   -83421.736    199.33856 
    3850    290.41874   -819.97022    278724.98   -76087.916      7375.62   -83463.536    202.23603 
    3900    286.85773   -979.76097    278388.05   -76100.725    7285.1829   -83385.908    205.23801 
    3950    293.62998   -953.15528    278380.07   -76060.133    7457.1744   -83517.307    207.71243 
    4000    291.70681   -1059.4535    278673.08   -76063.306    7408.3326   -83471.639    210.51543 
    4050    292.02352   -1005.7878    279106.26   -76045.743    7416.3758   -83462.119    212.87079 
    4100    288.59047   -1090.6256    279514.47   -76033.105    7329.1883   -83362.294    216.06252 
    4150    290.77155   -960.06009    279340.52   -75996.739    7384.5802   -83381.319    219.15163 
    4200    295.51562     -1093.81    278817.05   -75996.975    7505.0629   -83502.037    221.85984 
    4250     293.3251   -834.71781    278348.77   -75986.114    7449.4313   -83435.545    224.97111 
    4300    292.00664   -1060.9814    278379.41    -76005.55    7415.9472   -83421.497    228.34627 
    4350    290.39232   -839.97261    278717.27   -76012.338    7374.9491   -83387.287    231.67858 
    4400     290.8498   -972.50469    279410.61   -75999.285    7386.5674   -83385.852    235.35686 
    4450    291.64493   -1151.7925    279567.04   -75933.568     7406.761   -83340.329    238.17419 
    4500    291.34757    -669.3215    279296.67   -75887.858    7399.2089   -83287.067    240.47426 
    4550    291.56894   -1013.0359    279234.99   -75840.622    7404.8311   -83245.453    243.99775 
    4600    295.11995   -692.19491     279206.7   -75841.661    7495.0142   -83336.675    248.22559 
    4650     293.7362   -1151.8359    279354.54   -75777.525    7459.8719   -83237.397    250.92783 
    4700    297.72704   -993.79974    279346.01   -75759.504    7561.2252   -83320.729    254.23174 
    4750    297.70553   -1102.4455    279280.07   -75785.803    7560.6789   -83346.482    256.78102 
    4800    293.50459   -860.50937    279368.89   -75791.809    7453.9899   -83245.799    260.41016 
    4850     294.6221   -945.94896    279621.54   -75797.139    7482.3707    -83279.51    263.86005 
    4900    294.47645   -915.96069    279387.98   -75802.251    7478.6716   -83280.923    267.37816 
    4950    293.79643   -877.46434    279087.17   -75813.152    7461.4015   -83274.554     271.5884 
    5000    295.85417   -791.90191    279007.94   -75837.137     7513.661   -83350.798     275.4714 
    5050    296.03568    -1199.222    279241.77   -75844.159    7518.2707   -83362.429    279.15671 
    5100    292.97795   -1043.1466    279319.13    -75850.81    7440.6149   -83291.425    282.78779 
    5150    290.90824   -1072.1105    279460.29   -75870.605    7388.0516   -83258.656    286.10732 
    5200    292.93323   -1198.7739    279525.67   -75868.463    7439.4793   -83307.942    289.77057 
    5250    291.59792   -1112.5976     279239.4   -75857.972    7405.5671   -83263.539    293.23088 
    5300    298.66282   -930.76026    278840.24    -75855.16    7584.9907   -83440.151    295.95101 
    5350    295.46296   -932.55488    278925.22   -75815.908    7503.7255   -83319.633    298.93784 
    5400    293.63424   -1235.2035    279510.09   -75860.948    7457.2824    -83318.23     302.4417 
    5450     296.7485   -1246.7086     279909.8   -75840.334    7536.3739   -83376.708    305.76405 
    5500    296.50254   -949.69829    279669.92    -75840.93    7530.1273   -83371.058    307.84679 
    5550    294.67262   -1227.8387    279273.56   -75899.544    7483.6536   -83383.198    310.04858 
    5600    290.90188   -1000.7298    279033.04   -75960.379      7387.89   -83348.269    313.03678 
    5650    288.52868   -1208.0464     279058.4    -76041.86    7327.6191   -83369.479    316.27076 
    5700    291.21678   -960.36012    278982.16   -76018.621    7395.8875   -83414.509     319.1219 
    5750    288.66426   -1096.3789    278916.21   -75998.557    7331.0623    -83329.62    322.16575 
    5800    287.16329   -957.94638    279024.19   -75994.141     7292.943   -83287.084    324.29608 
    5850    290.40418    -1014.531    279087.39   -75930.417    7375.2502   -83305.668    326.81587 
    5900    294.18483   -698.61466    278895.47   -75969.741    7471.2656   -83441.007    329.73324 
    5950     290.2356   -781.85816    278757.49   -75980.387    7370.9688   -83351.356    332.68365 
    6000    293.41555   -1160.4268    278978.25   -75981.356    7451.7284   -83433.084    334.76936 
    6050      291.964   -1322.8086       279259    -75921.03    7414.8642   -83335.894    337.43275 
    6100    290.31034   -938.42802    279294.83    -75918.41     7372.867   -83291.277    339.93087 
    6150    291.40635   -1149.6355    279238.02   -75908.809    7400.7019   -83309.511    343.19961 
    6200    293.71248   -907.93932    278752.97   -75936.576    7459.2696   -83395.845    345.84738 
    6250    293.00734   -757.47955    278513.51   -75918.208    7441.3614    -83359.57    347.69851 
    6300    294.44143   -974.38417    278935.09   -75878.424    7477.7823   -83356.206    349.92646 
    6350    290.79795   -910.75002     279444.8   -75838.627    7385.2506   -83223.878    352.50999 
    6400    295.09932   -1225.5482    280009.25   -75893.684    7494.4904   -83388.174    356.69443 
    6450    290.86377   -1121.5557    279888.93   -75906.169    7386.9222   -83293.092    360.16176 
    6500     295.7206   -1117.3922    279162.87   -75866.994    7510.2688   -83377.262     363.0419 
    6550    297.00207   -969.56554     278406.6   -75860.953    7542.8136   -83403.766    365.77178 
    6600     293.2971    -824.4733    278436.99   -75876.698    7448.7203   -83325.418    368.74029 
    6650    294.92451   -1152.1454    279121.56   -75917.767    7490.0508   -83407.818    372.46485 
    6700    296.12228   -1247.1373    279611.94   -75918.099    7520.4699   -83438.569     374.6291 
    6750    289.85738   -1078.3941    279416.84   -75942.118    7361.3634   -83303.482    378.10589 
    6800    291.90554   -698.57682    278894.76   -75922.635    7413.3795   -83336.015    380.73316 
    6850    298.86004   -919.02161    278878.56   -75925.604    7589.9994   -83515.603    382.65345 
    6900    291.65433   -899.40095    279106.78   -75885.743    7406.9997   -83292.743    385.11877 
    6950    292.40255   -860.43351    279442.24    -75872.33     7426.002   -83298.332    388.52023 
    7000    292.90727   -1174.5794    279781.27   -75845.876    7438.8199   -83284.696    391.54264 
    7050    291.89809   -1095.8159    279633.09   -75824.783    7413.1903   -83237.974    393.65779 
    7100    293.16267   -1240.6923    279384.11   -75835.101    7445.3061   -83280.407    396.12828 
    7150    291.24326   -911.68011    278958.03   -75895.859    7396.5598   -83292.419    399.13899 
    7200    289.56634   -1144.0889       278894   -75933.316    7353.9719   -83287.288    401.11102 
    7250    291.87195   -1053.3881    278889.46   -75882.529    7412.5264   -83295.056    404.11831 
    7300    292.31318    -884.7243    279059.78   -75859.068    7423.7322     -83282.8    407.23101 
    7350    292.75423   -865.03513    279032.23   -75850.228    7434.9333   -83285.161    409.80134 
    7400    295.14776   -1070.7136    279346.46   -75802.853    7495.7206   -83298.574    413.90605 
    7450    296.79536   -993.51339    279547.14   -75777.298    7537.5638   -83314.862    418.20696 
    7500    295.57112   -1040.6231    279550.87    -75841.16    7506.4725   -83347.633    421.52704 
    7550     292.2654   -1086.8905    279483.42    -75871.36    7422.5186   -83293.879    424.89981 
    7600    297.93939   -884.00393    279245.62   -75817.814    7566.6182   -83384.432    427.61451 
    7650    300.18119   -1098.1415    279249.96   -75832.619    7623.5522   -83456.171    430.79946 
    7700    296.51926   -854.16488    279197.74   -75821.234    7530.5519   -83351.786    434.55255 
    7750    295.52221   -1019.2512    279297.04   -75780.557    7505.2304   -83285.787    438.45804 
    7800    295.40567   -1112.0465    279372.37   -75819.488    7502.2705   -83321.758     441.6051 
    7850    295.26985   -895.52946    279265.21   -75795.583    7498.8211   -83294.404    445.71045 
    7900    293.48558   -976.19817    278987.18   -75836.348    7453.5071   -83289.855    448.64296 
    7950    291.27632   -886.44776    278740.99   -75876.647    7397.3995   -83274.046    450.62918 
    8000    299.82383   -807.91112    278736.86   -75870.627    7614.4765   -83485.103    453.82086 
    8050    292.34652   -884.62592    279287.32   -75846.204     7424.579   -83270.783      458.209 
    8100    288.99618   -1211.9569    279973.84   -75875.707     7339.492   -83215.199    461.70367 
    8150    291.42866   -1373.9674    279983.31   -75816.279    7401.2684   -83217.547    465.31949 
    8200    298.39152   -772.03614    279226.35   -75855.513    7578.1008   -83433.614    467.67416 
    8250    292.74737   -806.24165    278722.07   -75863.354     7434.759   -83298.113    470.20603 
    8300    296.63581   -892.35059    278804.81   -75853.593    7533.5119   -83387.105    473.85778 
    8350    292.26522   -1117.9998     279330.1   -75904.067    7422.5142   -83326.581    476.92945 
    8400    290.91647   -1106.5663    279716.95   -75901.113    7388.2606   -83289.373    480.45961 
    8450    286.54562   -1226.9111     279591.9   -75897.767    7277.2563   -83175.024    482.71456 
    8500    294.85001   -928.73768    278859.04   -75890.427    7488.1587   -83378.585    485.14494 
    8550    292.94881   -827.71213    278543.21   -75924.738    7439.8749   -83364.613    486.62731 
    8600    293.27461    -686.0069    278541.57     -75923.5    7448.1491   -83371.649     489.1841 
    8650    289.98315   -1001.7301    279137.97   -75913.077    7364.5576   -83277.634    492.67773 
    8700    294.80282   -1278.6988     279687.8   -75904.538    7486.9603   -83391.498    496.55153 
    8750      291.601   -1206.8895    279695.44   -75869.413    7405.6453   -83275.059    499.48433 
    8800    295.34169   -1210.8199    279392.09   -75893.201    7500.6456   -83393.847    501.27918 
    8850    286.06417   -833.70758    278801.76   -75935.141    7265.0292    -83200.17    503.59747 
    8900     292.2807   -789.48377     278561.1   -75959.731    7422.9073   -83382.638    506.11608 
    8950    293.87534   -936.56909    278931.44   -75938.837    7463.4056   -83402.242    509.38584 
    9000    289.35034   -1051.1029    279361.57   -75925.662    7348.4865   -83274.149    513.51353 
    9050    296.12715   -1323.6019    279631.78   -75919.609    7520.5937   -83440.203    516.88912 
    9100    290.05624   -886.64626    279512.57   -75985.258    7366.4138   -83351.671    519.52386 
    9150    290.60304   -992.22856    279139.05    -75949.86    7380.3006    -83330.16    522.35586 
    9200    296.80218   -912.62737    278931.74    -75962.16    7537.7372   -83499.897    524.45439 
    9250    290.78275    -1054.167    278939.68   -76001.386    7384.8646   -83386.251    527.46011 
    9300    286.85763   -952.56545    278975.12   -76043.629    7285.1804   -83328.809    530.12372 
    9350    286.47985   -1071.4424    279065.73   -76016.619    7275.5861   -83292.206    532.76499 
    9400    291.29853   -1123.2414    279119.36   -76015.772    7397.9636   -83413.736    535.31442 
    9450     291.5658     -778.908    279197.66   -75965.533    7404.7513   -83370.284    537.55746 
    9500    293.23751   -1085.3607    279156.19   -75990.224     7447.207   -83437.431    540.57059 
    9550    293.28942   -791.93864    278929.63   -75974.858    7448.5253   -83423.384    542.99724 
    9600    289.17747   -978.20416    278956.44     -75948.2    7344.0962   -83292.297     545.0857 
    9650     294.2588   -1222.1434    279169.93   -75983.007     7473.144   -83456.151    547.87049 
    9700    295.35753     -1287.87    279267.81   -75981.734     7501.048   -83482.782    551.59547 
    9750    290.35294    -1004.163    279007.42   -75987.992     7373.949   -83361.941    554.08405 
    9800    288.92307   -970.59488    278970.12    -75990.88    7337.6353   -83328.515    556.86808 
    9850      289.565    -947.6507    279231.76   -75984.383    7353.9381   -83338.321     559.3079 
    9900    292.10717   -990.67054    279599.31   -75983.366    7418.5003   -83401.866    563.07318 
    9950    288.31622   -1048.8335    279790.23   -75953.264    7322.2233   -83275.487    566.65246 
   10000    288.99056   -1179.9568    279297.36   -75963.198    7339.3493   -83302.547     569.2989 
   10050    291.58145   -726.09422    278759.26    -75970.54    7405.1488   -83375.688    570.84255 
   10100    290.61997   -773.02406     278940.4   -75938.011    7380.7306   -83318.742    574.50237 
   10150    292.20844   -1195.0683    279562.17   -75908.521    7421.0722   -83329.593    577.10795 
   10200    293.55201   -1183.8354    279786.36    -75887.63    7455.1942   -83342.824    579.70973 
   10250    295.25324   -1226.3077    279533.46   -75899.527    7498.3993   -83397.926    582.66314 
   10300    290.11472   -863.56991    279140.86   -75873.402    7367.8991   -83241.301    584.84864 
   10350    295.14954   -720.31148    278757.55   -75879.411    7495.7659   -83375.177    586.65279 
   10400    290.02653   -1028.8985    278911.55   -75942.389    7365.6591   -83308.048    589.58488 
   10450    294.15685   -665.00035    279208.41   -75918.198    7470.5549   -83388.753    592.66881 
   10500    293.11201   -1272.5682    279596.16   -75910.818    7444.0196   -83354.838     595.2575 
   10550    293.77469   -1045.4408    279666.45   -75891.418    7460.8494   -83352.267    598.06394 
   10600    291.79711   -813.27193    279261.36   -75894.605    7410.6257   -83305.231      600.569 
   10650    291.44439   -855.04463    278854.34   -75878.976    7401.6679   -83280.644    602.17604 
   10700    293.76985   -966.30286    278933.13   -75915.559    7460.7265   -83376.286    605.16966 
   10750    295.99964   -1048.2514    279143.08   -75882.484    7517.3554   -83399.839     608.9808 
   10800    293.14157   -968.53554    279249.73   -75898.924    7444.7703   -83343.694    612.41207 
   10850    295.52576   -891.13368    279462.08   -75837.529    7505.3204    -83342.85    617.11644 
   10900    291.18423   -1181.3288    279755.24   -75829.223    7395.0608   -83224.284     621.0981 
   10950    288.91185   -1125.6266    279457.41   -75836.746    7337.3503   -83174.096    623.79703 
   11000    294.29024   -620.16488    278939.24   -75885.942    7473.9425   -83359.885    626.27979 
   11050    295.05823   -875.53238    278791.18   -75915.847    7493.4467   -83409.294    629.09975 
   11100     291.0356   -1181.2535    279075.82   -75885.786    7391.2861   -83277.072    633.00428 
   11150    293.57399    -977.2712    279359.65     -75896.7    7455.7524   -83352.452      635.993 
   11200    294.55353   -748.95029    279481.72   -75889.747    7480.6291   -83370.376    638.20815 
   11250    286.65518   -983.41746    279415.85   -75915.335    7280.0388   -83195.374    641.49097 
   11300     288.6397    -941.2707    278994.18   -75909.429    7330.4387   -83239.868    643.91956 
   11350    289.56018   -861.87381     278746.1   -75948.638    7353.8155   -83302.453    646.14291 
   11400    293.09582   -988.91253     278968.3    -75946.99    7443.6084   -83390.598    648.28022 
   11450    286.98556   -896.29218    279344.22   -75993.582    7288.4293   -83282.011     651.8423 
   11500     292.2421   -934.30076     279561.7   -75986.872     7421.927   -83408.799    654.63364 
   11550      292.368   -1205.5603    279546.88   -76010.619    7425.1243   -83435.743    657.80973 
   11600    290.76105   -960.06589    279377.95   -75997.439    7384.3136   -83381.752     659.9342 
   11650    293.93583   -876.61327    278954.63   -75991.508    7464.9417    -83456.45    662.81295 
   11700    288.70451   -902.81439     279002.9   -75955.237    7332.0845   -83287.322    666.49992 
   11750     289.7721    -1052.065    279350.72   -75967.712    7359.1975   -83326.909    669.28932 
   11800    289.11516   -1168.7471    279503.96    -75983.26    7342.5137   -83325.774    672.55292 
   11850    292.74713   -1161.6767    279352.97   -75916.686    7434.7529   -83351.439    675.07592 
   11900    291.49775   -981.88512    279066.49   -76006.434    7403.0231   -83409.457    677.49515 
   11950        291.9   -1001.9939    278919.53   -76000.188    7413.2388   -83413.427    680.99548 
   12000    288.91576   -1171.0989    279071.59   -75999.134    7337.4495   -83336.583    684.50912 
   12050     288.2015   -939.62115    279124.27   -75981.432    7319.3098   -83300.741    687.66978 
   12100    293.85752   -1174.2678     279339.1   -75948.679     7462.953   -83411.632    690.38608 
   12150    293.34071   -1051.1114    279183.94   -75939.479    7449.8279   -83389.307     693.8585 
   12200    294.23655   -789.91478    278727.43   -75943.436     7472.579   -83416.015    696.28321 
   12250    295.32365   -799.50662    278674.68   -75913.937    7500.1875   -83414.125    700.23667 
   12300    292.26693   -790.15071    278865.86   -75920.336    7422.5576   -83342.894    703.53105 
   12350    288.60596   -1051.9519    279140.35   -75939.779    7329.5818    -83269.36    706.43878 
   12400     285.0655   -933.87306    279312.39    -75972.42    7239.6665   -83212.086    709.39633 
   12450    291.63823   -1052.7207    279135.67   -75954.019    7406.5907    -83360.61    711.24744 
   12500     290.4106   -1108.2769    278998.68   -75919.279    7375.4132   -83294.692    712.05097 
   12550    289.09754   -639.96559    278862.74   -75976.488     7342.066   -83318.554    715.35934 
   12600    288.39059   -926.26489    279053.33   -75914.079     7324.112   -83238.191    718.57313 
   12650    291.20559   -1041.1665    279401.74   -75932.213    7395.6032   -83327.817    720.69634 
   12700    293.57246   -890.86495    279764.77   -75907.554    7455.7134   -83363.268    723.53463 
   12750    290.15393   -1089.5614    279894.22   -75947.464    7368.8947   -83316.359    725.57356 
   12800    288.87618   -950.99172    279635.47   -75971.466    7336.4444    -83307.91    727.65031 
   12850    291.54427   -891.62247    279098.96    -75970.45    7404.2044   -83374.655    729.18829 
   12900    292.26853   -833.82982    278552.18   -75961.969    7422.5982   -83384.567    731.35271 
   12950    291.79984   -790.88629    278521.37   -75973.176    7410.6952   -83383.871    733.99421 
   13000    293.82832   -1154.5278    279384.77   -75940.913    7462.2114   -83403.125    738.70202 
   13050    291.82603   -1299.3976    280089.62   -75911.552    7411.3603   -83322.912    742.92795 
   13100    289.29182    -1085.054    280000.79   -75875.974    7347.0001   -83222.975    744.60406 
   13150    293.07068   -943.27593       279405   -75911.772    7442.9699   -83354.742    744.55849 
   13200    295.21388   -983.08715    278855.51   -75938.248    7497.3999   -83435.648    744.83693 
   13250    295.09814   -924.30691    278860.79    -75988.61    7494.4603   -83483.071    747.51944 
   13300     291.2066    -1128.885    279303.07    -75981.43    7395.6289   -83377.059    751.55423 
   13350    289.43628    -1055.756    279523.84   -75952.475    7350.6689   -83303.144      754.081 
   13400    289.45538   -1148.4136    279594.43   -75978.061    7351.1541   -83329.215     757.7206 
   13450    285.22406   -810.69998    279361.97    -76003.98    7243.6932   -83247.673    759.47805 
   13500    292.01063   -1109.8428    278991.03   -75984.447    7416.0484   -83400.496    761.77716 
   13550    288.13717   -1077.6124    278679.38   -76066.605    7317.6761   -83384.281    763.32713 
   13600    286.81117   -882.36425     278663.2   -76070.369    7284.0002   -83354.369     766.4848 
   13650    289.58957   -1190.8426    279011.18   -76076.929     7354.562   -83431.491    769.81028 
   13700    295.58986   -1241.8398    279117.53   -76068.017    7506.9484   -83574.965    772.56839 
   13750     286.6277   -872.51253    279236.61   -76043.283    7279.3409   -83322.624    776.87797 
   13800      287.021   -862.75408    279180.75   -76094.059    7289.3293   -83383.389    780.23921 
   13850    289.57693   -678.94726    278885.06   -76080.884    7354.2409   -83435.125    781.89379 
   13900    288.35268   -1203.0075    278909.59   -76046.074    7323.1492   -83369.223    784.52953 
   13950    293.93058   -927.50238    278992.58    -76065.16    7464.8085   -83529.969    789.20588 
   14000    288.12993   -1039.6476    279335.12   -76007.745    7317.4922   -83325.237       793.54 
   14050    290.97837   -1156.1387    279501.34   -75993.774    7389.8327   -83383.606     797.0958 
   14100    287.81878   -883.15627    279253.41   -75987.857      7309.59   -83297.447    799.03993 
   14150    290.05126   -1050.4881    278814.45    -75992.39    7366.2872   -83358.677     800.4936 
   14200    292.93452   -757.53592    278647.06   -75992.226    7439.5121   -83431.738    802.46536 
   14250    292.91538   -1104.4894    279048.67   -75904.636    7439.0258   -83343.661    806.42436 
   14300    288.24332    -638.4227    279306.42   -75928.971    7320.3719   -83249.343    809.50819 
   14350    293.82388   -1195.9447    279531.63   -75927.533    7462.0986   -83389.631    812.85934 
   14400    289.49577   -891.33465       279291   -75897.037    7352.1797   -83249.217    814.48827 
   14450      291.414   -815.65149    278784.92   -75960.209    7400.8961   -83361.105    817.18649 
   14500    290.24942   -1091.3703     278448.3   -75975.781      7371.32   -83347.101    821.76804 
   14550    294.65439   -1160.3855    278405.58   -76026.233    7483.1907   -83509.424    825.26886 
   14600     289.2493   -1029.3896    278852.39   -76014.603    7345.9203   -83360.523    829.51816 
   14650    287.95983   -932.93505    279279.89   -76014.652    7313.1722   -83327.824    832.27567 
   14700    290.06816   -1276.4671    279805.67   -75976.029    7366.7164   -83342.745    835.67978 
   14750    294.43965   -1110.7678     279522.1   -75987.253     7477.737    -83464.99      838.922 
   14800    292.64824   -982.73722    278949.65   -76044.839    7432.2414   -83477.081    840.70679 
   14850     284.0549   -1047.5223     278696.3   -76056.149    7214.0008   -83270.149    841.42332 
   14900    292.27038   -765.44296    278447.58   -76069.961    7422.6453   -83492.606    844.39608 
   14950    284.17269   -924.15358    278738.32   -76138.749    7216.9923   -83355.741    847.92296 
   15000    283.65325   -794.37489     278971.3   -76128.497    7203.8003   -83332.297     851.3478 
   15050    288.45151   -983.19984    279189.12   -76125.228    7325.6593   -83450.888    854.31197 
   15100    292.81328    -1131.606    279336.27   -76101.549     7436.433   -83537.982    857.47777 
   15150    291.74726   -1384.5791    279307.16   -76112.419    7409.3599   -83521.779    860.23144 
   15200    281.88237   -786.18715    278813.07   -76107.787     7158.826   -83266.613    861.50628 
   15250    290.74212   -750.09275    278560.96   -76119.916    7383.8327   -83503.748    863.88604 
   15300    286.46824   -633.80507    278633.68   -76071.639    7275.2911    -83346.93    866.90388 
   15350    293.27954   -932.04562     278980.6   -76077.411    7448.2743   -83525.686    869.75406 
   15400    288.93167   -1365.0228    279456.21   -76030.948    7337.8537   -83368.802     871.8243 
   15450      289.634     -1274.48    279407.03   -76040.993    7355.6903   -83396.683    875.52096 
   15500    290.45772   -783.28655    278891.51   -76032.842    7376.6099   -83409.452    876.28892 
   15550     289.3341   -968.08536    278509.97   -76041.721     7348.074   -83389.795    878.67542 
   15600    288.86338    -946.5643    278539.62   -76039.438    7336.1194   -83375.557    883.41801 
   15650    285.22904    -1085.447     278982.7   -76035.705    7243.8198   -83279.525    887.81555 
   15700    286.27485   -1168.7115    279525.92   -75994.587    7270.3798   -83264.967    890.47651 
   15750     292.1966   -1070.1596    279561.18   -76007.909    7420.7713    -83428.68     891.1134 
   15800    292.08803   -1064.4471    279183.03   -76005.682    7418.0141   -83423.696    893.56565 
   15850    291.31806   -804.06543    278820.73    -75986.65    7398.4596    -83385.11    895.83558 
   15900    291.52075   -1023.8661    279007.09   -75986.477    7403.6071   -83390.084    900.41631 
   15950    288.35703   -1001.0856    279305.42   -75952.778    7323.2597   -83276.038    904.33029 
   16000    289.30443   -1348.5616    279629.77   -75914.759    7347.3205    -83262.08    907.70016 
   16050     295.1035   -1074.3393    279614.56   -75873.708    7494.5965   -83368.305    910.02422 
   16100    293.73666   -886.42581    279522.52   -75867.898    7459.8837   -83327.781    911.67989 
   16150    293.52364   -1222.7124    279271.87   -75875.531    7454.4735   -83330.005     913.8217 
   16200    293.59324   -720.29939    278821.54   -75829.735    7456.2412   -83285.977    915.30575 
   16250    294.93445   -760.08351    278948.47   -75813.243    7490.3031   -83303.546    917.58795 
   16300    294.81323    -812.0232    279424.26   -75830.598    7487.2246   -83317.823    921.54206 
   16350    295.62042   -1022.1308    279524.94   -75846.517    7507.7246   -83354.242    924.25016 
   16400    293.14113   -957.51939    279403.98   -75832.583    7444.7592   -83277.342    925.95553 
   16450    291.91898   -1232.0703    279468.73   -75869.033    7413.7209   -83282.754    928.30321 
   16500    291.00039   -1119.4115    279285.07   -75841.444    7390.3919   -83231.836    928.62447 
   16550     298.4525   -971.14611    278969.17   -75820.793    7579.6495   -83400.443    930.06225 
   16600    293.97353   -612.17839    279048.04   -75796.638    7465.8993   -83262.537    933.17966 
   16650    297.86706   -1178.1771    279554.83   -75738.064    7564.7811   -83302.845    938.17764 
   16700    295.37825   -984.45585     279728.3   -75817.422    7501.5742   -83318.996    941.09824 
   16750    292.96832   -916.46433    279593.47   -75840.143    7440.3705   -83280.513    941.16484 
   16800    294.99386   -949.56709    279480.03   -75861.125     7491.812   -83352.937    942.98942 
   16850    287.58141   -992.93664    279309.86   -75895.372    7303.5618   -83198.934    946.00912 
   16900    290.34799   -1283.8821    279127.89    -75889.55    7373.8233   -83263.373    947.84319 
   16950      298.047   -916.67698    278990.83   -75855.181     7569.351   -83424.532    949.40483 
   17000    293.86178   -840.87596    279121.26   -75888.129    7463.0612   -83351.191    952.44877 
   17050    292.81142   -915.37226     279449.6   -75850.528    7436.3857   -83286.914    954.98425 
   17100    290.10913   -976.14244    279720.06   -75840.284     7367.757   -83208.041    959.03809 
   17150    296.04723   -1050.0405    279678.22   -75780.854     7518.564   -83299.418    963.12214 
   17200    294.46852   -936.01872    279288.07   -75739.046    7478.4701   -83217.517    964.62488 
   17250    294.30638   -768.73308    279094.51   -75744.788    7474.3524    -83219.14    967.04372 
   17300    296.24677    -951.0545    279245.98   -75697.412    7523.6316   -83221.044    970.38788 
   17350     299.3878   -988.10592    279720.03   -75743.345    7603.4027   -83346.748    973.41168 
   17400    292.94167   -1306.3769    280005.27   -75760.284    7439.6936   -83199.978    975.13088 
   17450    294.30384    -941.0745    279600.39   -75726.071     7474.288   -83200.359    976.26607 
   17500    289.70938   -1309.9939    279316.05    -75784.54    7357.6047   -83142.145    978.62667 
   17550    297.59071    -1076.745       278879   -75843.089    7557.7629   -83400.852    979.04208 
   17600    292.61337   -850.87667    278908.18   -75814.134    7431.3559   -83245.489    980.18329 
   17650    296.59322   -754.23803    279181.17   -75767.919    7532.4301   -83300.349    981.63288 
   17700    299.40355   -1326.8088       279745   -75738.746    7603.8027   -83342.549    987.07234 
   17750    297.00406   -1391.5926    279790.89   -75724.296    7542.8642    -83267.16    991.39892 
   17800    290.52586   -1080.4235    279424.84   -75725.193    7378.3405   -83103.533    992.17374 
   17850     298.8339   -1060.0331    279009.53    -75760.51    7589.3356   -83349.846    995.10293 
   17900    298.00248   -861.34564    278735.22    -75796.03    7568.2206    -83364.25    996.47506 
   17950    289.20913   -875.36103    279061.42     -75808.4    7344.9001     -83153.3    1000.8046 
   18000    289.57889    -981.3852    279457.88   -75862.651    7354.2909   -83216.942     1005.632 
   18050    292.29298   -1281.6058    279782.92    -75894.13    7423.2192   -83317.349    1007.9181 
   18100    290.82063   -1298.2093    279667.77   -75929.561    7385.8267   -83315.388    1010.4315 
   18150    290.97043   -1179.6561    279055.24   -75965.737    7389.6311   -83355.368    1012.9169 
   18200    296.02448   -803.57763    278332.61   -75923.869    7517.9862   -83441.855    1013.7584 
   18250    290.33926   -912.66403    278410.16    -75863.52    7373.6014   -83237.121    1016.5236 
   18300    288.73074   -933.57111    279150.41   -75833.792    7332.7508   -83166.543    1020.8193 
   18350      289.357   -1156.2729    279650.05   -75817.248    7348.6556   -83165.904    1023.4485 
   18400    294.73642   -1477.4435    279748.42   -75817.538    7485.2739   -83302.812    1026.2453 
   18450    294.72538   -1112.7079     279474.5   -75850.635    7484.9935   -83335.629    1028.9304 
   18500    296.68623   -997.51289       278993   -75826.918    7534.7923    -83361.71    1030.9795 
   18550    295.22492   -1029.5177    278875.22   -75802.927    7497.6801   -83300.607    1033.9142 
   18600    296.37201   -849.12013    279015.21   -75777.295    7526.8122   -83304.107    1035.5692 
   18650    292.75513   -1051.3301    279538.14    -75787.12    7434.9561   -83222.076    1039.7021 
   18700    289.09815   -1122.0272    279996.05   -75792.231    7342.0815   -83134.313    1044.4665 
   18750    297.02546   -1321.7574    280106.42   -75715.798    7543.4077   -83259.205    1047.5091 
   18800    299.10677   -1052.9101    279456.57   -75741.771    7596.2656   -83338.036    1048.4588 
   18850     294.7522   -521.07133    278692.66   -75789.425    7485.6749     -83275.1    1048.6407 
   18900    298.25855   -661.46621       278784   -75812.276    7574.7237       -83387    1049.2978 
   18950    293.40988   -1466.6863    279601.46   -75832.701    7451.5846   -83284.286    1053.4172 
   19000    297.42071   -1274.8052    279822.44   -75799.436    7553.4456   -83352.882    1057.5794 
   19050    289.51272   -971.76471    279496.67   -75770.741    7352.6104   -83123.351    1059.5439 
   19100     291.6049   -982.31369    279225.62   -75809.077    7405.7442   -83214.821    1063.1274 
   19150    298.38093   -886.53267    279075.44   -75783.252    7577.8318   -83361.084    1064.3777 
   19200    296.80791   -1029.1109    279036.17   -75800.979    7537.8825   -83338.862    1065.7179 
   19250    291.74339    -1111.393    279237.87   -75787.609    7409.2614   -83196.871    1069.4853 
   19300    291.78792    -926.3081     279519.9   -75804.253    7410.3923   -83214.646    1073.9921 
   19350    292.43349   -732.78379    279626.25   -75837.291    7426.7877   -83264.079    1077.7624 
   19400    292.45875   -896.21033     279580.9   -75851.616     7427.429   -83279.045    1080.9312 
   19450     289.4763   -1111.1954    279453.09   -75872.935    7351.6854   -83224.621    1084.6937 
   19500    293.32321   -934.37338    278898.95   -75947.336    7449.3833   -83396.719    1087.5239 
   19550    293.27937   -670.69247    278207.92   -75888.001    7448.2699   -83336.271    1088.1215 
   19600    296.82333   -796.03148    278369.02   -75882.529    7538.2741   -83420.803    1090.6674 
   19650    295.21057   -1190.0685    279235.06   -75832.847    7497.3157   -83330.163    1097.4285 
   19700    296.90082   -1190.6869    279811.56   -75779.543    7540.2421   -83319.785    1102.9957 
   19750     291.2286   -1106.7031    279938.61   -75796.985    7396.1877   -83193.173    1106.7397 
   19800    290.54949   -1122.5278    279643.41   -75825.114    7378.9405   -83204.054    1109.9593 
   19850    297.96077   -793.70663    278917.38   -75814.428    7567.1611   -83381.589    1111.5167 
   19900     295.4961   -565.28924    278612.82   -75760.988    7504.5671   -83265.556    1113.5797 
   19950    292.60711   -958.07022    278999.22   -75768.427    7431.1969   -83199.624    1117.0515 
   20000    296.86338   -1067.7728    279496.35   -75727.336    7539.2912   -83266.628    1120.8196 
   20050    296.85978   -1119.4819    279717.02   -75766.877    7539.1999   -83306.077    1124.0709 
   20100    295.59223   -902.01962    279598.77    -75792.95    7507.0086   -83299.958    1124.9676 
   20150    296.67309    -890.5218    279374.23   -75828.694    7534.4587   -83363.153    1127.2001 
   20200    297.04446   -1255.9809    278989.48   -75833.749    7543.8901    -83377.64    1129.4628 
   20250    291.19253   -750.15238     278571.3   -75863.498    7395.2715    -83258.77    1130.9129 
   20300    297.00237   -962.81536    279064.53   -75839.312    7542.8211   -83382.133    1134.1554 
   20350    291.10938   -1050.0818    279766.82   -75821.951    7393.1598   -83215.111     1138.826 
   20400     288.0869   -1191.6319    280000.79   -75784.157    7316.3995   -83100.556    1143.2724 
   20450    297.10148   -910.15732     279528.7   -75742.808    7545.3381   -83288.146    1143.7305 
   20500    298.12264   -974.03933    279249.62   -75747.774     7571.272   -83319.046    1145.6148 
   20550    296.31672   -905.69779    279211.26   -75742.814    7525.4081   -83268.222    1149.2661 
   20600    291.86066   -665.73783    279265.24   -75727.471    7412.2396   -83139.711    1151.3796 
   20650    297.52125   -944.10027    279544.62   -75681.168     7555.999   -83237.167    1155.4893 
   20700    291.19548   -1178.3969    279909.03   -75751.458    7395.3464   -83146.805    1158.1528 
   20750    296.69757   -1194.5565    279504.45   -75757.245    7535.0803   -83292.325    1160.1927 
   20800    292.76786   -829.61024    279113.39   -75745.372    7435.2793   -83180.652    1162.4049 
   20850    297.19039   -952.04818    279097.26   -75747.214    7547.5961   -83294.811    1163.9167 
   20900    298.64121   -988.35189    279143.82   -75672.265    7584.4419   -83256.706    1166.7027 
   20950    291.99253   -1137.5897    279475.28   -75724.076    7415.5887   -83139.665    1170.0864 
   21000    297.42479   -1212.8812    279728.76   -75746.591    7553.5491    -83300.14    1172.9245 
   21050    293.57907   -1080.9435    279757.29   -75696.289    7455.8813    -83152.17    1174.9853 
   21100     300.0566   -1039.4353    279349.99   -75686.962    7620.3879   -83307.349    1176.6637 
   21150     296.4606   -863.50246    278876.13    -75732.06    7529.0621   -83261.122    1175.7223 
   21200    294.91658   -733.44605    278951.43   -75753.973    7489.8495   -83243.823     1178.957 
   21250    293.49259   -1001.5063    279561.29   -75783.343    7453.6851   -83237.028    1182.8438 
   21300    297.88466   -1358.6103    279901.39   -75777.266    7565.2283   -83342.495    1186.5711 
   21350    291.41494   -833.14312    279602.43   -75851.244      7400.92   -83252.164     1190.685 
   21400    292.15358     -991.689       279240   -75848.966     7419.679   -83268.645      1192.64 
   21450    291.86321   -788.35728    278913.84    -75839.24    7412.3044   -83251.545    1195.0437 
   21500    293.47841   -877.53919    279056.07   -75811.175    7453.3249     -83264.5    1199.0591 
   21550    293.97845   -896.18298    279442.72    -75814.99    7466.0241   -83281.015    1203.1009 
   21600    293.56967   -1111.5057     279686.4   -75852.635    7455.6426   -83308.277    1207.3303 
   21650    295.70131    -983.3687    279417.23   -75871.845    7509.7788   -83381.624    1208.8253 
   21700    296.73859   -1013.6157    279088.21   -75846.433     7536.122   -83382.555    1210.9845 
   21750    292.32453   -866.17087    279204.69   -75846.485    7424.0205   -83270.506    1213.3727 
   21800    292.68206   -1112.2861    279683.73   -75846.728    7433.1004   -83279.828    1217.5112 
   21850    296.32839    -1036.554    279821.22   -75845.408    7525.7043   -83371.113    1219.7273 
   21900    292.44616   -1144.1524    279822.67   -75828.804    7427.1093   -83255.913    1223.5171 
   21950    292.78512   -1071.4815    279354.53   -75849.171    7435.7178   -83284.889    1223.4984 
   22000    296.42077   -965.04424    278749.85   -75816.156    7528.0506   -83344.206    1223.3138 
   22050    294.89948   -917.83892    278679.99   -75805.225     7489.415    -83294.64    1226.0143 
   22100    293.75833   -785.36657    279202.59   -75788.181    7460.4338   -83248.615    1231.5849 
   22150    292.71135   -1123.5555    280259.68   -75758.638    7433.8444   -83192.482    1236.8606 
   22200    293.24602   -1483.7103    280720.77   -75732.442    7447.4231   -83179.865    1240.8057 
   22250    291.28205   -1289.5265    279837.39   -75759.797     7397.545   -83157.342    1241.9794 
   22300     294.4042   -751.30059    278481.12   -75811.791    7476.8368   -83288.628    1239.6495 
   22350    300.04773   -370.12199    277814.69   -75829.871    7620.1627   -83450.034    1240.3089 
   22400    293.49247   -801.65919    278440.79   -75845.876    7453.6819   -83299.558    1244.0895 
   22450    295.92511   -1310.3525    279646.07   -75801.276    7515.4624   -83316.738    1249.2178 
   22500    293.31621   -1103.4264    280121.29   -75710.406    7449.2057   -83159.612    1254.0813 
   22550    296.39547   -1222.5297    280163.72   -75741.522    7527.4081    -83268.93     1254.009 
   22600    296.34986   -1096.9133    279711.69   -75782.023    7526.2497   -83308.272    1255.3044 
   22650    296.43857   -1180.9931     279222.4   -75773.873    7528.5025   -83302.376    1256.5062 
   22700    291.57536   -1052.2827    278825.42   -75795.564     7404.994   -83200.558    1256.9242 
   22750    294.62021   -1012.3536     278877.5    -75763.88    7482.3226   -83246.203    1260.8751 
   22800    295.55636   -901.52714    279269.67   -75780.119    7506.0975   -83286.216    1263.9509 
   22850    291.56246   -1094.3254    279703.58   -75762.274    7404.6664    -83166.94    1268.2358 
   22900    294.85088   -1191.9738    279916.76   -75708.043    7488.1809   -83196.224    1270.5577 
   22950    295.91969   -1215.2502    279454.09   -75730.748     7515.325   -83246.073    1270.1274 
   23000    291.63067   -711.79772     278933.5   -75803.006    7406.3988   -83209.405    1271.7149 
   23050    297.26088   -1005.4039    278995.37   -75798.388    7549.3865   -83347.775    1275.4268 
   23100    292.60165   -1250.9334     279265.2   -75843.324    7431.0583   -83274.382    1279.6494 
   23150    292.56102   -950.10295    279114.33    -75851.17    7430.0263   -83281.197    1282.6668 
   23200    299.31066   -901.14975    279001.14   -75813.193    7601.4436   -83414.636    1285.5184 
   23250    295.59551   -1028.1551    279375.76   -75796.816     7507.092   -83303.908    1289.0201 
   23300    295.89162   -1184.4284    279570.79    -75810.27     7514.612   -83324.882    1291.5886 
   23350    290.90639   -938.15237    279398.72   -75826.705    7388.0047    -83214.71    1293.5484 
   23400    291.99599   -914.47764     279092.2   -75820.561    7415.6768   -83236.238    1293.7905 
   23450    295.06619   -911.34279    278796.66   -75850.081    7493.6491    -83343.73    1293.7547 
   23500    293.89847    -768.8611    278757.39   -75869.643    7463.9929   -83333.636    1297.6484 
   23550    293.45309   -1057.9293    279003.26   -75864.327     7452.682   -83317.009    1302.3969 
   23600    293.94441   -1295.5093    279302.29   -75868.754    7465.1596   -83333.913    1306.9441 
   23650    296.11633   -933.70952    279157.21   -75913.101    7520.3188    -83433.42    1309.5009 
   23700    288.77332   -841.32629    279031.75   -75923.486    7333.8321   -83257.318     1310.449 
   23750    289.63431   -900.12963    279149.78   -75917.368    7355.6982   -83273.066     1311.521 
   23800    292.71068   -1017.2552    279165.55   -75890.971    7433.8274   -83324.799    1314.2495 
   23850    296.24189   -1100.4274    279247.87   -75854.596    7523.5077   -83378.103    1317.7728 
   23900     294.1535   -1049.1456    279660.46   -75870.399    7470.4697   -83340.869    1321.2336 
   23950    296.15761   -1274.1392    279770.16   -75903.939    7521.3673   -83425.307     1323.504 
   24000    291.82431   -1115.4937    279195.44   -75893.958    7411.3166   -83305.275    1323.2418 
   24050    292.22712   -1113.7401    278449.06   -75898.769    7421.5465   -83320.316     1323.013 
   24100    292.91244   -595.73779    278232.09    -75907.86    7438.9514   -83346.812    1324.9997 
   24150    297.48177   -1019.5404    278849.83   -75870.784    7554.9963    -83425.78    1329.1562 
   24200    292.70921   -1193.7437    279594.47   -75877.368    7433.7898   -83311.158    1334.3208 
   24250    289.30941    -1161.904    279877.61   -75795.066    7347.4468   -83142.513    1337.9986 
   24300    296.72611   -974.45215    279486.48   -75838.486    7535.8051   -83374.292    1339.2183 
   24350    294.04218   -891.91754    278885.63   -75878.125    7467.6427   -83345.768    1339.6736 
   24400    291.12036   -845.91016    278587.32   -75895.576    7393.4386   -83289.014    1341.5323 
   24450    294.64292   -1051.5027     278927.9   -75908.138    7482.8995   -83391.038    1343.5143 
   24500    292.59996   -1135.5586    279585.19   -75896.248    7431.0152   -83327.263     1345.144 
   24550    294.13522     -1085.88    279784.41   -75928.145    7470.0056   -83398.151    1346.4883 
   24600    293.53693   -1135.6923    279598.23   -75958.745     7454.811   -83413.556    1348.4767 
   24650    286.25022   -812.59131    279375.13   -75939.352    7269.7543   -83209.107    1349.2931 
   24700    287.56566   -868.28169    279210.22   -75946.768    7303.1618    -83249.93    1351.5228 
   24750    294.83709   -999.39162     279221.5   -75931.798    7487.8307   -83419.628    1354.2803 
   24800    291.90785   -1070.5378    279354.44   -75957.897    7413.4382   -83371.335    1356.8046 
   24850    293.88357   -847.96479    279033.59   -75957.994    7463.6146   -83421.609    1357.8492 
   24900    289.73819   -951.68885    278864.38   -75997.318    7358.3365   -83355.654    1359.0008 
   24950    291.67487   -933.67096    278943.01   -76002.999    7407.5214    -83410.52     1361.504 
   25000    295.76753   -1032.3175    279145.43   -75974.913    7511.4605   -83486.374    1364.6625 
   25050    290.99767   -1001.3583     279300.8   -75945.252    7390.3228   -83335.575    1366.2495 
   25100    293.31485   -1109.9202    279302.84   -75969.431    7449.1712   -83418.603    1367.5199 
   25150    294.31943   -1152.5229    279269.15   -75949.648    7474.6839   -83424.332    1370.3315 
   25200    297.70429   -873.22652    278830.94   -75913.859    7560.6474   -83474.507    1371.5822 
   25250    294.72947   -691.96604    278609.93   -75907.832    7485.0974   -83392.929    1372.9321 
   25300    293.01371   -967.11751    279173.64    -75864.99    7441.5232   -83306.513    1374.7479 
   25350     289.6408   -1128.9089    279967.73   -75862.266    7355.8631   -83218.129    1379.3499 
   25400    292.23406   -1271.3007    280167.72   -75882.074    7421.7227   -83303.797     1383.185 
   25450     292.3831   -1063.3547    279522.55   -75909.435    7425.5079   -83334.943    1384.1357 
   25500    288.98641   -880.13305    278849.47   -75929.731    7339.2438   -83268.975    1381.6559 
   25550    293.55399    -877.4871    278665.66   -75938.926    7455.2444    -83394.17    1382.4534 
   25600    290.53474   -1116.6508    278986.65   -75950.878    7378.5659   -83329.444    1384.3247 
   25650    291.56585   -1251.7621    279501.19   -75923.892    7404.7525   -83328.645    1388.3447 
   25700    285.74115   -1225.3721    279682.97   -75883.109    7256.8255   -83139.935     1390.134 
   25750     293.2218   -970.41162    279409.57   -75903.838     7446.808   -83350.646    1391.1071 
   25800    292.77294   -713.67347    279172.45   -75883.176    7435.4085   -83318.584    1391.7613 
   25850    293.84499   -841.60078    279313.76   -75890.108    7462.6347   -83352.743      1395.01 
   25900    292.34364   -1165.8891    279701.13   -75911.813    7424.5057   -83336.319    1397.6004 
   25950    282.74697   -1113.6557    279733.68   -75922.566    7180.7838    -83103.35    1400.4524 
   26000    292.19938   -1346.3981    279406.18   -75954.136     7420.842   -83374.978     1401.722 
   26050    289.25914   -895.16444    278834.45   -75965.522    7346.1701   -83311.692    1404.6106 
   26100    293.15114   -849.05856    278722.84    -75987.05    7445.0135   -83432.063    1407.3276 
   26150    291.79891   -806.50253       279021   -75917.973    7410.6716   -83328.645    1411.6691 
   26200    294.23286   -1136.5039    279551.44    -75901.42    7472.4854   -83373.905    1416.9076 
   26250    290.36332    -1045.535    279909.57   -75863.588    7374.2125     -83237.8    1419.1038 
   26300    292.83222   -1181.6853    280002.79   -75862.298    7436.9141   -83299.212     1421.808 
   26350    294.04065   -936.33418    279540.33   -75813.005    7467.6039   -83280.609    1422.8341 
   26400    292.18825   -823.64938    279055.39   -75818.075    7420.5595   -83238.634     1423.936 
   26450    292.93973   -748.51491    278981.23   -75870.672    7439.6442   -83310.316     1425.527 
   26500    293.53406   -1162.8772    279369.63   -75833.791    7454.7383   -83288.529    1431.3792 
   26550    290.31701    -1020.539    279795.84   -75866.536    7373.0365   -83239.572    1435.5543 
   26600    295.35093   -956.11554    279725.36   -75857.171    7500.8805   -83358.051    1437.7299 
   26650    293.97855   -1138.0824    279346.59   -75889.849    7466.0268   -83355.876    1438.3555 
   26700    292.97513   -873.98916    279094.28   -75944.451    7440.5434   -83384.994    1440.8119 
   26750    291.87319   -731.18367    279139.91   -75981.784     7412.558   -83394.342    1445.0718 
   26800    293.50744   -932.93095    279311.42   -75981.428    7454.0622   -83435.491    1449.2303 
   26850    285.38294   -1223.2239    279374.37   -76018.785    7247.7282   -83266.513    1451.2689 
   26900    289.63558   -1022.5679    279267.44   -76046.137    7355.7305   -83401.868     1452.919 
   26950    288.90772   -1061.2273    278938.17   -76043.496    7337.2455   -83380.741    1453.4035 
   27000    291.11213   -784.88994    278479.76   -76068.678    7393.2296   -83461.908    1454.3294 
   27050    291.49853   -974.39621    278584.32   -76060.381     7403.043   -83463.424     1455.714 
   27100     290.3066   -1025.5059    279176.79   -76094.198     7372.772    -83466.97    1459.8955 
   27150    289.40156    -901.7132       279445   -75988.415    7349.7871   -83338.202     1461.822 
   27200    290.83747   -1023.7964    279256.92   -75989.589    7386.2543   -83375.843    1464.8121 
   27250    293.70852   -812.82522     278788.3   -75997.757    7459.1689   -83456.926    1465.4089 
   27300    294.00437   -860.60951     278676.4   -75985.129    7466.6825   -83451.811    1466.3644 
   27350    291.42206   -999.34402    279078.07   -75991.872    7401.1008   -83392.973     1469.181 
   27400    289.39992   -946.31794    279552.53   -75949.245    7349.7455    -83298.99    1473.7468 
   27450    294.34264   -1152.7157    279664.65   -75902.949    7475.2732   -83378.222    1476.6553 
   27500    291.71804   -1144.0563    279284.32   -75867.551    7408.6177   -83276.169     1477.346 
   27550    292.94883   -476.57229    278770.04   -75864.835    7439.8754    -83304.71    1478.2048 
   27600    288.91554   -962.84745    279272.51    -75835.61    7337.4439   -83173.054    1483.8401 
   27650    292.94462   -1180.1068    279746.77   -75858.522    7439.7686   -83298.291    1489.2761 
   27700    292.60476   -1165.4667    279557.53   -75865.615    7431.1372   -83296.752    1490.8229 
   27750    291.84759   -1210.6833    279245.85   -75832.186    7411.9077   -83244.093    1490.8979 
   27800     294.1175    -941.5845    279040.67   -75895.475    7469.5555    -83365.03    1491.8159 
   27850    290.03388   -791.44368     278991.4   -75867.568    7365.8458   -83233.413    1494.6351 
   27900    296.51356   -1179.7694    279405.57   -75798.612    7530.4072    -83329.02    1496.7016 
   27950    294.67369    -1102.231    279648.43   -75794.987    7483.6808   -83278.668    1501.2683 
   28000    297.61402   -1125.5757    279632.02   -75802.217    7558.3548   -83360.572    1503.0148 
   28050    293.14493   -922.01246    279436.17   -75776.106    7444.8556   -83220.962    1504.8078 
   28100    295.58895   -935.40492    279105.85   -75787.019    7506.9252   -83293.944    1506.9393 
   28150    290.85285   -607.69685    278929.83   -75820.419    7386.6448   -83207.064    1509.4612 
   28200    299.07426   -1129.9764    279018.08   -75850.485      7595.44   -83445.925    1510.6571 
   28250    294.78018   -901.88477    279362.75   -75789.569    7486.3854   -83275.955    1514.2648 
   28300    293.38578    -1308.706    279546.12   -75794.456    7450.9724   -83245.428     1517.674 
   28350    295.35416   -961.63166    279235.01   -75826.048    7500.9624    -83327.01    1518.6637 
   28400    296.10336   -738.73382    278936.58    -75827.23    7519.9893   -83347.219     1521.029 
   28450    292.33725   -920.28771    278864.29    -75826.35    7424.3433   -83250.693    1522.2857 
   28500    291.34399   -793.44978    279070.62   -75770.547    7399.1181   -83169.665    1524.5137 
   28550    298.15487   -929.96763    279396.95   -75729.711    7572.0907   -83301.802    1527.8622 
   28600     299.2347   -1038.4712    279555.64   -75698.852    7599.5146   -83298.367    1531.1704 
   28650    291.88217    -946.8179    279306.83   -75710.698     7412.786   -83123.484    1533.4454 
   28700    296.45811    -545.3909    279058.82   -75673.376    7528.9989   -83202.375     1535.629 
   28750    293.32306   -772.09975    279348.04   -75703.902    7449.3796   -83153.282    1536.3259 
   28800    291.82439    -1281.822    279970.73    -75763.22    7411.3185   -83174.538    1540.7382 
   28850     289.2766   -1132.3026    280484.29   -75762.588    7346.6137   -83109.202    1543.4473 
   28900    294.82333   -1204.2677    279987.18   -75767.855    7487.4811   -83255.336     1545.002 
   28950    294.28612   -725.79514    278869.91   -75797.479    7473.8378   -83271.316     1543.617 
   29000    295.83665   -795.16321     278606.1   -75847.181    7513.2158   -83360.396    1543.9938 
   29050    291.14241   -925.24581    279072.28   -75847.417    7393.9987   -83241.415    1549.7075 
   29100    286.68619   -1015.3327    279542.11   -75819.238    7280.8262   -83100.064    1553.3587 
   29150    293.50081    -1126.222    279516.14   -75829.715    7453.8937   -83283.609     1555.378 
   29200    290.23351   -1043.1758    279379.35   -75820.069    7370.9158   -83190.985    1556.0861 
   29250    296.80173   -981.80317    279319.97   -75778.598    7537.7255   -83316.324    1557.4494 
   29300    294.95044   -1017.8042    279356.17   -75826.217    7490.7092   -83316.926    1559.6105 
   29350    288.55584   -1048.9457    279424.85   -75850.603    7328.3089   -83178.912    1562.2695 
   29400    293.57415   -981.20276    279295.08   -75885.781    7455.7564   -83341.537     1564.577 
   29450    291.73225   -1118.2373    279247.81   -75885.467    7408.9787   -83294.445    1568.9336 
   29500    293.96939    -1103.913    279116.57   -75901.846     7465.794    -83367.64    1571.5561 
   29550     295.2018   -798.25651    278981.41   -75867.217     7497.093    -83364.31    1572.8867 
   29600    295.20069    -910.1927    279303.54   -75838.953    7497.0647   -83336.018    1575.4809 
   29650    299.19552   -1237.3214    279536.58   -75817.628    7598.5194   -83416.148    1579.4765 
   29700    292.31032   -969.35364    279572.11   -75852.122    7423.6595   -83275.782    1582.2485 
   29750    291.46379   -922.71123    279451.32   -75833.207    7402.1606   -83235.367    1585.5916 
   29800    294.02175   -1219.0794    279325.44   -75812.463    7467.1239   -83279.587    1588.4204 
   29850    296.34354   -961.21001    279085.64   -75814.356    7526.0891   -83340.445    1590.0188 
   29900    294.16403   -700.02762    279217.51   -75774.555    7470.7373   -83245.292    1594.0236 
   29950    296.10589   -1179.3624    279744.27   -75757.201    7520.0536   -83277.254     1600.075 
   30000    293.21292   -1120.9906    279918.73     -75781.8    7446.5825   -83228.382    1600.9211 
   30050    292.66563   -853.43352    279645.23   -75812.478    7432.6833   -83245.161    1600.2261 
   30100    299.35314   -936.85318    279306.12   -75783.964    7602.5226   -83386.487    1601.7573 
   30150    297.72076   -652.54726    278783.55   -75793.625    7561.0659   -83354.691    1603.1551 
   30200    291.68951   -584.20569    278772.73   -75787.819    7407.8931   -83195.712     1606.446 
   30250    296.46972   -1066.6757    279290.28   -75790.886    7529.2937   -83320.179    1610.6409 
   30300    298.21358   -952.50579    279686.73    -75761.42    7573.5815   -83335.001    1614.1124 
   30350      292.827   -1060.9904    279833.15   -75770.236    7436.7814   -83207.018    1617.4027 
   30400    295.28331   -723.53707     279409.8    -75851.74    7499.1631   -83350.904    1617.5765 
   30450    294.64249   -837.07478    279374.13   -75876.644    7482.8884   -83359.532    1619.1444 
   30500    292.70187   -1070.6625    279636.44   -75823.162    7433.6036   -83256.766    1623.1331 
   30550    290.74098   -905.27427    279648.38   -75806.889    7383.8036   -83190.692    1624.6615 
   30600    292.66539   -1064.5342    279428.22   -75842.072     7432.677   -83274.749    1625.9747 
   30650    296.69144   -857.16675    279025.97   -75875.694    7534.9246   -83410.619    1626.2999 
   30700    293.76122   -973.37767    278715.75   -75878.813    7460.5072    -83339.32    1626.9804 
   30750    292.24369   -770.03342    278749.14   -75915.464    7421.9674   -83337.432    1630.1041 
   30800    289.69664   -1171.8721    279109.52   -75950.476    7357.2813   -83307.758    1633.6539 
   30850    287.96187   -742.85744    279377.29   -75960.012    7313.2241   -83273.237    1638.7499 
   30900    297.65554   -1178.3908    279756.83   -75933.387    7559.4095   -83492.796    1642.2292 
   30950    289.73675   -1186.5816    279767.04   -75946.556    7358.2997   -83304.856    1644.6626 
   31000    287.33469    -865.2577    279329.86   -75946.504    7297.2958     -83243.8    1647.2774 
   31050    292.16704   -1075.1128    279101.74   -75943.257    7420.0207   -83363.278    1648.5627 
   31100    294.92927   -945.99567    279082.77   -75926.828    7490.1717       -83417    1650.7937 
   31150    294.91818   -898.50515    279260.57   -75899.261    7489.8899   -83389.151    1655.0571 
   31200    291.03619    -972.5842    279344.28   -75883.206    7391.3011   -83274.507    1658.5945 
   31250     292.2478   -939.46403    279192.28   -75883.342    7422.0717   -83305.414    1659.1834 
   31300    291.40799   -765.67493    278956.15   -75881.134    7400.7434   -83281.878    1660.2452 
   31350    292.75738   -987.43446    279055.21   -75902.471    7435.0132   -83337.484    1666.1069 
   31400    291.33912   -768.84118    279125.37   -75924.479    7398.9945   -83323.474    1670.4158 
   31450    292.52552    -1148.129    279444.88   -75907.564    7429.1248   -83336.689    1674.6683 
   31500    293.38823   -1143.3945    279571.11   -75902.165    7451.0347     -83353.2    1674.6745 
   31550    291.07838   -959.09441    279296.62   -75915.796    7392.3726   -83308.169    1674.6728 
   31600    290.60373   -938.64674    279171.88    -75929.59    7380.3182   -83309.909    1676.4366 
   31650    294.58727    -992.9404    279103.48   -75878.443    7481.4862    -83359.93    1678.3945 
   31700    292.75902   -684.84085    279120.83   -75887.656     7435.055   -83322.711    1680.2513 
   31750    295.60028   -1228.5676    279461.99    -75886.44    7507.2131   -83393.653    1684.5413 
   31800    291.91076   -1067.7494    279437.57   -75883.713    7413.5121   -83297.225     1686.436 
   31850    289.95284   -852.92548    279019.56    -75933.78    7363.7879   -83297.568    1687.2659 
   31900    290.77524   -729.79297    278659.62   -75961.942    7384.6738   -83346.616    1689.7218 
   31950    293.30557   -993.08299    279031.29   -75926.735    7448.9355    -83375.67    1692.6816 
   32000     291.4027   -1010.6271    279414.15   -75941.741    7400.6092    -83342.35     1696.038 
   32050    296.03245   -1136.2289    279444.13   -75958.058    7518.1885   -83476.246    1698.8695 
   32100    289.31147   -982.28289    279203.34   -75938.942    7347.4993   -83286.442    1700.4309 
   32150    292.79722   -811.85787    278997.79   -75983.955     7436.025    -83419.98    1702.4567 
   32200    291.62665   -966.76112    278800.76   -75953.135    7406.2966   -83359.432    1703.8813 
   32250    291.50965   -1011.7325    279043.78   -75930.762    7403.3253   -83334.087    1706.3577 
   32300    292.40135   -1132.0788    279649.58   -75952.604    7425.9715   -83378.575    1711.6039 
   32350    290.20058   -1261.5734    280293.26   -75930.264    7370.0795   -83300.343    1717.0532 
   32400    292.17757   -1272.3167    280039.69   -75937.785    7420.2881   -83358.073    1718.2265 
   32450    294.77523   -922.15087    279153.19   -75991.234    7486.2596   -83477.494     1717.064 
   32500    295.30859   -1072.5656     278362.4   -75972.291    7499.8052   -83472.096    1718.2607 
   32550    292.12682   -807.02222    278150.01   -75989.676    7418.9993   -83408.676    1722.8573 
   32600     290.9093   -677.77109    278636.92   -75934.271    7388.0785    -83322.35    1728.9754 
   32650    290.59293   -829.28193     279642.2    -75921.89    7380.0439   -83301.934    1735.9232 
   32700    286.63793   -1258.8019    280143.39   -75908.979    7279.6007    -83188.58    1738.5207 
   32750    292.56417   -957.95359    279628.99    -75899.99    7430.1065   -83330.096    1735.9701 
   32800    288.16122   -733.43161    278819.84   -75932.703    7318.2868    -83250.99     1736.671 
   32850    296.45126   -547.30411    278501.69   -75931.263     7528.825   -83460.088    1736.4803 
   32900    294.25898   -1140.1666    279248.45   -75947.552    7473.1488     -83420.7    1742.1124 
   32950    288.48621   -1193.5095    279890.66   -75979.112    7326.5406   -83305.652     1747.262 
   33000    294.84936   -1129.3936    279750.38   -75927.155    7488.1423   -83415.297    1748.7019 
   33050    287.56418   -731.99683    279165.06    -75932.32    7303.1241   -83235.445    1748.2247 
   33100    291.62379   -751.77496    278882.83   -75953.083    7406.2241   -83359.307    1747.3878 
   33150    293.94374   -789.18179     278852.6   -75967.229    7465.1426   -83432.371    1749.8468 
   33200    290.46367   -979.67967    279124.85   -75992.524    7376.7611   -83369.285    1752.2093 
   33250    290.38844   -1009.0263    279487.08   -75998.396    7374.8505   -83373.246    1757.5002 
   33300    292.16923    -1117.537    279731.98   -75982.651    7420.0762   -83402.727    1761.9883 
   33350    284.38224   -907.05981    279657.95   -76013.479     7222.314   -83235.793    1762.4304 
   33400    291.87257    -597.0188    279208.87   -75987.902    7412.5421   -83400.444    1763.1801 
   33450    287.48694   -1109.4193    278926.45   -75972.064    7301.1626   -83273.226    1764.1857 
   33500    290.60919   -794.93422    278707.37   -76002.008    7380.4569   -83382.465    1763.5851 
   33550    293.58475     -957.565    278960.76    -75975.41    7456.0255   -83431.436    1765.5177 
   33600    292.35448   -953.05917    279265.24   -75981.014    7424.7811   -83405.796    1768.8008 
   33650    291.95785   -1359.0335    279456.37     -75983.6     7414.708   -83398.308    1771.0473 
   33700    292.35079   -1259.0663    279360.81   -75942.339    7424.6874   -83367.027    1773.2002 
   33750    297.10009   -886.18934    279105.87   -75924.257     7545.303    -83469.56    1773.2001 
   33800    289.23105   -902.96278    278943.95   -75933.191    7345.4567   -83278.648    1773.0224 
   33850    289.69421   -1097.9762     279057.2    -75936.46    7357.2194    -83293.68    1776.4805 
   33900    287.83036   -921.71257     278844.3   -75955.436    7309.8843   -83265.321    1775.9486 
   33950    292.79874   -826.65758    278792.86   -75966.371    7436.0638   -83402.435    1775.6247 
   34000    292.75936   -812.37421    279171.65   -75922.167    7435.0636   -83357.231    1780.0935 
   34050    291.03559   -1131.9838    279916.39   -75932.786    7391.2857   -83324.072    1789.3746 
   34100    287.00063   -1240.3549    279670.64   -75953.049    7288.8121   -83241.861     1792.718 
   34150    291.27445   -632.66095    278589.75    -75972.75    7397.3521   -83370.102    1790.5587 
   34200    290.35505   -797.24428    278328.15   -75985.613    7374.0026   -83359.615    1789.3364 
   34250    289.10636   -714.41071    278866.56   -75967.611    7342.2902   -83309.901    1794.0536 
   34300    290.81234   -1334.3901    279903.63    -75901.45     7385.616   -83287.066    1801.2079 
   34350    288.68826   -1052.2253     280129.6   -75911.589    7331.6719   -83243.261    1806.0398 
   34400    293.87401   -1246.9546    279697.93   -75967.512    7463.3718   -83430.884    1805.4705 
   34450    289.89925   -655.02185    278947.95   -75929.631    7362.4268   -83292.058    1803.8195 
   34500    294.48107   -1066.4718    278743.62   -75980.927     7478.789   -83459.716    1805.6193 
   34550    290.18419   -789.46403    278923.09   -76025.334    7369.6633   -83394.997    1808.6485 
   34600    294.38732   -1159.1367    279498.32   -76044.479    7476.4081   -83520.887    1815.2441 
   34650    288.51768   -1586.6436    279705.21   -76013.816    7327.3398   -83341.156    1817.8106 
   34700     290.0193   -1056.1848    279183.66   -75988.116    7365.4756   -83353.591    1816.5567 
   34750    292.65002   -944.82167    278849.86   -76016.673    7432.2868   -83448.959    1816.5252 
   34800    293.23551   -1032.1741    278828.16   -75994.254    7447.1562    -83441.41    1818.8715 
   34850    293.61686   -1070.8477    278792.92   -76030.162    7456.8411   -83487.003     1821.925 
   34900    291.48559   -1075.4557    278446.61   -76037.185    7402.7143     -83439.9    1822.6633 
   34950    290.93561   -871.42936    278421.67    -75992.75    7388.7467   -83381.497    1824.3739 
   35000    295.18597    -807.6048    278907.04   -75992.629    7496.6911    -83489.32    1827.0243 
   35050    297.05283   -1044.7583    279680.92   -75967.735    7544.1026   -83511.838    1832.3064 
   35100      292.529   -1400.3976    279836.66   -75995.206    7429.2132   -83424.419    1834.3886 
   35150    287.70682   -1038.7504    279190.99   -76013.713    7306.7467    -83320.46    1834.8574 
   35200    292.46279    -1009.391    278400.37   -76022.363    7427.5318   -83449.894    1832.7636 
   35250    295.03543   -983.29182    278032.85   -75981.425    7492.8678   -83474.293    1832.7978 
   35300    291.02255   -846.68632     278612.9    -75947.67    7390.9546   -83338.625    1837.6543 
   35350     290.8576   -879.00294    279470.81   -75915.323    7386.7655   -83302.089    1843.4326 
   35400    287.71602   -1205.5964    279967.36   -75944.279    7306.9803   -83251.259    1849.6282 
   35450    287.07097   -1114.2728       279932   -75920.838    7290.5985   -83211.437    1852.6258 
   35500    291.70882   -1123.6352     279273.5     -75893.2    7408.3836   -83301.583    1852.5452 
   35550    296.45312   -634.70276    278595.47   -75947.989    7528.8721   -83476.861    1852.8364 
   35600    289.13287   -826.00675    278866.36   -75854.376    7342.9633   -83197.339    1856.2494 
   35650    293.94523   -852.02394     279465.8     -75845.8    7465.1804   -83310.981    1862.8358 
   35700    285.85485   -1004.7614    279973.44   -75877.411    7259.7132   -83137.124    1871.7109 
   35750    295.06312   -1203.6185    280119.91   -75876.689     7493.571    -83370.26    1874.4695 
   35800     292.7395   -1139.9402    279553.18   -75897.541    7434.5592     -83332.1    1872.7697 
   35850    292.86634   -826.75683    278697.44   -75880.009    7437.7805   -83317.789    1870.5229 
   35900    293.13512   -886.22592    278587.27   -75880.087    7444.6066   -83324.694    1873.5582 
   35950    299.67015   -1120.2953    278968.02   -75896.205    7610.5735   -83506.779     1876.963 
   36000     292.5692   -1167.7388    279505.67   -75915.713    7430.2343   -83345.947    1882.2843 
   36050    290.70143   -1144.3787    279701.64    -75955.51    7382.7994    -83338.31    1885.4953 
   36100    291.04001    -1184.003    279543.41   -75918.082     7391.398    -83309.48    1886.3761 
   36150    287.48108    -1260.668    279192.92   -75911.977    7301.0136   -83212.991    1887.0687 
   36200     295.6563   -1037.3835    278880.44   -75921.087    7508.6357   -83429.722    1887.5827 
   36250     288.7332   -716.38563     278745.4   -75909.575    7332.8132   -83242.389    1887.0876 
   36300    292.89088   -946.04921    279312.78   -75954.544    7438.4037   -83392.947    1891.2579 
   36350    292.17943   -1146.6034    279887.43   -75876.585    7420.3354   -83296.921    1894.7233 
   36400    287.78762    -836.4312    279719.25   -75920.895    7308.7989   -83229.694    1899.4024 
   36450    294.13979   -1101.2723    279228.04    -75902.03    7470.1216   -83372.152    1899.5831 
   36500    294.08495   -808.31832    278848.72   -75917.653    7468.7289   -83386.382    1901.4721 
   36550    290.22633   -896.36229     279095.6   -75879.054    7370.7335   -83249.787    1906.0967 
   36600    294.45136   -850.70771    279352.85   -75860.953    7478.0344   -83338.988    1910.5806 
   36650    288.72981   -1197.7128    279657.16   -75880.372     7332.727   -83213.099    1913.8663 
   36700    292.04391   -939.87152    279403.06   -75872.189    7416.8937   -83289.082    1914.8715 
   36750    295.17092   -1279.4943    279105.89   -75909.496    7496.3088   -83405.805    1916.1708 
   36800    293.34375   -785.52255    278778.59   -75870.011     7449.905   -83319.916    1916.9514 
   36850    292.72573   -992.36643     279185.5   -75879.124    7434.2095   -83313.333    1923.9407 
   36900    292.13765   -1177.2311    279720.03   -75886.119    7419.2744   -83305.393    1929.2494 
   36950    295.81054   -1495.1043    279992.58   -75917.979    7512.5528   -83430.532    1933.5597 
   37000    292.67216   -951.02823    279711.31   -75942.113    7432.8491   -83374.962    1935.2988 
   37050    292.46175   -1039.4983    279226.01   -75956.999    7427.5054   -83384.504     1935.565 
   37100    294.46358   -773.51377    278580.25   -75922.073    7478.3449   -83400.418    1935.4128 
   37150    289.89189   -1007.9278    278522.68   -75931.359    7362.2398   -83293.599    1937.8349 
   37200    289.51049   -964.59486    278934.29   -75941.116    7352.5535    -83293.67    1942.2342 
   37250    291.06711   -948.48589    279375.51   -75931.524    7392.0863    -83323.61    1947.4342 
   37300    289.25068   -1060.6613    279703.29   -75937.831    7345.9554   -83283.787    1948.9642 
   37350    290.00351   -1057.8151    279296.42   -75943.019    7365.0747   -83308.094    1948.6249 
   37400    289.04935   -905.79543    278873.84   -75923.032    7340.8423   -83263.874     1949.758 
   37450    294.71477   -1264.8771    278987.77   -75926.495    7484.7243   -83411.219     1952.289 
   37500     290.6278   -1161.9074    279405.88   -75925.228    7380.9293   -83306.157    1956.2685 
   37550    289.21743   -1138.2258    279618.04   -75905.943    7345.1109   -83251.054    1961.8632 
   37600    288.00955    -1068.868    279262.51   -75916.317    7314.4351   -83230.752    1965.5635 
   37650    285.50911   -528.33169    278860.48   -75915.356    7250.9325   -83166.288    1965.1288 
[...]
   90850    298.32431   -1051.6707    279240.22   -75733.572    7576.3937   -83309.966    4633.3075 
   90900    295.04299   -830.82979    279037.29   -75749.664    7493.0598   -83242.724    4632.2227 
   90950    293.79098    -876.0499    279248.95   -75783.736     7461.263   -83244.999    4634.9671 
   91000    296.36961   -967.28225    279744.04   -75747.196    7526.7513   -83273.947     4641.811 
   91050    298.84302   -1023.1588    279587.73   -75780.805    7589.5671   -83370.372    4643.6621 
   91100    296.49039   -941.44368    279346.45   -75735.124    7529.8186   -83264.942    4642.1075 
   91150    297.33425    -1103.964    279301.23   -75749.745    7551.2497   -83300.995    4644.2668 
   91200    290.61234   -1086.9976    279392.78   -75779.813    7380.5368    -83160.35    4647.3038 
   91250    296.66102   -1061.3919    279478.14   -75795.662     7534.152   -83329.814    4647.9236 
   91300    290.73059    -1169.865    279467.71   -75784.247    7383.5399   -83167.787    4650.6389 
   91350    289.01165   -1118.4521    279309.89    -75796.09    7339.8847   -83135.975    4649.4893 
   91400    295.51385   -1095.0418    279275.02   -75829.769    7505.0179   -83334.787    4653.6135 
   91450    293.44689   -782.03747    279410.25   -75842.563    7452.5244   -83295.087    4654.6821 
   91500    293.00147   -1073.5659    279428.76   -75843.858    7441.2122    -83285.07    4658.3671 
   91550    298.90392   -1406.3748    279228.65   -75839.289    7591.1138   -83430.403    4660.7025 
   91600     292.8622   -707.97665    278816.07   -75872.368    7437.6752   -83310.044    4661.1398 
   91650    291.61087   -1119.9631    279099.26   -75935.316     7405.896   -83341.212     4664.198 
   91700    290.34871   -1145.0765    279719.75   -75941.252    7373.8415   -83315.094    4670.4336 
   91750    294.75207   -1233.8971    279889.31   -75893.008    7485.6715    -83378.68    4675.4662 
   91800    290.17621   -745.11493    279085.35   -75904.484    7369.4606   -83273.944     4670.235 
   91850    292.05157   -770.23655    278571.06   -75934.605    7417.0882   -83351.693    4667.0018 
   91900    290.73601   -758.48078    279088.67   -75914.684    7383.6775   -83298.361    4671.0998 
   91950    290.67324   -1099.5883    279728.48     -75961.2    7382.0833   -83343.284    4680.8325 
   92000    288.69008   -1209.7403    279986.15    -75913.62    7331.7182   -83245.338    4683.6788 
   92050    286.12624   -1065.6825    279546.52    -75968.87    7266.6056   -83235.476     4681.377 
   92100     292.0475   -884.43427    278563.26   -75914.273    7416.9849   -83331.258    4673.8023 
   92150    295.96861   -426.19063    278011.32   -75920.788    7516.5672   -83437.356    4671.4455 
   92200    293.77398   -864.57381    278548.09   -75905.527    7460.8315   -83366.359    4678.7696 
   92250    292.62037   -1092.1232    279414.44   -75869.381    7431.5337   -83300.914    4689.8826 
   92300    288.73032   -1245.2773     279875.1   -75868.196    7332.7401   -83200.936    4699.3201 
   92350    289.73046   -1234.7726    279600.96   -75885.107    7358.1402   -83243.248    4698.2915 
   92400    287.49779   -1047.7267     278843.8   -75897.595    7301.4382   -83199.033    4691.6795 
   92450    293.04627   -797.47305    278522.32   -75895.423    7442.3502   -83337.773    4689.1727 
   92500    293.80001   -1080.1874    278878.36   -75911.255    7461.4924   -83372.747    4697.2011 
   92550     289.8054   -1000.7832    279330.61   -75913.497    7360.0434   -83273.541    4703.1849 
   92600    296.26401   -1065.6714    279549.84   -75950.975    7524.0695   -83475.044     4707.793 
   92650    290.94763   -831.94983    279165.03   -75939.945     7389.052   -83328.997    4706.7989 
   92700     297.5437   -1140.3434    278692.74   -75939.998    7556.5691   -83496.567    4704.9811 
   92750     289.7332   -952.91344    278649.87   -75999.777    7358.2097   -83357.987    4705.7477 
   92800    288.86407   -798.39051    279005.92   -75990.134    7336.1368   -83326.271    4715.3944 
   92850    295.67254   -1379.6867    279565.37   -75969.529    7509.0481   -83478.577    4722.4395 
   92900     291.3374   -1314.0044    279830.29   -75970.281    7398.9508   -83369.232    4727.5046 
   92950    285.45324   -1214.8275    279497.37   -75958.245    7249.5137   -83207.759    4727.3931 
   93000    290.62099   -895.97331    279109.74   -75930.274    7380.7565    -83311.03    4725.7388 
   93050    292.74641   -1064.2879    278855.73   -75909.917    7434.7347   -83344.652    4724.1301 
   93100    290.40494   -554.70613    278884.66   -75871.318    7375.2696   -83246.587    4726.1092 
   93150    289.85886   -1242.9305    279426.34   -75878.897     7361.401   -83240.298    4732.8238 
   93200    292.48515   -1009.0701    279671.56   -75846.477    7428.0995   -83274.576    4737.7888 
   93250    291.75604   -645.25689    279467.15   -75819.949    7409.5827   -83229.532    4736.8285 
   93300    293.63535   -1103.5999    279081.27   -75852.307    7457.3106   -83309.618    4730.8633 
   93350    289.17928   -712.99852    278610.94     -75893.4     7344.142   -83237.542    4724.4683 
   93400      296.889   -923.15024    278543.49   -75911.696    7539.9419   -83451.638    4725.2466 
   93450     295.1024   -1098.1119    279053.42   -75903.301    7494.5685   -83397.869    4733.0122 
   93500    289.38524    -1212.524    279545.32   -75879.752    7349.3727   -83229.124    4738.1581 
   93550    291.80863   -1134.9452    279492.76    -75876.05    7410.9183   -83286.968    4738.7016 
   93600    289.60535   -999.79864    279422.04   -75832.252    7354.9629   -83187.215    4739.2216 
   93650    292.96201   -821.08165     279703.8   -75844.992    7440.2103   -83285.202    4743.4939 
   93700    290.61315   -900.90698    279697.42   -75842.286    7380.5573   -83222.843    4745.4025 
   93750       286.81   -640.68274    279168.71   -75833.396    7283.9707   -83117.367    4739.5483 
   93800    293.24428   -1091.9046    278864.72   -75833.725    7447.3787   -83281.104    4740.0754 
   93850     295.6767   -640.99598    278643.57     -75842.3    7509.1538   -83351.454    4739.5055 
   93900    295.14355   -1154.2045    279236.83   -75831.255    7495.6135   -83326.869    4750.2607 
   93950    292.87484   -1100.1418    279771.47   -75815.833    7437.9965   -83253.829    4759.7258 
   94000    288.04219   -996.31553    279739.16   -75790.999    7315.2639   -83106.263    4762.1481 
   94050    296.23869   -958.98054    279133.25   -75767.089    7523.4265   -83290.515    4759.1735 
   94100    293.48551   -685.00556    278688.68   -75791.094    7453.5053   -83244.599    4760.1238 
   94150    299.32208   -1210.0662    278935.12   -75788.015    7601.7338   -83389.749    4765.2151 
   94200     295.0595   -881.06535    279591.61   -75774.116     7493.479   -83267.595    4778.0959 
   94250    292.75702   -1333.9652    280416.19   -75732.703    7435.0042   -83167.707    4790.2265 
   94300    293.76798   -1190.6174    280201.97   -75710.476     7460.679   -83171.155    4791.8361 
   94350    293.37219   -1098.7991    279549.43   -75736.548    7450.6273   -83187.175    4788.1994 
   94400    298.68843   -727.14051    278721.29   -75772.563    7585.6413   -83358.204    4777.8233 
   94450    290.15691    -900.7339    278726.76   -75767.135    7368.9703   -83136.106    4779.8058 
   94500    296.70209   -1226.7808    279477.63   -75744.367    7535.1951   -83279.562     4791.679 
   94550    298.21328   -1297.2399    279979.15   -75776.198    7573.5739   -83349.772    4800.7639 
   94600     291.2989   -824.90526    279620.77   -75764.437     7397.973    -83162.41    4797.2028 
   94650    297.57433   -1107.2107    279240.03   -75739.813     7557.347    -83297.16    4795.4244 
   94700    300.80115   -977.30183    279200.29   -75693.347    7639.2969   -83332.644    4796.2929 
   94750    293.85346    -1057.435    279289.96   -75750.401    7462.8498   -83213.251    4799.1853 
   94800    292.36692   -819.92254    279444.97   -75762.052     7425.097   -83187.149    4805.1887 
   94850    293.88815   -1062.7564    279506.59   -75777.713    7463.7308   -83241.444    4808.0278 
   94900    292.21866   -982.36864     279362.2   -75780.625    7421.3317   -83201.957    4812.2055 
   94950    289.54462   -796.04367    279277.65   -75820.637    7353.4203   -83174.058    4812.4225 
   95000    292.92271   -1178.8461     279235.7   -75830.324     7439.212   -83269.536    4814.5355 
   95050    296.39431    -969.9876    279136.06   -75792.617    7527.3785   -83319.995    4816.2042 
   95100    296.81315   -1192.0545    279102.78   -75815.211    7538.0155   -83353.226    4817.8082 
   95150    292.85279   -885.23565    279377.96   -75825.003    7437.4365    -83262.44    4823.0424 
   95200    292.58857   -1394.1559    279910.09   -75821.832     7430.726   -83252.558     4829.387 
   95250    293.96538   -1163.8694    279809.83   -75812.522    7465.6921   -83278.214    4828.1958 
   95300    292.59644   -1020.7905    279331.32   -75864.874    7430.9259     -83295.8    4826.6279 
   95350    294.61459   -884.67504    278953.97   -75893.618      7482.18   -83375.798    4831.2073 
   95400    292.20487   -1361.5563    279019.73   -75842.218    7420.9814     -83263.2    4835.0431 
   95450    300.19213   -889.16413    278982.12   -75866.695      7623.83   -83490.525    4836.2811 
   95500    295.74057   -1054.8964    279182.58   -75859.323    7510.7759   -83370.099    4840.5105 
   95550    294.53278   -1122.5932    279367.53   -75866.591    7480.1023   -83346.693    4843.5376 
   95600     290.5036   -716.41506    279252.45   -75865.014    7377.7751   -83242.789    4847.9662 
   95650    288.32725   -934.11219     279309.9   -75894.752    7322.5034   -83217.255    4854.4956 
   95700    292.51756   -972.05227    279399.76   -75879.556    7428.9228   -83308.479    4860.4358 
   95750    293.53094    -917.4011    279677.63   -75869.938    7454.6591   -83324.597    4863.7406 
   95800     292.7941   -854.04967    279537.09   -75897.701    7435.9458   -83333.647    4868.2856 
   95850    294.09606   -1205.2242    279206.57   -75884.712    7469.0112   -83353.724    4864.2395 
   95900    296.54078   -762.63507    278666.31   -75904.273    7531.0983   -83435.371    4860.4081 
   95950    298.06108   -787.36961    278485.28   -75906.874    7569.7086   -83476.583    4861.6493 
   96000    294.04739   -904.07762    278824.28   -75908.729     7467.775   -83376.504    4867.4598 
   96050     288.7562   -1136.8002    279498.64   -75870.813    7333.3974    -83204.21     4880.252 
   96100    294.39736    -1214.163    279777.52   -75798.652    7476.6631   -83275.315     4881.558 
   96150    295.56121   -810.72651    279731.35   -75826.139    7506.2207    -83332.36    4879.4768 
   96200    290.32488   -1052.6986    279561.61   -75779.869    7373.2363   -83153.105    4878.2261 
   96250    297.02291   -794.36232    279285.73   -75773.755    7543.3429   -83317.098    4877.6395 
   96300    297.05356   -1019.4897    279345.86   -75770.184    7544.1211   -83314.305    4881.1645 
   96350    292.96553   -1190.5372    279367.62   -75777.246    7440.2997   -83217.546    4884.2675 
   96400    292.76409   -1007.9051    279295.15     -75810.1    7435.1836   -83245.284    4886.9935 
   96450    288.10133    -983.7961    279255.32   -75779.918     7316.766   -83096.683    4894.1006 
   96500    295.75857   -1073.3444    279442.22   -75776.621    7511.2331   -83287.854    4899.5212 
   96550    297.89502   -1106.1585    279627.66   -75761.076    7565.4914   -83326.567    4904.2482 
   96600    297.32544   -853.82497    279426.26   -75766.473     7551.026   -83317.499    4906.8574 
   96650    302.92575   -1171.3573    279315.01   -75810.094    7693.2542   -83503.348    4913.0816 
   96700    294.12516   -981.04166    279104.12   -75818.498    7469.7501   -83288.248    4914.1302 
   96750    292.48724    -1034.608    279165.85   -75797.442    7428.1526   -83225.595     4916.622 
   96800    295.83324   -1113.0518    279449.61   -75808.063    7513.1294   -83321.193    4926.6581 
   96850    295.11203   -972.34908    279349.62   -75846.857    7494.8131    -83341.67    4927.9877 
   96900    298.79025   -708.51823    279034.68   -75812.159     7588.227   -83400.386    4925.6585 
   96950    297.43905   -1155.6801    279109.39   -75824.475    7553.9113   -83378.386    4927.4627 
   97000     296.8457   -1221.3566    279386.45   -75827.918    7538.8424    -83366.76    4933.9971 
   97050    297.23728   -933.61879    279371.71   -75818.691    7548.7871   -83367.478    4937.5805 
   97100    294.79562   -987.43646    279265.06   -75858.986    7486.7773   -83345.763    4939.1498 
   97150    291.46617   -862.44772    279175.85   -75857.973    7402.2211   -83260.194    4938.7273 
   97200    290.26235   -1054.5221    279317.34   -75844.403    7371.6483   -83216.052    4944.4412 
   97250    292.70022   -881.00947     279332.2   -75859.297    7433.5615   -83292.859    4948.6556 
   97300    293.53103    -1064.824    279378.89   -75886.132    7454.6612   -83340.793    4954.1761 
   97350    290.89453   -993.19623    279299.44   -75909.345    7387.7034   -83297.049    4956.2857 
   97400    288.89531   -1010.7675    279144.02   -75929.414    7336.9301   -83266.344    4956.1447 
   97450    291.87175   -910.35124    278924.57   -75944.244    7412.5215   -83356.766    4957.0502 
   97500    288.38268   -687.87179    279065.99   -75945.626    7323.9112   -83269.537    4956.1791 
   97550    291.26216   -1073.1025    279443.68   -75908.911    7397.0399   -83305.951    4959.0825 
   97600    292.83591   -1029.8102    279599.91   -75874.142    7437.0076   -83311.149    4963.8672 
   97650     290.0887   -865.41989     279551.6   -75862.792    7367.2382    -83230.03    4966.7418 
   97700    293.39101   -1250.7745    279522.15   -75863.087    7451.1053   -83314.192    4966.6091 
   97750    290.72207    -971.9066    279350.66   -75863.021    7383.3236   -83246.344      4967.01 
   97800    289.22117   -995.25646    279015.78   -75897.963    7345.2059   -83243.169     4963.113 
   97850    293.84877   -746.67117    278578.75   -75938.778    7462.7308   -83401.509    4961.3034 
   97900    292.31668     -797.536    278629.37   -75985.698    7423.8211   -83409.519    4965.1961 
   97950    291.14058   -1049.3888    279202.88   -75934.174    7393.9523   -83328.126     4974.141 
   98000    291.80612   -1005.8894    279652.23   -75950.332    7410.8546   -83361.186    4983.2095 
   98050    293.29692   -1276.1679     279782.9   -75942.873    7448.7157   -83391.589    4983.0262 
   98100    287.81686   -1047.1508    279358.59   -75962.516    7309.5414   -83272.057    4980.5667 
   98150    294.62163   -847.06427    278799.64   -75982.558    7482.3588   -83464.916    4974.1691 
   98200    285.93297   -914.82672    278724.44   -75999.459    7261.6971   -83261.156    4975.0803 
   98250    287.70546   -942.08117    278903.33   -75985.662    7306.7123   -83292.374    4980.9453 
   98300    286.23307   -946.77122    279133.32   -76018.466    7269.3186   -83287.785    4989.5183 
   98350    287.59885   -1193.1178    279086.59   -76020.945    7304.0045    -83324.95    4993.9609 
   98400    291.89639   -934.28133    278796.61    -75990.64    7413.1471   -83403.787     4992.788 
   98450    294.61957    -1040.867    278825.16   -75962.003    7482.3064   -83444.309    4997.1557 
   98500    294.46225   -788.84326    279231.78   -75975.577     7478.311   -83453.888    5006.5976 
   98550    286.08838   -1050.8203    279657.57   -75993.988     7265.644   -83259.632    5013.9846 
   98600    289.26111   -1143.0836    279470.96   -76001.366    7346.2202   -83347.586    5014.9876 
   98650     290.8452    -844.4869    278650.96   -76013.074    7386.4505   -83399.524    5003.4179 
   98700    294.72017   -716.96436    278367.93   -75996.835    7484.8612   -83481.696    5005.0113 
   98750    293.00153   -1048.2017    279004.38   -75980.034    7441.2137   -83421.248    5017.6834 
   98800    289.17403   -1151.2283    279652.75   -75964.318    7344.0088   -83308.327     5027.501 
   98850    287.82401   -948.70812    279738.74    -75942.58    7309.7229   -83252.302    5032.6101 
   98900    289.96503   -1361.8258    279629.09    -75949.44    7364.0975   -83313.537    5035.4329 
   98950    288.02839    -993.7272    279350.56    -75930.73    7314.9134   -83245.643    5035.8027 
   99000    294.31484   -1251.6786    279152.03   -75915.095    7474.5673   -83389.662    5032.9887 
   99050     290.4161   -831.26053    278832.21   -75926.016    7375.5529   -83301.568     5034.748 
   99100    291.86926   -944.50846    278892.84   -75942.283    7412.4582   -83354.741       5040.9 
   99150    295.96487   -932.31791    279094.72   -75942.994    7516.4723   -83459.466    5042.0505 
   99200    290.36868   -977.66253    279357.31   -75949.433    7374.3486   -83323.781     5045.035 
   99250    292.58048   -1280.2586    279556.09   -75975.503    7430.5207   -83406.023     5048.439 
   99300    290.03262   -1146.7029    279260.97   -76011.099    7365.8138   -83376.912    5051.1026 
   99350    288.85707   -849.16387    278806.87   -76038.446     7335.959   -83374.405    5047.5188 
   99400    297.09318   -970.57576    278639.11   -76026.199    7545.1275   -83571.326    5046.5712 
   99450     292.3334   -891.04752    278868.36    -76016.54    7424.2458   -83440.786    5053.7014 
   99500    287.26643    -1098.227    279301.25   -76027.524    7295.5625   -83323.086    5063.0823 
   99550    290.74042   -1216.2062    279501.77   -75973.675    7383.7896   -83357.465    5065.4214 
   99600    292.34786    -1070.356    279035.01   -75987.267    7424.6128    -83411.88    5061.9339 
   99650    291.56054   -759.05198    278660.79   -75992.754    7404.6177   -83397.372    5060.7117 
   99700     288.0594   -790.80689    279044.49   -75978.564    7315.7009   -83294.265    5072.2142 
   99750     294.7588   -1133.5496    279652.61   -75980.666    7485.8424   -83466.509     5084.478 
   99800    292.63849   -986.99657    279569.24   -75973.116    7431.9939    -83405.11    5086.5063 
   99850    289.11523   -934.63852    279178.88   -75966.388    7342.5155   -83308.903    5084.0285 
   99900    290.40313   -890.69164    278753.75   -75996.797    7375.2235    -83372.02    5081.4805 
   99950    292.45858   -810.49746    278430.97   -75982.219    7427.4248   -83409.644    5078.6807 
  100000    293.57503   -790.02188    278667.09   -75947.173    7455.7786   -83402.952    5085.8392 
Loop time of 244.013 on 6 procs for 100000 steps with 8521 atoms

Performance: 354.080 ns/day, 0.068 hours/ns, 409.815 timesteps/s
99.4% CPU use with 6 MPI tasks x no OpenMP threads

MPI task timing breakdown:
Section |  min time  |  avg time  |  max time  |%varavg| %total
---------------------------------------------------------------
Pair    | 71.591     | 126.15     | 190.95     | 433.5 | 51.70
Neigh   | 31.424     | 36.417     | 40.282     |  59.6 | 14.92
Comm    | 6.9752     | 75.215     | 134.58     | 600.1 | 30.82
Output  | 0.13173    | 0.13365    | 0.14101    |   0.9 |  0.05
Modify  | 4.9922     | 5.0429     | 5.0702     |   1.2 |  2.07
Other   |            | 1.058      |            |       |  0.43

Nlocal:        1420.17 ave        1435 max        1399 min
Histogram: 1 1 0 0 0 1 0 1 0 2
Nghost:        2023.17 ave        2069 max        2005 min
Histogram: 1 2 2 0 0 0 0 0 0 1
Neighs:        0.00000 ave           0 max           0 min
Histogram: 6 0 0 0 0 0 0 0 0 0
FullNghs:      39324.3 ave       40090 max       38693 min
Histogram: 2 0 0 0 2 0 0 1 0 1

Total # of neighbors = 235946
Ave neighs/atom = 27.689942
Neighbor list builds = 20914
Dangerous builds = 0

# Create data file for import to other simulations
#
write_data data.${NAME}
write_data data.coexist_292K_-1000atm_ML
System init for write_data ...

Total wall time: 0:04:04
