
# Define the lattice
#
variable	    lattice_constant equal 6.36339
lattice		    diamond ${lattice_constant}
lattice		    diamond 6.36339
Lattice spacing in x,y,z = 6.3633900 6.3633900 6.3633900

# Define region
# multiples of lattice spacing
#
region 		    simbox block 0 9 0 8 0 8

# Create Atoms
#
create_box          1 simbox
Created orthogonal box = (0.0000000 0.0000000 0.0000000) to (57.270510 50.907120 50.907120)
  3 by 1 by 2 MPI processor grid
create_atoms        1 box
Created 4608 atoms
  create_atoms CPU = 0.001 seconds
mass                1 18.015

# Define potential
#
pair_style          sw
pair_coeff          * * /data/emrosky-sim/Freezing_Simulations/Melting/MLmW_fancy/ML_mW.sw mW
Reading sw potential file /data/emrosky-sim/Freezing_Simulations/Melting/MLmW_fancy/ML_mW.sw with DATE: 2019-02-27

# Add velocity/set timestep
#
velocity            all create ${TEMP} 120598 rot yes dist gaussian
velocity            all create 292 120598 rot yes dist gaussian
timestep            5.0

# Define output
#
compute	            1 all msd
thermo              100
thermo_style        custom step temp press vol etotal ke pe c_1[4]

# Neighbor lists
#
neigh_modify        delay 0 every 1 check yes

# Set fixes
#
fix                 1 all momentum 10 linear 1 1 1 rescale
fix                 2 all nve
fix                 3 all temp/csvr ${TEMP} ${TEMP} 500.0 928347
fix                 3 all temp/csvr 292 ${TEMP} 500.0 928347
fix                 3 all temp/csvr 292 292 500.0 928347
fix                 4 all press/berendsen iso ${PRES} ${PRES} 1000.0 modulus 20000
fix                 4 all press/berendsen iso -1000 ${PRES} 1000.0 modulus 20000
fix                 4 all press/berendsen iso -1000 -1000 1000.0 modulus 20000

# Run 0.5 ns equilibration
#
dump		    1 all custom 1000 eq.${NAME}.dump id type x y z vx vy vz
dump		    1 all custom 1000 eq.ice_292K_-1000atm_ML.dump id type x y z vx vy vz
run                 100000
Neighbor list info ...
  update every 1 steps, delay 0 steps, check yes
  max neighbors/atom: 2000, page size: 100000
  master list distance cutoff = 6.0032907
  ghost atom cutoff = 6.0032907
  binsize = 3.0016454, bins = 20 17 17
  1 neighbor lists, perpetual/occasional/extra = 1 0 0
  (1) pair sw, perpetual
      attributes: full, newton on
      pair build: full/bin/atomonly
      stencil: full/bin/3d
      bin: standard
Per MPI rank memory allocation (min/avg/max) = 4.779 | 4.779 | 4.779 Mbytes
Step Temp Press Volume TotEng KinEng PotEng c_1[4] 
       0          292   -627.25492    148418.52   -51887.267    4009.9168   -55897.184            0 
     100    194.95852   -838.09377    148974.83    -50239.66    2677.2857   -52916.946  0.097644876 
     200    225.46858    -903.7432    149336.89   -49265.336     3096.268   -52361.604   0.10788318 
     300    248.35269   -950.99027    149550.99   -48647.416    3410.5261   -52057.943    0.1356257 
     400     263.3227   -964.39991    149698.89   -48238.405    3616.1031   -51854.508   0.13877671 
     500    278.27584   -942.49221    149801.93   -47950.797    3821.4486   -51772.246   0.13604749 
     600     284.8081   -954.97434    149885.94   -47676.341    3911.1534   -51587.495   0.15399617 
     700    288.47052   -1035.2471    149948.99   -47628.262    3961.4479    -51589.71   0.14203558 
     800    286.46256   -1041.7314     149959.1     -47531.9    3933.8735   -51465.774   0.15585466 
     900    294.12765   -1011.2329     149956.9   -47510.986    4039.1349   -51550.121   0.15798184 
    1000     287.1156   -990.62797    149935.17   -47557.943    3942.8413   -51500.785   0.14818738 
    1100    289.28176   -1005.5029    149960.46   -47501.588    3972.5883   -51474.176   0.14540075 
    1200    289.26873   -986.55316    149970.35   -47490.807    3972.4095   -51463.217   0.15495268 
    1300    289.43793    -1010.561    149956.37   -47408.528     3974.733   -51383.261    0.1544238 
    1400    289.56952   -1018.6285    149978.17   -47514.598      3976.54   -51491.138   0.15154681 
    1500    289.69771   -1020.3654    149940.74   -47539.349    3978.3005    -51517.65   0.14897846 
    1600    294.28118   -969.23039    149944.23   -47479.564    4041.2434   -51520.807   0.15358636 
    1700    287.43115   -972.10823    149956.56   -47502.002    3947.1746   -51449.176    0.1506739 
    1800     293.7018   -959.68737    149945.97   -47495.651    4033.2869   -51528.938   0.15377747 
    1900    293.08083   -1007.6017    149965.44   -47401.479    4024.7594   -51426.238   0.15597894 
    2000    292.79082   -1025.3004    150017.61   -47350.431    4020.7768   -51371.208   0.15141571 
    2100    293.84974   -1066.5017    149987.12   -47515.807    4035.3186   -51551.126   0.15946974 
    2200    290.43653    -981.6648     149999.6   -47437.393    3988.4464    -51425.84   0.14394327 
    2300      296.177   -1014.1316    149984.84   -47368.111    4067.2779   -51435.389   0.16334273 
    2400    294.12718   -969.27093    150021.53   -47395.326    4039.1285   -51434.455   0.15329386 
    2500    296.72292   -984.95256    150023.24     -47449.7    4074.7748   -51524.475   0.14336025 
    2600    293.52121   -1030.9598    149991.79   -47484.469     4030.807   -51515.276   0.15661435 
    2700    292.33349   -975.57926    149984.32   -47457.282    4014.4965   -51471.779   0.13726441 
    2800    293.81721   -982.14443    149968.81   -47357.197    4034.8718   -51392.069   0.15684127 
    2900    293.88933   -1019.8781    149995.64   -47380.587    4035.8622    -51416.45   0.16017276 
    3000    290.18159    -988.7442    149968.07   -47444.417    3984.9453   -51429.362   0.15552114 
    3100    295.21506   -968.17047    149972.16    -47420.16     4054.068   -51474.228   0.15418735 
    3200    290.17776   -957.10419    149950.24    -47526.54    3984.8927   -51511.433   0.15202119 
    3300    292.78805   -949.59133    149943.58   -47597.863    4020.7389   -51618.602   0.13793923 
    3400     286.1833   -999.88311       149920   -47523.407    3930.0384   -51453.445   0.15354241 
    3500    290.02283   -1007.0294    149948.84   -47491.369    3982.7651   -51474.134   0.15567555 
    3600    288.41339   -968.37779    149934.33   -47492.004    3960.6633   -51452.668   0.15254338 
    3700    297.39792   -1039.2912    149924.04   -47458.791    4084.0443   -51542.835   0.15337032 
    3800    287.98226   -1005.5172     149933.7   -47445.385    3954.7428   -51400.128   0.16324821 
    3900    293.34896   -990.62656    149928.94   -47449.762    4028.4415   -51478.203   0.15658966 
    4000    295.64358   -1001.6986    149924.04   -47499.584    4059.9526   -51559.536   0.14882447 
    4100    293.00289    -1043.676    149926.16    -47514.25    4023.6891   -51537.939   0.16350573 
    4200    291.87881   -1002.8464    149924.53   -47470.023    4008.2525   -51478.275   0.14962796 
    4300    287.09279   -990.03598    149908.21   -47604.042    3942.5281    -51546.57   0.15835571 
    4400    294.06949    -996.8447    149935.29   -47499.661    4038.3363   -51537.997   0.14946281 
    4500    288.91261   -1016.5687     149901.6   -47546.142     3967.519   -51513.661   0.16259689 
    4600    287.96421   -1002.3849    149890.21   -47584.509    3954.4949   -51539.004   0.15318677 
    4700    296.56974   -988.94227    149915.03   -47482.866    4072.6712   -51555.537   0.14543391 
    4800    291.40209   -989.58311    149930.22   -47376.928     4001.706   -51378.634   0.15638254 
    4900    296.96493   -988.11568    149939.79   -47348.145    4078.0982   -51426.243    0.1610647 
    5000    290.00193   -1027.1914     149913.7   -47476.322    3982.4782     -51458.8   0.15770469 
    5100    293.11776   -1040.7762    149930.24   -47411.645    4025.2666   -51436.912   0.16067349 
    5200    294.71452   -987.60076    149938.95   -47478.357    4047.1943   -51525.552   0.15796645 
    5300      288.391   -1020.9732    149899.64   -47581.252    3960.3559   -51541.608    0.1508911 
    5400    288.90771   -1005.4298    149898.49   -47548.738    3967.4517    -51516.19   0.15544047 
    5500    293.66042    -999.2448     149877.5    -47512.33    4032.7187   -51545.049   0.15419036 
    5600    289.29777   -1001.9232    149867.82   -47549.519    3972.8082   -51522.327   0.15527121 
    5700     289.0374   -995.10477     149883.4   -47539.964    3969.2327   -51509.196   0.14814365 
    5800    293.10042   -994.23393    149906.86   -47482.625    4025.0284   -51507.653   0.15928412 
    5900    290.73997   -1032.1624    149889.48   -47558.408    3992.6133   -51551.021    0.1531447 
    6000    288.65319   -967.71739    149898.52   -47534.292    3963.9564   -51498.249   0.15273983 
    6100     290.0157   -983.38391    149892.77   -47615.403    3982.6672    -51598.07   0.15179457 
    6200    290.08247   -995.69192    149878.73   -47590.714    3983.5841   -51574.299   0.15056063 
    6300    294.21258   -992.85593    149916.81   -47473.313    4040.3012   -51513.614    0.1631202 
    6400     289.9934   -1024.7885    149917.04   -47529.773    3982.3609   -51512.134   0.15799584 
    6500    284.63814   -1008.5068    149915.14   -47544.553    3908.8194   -51453.372    0.1606827 
    6600    291.11658   -977.10303    149916.28   -47551.935    3997.7853    -51549.72   0.15260361 
    6700    293.33416   -990.79394    149901.93    -47606.46    4028.2384   -51634.698   0.15358978 
    6800    290.76952   -996.28667    149892.32   -47558.615    3993.0191   -51551.635   0.15048455 
    6900    293.13142   -1016.2496    149915.66   -47482.348    4025.4541   -51507.802   0.15807854 
    7000    287.88983   -1039.7774    149907.79   -47479.957    3953.4736    -51433.43   0.16321699 
    7100    293.34318   -966.86212    149943.25   -47492.848    4028.3622    -51521.21   0.14569653 
    7200    288.87946   -956.27589    149906.27     -47602.3    3967.0637   -51569.363    0.1598396 
    7300    292.05321   -977.66073    149903.66   -47653.099    4010.6475   -51663.747   0.14088825 
    7400    293.03771   -958.71292    149896.21   -47540.382    4024.1672   -51564.549   0.15387601 
    7500    291.85776   -1007.7854    149912.65   -47471.828    4007.9634   -51479.791   0.15862376 
    7600    290.63355   -1030.6565    149900.59   -47443.669     3991.152   -51434.821   0.15989466 
    7700    293.30222   -985.96214    149898.64   -47542.415    4027.7997   -51570.215   0.15372839 
    7800    288.96768   -1001.3903    149897.37   -47603.293    3968.2753   -51571.569   0.16070525 
    7900     291.3065   -989.23678    149908.67   -47544.066    4000.3933    -51544.46   0.14754232 
    8000    298.30694   -972.94799     149949.4   -47446.577    4096.5275   -51543.104   0.14984384 
    8100    298.46427   -989.43787    149962.74   -47408.224     4098.688   -51506.912   0.15795442 
    8200    300.30119    -980.5131    149945.93    -47431.96    4123.9137   -51555.873   0.15001674 
    8300    289.79984   -1027.7176    149941.02   -47390.412    3979.7029   -51370.114   0.16598939 
    8400    301.56018   -1006.5897    149941.89   -47369.105    4141.2029   -51510.308   0.15477531 
    8500    291.70032   -1009.4501    149926.97   -47455.773    4005.8015   -51461.575   0.16471612 
    8600     291.8158   -1011.8331    149928.96   -47464.087    4007.3873   -51471.475   0.15422754 
    8700    294.11627   -961.03171    149930.06   -47434.337    4038.9787   -51473.316   0.15991066 
    8800      294.102   -978.93796    149906.36   -47478.255    4038.7827   -51517.038   0.15010281 
    8900    292.88118   -1006.2642     149917.9   -47543.764    4022.0178   -51565.782   0.16221348 
    9000     287.7063   -1001.8934    149912.82   -47463.398    3950.9533   -51414.351   0.15862201 
    9100    291.74777    -991.5437    149919.34   -47523.788     4006.453   -51530.241   0.15217052 
    9200     297.9518   -968.75356    149939.51   -47412.397    4091.6505   -51504.047   0.16377157 
    9300    292.99984   -1004.4852    149921.08   -47567.922    4023.6472   -51591.569   0.14329699 
    9400     289.5487   -986.75634    149907.04   -47531.458    3976.2541   -51507.712   0.15524849 
    9500    288.28186   -1018.5853    149890.77   -47575.417    3958.8571   -51534.275   0.15805811 
    9600     291.2713   -1039.7005    149866.87   -47569.141    3999.9098   -51569.051   0.15527467 
    9700    292.09352   -1013.8743    149905.29   -47439.269    4011.2012    -51450.47   0.15578223 
    9800     292.3715   -1027.4135    149911.86   -47392.902    4015.0185   -51407.921   0.16718435 
    9900    296.86575   -978.00418    149918.57   -47416.414    4076.7362    -51493.15   0.15323742 
   10000    292.87589   -954.05398    149911.31   -47476.238     4021.945   -51498.183   0.15492225 
   10100    298.06613   -972.11693    149916.72   -47432.658    4093.2205   -51525.879   0.15454569 
   10200    294.64212   -978.40842    149919.56   -47393.183       4046.2   -51439.383   0.15507587 
   10300    294.60765    -1029.052    149929.25   -47398.619    4045.7266   -51444.346   0.16431784 
   10400    290.40284   -979.91881    149940.73   -47402.194    3987.9836   -51390.178   0.15558998 
   10500    290.84959   -998.02422    149935.12   -47454.944    3994.1187   -51449.063   0.16022203 
   10600    292.16854    -997.8124    149908.62   -47476.708    4012.2313   -51488.939   0.15042192 
   10700    292.43897   -980.74871    149896.08   -47501.566     4015.945   -51517.511   0.15597647 
   10800    287.84754   -1001.4042    149859.15   -47631.081    3952.8929   -51583.973   0.14959328 
   10900    287.29833   -1012.9732    149847.79   -47613.004    3945.3507   -51558.355     0.157941 
   11000    286.40295   -1013.2576    149833.44   -47622.908    3933.0548   -51555.962   0.16029337 
   11100    285.15515   -1041.9307    149882.79   -47536.032    3915.9193   -51451.951   0.15261632 
   11200    289.97229   -1001.1853    149865.84   -47646.649    3982.0711    -51628.72   0.15854911 
   11300    290.23311   -980.83402     149853.5   -47560.925    3985.6528   -51546.578   0.15027608 
   11400     287.2132   -980.14615    149863.29   -47535.249    3944.1816   -51479.431   0.15715785 
   11500    294.89182   -1024.4745    149873.86   -47435.084    4049.6291   -51484.713   0.15866126 
   11600     290.8804    -996.9614    149895.52   -47432.593    3994.5418   -51427.134   0.15936165 
   11700    296.61427   -945.90016    149926.82   -47293.714    4073.2827   -51366.996   0.15636793 
   11800    295.21024   -979.89092    149926.02   -47372.541    4054.0017   -51426.543   0.16276897 
   11900    289.54569   -970.90722    149906.61   -47421.528    3976.2129   -51397.741   0.15483377 
   12000    290.31173   -1005.9177    149909.65   -47381.338    3986.7326   -51368.071   0.16838146 
   12100    293.26348   -946.55329    149896.69   -47441.899    4027.2677   -51469.167   0.15600841 
   12200    290.92018   -972.42983    149881.77   -47445.213    3995.0881   -51440.301   0.15544648 
   12300    288.77074   -1016.4788    149831.02   -47496.664    3965.5707   -51462.235   0.16119226 
   12400    291.28311   -1002.7701    149849.78   -47488.037     4000.072   -51488.109   0.15922411 
   12500    294.77581   -989.66995    149881.88   -47422.206    4048.0359   -51470.242   0.16458275 
   12600     299.9686   -964.69951    149910.75   -47386.567    4119.3463   -51505.913   0.14626576 
   12700    289.05074   -989.10763     149911.4   -47465.901    3969.4159   -51435.317    0.1651547 
   12800    296.38438   -988.76176    149896.86   -47443.469    4070.1257   -51513.594   0.14940211 
   12900    286.55179   -1036.3062    149890.93   -47510.962    3935.0988    -51446.06   0.16100762 
   13000    291.65295   -965.74828    149877.36   -47481.948    4005.1509   -51487.099   0.15631199 
   13100    289.05964   -1026.2415    149880.15   -47558.523    3969.5381   -51528.061   0.15869211 
   13200    290.25496   -973.76601    149851.19   -47584.367    3985.9529    -51570.32   0.15531869 
   13300    289.91936   -972.06183    149823.74   -47662.925    3981.3443   -51644.269   0.15112954 
   13400    287.10814   -1005.7072    149832.16   -47650.615    3942.7389   -51593.354   0.15292188 
   13500    288.94399   -1013.1515     149862.6   -47564.059    3967.9499   -51532.009   0.16359327 
   13600    288.96586   -1013.3014    149904.85   -47509.936    3968.2503   -51478.187   0.15706268 
   13700    290.18987    -1027.222    149921.39   -47541.585    3985.0591   -51526.644    0.1483079 
   13800    289.16577   -975.01932     149918.4   -47492.907    3970.9955   -51463.903   0.16116835 
   13900    286.99196   -981.70972    149912.04   -47480.741    3941.1434   -51421.884   0.15382078 
   14000     295.7488   -995.85714    149941.38   -47369.176    4061.3976   -51430.574    0.1603658 
   14100    297.05051   -986.77712    149931.46   -47455.696    4079.2734   -51534.969   0.15637841 
   14200    293.31562   -1043.2021       149934   -47469.168    4027.9837   -51497.152   0.15500442 
   14300    292.01895   -997.60502    149934.73   -47506.018    4010.1771   -51516.196   0.15657098 
   14400    286.59225   -1009.5486     149920.1   -47558.408    3935.6544   -51494.062   0.15756453 
   14500    290.55772   -995.29534    149934.23   -47580.061    3990.1105   -51570.172   0.15173336 
   14600    294.23206   -1015.6099    149940.36   -47534.142    4040.5688   -51574.711   0.15488583 
   14700     297.5148   -954.73024     149961.1   -47485.815    4085.6493   -51571.465   0.15069917 
   14800    290.40287   -962.03684    149936.87   -47455.585    3987.9842   -51443.569   0.15006746 
   14900    289.48311    -1023.451    149920.41   -47471.109    3975.3534   -51446.462   0.16123764 
   15000    290.48328   -1007.9754    149904.62   -47532.286    3989.0883   -51521.374   0.15346177 
   15100    289.36715    -997.2163    149912.02   -47547.763     3973.761   -51521.524   0.15301434 
   15200    290.08244   -1010.7284    149923.78   -47477.042    3983.5838   -51460.626   0.15810131 
   15300    291.52718   -995.67182    149922.52    -47563.38    4003.4238   -51566.804   0.15261477 
   15400    291.75427   -953.47669    149937.36   -47557.282    4006.5424   -51563.824   0.15123685 
   15500    291.25355   -980.29012    149926.81   -47493.252    3999.6661   -51492.918   0.15213126 
   15600    291.01527   -1004.9966    149934.87   -47365.904    3996.3939   -51362.298   0.16870773 
   15700    293.20525   -991.38616    149951.77   -47387.472    4026.4681    -51413.94   0.15107345 
   15800    297.59139   -1013.5997    149971.82   -47388.555    4086.7011   -51475.256   0.16482421 
   15900    296.16902   -1017.1518    149942.44   -47406.715    4067.1683   -51473.883    0.1497711 
   16000     293.8151   -1002.9491    149920.66   -47459.683    4034.8429   -51494.526   0.15862047 
   16100     293.1387   -992.29581    149880.86   -47486.595    4025.5542   -51512.149    0.1605121 
   16200    292.21136   -1010.9017    149908.06   -47502.365    4012.8193   -51515.185    0.1505039 
   16300    293.27248   -1032.5467    149888.83   -47515.085    4027.3913   -51542.476   0.15731378 
   16400    289.49146   -995.38771     149893.5   -47529.541     3975.468   -51505.009   0.16081208 
   16500    295.65664   -971.55778    149918.72   -47446.039     4060.132   -51506.171   0.15019373 
   16600    298.27854   -996.05471    149933.91   -47373.072    4096.1375   -51469.209   0.16261118 
   16700    292.09903   -1050.0355    149901.73   -47416.564    4011.2768   -51427.841   0.16643606 
   16800    296.53151   -963.58992    149928.24   -47470.683    4072.1463   -51542.829   0.14979809 
   16900    296.69874   -1027.7344    149910.09   -47493.226    4074.4428   -51567.669   0.16406314 
   17000    296.89376   -1007.4727    149908.07   -47544.939    4077.1209    -51622.06   0.14288963 
   17100    295.06739   -1022.2641    149886.99   -47491.351      4052.04   -51543.391   0.16665374 
   17200    294.00368    -1014.034    149881.97   -47557.191    4037.4326   -51594.623   0.14895744 
   17300    286.11266   -1013.1211    149845.34   -47647.072    3929.0684    -51576.14   0.15370377 
   17400    286.10601   -997.13238    149839.49    -47632.19    3928.9771   -51561.167    0.1488549 
   17500    289.26836   -1018.2849    149847.46   -47532.416    3972.4043    -51504.82   0.15717987 
   17600    294.80948   -969.88996    149836.03   -47532.525    4048.4982   -51581.023     0.158546 
   17700    288.72058   -1014.5495    149841.42   -47597.322    3964.8819   -51562.204   0.15000247 
   17800     291.8998   -988.84259    149850.51   -47547.731    4008.5409   -51556.272   0.15877658 
   17900    294.04245   -1008.9538    149907.86   -47497.367    4037.9649   -51535.331   0.15264771 
   18000    295.44108   -1007.7756    149903.72    -47403.05    4057.1718   -51460.222    0.1574994 
   18100    289.94702   -1002.5353    149933.24   -47404.958    3981.7242   -51386.682   0.16350721 
   18200    295.64362   -998.20223    149914.33   -47464.129    4059.9532   -51524.082   0.15477575 
   18300    293.47807   -1015.2012     149914.9   -47463.387    4030.2146   -51493.602   0.15539758 
   18400    292.49182   -993.24031    149904.11   -47565.339    4016.6708    -51582.01   0.15599855 
   18500    288.81094   -1040.3937    149886.63   -47500.437    3966.1227    -51466.56   0.15551739 
   18600    290.11093   -979.52518    149910.53   -47449.369     3983.975   -51433.344   0.16016453 
   18700    290.77504    -1024.818    149907.11   -47474.153     3993.095   -51467.248   0.15726102 
   18800    289.17573   -965.21251    149914.24   -47490.695    3971.1323   -51461.827   0.14726492 
   18900    292.49702   -1034.7299    149929.06   -47450.896    4016.7422   -51467.638   0.16408293 
   19000    290.87903   -1003.7647    149919.46   -47478.362     3994.523   -51472.885   0.15336097 
   19100    291.01227   -990.69578     149927.8   -47393.359    3996.3527   -51389.711   0.16305126 
   19200    298.26508   -963.69936    149937.77   -47420.041    4095.9526   -51515.994   0.15100737 
   19300    291.63868   -998.65691    149955.02   -47309.853    4004.9549   -51314.808   0.16405957 
   19400    298.64052   -973.84056    149947.24   -47372.559    4101.1084   -51473.667   0.15638654 
   19500    296.41943   -1036.0568    149957.22   -47378.069    4070.6071   -51448.677   0.15625887 
   19600     295.1169   -986.66135    149959.42   -47365.405      4052.72   -51418.125   0.16443305 
   19700    295.07077   -983.30416    149961.08   -47423.794    4052.0864    -51475.88    0.1495599 
   19800    294.78848   -990.96585    149948.65   -47369.655      4048.21   -51417.865   0.16206007 
   19900    294.25286   -993.93176    149976.73   -47455.763    4040.8544   -51496.618   0.15159903 
   20000    288.79158   -1049.4467    149944.29    -47481.82    3965.8569   -51447.677   0.16406188 
   20100    292.05968   -1001.3949    149953.14   -47528.713    4010.7364    -51539.45   0.15241287 
   20200    291.07993   -1001.9129    149944.14   -47505.585    3997.2819   -51502.867   0.16052764 
   20300    292.06166   -968.57492    149945.91   -47465.282    4010.7636   -51476.045   0.15018262 
   20400    292.01619   -1003.6942    149964.21   -47528.947    4010.1392   -51539.086   0.16340923 
   20500    286.31459   -999.69752    149945.08   -47562.501    3931.8415   -51494.342   0.15357047 
   20600    291.80424   -1005.4372     149965.6   -47589.326    4007.2285   -51596.554    0.1464982 
   20700    292.85574   -991.84738    149918.91    -47527.59    4021.6684   -51549.259   0.15851385 
   20800    298.80649   -952.65676    149956.43   -47388.962    4103.3876    -51492.35   0.14764416 
   20900    293.23814   -976.53731    149945.06   -47500.107    4026.9197   -51527.027   0.15851065 
   21000    287.06292   -1007.4416    149941.97   -47512.112     3942.118    -51454.23   0.15591213 
   21100    295.15713   -977.90159     149949.3   -47389.117    4053.2724    -51442.39   0.15785911 
   21200    298.59516   -1006.2304    149967.43   -47412.509    4100.4855   -51512.994    0.1528606 
   21300    296.02659   -973.55113    149977.43   -47399.289    4065.2123   -51464.501   0.15816712 
   21400    294.31346   -1007.5371    149969.25   -47439.928    4041.6866   -51481.614   0.15158262 
   21500    297.56127   -974.72279    149963.13   -47345.287    4086.2874   -51431.574   0.16394013 
   21600    298.17267   -1023.5714    149960.56   -47350.974    4094.6836   -51445.658   0.16062724 
   21700    294.01732   -1005.7116    149941.79   -47486.652    4037.6198   -51524.272   0.15462887 
   21800    288.26255   -1027.6832    149913.76    -47516.75    3958.5919   -51475.341    0.1597076 
   21900     292.8137   -971.95099    149923.73   -47496.269    4021.0911    -51517.36   0.15108116 
   22000    289.34735    -977.3841    149923.38   -47523.625    3973.4891   -51497.114   0.15392242 
   22100    291.69764   -996.83082    149932.46   -47573.218    4005.7647   -51578.983   0.14977654 
   22200    286.96887   -1026.0616    149883.17   -47652.963    3940.8264    -51593.79   0.15732263 
   22300    293.15261   -978.76869    149904.47   -47540.014    4025.7452   -51565.759    0.1489532 
   22400     295.4288   -1004.5306    149938.17   -47487.614    4057.0032   -51544.617    0.1622507 
   22500    294.33102   -985.67554    149955.55   -47437.282    4041.9278    -51479.21   0.15511801 
   22600    296.16086   -1015.4857    149950.83   -47481.562    4067.0562   -51548.618   0.15493903 
   22700    289.89794   -1037.7233    149932.21   -47535.434    3981.0501   -51516.484    0.1602226 
   22800    291.97289   -1018.4249    149942.87   -47458.703    4009.5445   -51468.247   0.14863569 
   22900    291.22414   -983.72713    149943.16   -47497.678    3999.2623    -51496.94   0.15446846 
   23000    292.46045   -1000.3321    149941.79   -47572.814      4016.24   -51589.054   0.15473731 
   23100    288.94115   -1015.4347    149963.96   -47512.108    3967.9109   -51480.019    0.1544123 
   23200    298.98654    -1007.824     149964.9   -47458.563    4105.8601   -51564.423   0.15183376 
   23300    295.84433   -991.33307    149970.89    -47451.52    4062.7094    -51514.23   0.15733874 
   23400    291.73658   -1037.7992    149955.89   -47504.438    4006.2994   -51510.737   0.14708994 
   23500     293.5654   -1001.8487    149950.55   -47390.106    4031.4138   -51421.519   0.16532246 
   23600    295.23701   -1014.5097    149966.94   -47408.168    4054.3693   -51462.537   0.15666266 
   23700    296.50143   -1019.6608    149948.29   -47402.536    4071.7331   -51474.269   0.15646873 
   23800    291.55226   -997.62592    149944.46   -47406.219    4003.7682   -51409.987   0.16434297 
   23900    293.00597   -1003.5993    149928.08   -47496.685    4023.7314   -51520.416   0.14821218 
   24000    296.15808   -990.35712    149922.72   -47442.697     4067.018   -51509.715     0.160065 
   24100    298.33614   -956.85711    149949.52   -47373.081    4096.9284   -51470.009   0.14997944 
   24200    291.76088   -1000.4966     149920.3   -47500.491    4006.6331   -51507.124   0.15657229 
   24300    288.85021   -1023.9393    149905.31   -47540.789     3966.662   -51507.451   0.14890079 
   24400    290.21877   -979.00911     149901.3   -47565.211     3985.456   -51550.667   0.15563513 
   24500    294.19048   -960.43426    149911.42   -47522.498    4039.9977   -51562.496   0.14705727 
   24600    286.66827   -1015.4434    149901.95   -47573.017    3936.6983   -51509.715   0.15234703 
   24700    291.85377   -997.11689    149898.88   -47569.526    4007.9088   -51577.435   0.15270773 
   24800    290.10311   -991.25966     149912.2   -47508.238    3983.8676   -51492.105   0.15383381 
   24900    286.82594     -989.501    149891.68   -47569.096    3938.8636   -51507.959   0.15403468 
   25000    287.96157   -1001.8334    149891.36   -47553.078    3954.4587   -51507.536   0.15600973 
   25100    289.14812   -1027.2096    149884.87   -47608.491    3970.7531   -51579.244   0.15424894 
   25200    281.08455   -1032.1115    149878.98   -47744.328    3860.0194   -51604.347   0.14624153 
   25300    287.44288   -945.10765    149885.56     -47574.3    3947.3357   -51521.636   0.15510935 
   25400    287.13661   -1011.1528    149930.19   -47619.086    3943.1299   -51562.215    0.1446593 
   25500    289.93248   -967.95857    149921.25    -47495.09    3981.5244   -51476.614   0.16025421 
   25600    294.71489   -990.68685    149979.14   -47423.115    4047.1993   -51470.314   0.15258716 
   25700    288.69202   -1018.5343    149941.97   -47515.316    3964.4897   -51479.806   0.15809374 
   25800    301.16561   -996.05571    149980.18   -47372.415    4135.7844   -51508.199   0.15814374 
   25900     296.6106   -1001.3042    150002.75   -47399.427    4073.2324    -51472.66   0.15448686 
   26000    295.29013   -1005.5805    149953.67   -47440.135    4055.0989   -51495.234   0.15629802 
   26100      292.474   -978.61293    149972.08   -47430.541     4016.426   -51446.967   0.15159587 
   26200    287.83748   -996.22751    149935.28   -47536.206    3952.7546   -51488.961   0.15585755 
   26300    289.38951   -958.74143    149921.03   -47491.951     3974.068   -51466.019   0.14901147 
   26400    290.36359   -989.03138    149907.48   -47550.577    3987.4446   -51538.021   0.15669285 
   26500    290.19209   -980.18066    149906.66   -47457.628    3985.0895   -51442.717     0.160421 
   26600    297.27889   -1010.0891    149966.53   -47408.704    4082.4097   -51491.113   0.15232832 
   26700    299.43346   -1015.0462    149930.03   -47411.617    4111.9975   -51523.615   0.15801882 
   26800    299.62314   -985.56863    149910.54   -47461.979    4114.6024   -51576.582   0.15556908 
   26900     294.3774   -1038.7198    149914.92   -47397.345    4042.5648    -51439.91   0.15538628 
   27000    294.90553   -1030.8473    149939.33    -47427.52    4049.8173   -51477.337   0.16373262 
   27100    291.28868   -1001.8491    149926.42   -47376.772    4000.1486    -51376.92    0.1595046 
   27200    294.00678   -971.27503    149929.55   -47446.615    4037.4751    -51484.09   0.14909414 
   27300    304.34308   -989.16638    149952.08   -47276.158    4179.4194   -51455.577   0.16241626 
   27400    296.53127   -983.73903    149961.28   -47397.175    4072.1429   -51469.318    0.1493362 
   27500    285.36945   -1027.8878    149931.66   -47504.702    3918.8622   -51423.565   0.16425307 
   27600    287.82314   -1004.8188     149897.6   -47558.726    3952.5577   -51511.284   0.15251282 
   27700    293.64575   -971.00058    149927.01    -47457.48    4032.5173   -51489.997   0.15088881 
   27800    293.13908   -984.85357    149940.64   -47432.462    4025.5593   -51458.022   0.15987069 
   27900    291.09481   -998.93087    149943.35   -47494.527    3997.4862   -51492.013   0.15283447 
   28000    285.92512   -995.90412     149923.8   -47567.006     3926.493   -51493.499   0.15324696 
   28100    293.92989    -1001.486    149919.81   -47548.422    4036.4192   -51584.841   0.15584827 
   28200    291.99164   -976.06113    149930.48    -47508.99     4009.802   -51518.792   0.15616384 
   28300    285.05986   -1039.9904    149916.46   -47530.386    3914.6107   -51444.996   0.15340233 
   28400     291.0578   -994.25781    149923.73   -47462.639     3996.978   -51459.617   0.16272193 
   28500    291.82623   -991.24704    149923.45   -47498.852    4007.5306   -51506.383   0.14723657 
   28600    292.03432   -995.84412    149905.87   -47504.354    4010.3882   -51514.742    0.1535768 
   28700    290.18693   -973.47939     149910.3    -47496.97    3985.0187   -51481.988    0.1516781 
   28800    287.73079   -1030.1544    149890.37   -47543.601    3951.2895    -51494.89   0.15895719 
   28900    296.02904    -972.9839    149919.54   -47515.143     4065.246   -51580.389   0.14888593 
   29000    293.13553   -1029.5232    149919.46   -47461.382    4025.5106   -51486.892   0.15996301 
   29100    296.60822   -986.66094    149925.69   -47453.459    4073.1996   -51526.658   0.15331816 
   29200    294.80198   -1012.3482    149955.38   -47391.011    4048.3953   -51439.406   0.15276464 
   29300    292.59099   -1019.0036    149950.45   -47391.015    4018.0326   -51409.048   0.16469086 
   29400    289.92242   -1028.6788    149956.92   -47406.195    3981.3863   -51387.582   0.15162684 
   29500    295.61862   -998.16107    149954.43   -47445.009    4059.6099   -51504.619   0.16096812 
   29600    300.63958    -979.5831    149964.39    -47416.81    4128.5607   -51545.371   0.15024367 
   29700    287.54542   -1025.2685    149943.25   -47498.855     3948.744   -51447.599    0.1546219 
   29800    291.43429   -1004.2453    149899.88   -47588.027    4002.1482   -51590.176   0.15130356 
   29900    288.87043    -1018.695    149901.97   -47566.867    3966.9397   -51533.807   0.15104375 
   30000    292.40439   -993.90028    149917.26   -47532.212    4015.4702   -51547.682   0.14908582 
   30100    289.42256   -996.91435    149928.43   -47496.174    3974.5219   -51470.696   0.15937748 
   30200     289.5817   -999.13146    149925.24   -47508.074    3976.7073   -51484.781   0.15149236 
   30300    291.89038   -981.09692    149922.75   -47498.264    4008.4115   -51506.675   0.15616566 
   30400    288.75359   -1029.2651    149939.16   -47536.015    3965.3352    -51501.35   0.15845415 
   30500    293.00756   -984.40659    149909.13   -47638.369    4023.7532   -51662.123   0.14223247 
   30600    289.80194   -966.84524    149912.68   -47510.698    3979.7318    -51490.43   0.15734037 
   30700    290.51907   -994.88019    149920.16   -47543.608    3989.5798   -51533.188   0.14785952 
   30800    291.80901    -1019.422    149942.61   -47477.628    4007.2941   -51484.922   0.15866706 
   30900    289.61177    -1036.913    149948.04   -47448.167    3977.1203   -51425.287   0.15873135 
   31000    291.32005   -1001.1257    149971.58   -47489.315    4000.5794   -51489.894   0.14880193 
   31100    290.12381    -972.7777    149969.21   -47498.179    3984.1519   -51482.331   0.15716173 
   31200    291.17678   -993.44879    149974.91   -47445.375    3998.6119   -51443.987   0.15121482 
   31300    295.39826   -993.60284    149978.38   -47383.108    4056.5838   -51439.692   0.15903785 
   31400    287.88053    -1020.858    149957.29   -47503.349    3953.3459   -51456.695   0.15673167 
   31500    291.89209   -1012.9875    149964.45   -47454.808     4008.435   -51463.243   0.15918366 
   31600    292.55595   -996.08287    149965.36   -47475.202    4017.5515   -51492.754    0.1526995 
   31700    292.63921   -993.26544    149946.26   -47438.749    4018.6949   -51457.444   0.15489301 
   31800    293.87486   -995.64905    149962.31   -47498.809    4035.6636   -51534.473   0.14874142 
   31900    290.08561   -1000.0839    149947.84   -47497.498    3983.6273   -51481.125   0.15152587 
   32000    295.52639   -938.81506    149948.98   -47442.366    4058.3432   -51500.709   0.15060564 
   32100    293.26692   -968.25225    149962.77   -47482.944     4027.315   -51510.259   0.15426195 
   32200     285.8678   -960.57415    149935.06   -47604.279    3925.7058   -51529.985   0.14979027 
   32300    289.58132   -1038.4569    149937.31   -47547.913    3976.7021   -51524.615   0.15146053 
   32400    284.69979   -1006.2362     149936.8   -47646.266    3909.6661   -51555.932   0.15558235 
   32500    288.57335   -999.98731    149975.69   -47508.512    3962.8601   -51471.372    0.1464112 
   32600    295.08338   -984.36561    149958.19   -47453.253    4052.2596   -51505.513   0.15965198 
   32700    290.19078   -1013.0406    149952.09   -47549.912    3985.0715   -51534.984   0.14315291 
   32800    290.97809   -1008.2479    149954.26   -47413.056    3995.8834   -51408.939   0.16261555 
   32900    288.21406   -1007.9373    149960.32   -47486.056     3957.926   -51443.982   0.15085915 
   33000    293.55212    -995.6705    149962.31   -47479.162    4031.2315   -51510.394   0.15491955 
   33100    290.23164   -1013.4975    149964.73   -47506.289    3985.6327   -51491.922   0.15463539 
   33200     294.4619   -1021.1065    149950.05   -47490.731     4043.725   -51534.456   0.14642294 
   33300    295.69433   -1004.8381    149934.21   -47485.385    4060.6496   -51546.034   0.15465853 
   33400    298.66944   -952.51853    149946.46   -47506.152    4101.5055   -51607.657   0.14935635 
   33500    290.16291   -998.66608    149922.08   -47529.571    3984.6888    -51514.26   0.15430823 
   33600    291.33006   -1005.6492    149936.93   -47547.795    4000.7168   -51548.512   0.15342835 
   33700    295.70134   -971.88539    149951.69    -47441.02    4060.7459   -51501.766   0.15844476 
   33800     300.8156   -974.76772    149991.08   -47331.707    4130.9779   -51462.685   0.14790428 
   33900    300.46873   -1006.3492    149974.58   -47359.358    4126.2145   -51485.573   0.16095842 
   34000    293.11965   -1003.7758    149932.38   -47501.877    4025.2925   -51527.169   0.14610174 
   34100    288.74725   -1000.8329    149915.82   -47524.741    3965.2481   -51489.989   0.15784202 
   34200    290.28045   -992.76664    149897.06    -47515.68     3986.303   -51501.983   0.15152242 
   34300    290.93269   -990.91925    149880.47   -47551.561    3995.2599   -51546.821    0.1483429 
   34400    291.98485   -968.76398    149881.56   -47474.754    4009.7088   -51484.463   0.15660959 
   34500    292.65436   -1020.5478    149904.21   -47401.719    4018.9029   -51420.622   0.15871311 
   34600    296.57756   -1016.2254    149947.27   -47398.329    4072.7787   -51471.107   0.16019957 
   34700    293.06702   -1030.0018    149921.14    -47516.18    4024.5698    -51540.75   0.15106951 
   34800    290.72029   -989.14908    149912.97   -47512.053    3992.3431   -51504.396   0.15173545 
   34900    293.97159   -1044.4177    149919.63   -47488.018    4036.9919    -51525.01   0.15295099 
   35000    293.51804   -996.64603     149932.1   -47466.477    4030.7635    -51497.24   0.15744983 
   35100    293.96822   -1028.7083    149931.73   -47482.314    4036.9456    -51519.26   0.15250926 
   35200     294.6079   -990.62897    149929.86   -47423.091    4045.7301   -51468.821   0.15276957 
   35300    288.30967   -1000.6828    149911.42   -47499.086     3959.239   -51458.325   0.15761034 
   35400    293.08088   -1007.9881    149891.29   -47500.281    4024.7602   -51525.042   0.15306678 
   35500     297.5181   -984.92625    149879.94   -47485.894    4085.6947   -51571.589    0.1576074 
   35600    297.60647   -1013.2315     149912.5   -47464.586    4086.9082   -51551.494   0.15380442 
   35700    292.08129   -1019.0027    149910.18   -47481.789    4011.0332   -51492.822   0.15900684 
   35800    299.79093   -985.34247    149968.19   -47313.535    4116.9065   -51430.442   0.15473413 
   35900    292.76079   -1033.7391    149976.91   -47432.032    4020.3645   -51452.396    0.1617077 
   36000    293.72002   -987.83364     149963.1   -47488.909    4033.5372   -51522.446   0.15054358 
   36100    288.78156   -1015.5134    149943.09   -47535.143    3965.7193   -51500.863   0.15491895 
   36200    289.92324   -994.00765     149915.7    -47562.93    3981.3975   -51544.327   0.15472827 
   36300    295.05644   -979.72751    149909.59   -47499.092    4051.8897   -51550.982   0.14654882 
   36400     294.0483   -980.26593     149918.6   -47547.981    4038.0453   -51586.027    0.1563093 
   36500    293.40908   -1007.3263     149922.4   -47524.802    4029.2671   -51554.069   0.14559557 
   36600    293.98083   -1018.7281    149937.89   -47528.718    4037.1188   -51565.837    0.1578227 
   36700    289.84668   -988.96528    149910.01   -47560.625    3980.3462   -51540.971   0.14870881 
   36800    287.65584   -1025.0872    149917.71   -47641.014    3950.2602   -51591.274    0.1516566 
   36900    289.03401   -1004.3754    149927.73   -47558.274    3969.1862   -51527.461   0.14840603 
   37000    289.81248   -1016.1662    149901.25   -47539.059    3979.8766   -51518.935    0.1587573 
   37100     290.8914   -989.96675    149914.11   -47584.741    3994.6929   -51579.434   0.14425082 
   37200    292.24458   -978.60159    149928.15   -47586.648    4013.2755   -51599.923   0.15406901 
   37300    290.31457   -978.23238     149927.6   -47584.225    3986.7715   -51570.997    0.1467998 
   37400    285.60834   -988.95874    149920.71   -47593.679    3922.1428   -51515.822   0.15156447 
   37500    290.69508   -988.35075    149924.97   -47561.044    3991.9969   -51553.041   0.15402468 
   37600    287.09317   -991.57124    149932.85   -47621.282    3942.5334   -51563.816   0.14687221 
   37700    287.00172   -942.69304    149895.76   -47691.408    3941.2774   -51632.685   0.15056665 
   37800    283.28515   -985.97637    149901.11   -47720.085    3890.2393   -51610.324   0.13972858 
   37900    286.38853   -984.14883    149904.67   -47619.876    3932.8569   -51552.732   0.15330447 
   38000    293.57681   -997.09267    149925.89   -47554.286    4031.5706   -51585.856    0.1473646 
   38100    289.61874   -991.53965    149936.88   -47492.461     3977.216   -51469.677   0.15462836 
   38200    295.37022   -995.22901    149948.36   -47458.897    4056.1986   -51515.095    0.1548422 
   38300    288.40992   -1003.8597    149942.44   -47509.757    3960.6157   -51470.372    0.1551364 
   38400     294.2435   -1013.9962     149954.4   -47441.986    4040.7259   -51482.711   0.15630904 
   38500    290.01561   -1019.7455    149940.73   -47501.631    3982.6661   -51484.297   0.15359534 
   38600    291.73461   -994.17946    149928.23   -47462.639    4006.2723   -51468.911   0.15554564 
   38700     296.1791   -994.67263     149925.2   -47431.613    4067.3067    -51498.92   0.15589589 
   38800    293.20087    -979.7464    149924.97    -47463.75    4026.4079   -51490.158   0.15163054 
   38900    296.35254   -972.44861    149944.84   -47402.823    4069.6885   -51472.511   0.15741226 
   39000    290.24117   -1007.7366    149941.46   -47463.256    3985.7636   -51449.019   0.15883165 
   39100    289.10066   -1050.2632    149922.53   -47489.654    3970.1014   -51459.756   0.15856261 
   39200    285.23662   -1021.9902    149899.13   -47614.445    3917.0381   -51531.483   0.15289194 
   39300    287.15883   -949.35472    149865.43   -47620.818    3943.4351   -51564.253   0.14483905 
   39400    293.09566   -1017.6751    149908.49   -47496.447    4024.9631    -51521.41   0.15868785 
   39500    295.52414   -1012.8564    149915.35   -47477.078    4058.3124   -51535.391   0.15598096 
   39600    291.72642   -1021.4955    149933.73   -47482.043    4006.1598   -51488.203    0.1555816 
   39700    293.17857   -996.44453    149913.02   -47462.722    4026.1017   -51488.824   0.15708593 
   39800    296.05146   -991.61874    149896.11   -47480.692    4065.5539   -51546.246   0.14666162 
   39900     288.4056   -1014.3821    149894.49   -47440.957    3960.5564   -51401.514   0.16509826 
   40000    293.15266   -1034.0481    149890.94    -47517.52    4025.7459   -51543.266   0.15269375 
   40100    291.82646   -991.89943    149910.24   -47531.052    4007.5337   -51538.586   0.15301255 
   40200    288.02651   -1031.7122    149901.45   -47503.047    3955.3506   -51458.397   0.15936349 
   40300    293.26757   -975.69371    149892.73    -47512.68    4027.3238   -51540.004   0.14826512 
   40400    287.65253   -1007.7563    149894.46   -47598.021    3950.2149   -51548.236   0.15629366 
   40500    291.20932   -975.00582    149916.27   -47456.826    3999.0588   -51455.885    0.1576148 
   40600    292.98934    -972.0956     149909.5   -47527.698     4023.503   -51551.201   0.15466184 
   40700    290.27132   -994.29626    149899.05   -47537.757    3986.1776   -51523.934   0.15222825 
   40800    286.57179   -1058.7575    149914.28   -47510.278    3935.3734   -51445.651   0.16215759 
   40900    290.56245   -1028.8612    149921.42   -47498.719    3990.1756   -51488.894   0.15520289 
   41000    285.07944   -1024.6393    149896.28   -47565.831    3914.8796    -51480.71   0.16331509 
   41100    286.00205   -1016.3766    149901.02    -47536.49    3927.5494   -51464.039   0.15325715 
   41200    294.47978   -948.79273    149932.52   -47421.529    4043.9706   -51465.499    0.1575682 
   41300     293.0702   -1038.1108    149913.07   -47504.801    4024.6134   -51529.414   0.15603842 
   41400    295.99211   -955.15069    149933.41   -47454.447    4064.7388   -51519.186    0.1565138 
   41500     293.4856   -1003.3103    149926.56   -47465.303    4030.3179   -51495.621   0.15800932 
   41600    289.24798   -1021.9533    149935.69   -47473.716    3972.1245    -51445.84   0.16299986 
   41700     288.5494   -985.01536    149925.68   -47582.123    3962.5312   -51544.654   0.15089458 
   41800     291.3574   -1009.7494    149950.67   -47503.142    4001.0922   -51504.234   0.15192925 
   41900    290.70753   -974.41211    149892.74    -47577.22    3992.1678   -51569.388   0.15812728 
   42000    294.06194   -911.45353    149908.32   -47545.074    4038.2326   -51583.306   0.14444163 
   42100    284.02709   -988.97871    149878.15   -47620.309    3900.4281   -51520.737   0.16083472 
   42200    286.69323   -979.72218    149906.29   -47579.931    3937.0412   -51516.972   0.14836488 
   42300    289.15295   -1015.2215    149895.43   -47542.852    3970.8195   -51513.671    0.1570313 
   42400     285.8573   -1006.1512    149909.88   -47567.588    3925.5616   -51493.149   0.15267258 
   42500    288.17808   -1001.4033    149904.23   -47525.894    3957.4319   -51483.326   0.15431477 
   42600    286.49598   -1021.6545    149908.14   -47565.859    3934.3324   -51500.191   0.15323112 
   42700    290.31848    -995.8097     149881.4   -47633.728    3986.8252   -51620.554   0.14954318 
   42800    290.10276   -993.17953    149886.25   -47542.881    3983.8628   -51526.744   0.15590378 
   42900     289.3739   -993.50011     149907.7    -47568.82    3973.8537   -51542.674   0.14915463 
   43000    286.31234   -1015.5961    149902.26   -47585.211    3931.8105   -51517.021   0.15815505 
   43100    291.00954   -1026.1402    149911.61   -47507.521    3996.3153   -51503.837   0.15878463 
   43200    290.16787   -1011.3718    149939.05   -47524.288     3984.757   -51509.045    0.1541485 
   43300    294.03648   -1004.9766    149916.88   -47516.492    4037.8829   -51554.375   0.15672657 
   43400    289.86526   -987.82726     149948.2   -47447.508    3980.6013    -51428.11   0.15160895 
   43500    292.84874   -1024.7188    149957.24    -47504.97    4021.5722   -51526.542   0.15733302 
   43600    294.10511   -1009.2871    149934.62   -47548.321    4038.8255   -51587.146   0.15123762 
   43700    290.47877   -1015.7028    149909.34   -47594.076    3989.0264   -51583.102   0.14994422 
   43800     286.1807   -998.78005    149907.52   -47626.244    3930.0028   -51556.247   0.15541887 
   43900    292.99513   -1008.6428    149933.13   -47543.459    4023.5826   -51567.042   0.15295453 
   44000    284.75326   -1007.1424    149928.96   -47630.067    3910.4004   -51540.468    0.1477955 
   44100    284.61474   -1023.6862    149914.14   -47581.858    3908.4981   -51490.356   0.15914089 
   44200    286.57997   -1011.3528    149921.93   -47545.492    3935.4857   -51480.978   0.14945257 
   44300     291.0292   -973.36876    149911.09   -47543.272    3996.5853   -51539.857   0.15426044 
   44400    293.38461   -972.16312    149920.78   -47556.748    4028.9311   -51585.679   0.14414472 
   44500    297.09682   -1004.0451    149935.96   -47564.699    4079.9094   -51644.609   0.14784445 
   44600    292.54785   -970.03146    149929.59    -47568.51    4017.4403    -51585.95   0.14750535 
   44700    288.21734   -1001.3664     149924.1   -47555.059    3957.9711    -51513.03   0.14644171 
   44800    291.36123   -1018.0848    149929.52    -47508.54    4001.1449   -51509.685   0.15985549 
   44900    287.54472   -970.08497    149957.25   -47493.575    3948.7342   -51442.309   0.14542506 
   45000    284.14324   -1004.7763     149926.2   -47539.061    3902.0232   -51441.085   0.15744615 
   45100    295.34641   -984.86222    149973.33   -47421.797    4055.8717   -51477.669   0.14832565 
   45200    293.18576   -1014.1089     149966.3   -47467.788    4026.2003   -51493.988   0.15372653 
   45300    291.69172   -1019.0954    149966.79   -47485.651    4005.6833   -51491.334   0.15028164 
   45400      291.721   -1026.1408    149926.25    -47555.71    4006.0855   -51561.796   0.15664597 
   45500    293.74182   -1005.7333    149930.26   -47486.153    4033.8365   -51519.989   0.15353798 
   45600    289.76724   -1023.7949    149948.89   -47484.851    3979.2553   -51464.106   0.15849893 
   45700    291.90057   -985.32163    149945.92   -47435.253    4008.5515   -51443.804   0.14978141 
   45800    292.33512   -1027.3615    149941.63    -47515.71    4014.5189   -51530.229   0.15410028 
   45900    294.38455   -1017.9919    149953.23   -47371.518    4042.6628   -51414.181   0.15532212 
   46000    292.81395   -1015.1449    149955.23   -47438.078    4021.0945   -51459.173   0.15672665 
   46100    296.28661   -984.24833    149989.93   -47340.824    4068.7831   -51409.607    0.1586631 
   46200    293.42967   -1020.9486    149982.25   -47401.359    4029.5499   -51430.909   0.15396717 
   46300    295.93703    -1022.409    149953.59   -47391.656    4063.9824   -51455.638   0.15925717 
   46400     294.3062   -1008.2375    149935.56   -47435.866    4041.5869   -51477.452   0.15054264 
   46500    294.20023   -1011.5801    149941.71   -47401.824    4040.1317   -51441.956   0.16425143 
   46600    296.98018   -1002.1406     149938.3   -47464.496    4078.3076   -51542.803   0.14638965 
   46700    294.95945   -1018.6926    149948.47   -47398.071    4050.5578   -51448.629   0.16092032 
   46800    295.26879   -1055.4874    149964.66   -47409.683    4054.8059   -51464.489   0.15559677 
   46900    296.79769   -1005.6966    149946.09   -47465.907    4075.8016   -51541.708   0.14929041 
   47000    291.91137   -997.96332    149962.29    -47502.93    4008.6997    -51511.63    0.1559349 
   47100     294.4004   -1001.4734    149970.21   -47513.113    4042.8806   -51555.994   0.14850825 
   47200    291.99069   -965.86905    149948.88    -47479.44     4009.789   -51489.229   0.15237914 
   47300    285.63781   -979.55247    149935.45   -47599.164    3922.5475   -51521.712   0.14903166 
   47400    288.23119   -993.15937    149954.44   -47532.127    3958.1613   -51490.288    0.1541014 
   47500    288.96594    -997.8865     149944.5   -47540.652    3968.2514   -51508.904   0.15359011 
   47600     290.4466   -1018.8285    149916.52   -47534.093    3988.5846   -51522.677   0.15231477 
   47700    299.31598   -948.28322    149915.83   -47456.507    4110.3842   -51566.892   0.14905422 
   47800     293.6094   -1006.2586    149917.89   -47515.733    4032.0181   -51547.752   0.15025053 
   47900    286.87254   -1020.4634    149921.29   -47573.523    3939.5035   -51513.026   0.15739888 
   48000    291.78711   -1027.7066     149934.4   -47534.069    4006.9933   -51541.062   0.15034091 
   48100    291.29603   -1006.7465    149916.96   -47569.914    4000.2494   -51570.163   0.15496169 
   48200    294.11598   -971.31792    149908.41   -47559.231    4038.9747   -51598.206   0.15085253 
   48300    287.28375   -1012.1896    149937.55   -47508.656    3945.1505   -51453.806   0.15461036 
   48400    288.80576    -980.1623    149915.75   -47544.088    3966.0517    -51510.14   0.15176945 
   48500    288.03746   -997.85799    149886.24   -47631.625    3955.5009   -51587.126   0.15545252 
   48600    283.12264   -1006.5221    149883.38   -47623.641    3888.0077   -51511.648   0.14567365 
   48700    289.40219   -1022.5618    149921.14   -47514.635    3974.2421   -51488.877   0.16323422 
   48800    292.93979   -996.72255    149895.16   -47502.262    4022.8226   -51525.085   0.15144618 
   48900    290.77363   -976.60915    149907.49   -47528.323    3993.0756   -51521.398   0.15245548 
   49000    296.36814   -1004.9533     149907.3   -47566.996    4069.9027   -51636.898   0.15231869 
   49100    292.24077   -986.33258    149931.57   -47476.504    4013.2232   -51489.727   0.14948948 
   49200    292.29766   -1012.0561    149942.29    -47513.63    4014.0045   -51527.634    0.1621596 
   49300    287.95341   -1048.7493    149916.04   -47585.816    3954.3466   -51540.163   0.14711533 
   49400    286.90062   -1029.5898    149882.42   -47600.114    3939.8892   -51540.004   0.16072615 
   49500    292.66741   -1008.3134    149896.94   -47539.198     4019.082    -51558.28   0.14706185 
   49600     290.9021   -998.93231    149893.95   -47535.057    3994.8398   -51529.897   0.15852236 
   49700    294.11274   -966.81889    149874.31   -47536.088    4038.9302   -51575.018   0.14833062 
   49800    290.81147   -980.54186    149879.38   -47549.071    3993.5952   -51542.667   0.15498746 
   49900    292.75768     -980.988    149876.11    -47522.89    4020.3218   -51543.211   0.15441037 
   50000    287.81042   -1015.6394    149895.09   -47538.331     3952.383   -51490.714   0.15604247 
   50100    297.48418   -997.64346    149948.56   -47392.986    4085.2289   -51478.215   0.15839494 
   50200    291.27748   -992.04413    149920.52   -47467.787    3999.9947   -51467.782   0.15606998 
   50300    291.17985   -1007.1779    149926.84   -47483.712    3998.6541   -51482.366   0.15577702 
   50400    297.72266   -984.30034     149919.3   -47502.262    4088.5037   -51590.766   0.15467236 
   50500    297.80199   -981.38489    149926.35   -47404.381    4089.5932   -51493.974   0.15863035 
   50600    302.33011   -1022.5414    149975.68     -47340.6     4151.776   -51492.376   0.15542701 
   50700    290.06859   -968.78263    149949.37    -47582.72    3983.3936   -51566.114   0.15606568 
   50800    287.55962   -1037.1081    149908.15   -47561.216    3948.9389   -51510.155   0.15280127 
   50900    290.03347    -987.9742    149913.34   -47586.348    3982.9113    -51569.26   0.15913108 
   51000    291.31731   -978.98484     149912.1   -47543.709    4000.5417    -51544.25   0.15340778 
   51100    291.47376   -1018.7133    149925.65   -47555.466    4002.6902   -51558.156   0.15416868 
   51200    287.62697    -978.3404    149901.81   -47609.524    3949.8638   -51559.388    0.1542829 
   51300    285.17329   -1010.1104    149886.33   -47627.155    3916.1684   -51543.323   0.15242047 
   51400    290.14812   -965.79263    149907.89   -47561.734    3984.4857    -51546.22   0.15796514 
   51500    291.92498   -1014.7167    149911.13   -47621.421    4008.8866   -51630.308   0.14460157 
   51600    294.14022   -998.23946    149925.26   -47535.992    4039.3075     -51575.3   0.15380159 
   51700    293.07634   -1030.0936    149930.19   -47431.081    4024.6978   -51455.779   0.15777348 
   51800    297.72064   -989.51909    149926.76   -47481.446    4088.4761   -51569.922   0.15427074 
   51900    289.24609   -1016.3555    149919.32   -47546.962    3972.0986   -51519.061   0.16011187 
   52000    288.13438   -1028.8584    149908.65    -47528.72    3956.8319   -51485.552   0.15739969 
   52100    286.32428   -989.71443    149905.75   -47606.049    3931.9745   -51538.023    0.1575533 
   52200    283.59802   -1040.7364    149904.06   -47662.001    3894.5359   -51556.537   0.15221616 
   52300     290.0121   -987.93351    149883.79   -47636.582    3982.6178     -51619.2   0.15637248 
   52400    284.59302   -1014.4729    149876.65   -47724.805    3908.1999   -51633.005   0.14732938 
   52500    291.83628   -971.26939    149906.73    -47567.22    4007.6686   -51574.888   0.15599271 
   52600    288.51544   -968.04415    149916.12   -47529.908    3962.0648   -51491.973   0.15235118 
   52700    290.45713   -1002.2086    149939.72    -47472.97    3988.7293   -51461.699    0.1623026 
   52800    289.89016   -1010.2556    149955.58   -47442.238    3980.9433   -51423.181   0.16529044 
   52900    291.24554   -1011.2622    149964.69   -47470.326    3999.5562   -51469.883   0.15961386 
   53000    297.39651   -989.57648    149935.14   -47416.917    4084.0249   -51500.942   0.15648705 
   53100    292.24306   -978.35678    149907.88   -47557.772    4013.2547   -51571.027   0.15475037 
   53200    286.18193   -985.45563    149879.22   -47602.731    3930.0197   -51532.751   0.15293253 
   53300    286.17136    -993.1154    149889.23   -47566.263    3929.8745   -51496.138   0.15765374 
   53400    288.24726   -1023.0672    149893.95   -47491.837     3958.382   -51450.219   0.16212918 
   53500    293.27285   -987.95964    149892.08   -47484.322    4027.3963   -51511.718     0.150759 
   53600    292.16239   -1017.2686    149869.03   -47556.216    4012.1468   -51568.363   0.16601086 
   53700     289.4188   -1011.9228    149884.15    -47533.14    3974.4702    -51507.61   0.15058409 
   53800    289.16372   -984.93802    149890.34   -47559.445    3970.9673   -51530.412   0.15662527 
   53900    287.82525   -1011.1568    149892.19   -47566.816    3952.5866   -51519.403   0.15485665 
   54000    291.42233   -1034.9977    149875.97   -47580.639     4001.984   -51582.623   0.15647615 
   54100    285.75298   -1016.2248    149873.24    -47548.14    3924.1291   -51472.269   0.16154721 
   54200    296.68356   -974.10008    149883.69   -47496.167    4074.2342   -51570.402   0.15546798 
   54300    298.01127   -959.98561     149889.5   -47416.458    4092.4672   -51508.925   0.15617052 
   54400     297.1835   -974.83383    149918.96   -47338.678    4081.0998   -51419.778   0.15543147 
   54500    297.52724   -997.98733    149907.56    -47400.71    4085.8201   -51486.531   0.16208106 
   54600    292.67537   -1013.0497    149903.39   -47421.698    4019.1914   -51440.889   0.15967041 
   54700    289.89949   -1040.3523    149918.54   -47492.223    3981.0714   -51473.294   0.16028062 
   54800    296.67664   -1012.0152     149925.6   -47420.822    4074.1392   -51494.961   0.15820419 
   54900     291.8439   -1020.9132    149940.74   -47435.274    4007.7732   -51443.047   0.15681073 
   55000    296.41051   -999.57127    149944.08   -47465.227    4070.4846   -51535.712   0.15707287 
   55100    289.71884   -999.07786    149927.39   -47481.654    3978.5906   -51460.244   0.15718591 
   55200     288.3317   -996.81173    149893.37   -47591.367    3959.5416   -51550.909   0.15315308 
   55300    286.26201   -992.24734    149871.74   -47634.452    3931.1194   -51565.572   0.15557607 
   55400    288.03992   -1026.7663    149874.38    -47601.74    3955.5346   -51557.274   0.15577394 
   55500     285.7913   -998.29206    149888.33   -47564.696    3924.6553   -51489.351   0.16186859 
   55600    292.61118   -988.37806       149905   -47461.297    4018.3099   -51479.607   0.15925017 
   55700    294.07865   -981.90661    149936.29   -47419.667    4038.4621   -51458.129    0.1555739 
   55800     293.0971   -1000.4934     149933.1   -47405.075    4024.9828   -51430.057   0.16048348 
   55900      294.158   -976.93104    149920.93   -47420.948    4039.5518   -51460.499   0.15611941 
   56000    290.11794    -1024.855    149922.75   -47439.818    3984.0712    -51423.89   0.16336469 
   56100    291.43992   -1020.6499    149922.66   -47418.375    4002.2255     -51420.6   0.16153097 
   56200    292.61802   -988.97142    149948.39   -47459.286    4018.4038    -51477.69   0.15431416 
   56300     292.4662   -1005.0704    149921.39   -47528.216    4016.3189   -51544.535   0.15454283 
   56400     288.0855   -1024.6295    149914.94   -47580.855    3956.1606   -51537.016   0.15494288 
   56500     288.4508   -980.99322    149899.68   -47628.176    3961.1771   -51589.353    0.1538196 
   56600    287.66682   -990.23474    149889.76   -47684.228    3950.4111   -51634.639    0.1497383 
   56700    288.44142   -968.34908     149901.3   -47661.554    3961.0483   -51622.602   0.14945596 
   56800    289.42148   -1001.1922     149908.1   -47545.994    3974.5071   -51520.501   0.15611241 
   56900    282.56387   -1053.6711    149932.84   -47646.308    3880.3343   -51526.642   0.15981048 
   57000    287.57806   -990.51229    149897.85    -47627.64    3949.1922   -51576.833   0.15117619 
   57100    290.07325   -1005.0703    149940.06   -47552.629    3983.4576   -51536.086   0.15309771 
   57200    293.09823   -1012.1311    149928.43    -47499.03    4024.9984   -51524.029     0.156277 
   57300    285.47175    -1023.174    149925.81   -47640.094     3920.267   -51560.361   0.15366059 
   57400    290.82975   -994.03088    149922.88   -47522.801    3993.8462   -51516.647   0.15674412 
   57500    293.91185   -999.45382    149936.27   -47487.065    4036.1715   -51523.236   0.15571996 
   57600    292.49372   -1005.4995    149913.06   -47600.953    4016.6969    -51617.65   0.15064917 
   57700    288.31123   -996.08609    149913.31    -47506.15    3959.2604    -51465.41   0.15434284 
   57800    292.99229   -1014.5939    149933.98   -47456.257    4023.5435   -51479.801   0.15761718 
   57900    297.09639   -968.95741    149932.43   -47492.962    4079.9035   -51572.865   0.15253511 
   58000    289.87608   -1010.7791    149911.95    -47446.34    3980.7499    -51427.09   0.16340687 
   58100    291.38419   -1052.0281    149922.31    -47504.18    4001.4601    -51505.64   0.15585479 
   58200    293.50821   -1000.0994    149950.86   -47399.242    4030.6284   -51429.871    0.1630716 
   58300    293.16536   -996.38173    149970.81   -47465.229    4025.9202   -51491.149   0.15441547 
   58400      289.145   -1067.1552    149954.14   -47512.713    3970.7102   -51483.423    0.1570773 
   58500    291.71449   -971.43126    149932.89   -47508.913     4005.996   -51514.909   0.15258979 
   58600    291.00825   -1023.9577    149931.91   -47547.904    3996.2975   -51544.201   0.15407906 
   58700    291.57086   -988.39486    149905.08   -47501.211    4004.0236   -51505.235   0.15364858 
   58800    288.25091    -975.6345    149905.69   -47541.344    3958.4321   -51499.776   0.15483838 
   58900    292.33741   -1020.4261    149926.49   -47461.679    4014.5503   -51476.229   0.15969283 
   59000    291.68795   -1032.7263    149943.81   -47425.672    4005.6316   -51431.303   0.15512615 
   59100    300.20378   -968.76036    149945.19   -47391.428    4122.5759   -51514.004   0.16312696 
   59200    296.17448   -1015.4902    149927.12   -47513.482    4067.2433   -51580.725   0.14919932 
   59300    294.73944    -998.1858     149912.3   -47494.631    4047.5365   -51542.168   0.15720199 
   59400    291.74453   -961.12601    149926.49   -47471.284    4006.4086   -51477.692   0.15434612 
   59500    285.75802   -1016.4172    149897.68   -47579.777    3924.1982   -51503.975   0.14995437 
   59600    287.57427    -1026.083    149901.66   -47556.056    3949.1401   -51505.196   0.16073864 
   59700    293.24117   -979.13024     149942.8   -47486.746    4026.9613   -51513.707   0.15146998 
   59800    284.60672    -1004.316    149939.36   -47607.897    3908.3879   -51516.284   0.15230441 
   59900    284.94133   -949.87067    149932.62   -47592.725    3912.9829   -51505.708   0.14961986 
   60000    287.46005   -1002.9436    149932.22   -47562.615    3947.5716   -51510.186   0.15235987 
   60100    291.46252    -982.4098    149941.99   -47523.503    4002.5359   -51526.039   0.15132861 
   60200    289.87122   -992.03209     149964.6   -47492.436    3980.6831   -51473.119    0.1588062 
   60300    294.04067   -971.98149    149983.14   -47451.156    4037.9405   -51489.096   0.14759754 
   60400    292.53644    -952.6449    149988.32   -47398.491    4017.2835   -51415.775   0.15505646 
   60500    295.68578   -992.46917    149992.85   -47428.148    4060.5322   -51488.681   0.15769103 
   60600    291.09729   -977.52002    149974.77   -47491.287    3997.5203   -51488.807   0.15223524 
   60700    297.47141   -1019.8765    150003.68   -47317.618    4085.0535   -51402.672    0.1634095 
   60800    299.09083    -962.8032    150021.96   -47343.494    4107.2923   -51450.787   0.15166453 
   60900    291.64746   -1032.5787    150000.74   -47438.059    4005.0755   -51443.134   0.15758672 
   61000    294.14909    -994.3307    149975.95   -47477.504    4039.4295   -51516.933    0.1536021 
   61100    291.68736    -1016.032    149980.42   -47464.021    4005.6235   -51469.645   0.15930794 
   61200    296.24445   -984.37314     149987.5   -47406.547    4068.2041   -51474.751   0.15145203 
   61300    288.25068   -1033.3205    149962.21   -47500.023    3958.4289   -51458.452    0.1590317 
   61400    288.50821   -995.32033     149960.1   -47546.918    3961.9655   -51508.884   0.14795407 
   61500    288.18751   -990.08965    149965.43   -47486.125    3957.5615   -51443.687   0.15888591 
   61600    292.80676   -966.92845    149950.69   -47531.967    4020.9957   -51552.963   0.15512843 
   61700    289.14465   -1018.9472    149942.86    -47600.39    3970.7055   -51571.095   0.14717989 
   61800    290.22345   -1002.7233    149927.25   -47586.315    3985.5202   -51571.835   0.15179614 
   61900    289.65576   -1008.1469    149941.92   -47477.782    3977.7244   -51455.506    0.1503171 
   62000     293.2277   -986.70696    149929.64   -47484.538    4026.7763   -51511.315   0.15662578 
   62100    289.73672   -977.52412     149933.4   -47561.244    3978.8361    -51540.08   0.15054222 
   62200    292.75086   -989.11717    149921.29   -47454.095    4020.2281   -51474.324   0.16105048 
   62300    293.83926   -1011.3874    149901.23   -47501.665    4035.1747   -51536.839    0.1530271 
   62400    287.83423    -1007.049    149902.62   -47545.397      3952.71   -51498.107   0.15767463 
   62500    287.45583   -969.59426    149907.94   -47531.105    3947.5136   -51478.618    0.1566099 
   62600    288.49838   -995.76395    149916.03   -47564.205    3961.8305   -51526.036   0.15066489 
   62700    284.28835   -1002.3445    149897.48   -47599.217    3904.0159   -51503.233    0.1571303 
   62800    290.31818   -995.43685    149907.72   -47569.396    3986.8211   -51556.217   0.14883692 
   62900    292.14081   -973.74559    149938.53   -47477.521    4011.8505   -51489.371   0.15582261 
   63000    290.75664   -981.15523    149944.88   -47512.181    3992.8423   -51505.024   0.15510054 
   63100    286.60255   -992.76472    149921.88   -47586.329    3935.7959   -51522.125   0.15114912 
   63200    294.42839   -984.13626    149926.26   -47457.872     4043.265   -51501.137   0.15792449 
   63300    286.28903   -1025.4447    149936.82   -47562.112    3931.4904   -51493.602   0.15690613 
   63400    286.33015   -999.50064    149916.87   -47651.698    3932.0551   -51583.753   0.14900094 
   63500    286.71653   -1015.9683    149903.59    -47622.93    3937.3611   -51560.291   0.15883545 
   63600    284.50518   -1006.6214    149894.91    -47675.73    3906.9936   -51582.723   0.15029706 
   63700    292.11919   -970.90046    149905.52   -47645.704    4011.5536   -51657.257   0.15005895 
   63800    285.16798   -985.25621     149874.9   -47707.245    3916.0954   -51623.341   0.15134871 
   63900    290.90616   -983.54918    149894.78   -47598.418    3994.8956   -51593.314   0.14475803 
   64000    287.41971   -973.90235    149898.66   -47509.841    3947.0176   -51456.859   0.16436506 
   64100    296.84869   -998.66701    149921.34   -47467.006    4076.5019   -51543.508   0.14968595 
   64200    294.43484   -1004.4287    149942.15   -47456.359    4043.3535   -51499.712   0.16161096 
   64300    284.34215   -1036.1508    149931.24   -47497.304    3904.7547   -51402.059   0.15686614 
   64400    291.81085   -992.22825    149914.78   -47551.836    4007.3193   -51559.156   0.15020918 
   64500    289.87866   -997.27047    149902.55   -47539.739    3980.7853   -51520.524   0.16039166 
   64600    289.63671   -1033.0022     149885.4   -47572.496    3977.4627   -51549.959   0.15081085 
   64700    287.07217   -990.23885    149867.22   -47576.037     3942.245   -51518.282    0.1600129 
   64800    293.04128   -982.59017    149906.18   -47526.525    4024.2163   -51550.741   0.15384632 
   64900    290.70583   -1014.9678    149932.44   -47437.657    3992.1445   -51429.801   0.15776024 
   65000      292.354   -990.48239    149954.23   -47431.286    4014.7781   -51446.064   0.15749014 
   65100    290.31631   -1054.6079     149921.1   -47494.339    3986.7954   -51481.135   0.15642566 
   65200    288.44796   -1010.9131    149925.14   -47515.487    3961.1381   -51476.625   0.15832703 
   65300    292.26907   -1006.7353     149935.3   -47451.809    4013.6119   -51465.421   0.15996087 
   65400    292.57694   -980.36811    149917.46   -47488.162    4017.8397   -51506.002   0.15526004 
   65500    294.62666   -970.90973    149917.31   -47425.746    4045.9877   -51471.734   0.16222491 
   65600    297.77065    -1015.781    149943.37   -47443.672    4089.1628   -51532.834   0.15610393 
   65700    290.81843    -1011.866    149947.02   -47405.407    3993.6909   -51399.098   0.16506919 
   65800    293.41853   -980.92077    149925.21   -47468.278    4029.3969   -51497.675   0.15742856 
   65900    294.18302    -1007.822    149935.87   -47486.348    4039.8954   -51526.244   0.15367667 
   66000    286.15545   -1025.2327    149945.78   -47492.011     3929.656   -51421.667    0.1629822 
   66100    294.54367   -988.75828    149940.22   -47454.985     4044.848   -51499.834   0.15048757 
   66200    289.69675   -993.14818    149938.96   -47597.074    3978.2872   -51575.362   0.15855865 
   66300    289.26884   -985.31528    149945.94   -47526.609     3972.411    -51499.02   0.15352699 
   66400    289.83721   -1020.7329    149960.12   -47534.278    3980.2161   -51514.494   0.15463845 
   66500     290.8522   -1006.5596    149926.03   -47570.273    3994.1545   -51564.428   0.16051023 
   66600    288.61868   -981.45054    149935.18   -47567.211    3963.4826   -51530.693   0.15166055 
   66700    285.87514   -1036.6017    149900.18   -47551.291    3925.8067   -51477.098   0.16498329 
   66800    291.78841   -1022.0261    149911.74   -47576.487    4007.0111   -51583.498   0.15397914 
   66900    290.86965   -989.86992    149905.52   -47582.319    3994.3942   -51576.713   0.15222675 
   67000    284.01733    -992.6042    149903.72   -47696.933    3900.2941   -51597.227   0.15365166 
   67100     287.6918   -1029.7572    149917.93   -47525.258    3950.7541   -51476.012   0.16149892 
   67200    287.67194   -1020.4378    149907.56   -47633.767    3950.4814   -51584.249   0.15609012 
   67300    294.94917   -996.97168    149916.21   -47555.947    4050.4166   -51606.363    0.1555105 
   67400    292.15344   -994.33937     149915.9   -47528.835     4012.024   -51540.859   0.15428545 
   67500    293.70759   -1021.2002    149927.12   -47519.495    4033.3665   -51552.862   0.15705012 
   67600    296.70661   -950.40678    149951.45   -47369.128    4074.5508   -51443.679   0.15940881 
   67700    290.30656   -1036.2241     149964.7   -47455.789    3986.6615   -51442.451   0.16030816 
   67800    293.03771   -1045.1468    149942.27   -47494.491    4024.1673   -51518.659   0.16171757 
   67900    289.17385   -1021.1749    149906.73   -47524.394    3971.1065   -51495.501   0.16112287 
   68000    293.16659   -1021.5579    149880.26   -47556.491    4025.9372   -51582.429   0.15798187 
   68100    292.32731   -972.08733    149886.15   -47562.373    4014.4117   -51576.784   0.15476901 
   68200    293.16997   -977.98794     149893.2   -47522.679    4025.9835   -51548.662   0.16135322 
   68300    297.10588    -959.6668    149920.06   -47473.632    4080.0337   -51553.666   0.15070993 
   68400    293.50643   -1010.6101     149920.7   -47438.896     4030.604     -51469.5   0.16083966 
   68500    294.71437   -1003.6284     149915.2   -47428.641    4047.1921   -51475.833   0.15913094 
   68600    290.95504   -1019.7458     149909.7   -47527.284    3995.5668   -51522.851   0.15949286 
   68700     292.1412   -993.56324    149876.41   -47497.863    4011.8558   -51509.719   0.15969894 
   68800    292.27766   -1039.0542    149898.22   -47499.704    4013.7299   -51513.434   0.16289131 
   68900    293.81378   -994.30609    149905.33   -47497.967    4034.8248   -51532.791   0.15638666 
   69000    293.87187   -1000.9737    149891.44   -47498.238    4035.6225    -51533.86   0.15899993 
   69100    292.10529   -991.43597    149884.99   -47564.688    4011.3627   -51576.051   0.15871784 
   69200    290.74141   -989.36527    149902.39   -47579.352    3992.6332   -51571.985   0.15453651 
   69300    289.64148   -1000.5392    149864.32   -47605.058    3977.5283   -51582.587   0.16008786 
   69400    284.30444   -968.72963    149874.58   -47654.889    3904.2368   -51559.125   0.15091879 
   69500    293.66032   -907.14491    149872.57   -47515.439    4032.7174   -51548.156   0.15065301 
   69600    295.68198   -1002.3102    149931.43   -47413.604    4060.4799   -51474.084   0.16102834 
   69700    289.84135   -999.93946    149912.71   -47510.007    3980.2729    -51490.28   0.15970544 
   69800    290.36515   -986.38397    149898.18   -47506.155    3987.4661   -51493.621   0.15690296 
   69900    289.00198   -1000.8477    149899.48   -47607.347    3968.7463   -51576.093    0.1566858 
   70000    289.69199   -986.00708    149889.09   -47528.288    3978.2219    -51506.51   0.15316024 
   70100     286.3047   -976.38918    149865.09   -47649.627    3931.7056   -51581.332   0.15958235 
   70200     294.4613   -985.76452    149909.38   -47486.189    4043.7169   -51529.906    0.1545142 
   70300    291.62395    -1001.635    149917.99   -47495.397    4004.7527   -51500.149   0.15608717 
   70400    297.94458   -1008.6227    149940.55   -47386.318    4091.5513   -51477.869    0.1617224 
   70500     295.0234   -972.19301    149944.22   -47459.585     4051.436   -51511.021   0.15323162 
   70600      288.704   -1019.3509    149940.96   -47519.362    3964.6542   -51484.016   0.16489988 
   70700    296.47415   -990.92245    149929.76   -47490.097    4071.3585   -51561.455   0.14936017 
   70800    294.58671   -969.85619    149890.06   -47523.243    4045.4391   -51568.682   0.15879451 
   70900    292.51233   -976.91679    149908.78   -47518.652    4016.9524   -51535.604   0.15128744 
   71000    294.17403   -982.46122    149904.15   -47536.397    4039.7718   -51576.169   0.15205625 
   71100    291.13431   -1003.4041    149901.08   -47526.604    3998.0287   -51524.633   0.16051901 
   71200    287.49051   -998.75457    149918.59    -47566.65    3947.9899    -51514.64   0.15132647 
   71300    286.35634   -1029.0712    149886.64   -47615.645    3932.4148   -51548.059   0.15800076 
   71400    290.65123   -972.40233    149901.47   -47559.843    3991.3947   -51551.238   0.15374314 
   71500    287.34001   -992.23727    149901.22   -47504.663    3945.9231   -51450.586   0.15827867 
   71600    293.09666   -973.15029    149909.79   -47523.683    4024.9769    -51548.66   0.15564882 
   71700    291.50119   -1001.9561    149926.93   -47516.614    4003.0669   -51519.681   0.15460255 
   71800    285.87176   -1030.7373    149909.64   -47687.468    3925.7602   -51613.228   0.15149672 
   71900     288.5933   -956.01915    149894.62   -47631.957     3963.134   -51595.091   0.15069504 
   72000     293.6678   -994.31189    149916.02   -47602.045      4032.82   -51634.865   0.15028006 
   72100    293.05687   -977.17397    149944.79   -47465.677    4024.4304   -51490.107   0.15625072 
   72200    292.22862    -1014.964    149983.82   -47355.742    4013.0564   -51368.799   0.16068713 
   72300    294.68511   -1043.6636    150019.91    -47330.85    4046.7904    -51377.64   0.16071815 
   72400    293.90625    -1008.534    149987.86   -47461.245    4036.0946   -51497.339    0.1595858 
   72500    295.71164   -976.36141    149971.86   -47448.331    4060.8873   -51509.218   0.14889674 
   72600    295.26485   -1024.3859    149965.39    -47390.19    4054.7517   -51444.942    0.1663217 
   72700     291.2755   -992.52378    149973.97   -47550.474    3999.9676   -51550.441   0.14537436 
   72800    292.60691   -1011.4131    149949.38   -47478.337    4018.2513   -51496.589   0.16273283 
   72900    294.07267   -991.92205    149984.61   -47492.568      4038.38   -51530.948   0.14890615 
   73000    292.71404    -1005.171    149951.44     -47499.2    4019.7224   -51518.922   0.15250205 
   73100     294.6746   -1012.4994    149938.14   -47451.759    4046.6461   -51498.405   0.15732911 
   73200    293.93642   -1052.7144    149953.51   -47437.934    4036.5089   -51474.443   0.15297098 
   73300    296.72724   -978.75183    149948.59   -47413.183    4074.8341   -51488.017   0.16063416 
   73400    296.99031   -1007.3497    149972.46   -47398.752    4078.4467   -51477.199   0.15583502 
   73500     297.0428   -971.04135    149972.38   -47403.481    4079.1676   -51482.649     0.155614 
   73600    291.62519   -997.47918    149905.93   -47442.572    4004.7698   -51447.342   0.15803965 
   73700    287.40913   -1020.2079    149892.41   -47503.107    3946.8723   -51449.979   0.16230096 
   73800    289.05234   -1012.6783    149888.63   -47597.538    3969.4378   -51566.976   0.15283908 
   73900    288.43931    -1001.902    149889.55   -47574.902    3961.0193   -51535.921   0.15900849 
   74000    293.98695   -962.95448    149878.35   -47492.017    4037.2028    -51529.22   0.14887631 
   74100    298.27003   -981.08114    149943.74   -47330.874    4096.0206   -51426.894   0.15963968 
   74200    297.69679   -1002.4636    149935.25   -47500.421    4088.1486    -51588.57   0.15399323 
   74300    289.89548   -985.52114    149891.31   -47496.465    3981.0163   -51477.481   0.15482943 
   74400    289.14219   -993.69423    149895.22   -47529.122    3970.6718   -51499.793   0.15948534 
   74500    287.27118   -1016.4272    149881.71   -47545.718    3944.9779   -51490.696   0.15312009 
   74600     289.6053   -1019.8611     149903.4   -47548.454    3977.0315   -51525.485   0.16190378 
   74700    289.99656   -1004.4868    149945.75    -47459.85    3982.4044   -51442.255   0.16033539 
   74800     292.4717   -999.37319    149930.46   -47523.616    4016.3945   -51540.011   0.15579445 
   74900    286.18456   -1025.8012     149946.3   -47525.763    3930.0558   -51455.819   0.15753962 
   75000    292.35665   -1009.7832    149937.34   -47507.669    4014.8146   -51522.484   0.15512555 
   75100    292.25891   -1020.9803    149961.26   -47433.866    4013.4723   -51447.338   0.16211464 
   75200    289.94143   -1023.5279    149971.91   -47488.101    3981.6473   -51469.748    0.1596192 
   75300    292.76204   -997.57387    149947.36   -47540.272    4020.3816   -51560.654   0.15733834 
   75400    290.66565   -1013.5846    149947.22    -47547.09    3991.5927   -51538.683   0.15068509 
   75500    288.29402   -986.23028    149920.86   -47542.856    3959.0241   -51501.881   0.15655473 
   75600    294.51064   -978.47441    149954.35   -47470.397    4044.3944   -51514.791    0.1519359 
   75700    292.72457   -987.63183    149950.68   -47428.639    4019.8671   -51448.506   0.15934941 
   75800     289.0559   -1018.9913    149959.45    -47454.62    3969.4867   -51424.107   0.15562986 
   75900    288.62663   -1031.9655    149940.83   -47468.066    3963.5917   -51431.658   0.16566576 
   76000    294.36039   -1020.2323       149950    -47470.19    4042.3311   -51512.521   0.15582858 
   76100    282.47556   -1003.6065    149906.43   -47562.829    3879.1216   -51441.951   0.15933258 
   76200    287.41851   -1003.1179    149904.22   -47613.169    3947.0011    -51560.17   0.15981007 
   76300     292.4914   -1018.1696    149927.43   -47554.467     4016.665   -51571.132   0.14926605 
   76400    292.07058    -1008.047    149910.81   -47544.311     4010.886   -51555.197   0.15769789 
   76500    287.80745   -1029.5125    149926.73   -47536.161    3952.3422   -51488.504   0.15506032 
   76600    287.71814   -1015.8824    149913.23   -47573.271    3951.1157   -51524.387   0.15903659 
[...]
   81900    285.83931   -1017.8777    149905.29   -47572.468    3925.3146   -51497.782   0.15617293 
   82000    292.81987   -1017.0386    149933.03   -47483.038    4021.1757   -51504.214    0.1568876 
   82100    296.09468   -997.71011    149954.23   -47433.017    4066.1474   -51499.164   0.15485298 
   82200    291.53846   -947.51941     149953.4   -47441.341    4003.5787    -51444.92   0.15328357 
   82300    292.42889    -966.9137    149948.69   -47521.359    4015.8066   -51537.165   0.15236417 
   82400    294.41676   -970.57724    149961.14   -47398.062    4043.1052   -51441.167   0.15308576 
   82500    299.29015   -966.18665    149992.04   -47299.983    4110.0295   -51410.013   0.16150065 
   82600    297.87158   -1016.0647    149973.25   -47403.097    4090.5488   -51493.646   0.15341922 
   82700     286.0899   -1040.4346    149959.13   -47482.913    3928.7559   -51411.669   0.15930987 
   82800    294.98602   -951.18433    149938.32    -47492.71    4050.9226   -51543.632   0.15156527 
   82900    291.57659   -968.91441    149960.69   -47450.474    4004.1024   -51454.577    0.1516212 
   83000    295.06735   -975.18189    149992.04   -47382.415    4052.0395   -51434.455   0.15949893 
   83100    292.35566   -1010.7125    150002.98   -47426.047    4014.8009   -51440.848   0.15217814 
   83200     292.1924   -990.41427    149973.72   -47463.344     4012.559   -51475.903   0.15476638 
   83300    293.31576   -1016.6955    149950.67   -47450.425    4027.9857   -51478.411   0.15268136 
   83400    291.14484    -981.6271     149957.3   -47533.019    3998.1733   -51531.193   0.15129171 
   83500    290.96643   -993.84763    149897.75   -47629.305    3995.7233   -51625.029   0.14810474 
   83600    292.83551   -979.93922    149914.12   -47577.273    4021.3905   -51598.663   0.14863086 
   83700    290.65722   -974.05383    149925.37   -47606.795    3991.4769   -51598.272   0.14728901 
   83800     289.6009   -1010.9294    149921.45   -47567.103     3976.971   -51544.074   0.15180366 
   83900    288.97199   -1012.4288    149928.89    -47566.29    3968.3344   -51534.624   0.15372895 
   84000    289.34129   -1017.4139    149935.48   -47586.387    3973.4059   -51559.792   0.14833811 
   84100    289.88544   -1015.7439    149949.49   -47515.672    3980.8784   -51496.551   0.15950574 
   84200    296.81064   -975.76315    149930.52   -47468.027    4075.9794   -51544.006   0.15202906 
   84300    289.52874   -985.38634    149929.89    -47519.68      3975.98    -51495.66   0.15401573 
   84400     291.6694   -1012.0855    149937.34   -47519.102    4005.3768   -51524.478   0.15039428 
   84500    290.54179   -1006.2252    149924.13   -47571.184    3989.8919   -51561.075    0.1510513 
   84600    289.33143   -1016.4002    149941.43   -47485.356    3973.2705   -51458.626   0.15803248 
   84700    289.34944   -1020.1279    149948.58   -47500.303    3973.5178    -51473.82   0.15246378 
   84800    291.31484   -991.14965    149937.65   -47492.203    4000.5078   -51492.711   0.15392073 
   84900    294.15487   -973.43477    149959.68   -47410.304    4039.5088   -51449.812   0.15619121 
   85000    287.88019   -965.83219    149934.92   -47478.838    3953.3412   -51432.179   0.15161367 
   85100    291.30217   -1010.4189    149929.04   -47505.669    4000.3338   -51506.003   0.15646064 
   85200    290.04727   -989.96017       149896   -47539.269    3983.1008    -51522.37   0.15521522 
   85300    286.94199   -1025.3529     149913.7   -47550.553    3940.4572    -51491.01   0.15174681 
   85400    287.38068   -1006.6358    149902.15   -47582.918    3946.4816   -51529.399   0.15414707 
   85500    288.95043   -986.92334     149923.6   -47527.554    3968.0383   -51495.592   0.14511126 
   85600    288.68924   -1017.0348    149908.98   -47558.173    3964.4515   -51522.625   0.15781244 
   85700    293.14202   -1032.4479    149907.33   -47498.808    4025.5997   -51524.408   0.15242787 
   85800      292.217   -1032.3399    149885.96   -47485.763    4012.8969    -51498.66   0.15762318 
   85900    293.82024   -994.61699    149899.76   -47457.895    4034.9134   -51492.809   0.16016272 
   86000    293.31984   -973.06923    149920.37   -47509.698    4028.0417    -51537.74   0.14660368 
   86100    293.26523   -985.70949    149918.96   -47481.861    4027.2917   -51509.153   0.15968737 
   86200     294.8037   -989.66942    149947.19   -47450.504    4048.4189   -51498.923   0.14762187 
   86300    297.04666    -978.6291    149944.03   -47494.935    4079.2206   -51574.155   0.15291189 
   86400    294.12318   -963.38178    149928.47   -47560.106    4039.0735    -51599.18   0.14832256 
   86500    291.73472   -995.33117    149913.47   -47588.811    4006.2738   -51595.085   0.14772822 
   86600    292.55847   -980.41037    149926.73   -47427.131    4017.5861   -51444.717   0.16081599 
   86700    295.84276   -993.65824    149932.83   -47430.383    4062.6878   -51493.071   0.15085314 
   86800    288.40348   -1016.9048    149922.35   -47552.421    3960.5273   -51512.948   0.15848067 
   86900    287.31959   -1001.3405    149929.79   -47538.756    3945.6427   -51484.399    0.1544065 
   87000     290.1377   -987.63065    149922.14   -47513.105    3984.3426   -51497.448   0.15275758 
   87100    293.02103   -1000.4896    149930.31   -47487.877    4023.9382   -51511.815   0.15932888 
   87200    294.67278   -983.00547    149956.03   -47418.593    4046.6211   -51465.214   0.14976608 
   87300    291.62146    -996.8061    149957.46   -47430.269    4004.7185   -51434.987   0.15823339 
   87400    293.14851   -1027.6292    149929.15   -47481.766    4025.6888   -51507.455   0.15806549 
   87500    295.55088   -1005.0388    149941.67   -47457.774    4058.6796   -51516.454   0.15057536 
   87600    293.86448    -970.1008       149973    -47484.83    4035.5209   -51520.351   0.15894339 
   87700    294.72246   -957.10444    149975.53   -47456.286    4047.3033   -51503.589   0.14681763 
   87800    290.14171   -1010.3169    149935.93   -47538.824    3984.3977   -51523.222   0.15675258 
   87900    288.28326   -987.62074    149929.09   -47561.105    3958.8763   -51519.981   0.15633347 
   88000    290.53323   -989.58399     149928.5   -47529.804    3989.7743   -51519.579   0.15051973 
   88100    291.97022   -1036.7864    149942.41   -47500.238    4009.5079   -51509.746   0.15864417 
   88200    288.18376   -1035.5839    149922.42   -47606.111      3957.51   -51563.621   0.15059791 
   88300    290.89062   -1014.6297    149909.49   -47541.386    3994.6821   -51536.068   0.15467477 
   88400    300.00341   -973.82806    149946.28   -47473.904    4119.8244   -51593.728    0.1501253 
   88500    293.07001   -989.82877    149935.41   -47547.665    4024.6108   -51572.275   0.15286645 
   88600    295.12874   -989.03739    149898.82   -47534.909    4052.8826   -51587.791   0.15425419 
   88700    290.62014   -996.39786     149906.8   -47503.307    3990.9677   -51494.275   0.15697204 
   88800    290.74374   -1004.9696    149918.27     -47573.8    3992.6651   -51566.465   0.15334525 
   88900    291.88916   -1008.2348    149909.22   -47511.582    4008.3947   -51519.976   0.15283225 
   89000     294.3341    -996.5956    149901.19   -47470.414    4041.9701   -51512.384   0.15773505 
   89100     289.8308   -1028.3494    149916.66   -47527.382     3980.128    -51507.51   0.15733786 
   89200    291.54581   -1012.0749    149934.71   -47478.143    4003.6796   -51481.822   0.15504806 
   89300    288.95153   -992.17821    149891.77   -47597.976    3968.0535    -51566.03   0.15452125 
   89400    294.10224   -986.38103    149925.19   -47500.406     4038.786   -51539.192   0.15409525 
   89500    287.81816   -1043.5374    149895.59   -47598.704    3952.4893   -51551.194   0.15604854 
   89600    289.59611   -984.72683    149854.94   -47618.474    3976.9052   -51595.379   0.15317631 
   89700    288.64176    -1010.107     149884.9   -47535.846    3963.7994   -51499.646    0.1551217 
   89800    291.14832   -1018.3955    149906.42   -47469.354    3998.2211   -51467.575    0.1601977 
   89900    294.54013    -980.1738     149928.2   -47451.484    4044.7995   -51496.283   0.15224685 
   90000    293.57839   -1013.5631    149937.82   -47478.059    4031.5922   -51509.651   0.16017161 
   90100    291.12486   -998.69532     149936.7   -47456.823    3997.8989   -51454.722   0.15750148 
   90200    292.40679    -996.2404    149930.21   -47536.328    4015.5031   -51551.831   0.15789504 
   90300    291.95545   -1016.3656    149906.05   -47506.684     4009.305   -51515.989   0.15463777 
   90400    293.11886    -1026.202    149918.24   -47499.338    4025.2816    -51524.62   0.15499441 
   90500    295.59461   -997.67895    149906.96    -47506.04    4059.2802    -51565.32   0.16345403 
   90600    291.36771   -1015.9657    149894.14   -47528.969    4001.2338   -51530.202   0.15350546 
   90700    288.60073   -990.75629    149895.93   -47558.422     3963.236   -51521.658   0.15753696 
   90800    290.30508   -977.55765    149898.86   -47576.875    3986.6412   -51563.516   0.14780783 
   90900    285.99442   -1017.7234    149887.71   -47552.001    3927.4446   -51479.446     0.153093 
   91000    290.58291   -1009.7398    149885.37   -47569.438    3990.4564   -51559.895   0.15570219 
   91100    288.51063   -1001.2707    149868.59   -47674.747    3961.9987   -51636.745   0.15148691 
   91200    287.44181   -977.70173    149867.59   -47616.173     3947.321   -51563.494   0.15642631 
   91300    291.91713   -982.30288    149907.01   -47554.001    4008.7788    -51562.78   0.15266056 
   91400    291.95829   -1001.3679    149912.03   -47524.215    4009.3441   -51533.559   0.15501461 
   91500    296.56906   -986.30074    149968.69   -47362.348    4072.6619    -51435.01   0.16306819 
   91600    295.18536   -997.93636    149966.39    -47430.27    4053.6601    -51483.93   0.15634907 
   91700    291.58647   -996.78198     149962.2   -47508.603     4004.238   -51512.841   0.15721267 
   91800    294.11027   -1008.8587    149956.73   -47478.571    4038.8963   -51517.467   0.15604612 
   91900     290.8611   -1042.3378    149955.72   -47469.696    3994.2768   -51463.973   0.15300118 
   92000    291.03509   -982.00916    149967.02   -47516.267    3996.6662   -51512.933   0.15927518 
   92100    295.04038   -978.35743    149946.18   -47498.895    4051.6692   -51550.565   0.14628417 
   92200    291.61497   -1001.4246       149929   -47535.021    4004.6294   -51539.651   0.15815835 
   92300      295.217   -981.70501    149960.83   -47407.545    4054.0946    -51461.64   0.15421627 
   92400    290.44307   -1004.9526    149956.97   -47454.851    3988.5361   -51443.387   0.15322282 
   92500    294.59081   -989.04935    149941.35   -47444.184    4045.4954    -51489.68   0.16438274 
   92600     295.3969   -968.30368     149968.9    -47356.27    4056.5651   -51412.835   0.15188111 
   92700    288.03886   -1050.9197    149944.56   -47483.919    3955.5201   -51439.439   0.16484233 
   92800    291.76001   -997.96448    149961.76   -47490.858    4006.6212    -51497.48   0.15158555 
   92900    291.84761   -1026.6465    149929.61   -47533.586    4007.8241    -51541.41   0.15485988 
   93000    285.45796   -984.73096    149916.87   -47538.677    3920.0777   -51458.755   0.15786512 
   93100    296.10619   -956.04045    149942.79   -47456.968    4066.3054   -51523.273   0.15239076 
   93200    291.14942   -993.77866    149928.39   -47514.521    3998.2362   -51512.757   0.15441865 
   93300    288.91619   -1025.6697    149931.39   -47569.693    3967.5682   -51537.261    0.1560104 
   93400    286.71337   -989.56507    149885.75   -47619.944    3937.3177   -51557.261   0.15468103 
   93500     285.0365   -997.31784    149880.33     -47619.4    3914.2899    -51533.69    0.1522175 
   93600    284.28796   -996.84176    149897.55   -47567.945    3904.0105   -51471.956   0.15478474 
   93700    289.76432   -1008.1712     149895.9   -47547.686    3979.2151   -51526.901   0.15668137 
   93800    293.10605   -969.77805    149901.87   -47550.763    4025.1057   -51575.869   0.15064478 
   93900    286.31453    -1023.803    149883.79   -47627.562    3931.8406   -51559.402   0.15366599 
   94000    286.01997   -1006.4026    149864.45   -47592.451    3927.7956   -51520.247   0.15996082 
   94100    295.62199   -985.23749    149915.42    -47473.28    4059.6561   -51532.936   0.14909947 
   94200    296.41022    -1029.187    149931.47   -47464.152    4070.4806   -51534.632   0.16419558 
   94300    291.37003   -1052.6221    149943.35   -47481.389    4001.2657   -51482.654   0.15877897 
   94400     295.5112   -985.99781    149937.31   -47467.992    4058.1348   -51526.127   0.15577135 
   94500    291.81158    -995.1617    149947.41   -47474.149    4007.3293   -51481.478   0.16241109 
   94600     296.1986   -1005.9738    149929.14   -47479.053    4067.5745   -51546.627   0.14824305 
   94700    290.74025   -995.43027    149917.44    -47519.33    3992.6172   -51511.947   0.16258058 
   94800    291.58308   -1014.1869     149926.8    -47564.54    4004.1915   -51568.732    0.1518269 
   94900    285.11639   -1000.8581    149918.87   -47589.925    3915.3871   -51505.312   0.15420608 
   95000    290.47929   -1015.3114    149920.18   -47550.684    3989.0336   -51539.718   0.15809935 
   95100    293.49005   -994.51753    149930.07   -47509.096    4030.3791   -51539.475   0.15601777 
   95200    292.07124   -1002.7658     149905.1   -47534.352    4010.8952   -51545.247   0.15577774 
   95300    294.77628   -990.05156    149913.46   -47492.142    4048.0423   -51540.184    0.1573162 
   95400    293.72486   -981.09199    149907.89   -47458.368    4033.6037   -51491.972   0.15561189 
   95500    291.08897   -1013.4709    149939.33   -47481.272     3997.406   -51478.678   0.15641473 
   95600    292.68983    -1018.617    149921.61   -47466.497      4019.39   -51485.887   0.16317798 
   95700    289.40897   -1000.9631    149926.33   -47506.975    3974.3353    -51481.31   0.15555674 
   95800    289.99222   -1004.5631       149922   -47449.622    3982.3448   -51431.967   0.16361208 
   95900     291.5399   -976.95021    149938.23   -47466.648    4003.5985   -51470.246   0.15580359 
   96000    294.68008   -1011.3541    149935.48   -47434.826    4046.7213   -51481.547   0.16003872 
   96100    297.20536   -978.66726    149962.77   -47382.178    4081.3999   -51463.578   0.15577647 
   96200    297.42773   -987.76327    149968.53   -47406.679    4084.4536   -51491.133   0.15646874 
   96300    292.62632   -973.92482    149965.74   -47423.264    4018.5179   -51441.782   0.15900589 
   96400    291.55541    -986.5722    149955.67   -47477.093    4003.8114   -51480.904   0.15496835 
   96500    293.88787   -967.55901    149933.44   -47466.263    4035.8421   -51502.105   0.15275903 
   96600    290.13274   -1010.7968     149944.2   -47524.366    3984.2745   -51508.641   0.15480516 
   96700    297.27347     -1017.68     149945.8   -47494.731    4082.3352   -51577.066   0.15330659 
   96800     287.1767   -974.31793     149936.2   -47514.496    3943.6804   -51458.176   0.15436164 
   96900    293.81235   -964.08165    149909.31   -47520.785    4034.8051    -51555.59   0.15249636 
   97000    289.84126    -995.5135    149921.12    -47596.65    3980.2717   -51576.922   0.15068904 
   97100    287.71605    -1007.322    149927.04   -47564.372    3951.0872   -51515.459   0.16099695 
   97200    289.21108   -1030.3896    149933.59   -47505.215    3971.6177   -51476.832   0.15179713 
   97300    292.86752   -970.96405    149961.66   -47396.612    4021.8301   -51418.442   0.16383265 
   97400    291.54339   -1010.8014     149945.1   -47488.305    4003.6464   -51491.952   0.15306103 
   97500    294.28327   -1025.6998    149951.72   -47464.123    4041.2721   -51505.396   0.15498562 
   97600    299.43114   -1003.0239    149949.92   -47395.775    4111.9656    -51507.74   0.16106145 
   97700    297.74684   -992.46598    149991.95   -47360.671    4088.8358   -51449.507   0.15031679 
   97800    293.82079   -1030.3697    149945.51   -47467.212     4034.921   -51502.133   0.16171644 
   97900    291.67475   -1044.1369    149970.47   -47424.805    4005.4503   -51430.255   0.15184847 
   98000    296.22464   -993.96379    149920.85   -47517.722    4067.9321   -51585.654   0.15383814 
   98100    291.79293   -996.76259    149937.44   -47497.366    4007.0732    -51504.44   0.15658818 
   98200    292.69339   -971.56852    149929.37   -47494.268    4019.4389   -51513.707   0.14964605 
   98300    292.45058   -990.75511    149959.72   -47428.354    4016.1044   -51444.459   0.16288589 
   98400    287.08358   -1021.0747    149920.11   -47469.165    3942.4017   -51411.567   0.15613187 
   98500    293.74864   -999.86917    149919.44   -47445.524    4033.9302   -51479.454   0.15677459 
   98600    290.37696   -997.65064    149936.98   -47459.022    3987.6283   -51446.651   0.15743102 
   98700    294.40712   -1033.7062    149943.43   -47426.789    4042.9728   -51469.762   0.15518583 
   98800    290.87227   -1042.8016     149921.8   -47433.876    3994.4301   -51428.306   0.16452244 
   98900    291.86257   -1020.2351    149926.06   -47500.356    4008.0295   -51508.386   0.15765162 
   99000    290.39161   -1000.3809    149914.41   -47491.848    3987.8295   -51479.677   0.15421798 
   99100    293.22751   -976.99412    149903.24   -47556.457    4026.7738   -51583.231   0.15584157 
   99200    295.17128   -1013.6936    149911.32   -47561.526    4053.4667   -51614.993   0.14713376 
   99300    288.85101   -1001.4989    149931.98   -47486.667    3966.6731   -51453.341   0.15950509 
   99400    288.23431   -992.31738    149918.87   -47522.046    3958.2041    -51480.25   0.15047274 
   99500     290.1067   -1003.0233    149912.12   -47478.066     3983.917   -51461.983    0.1558691 
   99600    295.17065   -1011.8836    149918.53    -47473.86    4053.4581   -51527.318   0.15674759 
   99700    288.47861   -962.23246    149925.34   -47516.406    3961.5591   -51477.965   0.15373651 
   99800    286.38851   -1011.2766    149925.01   -47528.623    3932.8565    -51461.48   0.16054116 
   99900     286.2873   -1028.5163    149944.53   -47589.842    3931.4667   -51521.309   0.15514343 
  100000    292.08882   -996.23545    149947.12   -47504.046    4011.1365   -51515.183   0.15838244 
Loop time of 50.2199 on 6 procs for 100000 steps with 4608 atoms

Performance: 860.218 ns/day, 0.028 hours/ns, 1991.244 timesteps/s
98.0% CPU use with 6 MPI tasks x no OpenMP threads

MPI task timing breakdown:
Section |  min time  |  avg time  |  max time  |%varavg| %total
---------------------------------------------------------------
Pair    | 37.197     | 37.563     | 38.112     |   4.7 | 74.80
Neigh   | 5.1686     | 5.3473     | 5.5643     |   6.5 | 10.65
Comm    | 4.2021     | 4.6435     | 5.1867     |  16.0 |  9.25
Output  | 0.16785    | 0.16879    | 0.17214    |   0.4 |  0.34
Modify  | 1.8385     | 1.889      | 1.9266     |   2.2 |  3.76
Other   |            | 0.6078     |            |       |  1.21

Nlocal:        768.000 ave         776 max         758 min
Histogram: 1 0 0 0 0 3 0 1 0 1
Nghost:        1391.00 ave        1399 max        1384 min
Histogram: 1 1 0 0 2 0 0 0 1 1
Neighs:        0.00000 ave           0 max           0 min
Histogram: 6 0 0 0 0 0 0 0 0 0
FullNghs:      21838.3 ave       22080 max       21556 min
Histogram: 1 0 0 1 1 0 1 1 0 1

Total # of neighbors = 131030
Ave neighs/atom = 28.435330
Neighbor list builds = 6300
Dangerous builds = 0

undump              1
unfix               2
unfix               3
unfix               4




################################################
#######         Run Simulation         #########
################################################

reset_timestep      0
log                 log.run_${NAME}
log                 log.run_ice_292K_-1000atm_ML
