LAMMPS data file via write_data, version 29 Oct 2020, timestep = 200000

4608 atoms
1 atom types

0.4688875241374397 56.8016224758603 xlo xhi
0.416788910344156 50.490331089657474 ylo yhi
0.416788910344156 50.490331089657474 zlo zhi

Masses

1 18.015

Atoms # atomic

5 1 1.797696488276051 1.7046651896740541 1.9199990590468872 0 0 0
3 1 3.520261488785732 0.5316260963945886 3.6147846638939187 0 0 0
722 1 0.9015897204296586 40.88197607636339 22.135497227767935 0 0 0
10 1 6.651109921172405 3.8737660722508473 3.3749137760998873 0 0 0
13 1 8.348563232856325 2.307132030568492 1.8788467305130072 0 0 0
11 1 9.919024187086471 0.6056919205636531 3.8744671815597638 0 0 0
52 1 3.4058767950769084 16.273278475150114 0.6623469197187284 0 0 0
21 1 14.698167389789019 2.145161312941013 1.6992851082627998 0 0 0
18 1 12.990819060057506 3.4441402784274637 3.4803524910868755 0 0 0
68 1 16.174966018412224 16.072812624299438 0.5856840424387573 0 0 0
27 1 3.295596187588071 6.972225716370938 3.597388358307963 0 0 0
8 1 4.95970812826829 5.239895171919622 1.9970159642154277 0 0 0
35 1 10.021194772331683 6.7653629170648015 3.537667706467677 0 0 0
16 1 11.425084303877119 4.85892475357722 1.9613620665129436 0 0 0
105 1 6.881332829213135 25.18935252303806 0.7751290090887621 0 0 0
24 1 17.351461466489177 5.920241447240319 1.6088463836506794 0 0 0
43 1 15.63237735061626 6.832456827364941 3.382299725420315 0 0 0
29 1 1.7737521063263122 8.259632120172148 1.8305257379212374 0 0 0
4 1 3.2517926073796097 3.4498665724316027 0.5804266730013737 0 0 0
34 1 6.691848348481834 9.959081272793387 3.7919784730715187 0 0 0
37 1 8.001777591356044 8.187073711153126 1.9948142092316332 0 0 0
36 1 9.596243658557626 9.779870071618408 0.5769124644010662 0 0 0
45 1 14.504103881989542 8.592224560062519 1.5648314107991426 0 0 0
42 1 13.264999204439903 9.7678709635023 3.705858313470709 0 0 0
289 1 0.5792344154688386 25.292490935858677 6.9094359655930715 0 0 0
51 1 3.6929141739702254 13.08520319400294 3.6329361275726852 0 0 0
241 1 0.504402853490983 13.048905915835398 6.699975963329211 0 0 0
32 1 5.20005396472679 11.372110029010019 2.1246044593731224 0 0 0
2401 1 18.982177869652926 25.744178576182687 25.374795215024143 0 0 0
59 1 10.042384759656018 13.196003994738856 3.616730611574203 0 0 0
40 1 11.786579005062325 11.555677142161183 2.251912474807659 0 0 0
433 1 0.48300857062981467 12.91543627157221 12.988150602238582 0 0 0
48 1 18.04915565895229 11.303978709438402 1.9143336567376918 0 0 0
67 1 16.620818282780355 12.915629431382609 3.735761256693154 0 0 0
458 1 0.5814983171649915 21.980033129489847 15.527418175869464 0 0 0
53 1 1.9718697102952067 14.672323940277609 2.074928262379916 0 0 0
409 1 0.5072973047531584 6.479538175487149 13.24733216756973 0 0 0
385 1 0.47466511838301967 0.5955008520792878 13.077121760556706 0 0 0
58 1 6.729681371724569 16.022563567743074 3.498442138549764 0 0 0
61 1 8.775601775754136 14.779935427359685 2.0394133842696984 0 0 0
457 1 0.9112629340292481 19.23867115217643 12.735021952192861 0 0 0
69 1 14.790956452089079 14.59861776344949 2.11527209681863 0 0 0
66 1 13.099328608253682 15.947294288332635 3.4409767891449032 0 0 0
762 1 13.3401318295754 47.050063080793336 22.46182280062907 0 0 0
75 1 3.514968671383194 19.16429049255249 3.8645953747131707 0 0 0
56 1 5.176918972848263 17.636408655413067 2.2120753885122033 0 0 0
434 1 0.6648245827360126 16.039699916838245 15.811896081987165 0 0 0
83 1 9.793668128229202 19.059214234565175 3.693542988821904 0 0 0
64 1 11.241551732851331 17.71069056443462 2.200534733260201 0 0 0
172 1 3.7473352607413437 47.457438853830055 0.637721511854022 0 0 0
72 1 17.678301186639377 17.90878479688639 2.3251068933001644 0 0 0
91 1 15.79786519373946 19.494199345794886 3.6588601410448613 0 0 0
77 1 2.2931111890231985 20.51937603452659 2.001681193289498 0 0 0
766 1 14.747543866541642 48.56474729050659 23.962907025052125 0 0 0
82 1 6.603514656886119 22.3459630500722 3.7660993874281656 0 0 0
85 1 8.280221617894076 20.93650768373177 2.1540002795161417 0 0 0
242 1 0.5765823658294248 15.923021388236728 9.903893717075496 0 0 0
93 1 14.610624257299218 21.237566783590385 2.268373975524862 0 0 0
90 1 12.875304838934548 22.687122237866582 3.5282474579850414 0 0 0
868 1 3.4603327216855515 28.78283889572298 25.19423562949981 0 0 0
828 1 10.255665672483707 15.580510756156627 25.23934302905528 0 0 0
99 1 3.297974511807349 25.94746250650619 4.004646082367274 0 0 0
80 1 4.867456721300089 24.107208841203914 2.270919383554765 0 0 0
88 1 11.346402607601997 24.048257794659385 2.122463162781714 0 0 0
107 1 9.704515061982878 25.469990760381283 3.806481633710731 0 0 0
117 1 14.46468087989219 27.03015122630362 1.723177074765654 0 0 0
929 1 13.079464953549529 37.74615168379027 25.337842897044283 0 0 0
96 1 17.44688072306333 23.704361156315713 1.8832713621934631 0 0 0
115 1 16.131231368145485 25.629534341682582 3.3259797560655557 0 0 0
101 1 1.7565733586983017 27.282715014428348 2.3499717578633135 0 0 0
530 1 0.7474582343493713 41.21521039538874 16.030679805327804 0 0 0
76 1 3.5438829733540826 22.36634127446761 0.6316246432573893 0 0 0
104 1 4.984886159986248 30.306242097275145 2.1867229260549483 0 0 0
106 1 6.704446125671763 28.795234491313337 3.612590967976117 0 0 0
109 1 8.167244921550399 27.25460228871444 1.98083780483234 0 0 0
112 1 11.654559178889288 30.15228128284142 1.748340878289339 0 0 0
953 1 13.061286213905936 43.945565422042606 25.176334660273266 0 0 0
114 1 13.083510890164327 28.743504563261844 3.61644344690548 0 0 0
120 1 17.95766090087573 30.556912329206384 2.0600378545784785 0 0 0
125 1 2.0742850152540298 33.401192702888835 1.8549169526594398 0 0 0
123 1 3.5124868819508257 32.013645829946924 3.7114817140814558 0 0 0
131 1 9.860314060243356 31.685429238319696 3.451518553730065 0 0 0
133 1 7.855251879269998 33.237323119940115 2.1723687918245562 0 0 0
505 1 0.5502249991966526 31.998742647779803 13.169262671734783 0 0 0
141 1 14.594246046299048 33.31008429813693 1.694605675410934 0 0 0
139 1 16.09354574765369 31.877395333300452 3.3801836932190925 0 0 0
89 1 12.971262357212794 19.250211217330087 0.669713642563199 0 0 0
65 1 13.3474955075627 13.142677359915712 0.738840015144961 0 0 0
937 1 0.8213282056319269 44.355017321529644 25.228728769023974 0 0 0
128 1 5.154028555523374 36.31372732502136 1.597385105837712 0 0 0
130 1 6.761087276677684 35.11641627483645 3.4862753191604363 0 0 0
136 1 11.484720147025905 36.2861882532608 1.7368632722826418 0 0 0
138 1 13.392950694313292 35.1411034515767 3.407743741191516 0 0 0
144 1 17.265742217858417 36.57606535245331 1.6705836357582389 0 0 0
796 1 3.454527874989125 9.731274053113962 25.201188005388275 0 0 0
587 1 10.187704835455223 50.08629699129007 22.162830359595205 0 -1 0
149 1 2.044313711367703 39.94055087291673 2.102236108950313 0 0 0
147 1 3.537060868990908 37.77151373708399 3.1077546420904225 0 0 0
157 1 7.932853740757341 39.66064279219577 1.9004615723100804 0 0 0
155 1 9.983565723313216 37.87915724315431 3.3896769899958024 0 0 0
165 1 14.292254525804095 39.70221243434953 1.5793618050155651 0 0 0
163 1 15.722110432739154 38.04024550904835 3.3990963535363266 0 0 0
924 1 9.908130992435087 40.77226560147015 25.16194102234403 0 0 0
1993 1 19.241271740234275 19.560161671532065 12.67514918292936 0 0 0
152 1 4.9117995286376495 42.934156095511696 1.8655774871887756 0 0 0
154 1 6.223654080177228 41.45155500569325 3.5375402427021383 0 0 0
160 1 11.348292700018408 43.029013372857094 1.8338823048332686 0 0 0
162 1 13.008030779281896 41.228943684376375 3.2681715667288436 0 0 0
168 1 17.475209659630117 42.7562725155252 2.1381831757131087 0 0 0
758 1 8.922591945097574 48.54584879835991 24.046422642154543 0 0 0
290 1 0.6301708643456251 28.457336548560605 9.943792497490138 0 0 0
173 1 1.8064718837292044 45.7627431217614 1.6347764482807923 0 0 0
171 1 3.528906440079714 44.315524457635846 3.3589192686889704 0 0 0
1706 1 19.095580754366505 47.49481764725299 3.3600166595051375 0 0 0
178 1 6.710312307331355 47.73731888609966 3.447307607184147 0 0 0
529 1 0.6964767396186677 38.1244969575104 12.910972207730362 0 0 0
181 1 8.0737434107983 45.98150606842488 2.1068241547911075 0 0 0
179 1 9.774295267625595 44.31286087671552 3.550948245925821 0 0 0
41 1 12.845726960577288 6.630209881047872 0.5607250232509078 0 0 0
189 1 14.703632848392383 45.84554836963652 1.7357155856880646 0 0 0
187 1 15.948831725647054 44.210797240621076 3.5629824360135434 0 0 0
122 1 0.8164306300559608 34.73323512597872 3.362389991073272 0 0 0
176 1 5.249763531234286 49.336947228253194 2.0765019111674867 0 0 0
905 1 13.038866749802088 31.411915022284067 25.18780846993548 0 0 0
184 1 11.601143923145809 49.11472145632513 2.1860293747857984 0 0 0
481 1 0.6122824753838748 25.359182069726106 13.007286858357482 0 0 0
186 1 13.057438325463679 47.16170418005997 3.543952135129759 0 0 0
873 1 6.848839445910553 25.54570011057028 25.35492827917012 0 0 0
19 1 16.06874316800591 50.15292905177574 3.3483209855306 0 -1 0
192 1 17.45756575501496 48.82075128928862 1.596089510975998 0 0 0
74 1 0.7428786869960985 22.086989935932003 3.4442821025153574 0 0 0
196 1 3.755522928529997 3.045886478953013 6.518044876676944 0 0 0
7 1 5.492246354413853 2.128155491967115 5.0680831448133565 0 0 0
15 1 11.421398316487794 2.2495506763392012 5.2413506789861195 0 0 0
209 1 12.909214299819247 0.5165989915841906 6.4955155380885845 0 0 0
23 1 17.474804481088132 1.4850179031102089 4.848801207421916 0 0 0
212 1 15.872268729328502 3.082269297399888 6.557447044005123 0 0 0
650 1 0.5880734855554542 22.213857946723042 21.875948247281176 0 0 0
6 1 2.3290844335764502 4.969721812775285 5.043426722850997 0 0 0
945 1 7.094659352632113 44.31491430231168 25.326516416105992 0 0 0
225 1 6.769495196620695 6.647163345699771 6.626270598698796 0 0 0
204 1 9.727231311739422 3.405030375059586 7.082725006101665 0 0 0
14 1 8.372404412559977 5.187837780489964 5.097907896560558 0 0 0
22 1 14.473992870837895 4.962767250977922 4.993084616703212 0 0 0
233 1 12.760661435133878 6.574136389226095 6.491744128980031 0 0 0
220 1 3.4856611621535674 9.838329079672935 6.627389860896134 0 0 0
31 1 4.999610243290257 8.33838595406612 5.075881643928685 0 0 0
228 1 9.92082254679686 9.87014863930868 6.764662855488783 0 0 0
39 1 11.31586363939602 8.469699007030934 5.185289619287839 0 0 0
47 1 17.5151938060756 8.148554399104828 4.851908910514611 0 0 0
236 1 15.865637206187008 9.703251496846498 6.584346741066092 0 0 0
30 1 1.9353811061307498 11.25081613158391 5.086883452882131 0 0 0
249 1 7.09408378930513 13.026119491532073 6.879471696684549 0 0 0
38 1 8.464624223945236 11.41412144796966 5.030563714840188 0 0 0
46 1 14.496785148360408 11.663057249617014 5.21019622812793 0 0 0
257 1 13.014708470284484 13.011363462303558 7.038844818541177 0 0 0
844 1 3.5271780838657087 22.068719991388335 24.918718282289028 0 0 0
244 1 3.819034140510699 16.116079990185206 6.503291861667825 0 0 0
55 1 5.394566331191396 14.421255732161848 5.1955470888581345 0 0 0
252 1 10.084775087253309 16.28426883835039 6.6711370583517295 0 0 0
63 1 11.587544038571396 14.547483706706982 5.417401525262923 0 0 0
71 1 17.78323527127488 14.422539082644041 5.439421413734777 0 0 0
260 1 16.149633804946323 16.128250361925122 6.674767733049507 0 0 0
852 1 10.103630456729741 22.07620507695446 25.324900909828493 0 0 0
54 1 1.8917229849852835 17.45827051036755 5.01095389142199 0 0 0
273 1 6.887467987978547 19.410698327049833 7.019236035023496 0 0 0
62 1 8.058641070116563 17.562836517133032 5.261566489291681 0 0 0
70 1 14.443176987002639 17.740801482370326 5.034775404773227 0 0 0
281 1 12.99117322490814 19.641398873472124 6.336495734384051 0 0 0
95 1 17.495756908980887 20.434067920787868 5.277215512145202 0 0 0
268 1 3.738741051011737 22.400313842267344 6.506345556716186 0 0 0
79 1 5.3251544544857765 20.762518067794126 5.206097706162785 0 0 0
276 1 9.93922887278896 22.33685673472983 6.419389012138131 0 0 0
87 1 11.47367390656476 20.85627825848744 4.738020289833928 0 0 0
284 1 16.302563097388017 22.434542746511227 6.794930443877723 0 0 0
78 1 1.920115802879029 23.925210994253153 5.186562547194242 0 0 0
297 1 6.659600604517694 25.658860271362798 6.9665956369755815 0 0 0
103 1 5.079416495913503 27.200052514795345 5.700553802295439 0 0 0
86 1 8.228979263844353 23.873334263509104 5.0749619084190805 0 0 0
94 1 14.776264505101146 23.81919304474976 4.983966805519052 0 0 0
305 1 13.203028216505949 25.741355542828472 6.585193741989367 0 0 0
119 1 17.93305485441709 26.976938723163773 4.788458204477468 0 0 0
337 1 0.6473131563479387 37.92913520449956 6.589514738052538 0 0 0
292 1 3.210653445890923 28.654379598975787 7.453970144331229 0 0 0
102 1 1.860314548090088 30.186044067999486 5.377528887139223 0 0 0
111 1 11.292356543700913 27.37179413460329 5.122985395560901 0 0 0
300 1 9.90832426099778 28.91162107661793 6.7652986221338125 0 0 0
110 1 8.145096084436744 30.189483547730042 5.0842155535739035 0 0 0
118 1 14.625487231718495 30.364126795928083 5.21392033020419 0 0 0
308 1 16.171786980965894 28.85758914945978 6.8056290863978575 0 0 0
321 1 6.662723566019356 31.955592965101992 6.631492301096638 0 0 0
127 1 5.153804754327774 33.523995741367116 5.009334177711488 0 0 0
135 1 11.384902097206574 33.76672347041685 4.648057149443762 0 0 0
329 1 12.923877042216535 32.10013597629508 6.594702143217144 0 0 0
143 1 17.5362920613753 33.49792130989205 4.921501112331664 0 0 0
2041 1 19.06386685761276 32.08804813739355 13.149845150059509 0 0 0
126 1 2.0672964731604337 36.41346295821445 4.971995562528097 0 0 0
316 1 3.301555984559179 35.03563566354245 6.652153740172053 0 0 0
134 1 8.41555571652821 36.53937604153525 5.1707179694848575 0 0 0
324 1 10.188902126219512 35.038965158544045 6.517268700593957 0 0 0
142 1 14.481039339915293 36.43890350201603 5.347946034317366 0 0 0
332 1 16.295061701792495 35.000751072636575 6.811891208109629 0 0 0
865 1 0.6314554184631649 25.309855308732537 25.356466809593435 0 0 0
151 1 4.775593126408501 39.325965420192375 4.822426926385183 0 0 0
345 1 6.5136568187419295 38.33251821199485 6.541850920405037 0 0 0
159 1 11.365914598325993 39.49872175470692 5.181197891402832 0 0 0
353 1 12.989796773019677 38.12488516713978 6.709014611717884 0 0 0
167 1 17.531288419837242 39.62938689112043 4.704773640678884 0 0 0
1610 1 19.0773120913746 22.07432556462218 3.7887765601182597 0 0 0
150 1 2.329467245397265 42.399223985622754 5.030264654801729 0 0 0
340 1 3.5688433988244714 41.12573260420281 6.831184513491691 0 0 0
158 1 8.147181961373263 42.38251409010374 5.186124171395316 0 0 0
348 1 9.811972163584569 40.73553857233155 6.656531488578223 0 0 0
166 1 14.355226891097702 42.72269038245507 5.049229934220051 0 0 0
356 1 15.993634307353682 41.175260464389325 6.652919328471648 0 0 0
369 1 6.587917938347811 44.120030523639414 6.203246230293445 0 0 0
175 1 5.164419100626416 45.85354560434307 5.0320805249121605 0 0 0
183 1 11.546665720534303 45.68712535906687 5.103123130024845 0 0 0
377 1 13.020790034787241 44.02527403085681 6.703902210820098 0 0 0
191 1 17.857596356566784 45.598299428458645 4.917173107226532 0 0 0
364 1 3.398009634953443 47.29351652758176 6.873033556424849 0 0 0
174 1 2.0683360360946765 48.789688743606106 4.798945898236564 0 0 0
201 1 6.6922713330285015 50.29181807002898 6.673254323373651 0 -1 0
372 1 9.88283379729432 47.28132557329643 6.740634090553695 0 0 0
182 1 8.254675890331498 48.72656080859501 5.228074379875677 0 0 0
190 1 14.497638402746569 48.87464944655724 5.330054069925316 0 0 0
380 1 16.178584690730247 47.15019022442833 6.396129896632491 0 0 0
197 1 1.901000731495643 1.9407510217244004 7.984620457941453 0 0 0
195 1 3.6232309004966674 0.6184190483335452 9.746946226868031 0 0 0
202 1 6.748287004409787 3.7526235867071542 9.64311514803803 0 0 0
199 1 5.241052853016653 2.067952495343077 11.093034340741363 0 0 0
205 1 8.423640741739316 1.7501939474753523 8.379577637324513 0 0 0
213 1 14.372140415409161 1.86927950602046 8.088754208784518 0 0 0
2281 1 18.893034756763598 44.597979182457976 19.365915278433185 0 0 0
219 1 3.5574466497503554 6.509334630237604 9.44141004202691 0 0 0
200 1 5.3327268816613795 4.828614734882112 7.814356646071382 0 0 0
227 1 9.985175584156538 6.544227633857309 9.261543084153557 0 0 0
208 1 11.504627441522087 5.074260618393705 8.073030611346198 0 0 0
210 1 13.03793035209444 3.5790797761713784 9.785508383488244 0 0 0
216 1 17.383972991635286 4.710581282312106 8.404079634204715 0 0 0
235 1 15.883507369279553 6.447528511900291 9.835858465740516 0 0 0
221 1 1.9909005178234638 8.333081709785912 7.982096161193934 0 0 0
754 1 6.656650692295368 47.36962350506121 22.723322282089192 0 0 0
226 1 7.087282084265002 9.46833906067664 9.871437176732906 0 0 0
229 1 8.513219308911216 8.153626662326221 8.213243405548464 0 0 0
237 1 14.466603119207175 7.880856499782409 7.93598242879898 0 0 0
234 1 13.011651306148822 9.761956734377105 9.585320263528653 0 0 0
243 1 3.4841716393919304 12.561482669300203 9.500471254106943 0 0 0
224 1 5.533571952648022 11.094401431098763 8.340216959014008 0 0 0
251 1 10.079407751438948 13.010460816294836 9.90626561743989 0 0 0
232 1 11.369215304268705 11.349781601809319 8.239543869804324 0 0 0
240 1 17.644706121925385 11.179713207947303 8.29909400373079 0 0 0
259 1 16.15550993410242 12.718648982848254 9.745786193706346 0 0 0
245 1 2.2768163680552673 14.494512506406497 8.159052912060446 0 0 0
250 1 6.605895516813233 16.064219311317174 9.93109601669994 0 0 0
253 1 8.48887745989642 14.619867174135406 8.285697910506274 0 0 0
255 1 11.295380462403783 14.885142519093572 10.943327791957417 0 0 0
261 1 14.629667232187716 14.525529147114659 8.305522294642124 0 0 0
258 1 12.924864135753426 15.922987770022113 9.53825577920148 0 0 0
263 1 17.596630487252753 14.206986285793151 11.279935228301808 0 0 0
777 1 6.706760556330297 50.24750235196231 25.12731488698554 0 -1 0
267 1 3.2451556511576265 19.327364641496548 9.853790884476016 0 0 0
248 1 5.174451810429418 17.61390703024591 8.377043096019428 0 0 0
275 1 9.946664464182915 19.4811085703155 9.696740277355334 0 0 0
256 1 11.45702488331694 18.01981139438153 8.008899455495165 0 0 0
262 1 14.4679110784954 17.271148034603353 11.214021304884746 0 0 0
264 1 17.649440982636357 17.70178047407998 8.174493082422007 0 0 0
283 1 15.957761184892943 19.08884336509734 9.801893748869013 0 0 0
750 1 2.229933226654404 48.8263605256666 23.662466871657855 0 0 0
269 1 2.0495776047255467 21.003245932419375 8.144951350734098 0 0 0
274 1 7.029214552940541 22.439331182468603 10.393940162293104 0 0 0
272 1 5.586809786985819 24.068195204172817 8.521173900797544 0 0 0
277 1 8.390966300223383 20.958972571188003 8.320841365898968 0 0 0
285 1 14.661367344791147 20.778880671538943 8.111540180346879 0 0 0
282 1 13.162200787911267 22.588547278693017 9.385248332932408 0 0 0
1778 1 19.130950337523974 15.686531928079969 9.814075838267115 0 0 0
291 1 3.9743413288327516 25.246090304340896 10.189196829136971 0 0 0
293 1 2.113827604472684 26.65295957010431 8.908110411651005 0 0 0
295 1 5.358551542365215 27.174628825043005 11.748819943430604 0 0 0
299 1 9.781305508582697 25.605115050140604 9.87632254518904 0 0 0
280 1 11.399065910372425 24.103665944188403 7.872995793534255 0 0 0
301 1 8.194028510928993 27.200209915081405 8.447530840460708 0 0 0
309 1 14.639106466214123 27.433711635384 8.175206864869889 0 0 0
288 1 17.695090605507954 24.338322199895014 8.138994252980348 0 0 0
307 1 15.871286846706889 25.744252781015625 9.559131422166526 0 0 0
298 1 6.66578261000425 28.93571806722705 9.601460216312171 0 0 0
296 1 5.064547009319796 30.345930049833957 8.204851648763139 0 0 0
304 1 11.584764476777929 30.489119439075232 8.10099113272831 0 0 0
302 1 8.165821534354325 30.20896644750967 11.314010112631928 0 0 0
306 1 13.020222688683269 29.212436761609474 9.891095743071107 0 0 0
312 1 17.916235875642975 30.29322172678428 8.592563835229639 0 0 0
767 1 17.378431947100587 45.944364898486114 23.58236495176362 0 0 0
317 1 1.6275719724769295 33.52699347810167 8.292759423929443 0 0 0
315 1 3.21728169717674 31.792068545379927 9.710097169104019 0 0 0
325 1 8.3465363197008 33.139410398292625 8.169778794829304 0 0 0
323 1 9.941732421358633 31.725187270082095 9.808912791237294 0 0 0
333 1 14.8176778879537 33.4423974352527 8.518879952876611 0 0 0
331 1 16.130107640214653 31.66873966004448 9.880529265274522 0 0 0
322 1 7.095947288339417 34.721884527428585 9.702153459603283 0 0 0
320 1 5.05870742076612 36.65556784918587 8.323801284857485 0 0 0
328 1 11.599577107736405 36.6117421822166 8.309609797036254 0 0 0
330 1 12.87152202251652 34.84131158098299 9.980173967819098 0 0 0
336 1 17.65133245647129 36.9474182252754 8.20852805701654 0 0 0
341 1 1.9279079996408985 39.55463005538964 8.283012680175489 0 0 0
339 1 3.6975210381963572 38.29245665280723 9.873575533946088 0 0 0
343 1 5.471705360287316 40.01311987054849 11.525760437379933 0 0 0
349 1 8.161777588576285 39.38747188436146 8.368833143137419 0 0 0
347 1 10.207577929978886 38.08773318485386 9.633298157221699 0 0 0
357 1 14.186796680834037 39.6200215312717 8.589737250841633 0 0 0
355 1 15.886311367748096 37.982511299254966 10.117918845184333 0 0 0
763 1 15.885574792353347 44.21206726425008 22.023895939133528 0 0 0
344 1 5.238377895748539 42.72278006813323 8.004545629781932 0 0 0
346 1 6.564135046467438 41.43516951616377 9.602724982217984 0 0 0
352 1 11.260158512294462 42.75257039884433 8.283719693637318 0 0 0
354 1 12.948245221542082 41.462400150449696 10.117717510661645 0 0 0
360 1 17.605436877066982 42.82039327999635 8.26677491592798 0 0 0
857 1 13.132551371114022 18.64146252565437 25.091019486241947 0 0 0
363 1 3.8007481049745735 44.40271196082401 9.73777013830675 0 0 0
365 1 1.75462096629123 45.76659308308629 8.079441162048266 0 0 0
373 1 7.605599833098427 45.87829603075508 8.14095535016786 0 0 0
371 1 9.38926033541323 44.44952656117144 9.676324221863915 0 0 0
381 1 14.664954855933482 45.58688214468519 8.07909521623944 0 0 0
379 1 16.32099648610891 44.461516418607644 9.865514268811362 0 0 0
674 1 0.8990727405639262 28.22684683420866 22.209894017723638 0 0 0
370 1 6.619574510611083 47.83328276898999 9.82906669498668 0 0 0
368 1 5.1039834878884065 48.990849536390755 8.108749691606334 0 0 0
203 1 10.34657217727125 0.4336268340788177 9.883218792359184 0 0 0
376 1 11.411561536738134 48.840024178431364 7.982452272552565 0 0 0
378 1 12.830082002152055 47.13067086654678 9.503935682402783 0 0 0
211 1 16.06892275983411 50.36914411707687 9.455640745952094 0 -1 0
384 1 17.73411544446698 48.7262517762062 8.17528159363233 0 0 0
772 1 4.054993670800705 3.729309139625226 25.316941472352447 0 0 0
389 1 2.1825892292246794 2.005438505694407 14.774391051731522 0 0 0
393 1 6.699518029189971 0.6502634743063859 12.974683302181662 0 0 0
207 1 11.740624150851522 1.8345382356472637 11.519214841382775 0 0 0
401 1 13.23658831842 50.18890817668648 12.789375445889851 0 -1 0
405 1 14.700505780969072 1.9969013149682144 14.810384307933344 0 0 0
215 1 17.436677514917676 1.9277846615978618 11.517272230814005 0 0 0
404 1 15.897865775253374 3.8347895975623065 12.971317589947029 0 0 0
626 1 0.7525260667321607 15.89997536230367 22.24959086847515 0 0 0
388 1 3.671399440683785 3.4144784429625146 13.037214503464355 0 0 0
198 1 1.867810798265624 4.624855516363819 11.383042067114776 0 0 0
417 1 6.619476277355173 6.214935943547764 12.33391475584092 0 0 0
392 1 5.1336931839711095 5.110782018917706 14.619117192787638 0 0 0
396 1 9.994211717505344 3.579589135397373 12.644921416174357 0 0 0
206 1 8.213790068379456 5.169798146827899 10.973167136950051 0 0 0
214 1 14.18056521022821 5.257567412697372 11.461069805808478 0 0 0
425 1 12.80244026129841 6.933453355244077 12.96700968210992 0 0 0
408 1 17.578709578538 5.069019972020481 14.922924196382782 0 0 0
412 1 3.2940437521985593 9.594031955198183 12.825255230522849 0 0 0
413 1 2.1137930174318558 8.265982403570998 14.77813530539366 0 0 0
223 1 5.156581028690823 8.17432100718424 11.31490419217391 0 0 0
231 1 11.386821281667507 8.611058391131495 11.201240131381718 0 0 0
420 1 9.57740847384008 9.728000760677588 12.847304588594152 0 0 0
421 1 8.053173636007422 7.960215143737265 14.296744632361026 0 0 0
239 1 17.674233756573265 7.874115593575403 11.401269403412977 0 0 0
428 1 16.055694273237076 9.631502115408994 12.996542160425856 0 0 0
222 1 1.81900382700709 11.394689049469138 11.26829679549931 0 0 0
441 1 6.709519677157501 12.743699243587333 12.886340910903828 0 0 0
416 1 4.865813177250139 11.15616660167334 14.157409987011555 0 0 0
230 1 8.416188540829609 11.260954540036261 11.112857379826236 0 0 0
424 1 11.378489353222056 11.21350555995685 14.422826785264434 0 0 0
238 1 14.530142457773067 11.20216487102866 11.399018026175263 0 0 0
449 1 13.155989429203073 13.016252691020288 12.880201941632526 0 0 0
432 1 17.7365667059998 11.306890336880292 14.13407401828796 0 0 0
849 1 6.869581775590844 18.845396313707383 24.908013320501723 0 0 0
436 1 3.9608639776861074 16.063536783277094 12.275451911426046 0 0 0
437 1 2.2800893442104173 14.491378455228336 14.222367819657775 0 0 0
247 1 4.875486234184172 14.09366733675356 11.466428553362697 0 0 0
445 1 8.135642094238591 14.669526019671807 14.4227598445165 0 0 0
444 1 9.756918622133774 16.295931781342475 12.652486023148569 0 0 0
453 1 14.615679976605463 14.52613259005233 14.525961489638597 0 0 0
452 1 16.198084403641772 15.969073789290405 12.613904343073425 0 0 0
755 1 9.97758374780897 44.159365309637735 22.308842414970858 0 0 0
246 1 2.022296898537028 17.5109268214699 11.267667474542312 0 0 0
465 1 7.057874908067584 19.43576079744096 12.734837564840332 0 0 0
271 1 5.1886914577448096 20.616326487182537 11.612156862562234 0 0 0
440 1 5.149038117455872 17.55980331430588 14.17217550437685 0 0 0
254 1 8.516645396375544 18.080701070662233 11.1640801314894 0 0 0
469 1 8.93253782582896 20.691442826457788 14.228000846515249 0 0 0
473 1 12.701056388587256 19.04650605974235 12.653429496883389 0 0 0
1658 1 19.143764603893434 34.9005709448691 3.405253279206583 0 0 0
460 1 3.399990243547888 21.995714442534286 12.940197749912441 0 0 0
461 1 2.189128583271675 20.388393571450976 14.390032683541223 0 0 0
464 1 4.796632805892009 23.412658136210105 15.164046910710201 0 0 0
278 1 8.382824973067118 24.082483609566076 11.708780074683366 0 0 0
468 1 10.269122672318781 22.793904126394132 12.940174980497005 0 0 0
279 1 11.655581700730412 21.07098364252864 11.218870842901879 0 0 0
477 1 14.14484778303011 20.86185625889725 14.18819764451218 0 0 0
287 1 17.6206416184211 20.946873203038585 11.00713427443008 0 0 0
476 1 16.24485343751828 22.651938078823534 12.902311446382754 0 0 0
480 1 18.339735891867253 23.60590435807495 14.82914978612058 0 0 0
759 1 11.537194595527874 45.964946677943885 24.14098009501753 0 0 0
270 1 1.936004181581266 23.841213457222544 11.355883374140255 0 0 0
485 1 2.0941968936636295 27.122342168972136 14.597970059284624 0 0 0
489 1 6.569776527962139 25.250995552598415 13.649010945124395 0 0 0
286 1 14.446454518103044 23.988685366675853 11.427640412278098 0 0 0
497 1 12.751431064054625 25.635290447369016 13.044294363817281 0 0 0
311 1 17.784752546860382 27.00413717627073 11.23982362877363 0 0 0
294 1 1.9617948388897959 30.34879843193746 11.630279475036133 0 0 0
484 1 3.400787951805764 28.612809655832 13.197453480667807 0 0 0
488 1 4.952603277962543 30.10946038705597 14.447924845126728 0 0 0
303 1 11.404596280381531 27.165030490840486 10.947249815172492 0 0 0
492 1 9.738163228150444 28.65460623623861 12.808975420464721 0 0 0
493 1 8.073347565023061 27.210510900249336 14.539511602418429 0 0 0
496 1 11.60540259231585 30.11928083408948 14.685040570535913 0 0 0
310 1 14.727103316447023 30.404390088548688 11.400174588357226 0 0 0
501 1 14.357432838262635 26.75173789811739 14.541008836426897 0 0 0
500 1 16.150453968819704 28.478674660938577 12.940829064043816 0 0 0
504 1 17.882706976409352 29.95233062646978 14.323697415387096 0 0 0
625 1 0.5730000422964318 12.965099727899158 18.679897441612926 0 0 0
509 1 2.430618039956106 33.53386592094783 14.135069557277722 0 0 0
319 1 5.260473752315075 33.09387777682839 11.048931843803148 0 0 0
513 1 6.867437530176649 31.41432167117425 13.144854670099491 0 0 0
517 1 8.388833117049222 33.37251616892199 14.666210460638286 0 0 0
327 1 11.053013981248954 33.34367348385257 11.530097083077822 0 0 0
521 1 12.652620473912021 31.573321007345992 12.743888672726431 0 0 0
525 1 14.350560329498872 33.008275567512996 14.112240757478252 0 0 0
335 1 17.580931670592445 33.4146893018018 11.651122600436977 0 0 0
1802 1 19.061171118873688 22.42562910010293 9.299073706680192 0 0 0
318 1 2.190553846335912 36.57880277247314 11.481455612928286 0 0 0
508 1 3.7026098161138843 35.22380851485141 12.820874423453995 0 0 0
512 1 5.571078254274123 36.707425973608906 14.473928193404129 0 0 0
326 1 8.476834599227827 36.609589054111254 11.545504111364217 0 0 0
516 1 10.085072777629101 34.965245688628656 13.333237148833495 0 0 0
520 1 11.89554562432357 36.611365495987855 14.732717303218902 0 0 0
334 1 14.043119566369795 36.733125163621395 11.522967040277234 0 0 0
524 1 15.828993335451305 34.95208501897568 13.199121114396778 0 0 0
528 1 17.90122937697978 36.71783296807992 14.73353771937541 0 0 0
690 1 12.82767268924375 28.469158185167522 22.021796960943686 0 0 0
537 1 7.292821694709477 38.40329704421629 13.121533051509454 0 0 0
351 1 11.635426673193427 39.942656218467064 11.687217734776251 0 0 0
541 1 8.797952870723087 40.05857356155225 14.754344275324776 0 0 0
545 1 13.108640186080194 38.38684120193997 13.195073835101407 0 0 0
549 1 14.627621094714549 40.01120595586839 14.697085894799551 0 0 0
359 1 17.714733418984448 39.61322455550058 11.543712929287459 0 0 0
739 1 16.65763205264321 38.104543326677984 22.271767573351465 0 0 0
342 1 1.9827534234396875 43.021539097556044 11.42580580757888 0 0 0
532 1 3.383265203569569 41.43624365418225 13.075405431725777 0 0 0
536 1 4.735079083271906 42.81838957019009 14.66331886477025 0 0 0
350 1 7.967714077520588 43.07835453867985 11.345749640752095 0 0 0
540 1 9.968937412558835 41.66086727101171 12.807408296890731 0 0 0
544 1 11.193735239037824 42.99951009404792 14.44605326595384 0 0 0