LAMMPS data file via write_data, version 29 Oct 2020, timestep = 200000

4608 atoms
1 atom types

-0.34695798188286986 53.74695798187882 xlo xhi
0.19491502117859127 50.71220497882322 ylo yhi
0.19491502117859127 50.71220497882322 zlo zhi

Masses

1 18.015

Atoms # atomic

1706 1 0.7634101706533376 10.509170262621739 24.476247121626084 0 0 0
1457 1 2.102797263946906 5.111798821567024 4.813482170607559 0 0 1
1489 1 7.2638790601906855 5.406770465130312 3.8348262015967345 0 -1 1
856 1 8.925939938027664 2.9559680361849705 4.05068355008982 -1 1 1
2829 1 11.774286562708047 3.430938259730107 2.9936125205065562 1 1 1
4332 1 13.999004255365627 4.340217197346153 1.2467946213851566 0 0 1
3631 1 0.964202083213356 8.005140941599656 3.0805026014807146 1 0 0
844 1 5.07246321959156 8.912127353398724 3.53071023558509 1 0 1
1994 1 6.676143316958001 45.73151283441048 23.683994177590748 0 -1 -1
4584 1 1.039744059951915 31.78970519119626 23.40840343377948 1 1 0
2910 1 0.06292550653739892 30.515324790892144 6.167064914149728 -1 -1 1
2471 1 9.883580230614323 3.32412537967933 0.6981326786072541 0 1 1
4582 1 0.41759777920031627 26.781432795898805 18.444608988816405 0 0 1
1330 1 1.10865493284901 12.728500303102546 14.613588658057688 1 0 0
3639 1 11.419340325281402 10.346879399997205 2.1139850620726524 1 1 0
671 1 14.765030226668006 10.384482359591589 2.743267837540056 0 0 1
1095 1 4.501201851314129 20.935911556072877 3.0050682578602297 1 0 0
1543 1 0.21187630154142523 12.309999404830666 17.929729376101378 0 -1 0
2341 1 2.2357571941421375 39.34574911321002 8.613046168054506 1 -2 1
3611 1 4.851352467631288 15.39009405985022 3.847072161964374 0 1 1
3207 1 2.704496237092994 42.22881992871652 16.16953765212318 1 0 0
2775 1 7.624976005841656 9.775263051831285 1.3556497618420156 0 -1 2
363 1 1.3614835225804018 29.553751434190243 10.31952512432373 1 0 0
3924 1 11.271863429969967 13.162726806114845 0.6621719204701761 0 1 1
3345 1 9.117325147721411 48.80506321917785 24.59440146938343 1 -1 0
1636 1 8.612214378107003 16.044325591449848 1.5103700634917492 0 0 0
2338 1 2.213892067471644 3.5439349531251043 13.303321146424596 1 0 0
2784 1 11.513767005738092 11.573277444118098 4.627257910479436 0 0 -1
189 1 0.42570938551415216 23.337049299495515 23.01367828273533 0 1 0
3191 1 1.0697120056502345 24.537540497181844 16.215048541643167 1 2 1
1518 1 1.4654907610226557 33.79606496874179 10.699004242435633 1 0 0
589 1 3.657266891674934 6.8691800100732 14.799950970678792 0 1 0
3209 1 3.568564593080695 49.92599011018787 24.716919843702886 1 -1 1
3461 1 7.80213288161665 41.107951325678414 0.8545945142261303 2 0 0
3077 1 4.8877239872118645 15.36747380583567 23.213885716201894 1 1 0
781 1 11.151686456737496 47.19613260426779 22.17399011401278 0 0 0
3411 1 1.0231694390592645 4.614774001309676 7.263614608241686 0 1 0
615 1 5.884770548856065 23.298741998779057 3.119910789784054 0 0 1
3993 1 2.632521284955364 47.21418021403454 24.95752796313502 1 -1 1
4286 1 8.59109302987925 23.27159841114602 2.07587545790431 0 1 1
4588 1 7.737404156739066 13.84557689723886 0.5123536845165952 1 0 1
1819 1 10.56241281899581 37.62075821230533 24.98074127105474 0 0 -2
3300 1 8.734639520384265 44.164802112142254 24.623966424213005 1 0 1
136 1 5.418457801238413 25.198255915386223 0.6969002388124045 -1 0 0
3944 1 2.005549572523087 6.236023976252113 23.58731744485367 1 0 0
259 1 8.716453927968958 18.150491487587534 24.787217876118895 0 0 -1
1297 1 13.967511302691177 41.47371646039615 22.54736011182998 1 1 0
1619 1 8.683787787517106 21.13265526405368 21.736514134872728 0 -1 -1
3710 1 2.341049334015572 28.106120639941896 3.2875859636635525 2 1 1
2032 1 0.45969969283433576 39.04690698456287 13.923806711889723 1 0 -1
346 1 9.512389912097468 26.057125126137397 1.8887399364670443 0 0 0
986 1 0.46370776122648505 41.93050529725615 14.867390082294262 0 0 0
2013 1 15.307895614258365 24.410743761228826 2.588776306263785 0 0 1
2562 1 2.635192840334852 2.0553873465101336 17.352527577880142 0 1 1
2425 1 8.800142491227026 32.9689104430674 3.1851894982296303 1 -1 0
4101 1 12.492613227659811 30.193175241544683 1.7730405031172314 1 0 1
1239 1 3.0224490631252325 47.5167360621123 21.3870770614004 -1 0 1
2977 1 1.7303990222809187 39.25722020249731 0.25222701237293654 0 1 0
2435 1 4.440097621530594 36.958353546184284 3.3130515863617145 0 0 1
234 1 8.822785258227182 36.9051933361512 4.414668137369718 0 -1 0
3494 1 8.652676302705057 26.22763005843564 24.146018720636413 2 1 0
1155 1 0.264789021970531 41.474190052981655 25.265259255372552 0 1 0
1541 1 -0.29851460451127493 8.527671482100972 23.398977584814823 0 1 0
1919 1 15.415059633159776 28.77978598292431 24.165886305432732 0 0 -1
499 1 13.924190962895592 38.829584598442906 2.7787178038549003 1 0 -1
12 1 15.870242111511839 36.881859146172744 2.1037123631601 -1 -1 0
3269 1 0.22375645733244798 24.13911742877827 5.728328349195269 2 0 1
1735 1 16.2016113409395 37.10719275237311 14.36273602494068 0 0 0
2484 1 0.5268121079265068 35.94088224175465 24.67170669144707 1 1 1
31 1 0.3869950001306539 39.567392909171616 16.98749841271236 0 0 1
991 1 4.856370108719434 33.60691393028068 22.35311685751519 0 0 0
1705 1 14.217916401764704 43.13147733051531 2.7877148683260025 1 -1 1
3258 1 14.608240149560876 40.96474719073723 1.0652870813381259 1 0 0
2971 1 5.903843513289107 42.81535091093566 3.609243381281104 0 1 0
2218 1 1.8036488776348323 36.38007635194043 2.1394148819774994 0 -1 -1
689 1 11.535522461543573 43.461086596227545 3.684727423596015 0 0 1
4556 1 13.536676846682173 46.14488777989496 1.5415964709696799 2 -1 1
4234 1 4.190831478945807 6.050055172894706 0.7634817659552273 1 1 1
637 1 -0.27097508555185323 26.727675838178463 15.189357287801768 1 1 -2
2145 1 2.633963942887179 2.8657057097487875 2.931187707329938 0 1 1
3211 1 8.008918999083651 47.878983758722384 0.7804635345890433 0 -1 0
4117 1 11.920127063627987 47.80316299943317 2.7406034304719844 0 0 1
1174 1 12.095894565596003 37.76025212448138 0.737105491902453 0 -1 2
976 1 1.1233780486399685 1.624019017906568 6.783356977381351 -1 0 1
1200 1 -0.12558578167707105 18.543450085743114 18.890178240845113 0 -1 1
3124 1 1.1063844582823725 18.32981716635301 0.7000010962622242 2 0 0
3876 1 11.526141731435507 50.08555481594513 1.5716444680728354 0 0 0
1897 1 1.5100922210722012 18.688451684097863 16.861901942426947 0 -1 1
534 1 15.527475043637814 0.4525837213064852 2.255586066716801 0 -1 1
3723 1 13.070227097807704 0.978634950548302 3.3415297839687446 1 1 1
876 1 17.3833688365356 49.296414666720224 3.71341224778155 0 0 0
1244 1 10.979053210635277 7.945909446149407 2.877293055847516 0 0 1
3233 1 13.544738428190264 49.73849840725943 24.090008492272013 1 -1 0
4354 1 4.771296280778703 1.8127975079463812 1.7199957318886792 1 0 1
3827 1 9.468097718088494 3.7828352281239273 8.190976178695848 1 1 0
3536 1 4.0934520750334835 49.137891628263375 2.0947688699288847 0 -1 1
492 1 12.329403135802147 7.425199610608647 5.029607605566414 0 1 0
1476 1 12.535996725129712 1.2421895391964195 5.879796432231835 0 0 0
704 1 2.621230903819915 4.547620881086596 9.366784909700288 0 0 1
3396 1 5.476305693741716 5.690519337672137 5.671257372862264 0 0 0
4510 1 9.733243024840663 5.945304204771958 6.540192689081298 0 1 0
2615 1 12.692702076488544 4.253460380905667 5.43171434608375 1 1 2
731 1 14.7411716230685 8.137996016217723 4.164273281762771 0 0 0
4192 1 13.20082987075535 2.0976344213467844 25.13930245019661 1 1 0
2065 1 6.02203961685553 35.107001475411295 0.8641272265841301 1 0 0
4521 1 5.032891126972443 10.975187607629172 0.6591640952184137 0 0 1
2770 1 3.4847561964218676 7.835493421606448 5.867699074639943 1 0 1
4020 1 5.856894365090162 17.30381183399642 7.553127844341656 0 -1 0
2647 1 7.4806170829692125 13.172144285137376 4.315361191393735 1 1 0
273 1 11.197296903671122 7.318271790176365 8.910228330272222 1 0 0
809 1 1.890676290870256 11.421780895429713 2.1217543316455973 0 0 1
260 1 5.747925593620884 21.368747758561764 22.71027044031249 1 0 0
831 1 8.340136199620325 8.006278443515528 3.2769150388863535 0 1 1
2815 1 10.816581023846306 9.468671210052667 6.12809483067838 0 1 2
2904 1 13.124947205686443 8.940823789069144 7.841643453452143 0 1 0
3039 1 16.043787570669394 12.572120456267701 8.54019048116589 -1 0 0
3445 1 0.3907987517553021 13.60064330477964 3.730032595425049 1 0 1
3914 1 5.084260658840034 19.084118681686547 1.452385399171322 2 0 1
1762 1 3.375235906007027 16.064755610934274 7.043940276893137 0 -1 1
2920 1 10.088386219584532 14.350222160230322 4.933085180432502 0 0 1
4493 1 2.051892249017251 16.015533887361784 4.898910785558996 0 2 0
3399 1 5.960156986342375 19.438196524569047 5.591866138997291 0 1 0
726 1 9.29130047169762 18.181267890209092 3.300165951862354 0 0 1
3033 1 11.649612266333325 17.787346017119596 1.5916501938423009 1 -1 0
3078 1 12.08364911424831 15.070953209768293 3.1703650974425885 1 0 0
813 1 14.078043603502376 19.340974376342853 4.398788703471333 1 0 -1
319 1 1.8807349020150825 26.495797254701344 24.382993437893248 0 1 0
4010 1 2.012541138416144 25.992267400809382 0.5691484630612593 0 0 1
3369 1 6.691234795612787 17.47316601938092 3.7490966412471103 1 1 0
4151 1 8.95820700140338 20.98381590477961 3.588444607600093 0 1 0
3680 1 12.308171864775723 26.710174722342014 0.7781678005325868 1 0 0
3726 1 13.456845635124697 17.49727992637763 6.582270820244698 1 1 -1
2014 1 0.09876429238620482 28.185666308706637 8.554135059605613 1 0 0
1995 1 15.758428613974601 6.341363785298316 2.4023362858359234 0 0 1
3836 1 4.445562744166664 25.616307351030777 4.751965216947698 1 1 0
1947 1 10.542490845550974 24.25648737440484 4.311044396061922 0 1 0
874 1 1.6487235016929105 42.941797216603376 7.158717835907781 0 -1 1
1973 1 0.2941802245009747 20.47862639865076 22.452264601827366 0 -1 0
2766 1 1.8668096255767805 30.842748793297037 3.948063191630271 0 -1 1
3985 1 4.7147904986482745 27.778212588593394 2.077307745588169 0 0 0
341 1 5.666343901816207 30.312815196502154 2.1828689244153554 -1 0 0
3113 1 8.26544594465479 30.728818386260702 1.3165854881115677 0 0 1
1123 1 13.553533761972089 22.845629630671514 4.69911533074128 0 1 0
1072 1 12.005406366424875 20.38376026208042 2.886995326608204 0 0 1
3595 1 17.11085133207484 32.52384548009397 5.657494316963204 0 0 1
3920 1 0.05927150440278134 48.840064256800304 25.208133999896454 2 0 0
1332 1 1.377908832956033 14.752443799935438 19.104878109267908 0 -1 1
962 1 17.254903658245926 41.80441854510171 18.13118084500538 -1 0 0
1001 1 4.336493666669127 32.79272405768043 0.4573829148955386 0 0 0
3651 1 9.103167858037343 28.910823318080205 3.2096070657384965 1 -1 -1
3943 1 12.131586412742138 30.446106012639568 6.377624897424372 2 1 1
184 1 11.670325852189094 28.63704638152531 4.191065839973499 -1 0 -1
3764 1 12.95468755183608 26.214694385912328 3.769182402309431 1 1 1
1210 1 3.6071257672688835 35.00345407862834 5.412287023579286 1 0 0
1159 1 6.908250739631034 35.17627573576797 3.540388377256909 -1 0 2
3550 1 10.107115375948844 32.776990442946285 5.121891513507685 2 0 1
107 1 7.3003319839251555 34.828655851014105 8.097215727804087 -1 -1 0
2178 1 13.277677535605722 32.95241086814467 2.1651952793414413 0 1 0
1465 1 12.017674107347828 34.7064120508427 5.139368890204222 -1 0 1
291 1 15.018486465326815 30.326971998649025 4.327536210428254 1 -1 -1
101 1 6.191018945518199 50.153493747701816 23.730378706965002 -1 0 0
905 1 5.020158714388402 39.52744677692604 3.182094210570377 1 0 1
2283 1 7.9724817758085 40.87085508727134 7.879232507564262 0 0 -1
1717 1 6.830555031583958 39.00426284342629 6.678928597397281 1 -1 0
1230 1 1.3812289258482513 34.057121835745704 3.632911971997458 0 0 -1
3079 1 11.453181375739613 36.19833364324437 2.959134242601441 2 0 1
4125 1 8.89462058783857 37.16891942248887 6.738037317791699 0 -1 0
1034 1 11.37646042645094 34.84128899576565 9.27017823853776 0 -1 0
2959 1 17.442839456037365 33.129920533953225 1.4226067583740452 0 0 1
1511 1 15.075798732135889 34.40253864315288 3.377163976709061 0 0 1
1955 1 3.7734741091091646 45.09187753725486 1.3821489695720497 0 1 0
2965 1 0.7167202220279723 41.65898992833901 2.0899308248109105 1 -1 0
1365 1 7.233998444416494 40.436568251402164 4.291685743526524 -1 0 2
3474 1 9.159482786844498 38.9308580472171 2.355059253424011 2 0 0
4287 1 10.7031786231294 42.441380721981815 1.3004611572263438 1 0 0
2518 1 11.687744021694773 36.755381177768015 7.141894259934766 0 -1 0
4148 1 13.195689141778931 39.21864610057632 5.871142306083019 0 0 0
322 1 16.627612663768705 12.190532807465454 1.4600479025859474 0 1 2
3831 1 1.846801331831037 45.31094997298743 5.338885295538116 1 0 1
3967 1 2.859693931089477 43.559706747739 3.645690024285499 0 0 2
1215 1 5.647310265154809 47.146055872708985 2.2550683870181496 1 0 1
3151 1 5.169247858599112 46.98049762952452 5.096563195092651 1 0 0
1372 1 9.680392714272578 41.84238021200268 5.5169559829404635 -1 0 1
4131 1 16.40962168795265 42.74655864216497 4.605676241727634 1 0 0
3795 1 -0.06553106878993059 47.10510464030686 4.365703866571492 0 0 1
221 1 3.5608235922911997 49.86968477444515 5.014750808267311 1 1 0
1466 1 8.666879630877098 45.5154166013308 2.1066501187454687 0 0 0
985 1 11.6061553828683 47.67458551420766 7.576250188127805 0 -1 1
95 1 9.609094886846124 47.11240204168773 4.165668781385454 -1 -1 1
3187 1 16.005706923182192 47.06938858663585 3.3372494416343454 0 0 0
4550 1 6.387664844770101 4.079007945699036 1.598640457734427 1 0 1
1850 1 10.508638386764828 19.87156464691327 23.622834347430597 0 0 -1
3885 1 7.221895764793861 1.269429673530473 3.0003642696011847 1 2 -1
3537 1 9.716438060377074 1.465576076230444 6.574680414635886 0 0 1
3157 1 16.426206996589944 50.62297472755907 5.98355912568864 0 0 -1
1858 1 3.4478301669095868 1.5331069364511114 7.312347311038028 1 0 1
4405 1 6.975835135703245 2.503384494840822 8.6143625875822 1 1 -1
857 1 6.589315045383687 50.59499333802981 5.45560495498245 0 0 2
1747 1 12.068308929868325 5.116076417518141 9.736392810010285 0 1 0
1231 1 0.9990701180891939 4.556720969020461 11.40925360455687 -1 0 0
1333 1 0.15975990212810998 7.914806178060405 8.898208572886139 0 1 1
51 1 6.165697397471402 7.5376447866553535 8.162992281092265 0 1 0
743 1 13.793525988055409 3.8008973498026624 7.818145569524027 0 1 0
804 1 16.19314164168941 5.150026977579066 7.86856819407933 1 2 0
287 1 5.488757467256916 2.826651847175991 6.2832952233485555 0 1 1
1014 1 8.108064868028425 8.564851420594982 5.997946239560654 -1 -1 0
2248 1 14.65630190589276 18.55229817896177 0.7261092410377665 1 0 0
188 1 16.38460843936083 26.23749537867679 21.213007420941906 0 0 -1
1218 1 17.021189233751386 39.19393418562717 12.259676949013159 -1 0 0
2742 1 1.7728928602044842 15.515404713681097 9.74729792542548 1 1 1
2779 1 5.047511834620671 14.067553911956551 6.669930332460721 1 1 0
3846 1 6.378213206472339 11.055237133138027 6.0543687618134 0 0 1
3531 1 9.346480452941043 10.940778693193533 8.625102071497714 1 1 0
3880 1 12.668316330543488 13.95025459914544 6.65782585043375 1 0 0
2452 1 3.672636256439972 47.37505290367341 11.330850555447265 1 0 1
3439 1 14.50983882661684 15.627297630597159 4.431928654162129 1 0 -1
3697 1 2.2685407156493125 19.49173526740564 7.863606197771262 0 1 0
3591 1 7.515849211827725 14.769171649883349 7.129847899940787 1 0 0
3714 1 10.488489574889304 17.298236208935958 5.731626585226135 1 -1 1
3784 1 14.398013248225858 12.589354365123475 4.193222167366679 0 1 0
769 1 1.1127939773099762 18.479279111238135 3.379779653947705 1 2 0
1526 1 3.387186810711747 19.815385719362805 5.409783509933902 0 -1 1
277 1 2.942273180269834 18.15144755888442 10.079016625456749 1 1 0
110 1 6.311525807734053 21.270375919585668 7.693986419260068 0 1 2
1474 1 10.182973967453373 20.12370070285497 6.535029308091965 0 1 0
2057 1 10.083337960837158 16.64164037391234 8.191166477019918 0 0 0
1669 1 13.991730874849765 17.149682457202132 10.067938468969459 0 1 1
1817 1 15.147289494931286 15.819881397432823 7.8773306870605095 -1 -1 0
1663 1 2.499374728871214 22.577551688764697 6.086426479291895 1 0 -1
2876 1 7.367059850535703 22.41632198211115 5.505821040707283 0 1 0
1972 1 9.683779044465114 23.51892016924938 7.1292394847326825 0 0 1
2020 1 8.532189604091824 19.593104883287058 8.63592968110948 0 0 0
1658 1 11.321452031817687 24.32802792408326 10.141720111777841 1 -1 0
1958 1 12.734017934045657 20.104841965212643 7.99313154389907 0 2 -1
4507 1 0.12490086886229051 29.30596099580461 23.335778594161624 1 1 1
3457 1 2.127176630735509 24.238310269980982 2.9635159166917204 1 -2 0
1596 1 6.058018741744302 31.206850235154846 4.78762207319916 1 0 -1
4601 1 9.950534887432903 26.634698686055252 5.820795222141353 0 0 1
1434 1 12.493670890197295 23.065327892322287 7.256573780074289 -1 0 0
3465 1 1.9942531233521925 18.929956243658967 12.337449575986165 2 1 0
2090 1 1.0222593194722536 33.28745583902331 6.891907025103481 1 0 1
138 1 6.0737786286284505 33.682878458210965 5.935759166728124 0 -1 0
3807 1 3.6422673785696933 31.129831815804366 6.094264957597523 2 -1 -1
2094 1 6.691177518949025 27.26440497553915 3.9749152938323387 1 -1 0
4164 1 15.177537332673209 26.040499108789952 5.807839792821552 1 0 0
4042 1 6.767372353364308 36.997534910437466 9.797035504129944 1 0 1
2272 1 0.9721934973988757 36.544420932875624 10.246830531605188 -1 -1 0
1350 1 8.395551445869915 28.009626498799765 8.001483630352523 0 0 0
2544 1 9.275946207472515 31.139447998465727 9.229082858788336 0 -1 1
351 1 8.944532551480249 50.52143496809633 1.3535210817231644 0 1 1
3552 1 2.0452459562220735 36.55076867702185 7.318034729910548 1 1 -1
1945 1 4.671471699744069 27.544278162433493 23.99286605011261 0 0 -1
627 1 8.720771062867987 38.75573302354094 10.228650501961177 0 0 0
483 1 14.361054807887239 33.495820676961955 8.825973427410753 0 0 1
1370 1 -0.22699055238530397 0.5606325642840716 21.874058687101776 0 1 1
2710 1 9.64611832092434 33.69843850301709 7.757491535596377 1 0 2
626 1 4.7006282042585825 37.43681889590823 7.4665216729975405 0 -1 0
2157 1 10.912647139167698 36.21020951156093 11.708145205210716 0 -1 0
3890 1 13.911538204654228 33.14604487263475 5.872493706439448 0 -1 -1
1019 1 2.952217707211898 40.5801688185294 4.221195561456964 0 0 1
4311 1 5.44393833186927 42.387759146840224 7.918184942581116 2 -1 1
2203 1 11.185045947287456 40.27799315707017 8.201956449655597 0 0 0
1139 1 14.251420005137568 39.35287924118549 11.652602504260495 0 -1 1
167 1 12.007456907136351 42.44227232411964 9.75874093040502 -1 0 -1
3176 1 11.89033858690861 45.70120788513455 9.542229594038737 -1 -1 0
395 1 6.308060047550122 44.26773110356244 5.81205658017852 1 0 1
4002 1 8.800041709063132 44.765398032328534 7.227522288188048 1 -1 2
532 1 11.491683324178025 40.12501720145782 3.1952989866266117 0 0 0
3919 1 15.490558261742002 36.51160217223537 6.3134157306482726 1 0 -1
2934 1 2.540590097849645 44.205447372934756 9.221204270568874 1 1 2
878 1 2.725844256096619 47.48505338744505 6.670833717467128 0 0 2
1532 1 8.08731623627732 47.12848871599351 8.66940846534828 0 -2 0
4559 1 7.428327220976257 48.1844710565686 5.639540492789871 1 1 0
1323 1 10.73309406505115 45.52716755194757 5.703391278967496 -1 0 1
895 1 14.326132745090833 44.23229629791764 8.78383567988588 -1 1 1
2730 1 14.153219897694058 47.168037956214576 4.869194306370519 -1 0 0
2123 1 13.184343681739666 42.166937444922524 6.284855770238277 1 -1 0
2498 1 14.752502657544323 44.64830270150101 6.169418876444879 1 0 1
3497 1 3.9267930369228914 1.1100699289683156 9.972175946085423 1 0 0
3394 1 9.634685483941286 49.299671858314 7.246727571749215 1 0 -2
873 1 13.715607466128251 49.250202308929644 7.049403346332592 0 0 1
426 1 11.567713692995518 49.86076096479536 9.99152229639967 1 -1 0
2127 1 15.277080593739615 46.830335472333886 9.562856503469765 1 -1 0
566 1 0.308736536676804 20.699424993826252 15.374646865120589 0 -1 -1
3878 1 4.626181250190229 5.215350169761222 12.253458977583657 1 -1 1
1752 1 3.096803505621144 1.2911704975006997 14.51344311392544 2 0 0
2309 1 5.441789118174807 2.4522485588669336 11.771750826028901 0 0 1
4560 1 8.215800793140719 1.8613361832095097 11.966798317663798 1 2 0
644 1 15.59911280784276 49.70779042512045 9.570607923043301 -1 0 0
163 1 3.0872986629013064 7.391826908493381 9.032326082341655 0 0 0
1740 1 5.524442709570153 5.007922642702325 9.163465823162545 1 1 0
917 1 6.029770919918604 9.612799725145448 11.354503707310803 0 2 1
3817 1 13.568973059067412 1.3672151480308374 9.104656654690263 1 1 0
3014 1 16.472335420245777 2.732204693838617 12.219539223469349 0 1 0
4244 1 0.6601952846142749 10.722246604639095 8.205317284106274 0 1 1
3449 1 2.392589100781335 8.552591037227703 12.533199546024388 0 -1 0
3570 1 5.326117710892889 11.579464616198765 9.502117462065415 0 -1 -1
3593 1 8.23948718757056 5.14513506121795 10.777113044393701 1 1 0
1468 1 14.59372507367316 6.840748636022674 9.451508537847188 0 -1 1
4438 1 15.384580048020053 24.024269349362033 21.92473750476355 0 0 -1
89 1 15.039981910247452 6.838027537959179 12.05942025116302 0 1 0
1904 1 17.160726880551046 8.237137368715665 15.52823112063085 0 1 1
778 1 2.11487279420093 12.892585156403886 7.921313304238357 1 -1 0
571 1 3.994769145665069 10.558615194293251 7.677174374358292 0 0 0
1857 1 11.056437066839054 9.744558936460573 16.802226012676574 1 1 0
1049 1 8.517131109064529 8.086489643750078 9.780886642575224 0 0 1
2832 1 13.410706742139373 11.730126200803562 7.552941556651843 1 0 0
1295 1 15.35470431994405 12.208152699866957 12.5611226383017 1 0 2
3412 1 2.308109452230427 35.00216098318748 22.379366742422825 1 0 0
661 1 7.58996377847347 12.728143437380368 9.238649697707848 0 1 0
3004 1 5.400018188363649 17.47352555353295 10.27570409457204 0 0 1
3310 1 11.6439634191335 10.101224941003332 12.024029628414254 0 1 -1
1968 1 11.803142360983399 11.68202878446724 10.025564397572944 0 -1 0
3903 1 14.788516106827228 15.805145202571522 12.832329993807344 0 0 1
3172 1 1.9323797582950966 34.23318817777259 13.267171189612826 0 0 -1
4236 1 5.2796078784427305 23.28104624051786 10.06279981673911 0 1 2
642 1 8.295020454886972 17.83603750530558 11.12567347806747 0 0 0
767 1 8.569001714879311 14.881132803949102 10.973605437484778 0 1 1
521 1 11.33923864792107 14.500275757899418 9.213703536747838 -1 0 1
892 1 5.107983674062548 24.257936479935406 7.035869517617885 0 1 0
244 1 6.29654101577981 22.75347687706255 13.017356289370383 0 -1 0
2660 1 11.337617988624737 16.915986037443094 11.475270069185594 0 -1 0
3983 1 11.934881813361255 19.934703579120182 10.582520622374464 1 -1 1
4607 1 14.286093693482186 19.48916668557518 13.848554955935901 0 0 1
256 1 7.7502812056263615 24.753904302344463 8.955926599561586 1 0 0
1936 1 9.991079185387468 21.697044438129574 9.978627687047034 0 -1 0
255 1 10.837883994187855 24.31901099540405 13.728978941476909 1 -1 0
3892 1 13.88544613612491 26.291423887594963 10.387768434188041 1 0 -2
398 1 -0.2855961709616514 11.068741548856158 20.39714504713578 0 0 0
614 1 13.337361936829716 22.498731804409946 11.619198363730408 -1 0 0
2936 1 0.12029520327662613 45.18322103299876 12.94804717268398 1 0 -1
2696 1 8.299401900570565 25.427149991800924 11.467795528511717 1 -1 0
4274 1 11.19832249190669 26.47765868212506 8.170994182754306 0 0 -1
1642 1 4.827534784963484 30.109933643301996 10.974442916739335 1 0 1
3935 1 9.478490982132657 28.224585503602633 10.660988954965845 1 0 1
953 1 14.643023886160554 24.491021363644503 8.189782033780173 0 0 1
4403 1 14.88995201921135 28.6363151473294 6.516090533438134 0 1 0
3128 1 6.2282738641933895 27.207722541428247 7.198744153853589 1 0 0
4000 1 3.399799817667389 4.123501327958808 24.08951257936016 1 0 1
3307 1 8.581657541865098 30.642672737887708 6.285703460910184 1 -1 1
2665 1 12.248637909186808 29.318822597777437 8.889792236338897 0 0 0
2151 1 10.707821825855474 33.88686604436046 1.54043132217735 0 0 -1
52 1 5.8721665364599085 35.535869993251055 11.934704491801591 0 -1 -2
3085 1 5.668298251706961 32.89397041811978 9.416645365758379 1 0 0
1637 1 7.528443946891102 31.37387161869509 11.178225230672865 1 -1 1
2844 1 10.709043874257592 39.595246090096055 12.63199173675479 1 1 0
3201 1 12.35941553633463 34.44109904335534 13.688932638377102 1 -1 1
4145 1 12.062235825388916 32.01543453132224 10.056269846311976 1 -1 -1
3456 1 14.465799915067372 28.76255039250383 0.4189525698721609 0 -1 1
2421 1 2.607282364676906 38.48583059895023 11.821109058167028 0 0 0
3133 1 12.043981099377067 38.39725420713722 9.931011687822684 0 -1 1
2321 1 6.912249835041623 41.06582993601086 11.166125725215155 0 0 -1
1982 1 14.93892742568269 35.30019155450911 12.752695173519236 0 1 -1
686 1 1.467940856556609 14.645950799320437 23.17535131424245 0 1 0
180 1 17.29191304289172 47.922374226928696 25.02650321569338 0 -1 -1
2894 1 3.722500336309432 40.710400313415434 6.707652090997578 2 1 1
4183 1 6.266282650998327 41.145676276475285 13.72521085723782 1 0 0
275 1 9.063206983298322 43.22095947847184 9.341903494387143 0 0 0
2480 1 15.068111135825069 41.475657074284115 9.984322997297179 1 1 0
550 1 15.137836408641164 24.68961172737661 12.207802246759272 0 -1 0
1591 1 4.371510445654503 40.43657832212659 10.45785301679543 -1 0 -1
3861 1 15.972776075572565 18.632784520386938 11.479590872724739 0 -1 1
1891 1 9.05539169684966 48.09551485618289 15.232350982226567 0 -1 0
1622 1 15.484830597016954 43.091140757917756 13.809641141528804 1 0 1
4006 1 0.6531958259605839 44.01408055350163 22.8372097906776 2 0 0
853 1 6.110497035985328 25.305443374328302 23.413318247105522 0 1 0
2019 1 5.263063365102844 44.6529320128582 9.330861462810192 0 0 1
667 1 8.158862902067135 43.39400934375986 12.25978420106856 1 0 0
1390 1 4.799000590117128 47.75802960320155 8.768779976748716 0 0 1
1875 1 5.652817298675216 48.76480326065925 13.242209134375534 -1 -1 -1
4387 1 7.981478587135246 47.82360908292982 12.25136717049873 1 0 0
4568 1 -0.2858660884082056 9.25407540248808 17.134423148526942 1 0 2
3872 1 1.5058735240287304 49.700737641923965 13.854715476160132 1 0 0
4242 1 6.162650038080398 50.16943492035537 8.764577575102217 0 -1 1
939 1 8.457854374081451 49.86554797349049 10.28595419999477 0 0 1
4206 1 12.822404322679908 47.66995484377331 11.435799501162563 0 -1 0
1196 1 14.080971353173913 49.93173446423282 13.17255489563717 1 1 0
1879 1 2.5600601208105007 43.56748947355723 24.977394002459647 0 -1 -1
4263 1 15.423549370734055 28.551929695416092 9.542696032351751 0 1 1
1278 1 5.467503864473002 0.8586101464648968 13.72632317466332 -1 0 0
635 1 7.007933678251527 5.208473501824108 14.034743733433805 -1 -1 0
1452 1 10.795895926427681 5.472957680053391 14.002821298850956 -1 0 2
4398 1 13.432567711701582 1.8642004947565685 11.642799491018465 1 0 0
1292 1 16.73143923415688 50.35211149971198 11.845770485398582 1 0 0
2141 1 0.8792793864438606 31.995526872614107 1.4663080112875109 1 1 0
293 1 5.291131190155544 3.335591556263813 17.476025839099684 1 0 0
35 1 4.361053825989985 7.885335682762501 11.216975485274656 0 -1 0
3262 1 8.928744590694462 8.235395839459974 16.253433406359413 1 0 1
2374 1 8.804270164187324 7.24085526722272 14.008540119088067 0 2 0
2322 1 12.451729077239216 7.332098659049441 15.745014634611959 1 2 1
1506 1 10.65600939971428 3.8425266736716472 11.802677265612948 1 0 1
2679 1 14.037852192923854 2.6082536344510157 14.434231047310513 2 0 -1
1491 1 14.4148386856548 46.01436559266979 21.687973334459116 0 0 0
514 1 5.7077626328969595 11.349004781067032 13.234906936148736 -1 1 0
1890 1 8.877445261280307 9.593982590661087 12.602808663604126 0 0 0
4324 1 14.270623661085624 9.625417797425069 12.760911096362872 2 0 2
1721 1 12.534645129087213 6.1589360893501555 18.44730033057853 0 1 0
1859 1 14.013945825754524 5.315003538558403 14.35989689115726 0 0 0
4342 1 0.1699564384480623 13.733546526722757 12.074445977725025 1 0 0
4032 1 3.1897416515202974 12.996891284081135 10.864382640180526 -1 1 2
1887 1 3.0808524205300833 11.191862646208877 13.360639163965304 1 -1 2
2035 1 14.542980655346062 9.394433348593054 15.850454901416068 0 0 -1
1177 1 16.332154343359765 9.813184492746718 19.007262798168735 -1 0 1
3278 1 13.795988965852844 13.931148253561757 10.953698736786 0 1 -1
4292 1 1.7561639816628638 29.0116823739685 0.27629900644673744 2 -1 0
1797 1 3.024982326004166 24.090051488598842 14.483737344813267 0 0 0
3376 1 3.766179570863086 16.647262309082063 13.2755610849727 1 0 1
1703 1 11.441462432738774 11.058837689413796 14.820138877392248 0 -1 0
631 1 9.482012629058827 13.073557800837913 17.669229724501257 1 0 -1
1191 1 12.048158179224902 13.893630633513474 15.492564983241381 1 0 1
1556 1 2.672190389928166 23.186546180824017 11.126551933316733 0 0 -1
1414 1 3.758983174680142 14.115855041032173 15.426209498089579 0 1 1
4024 1 7.316788866914483 15.175966195686112 17.79389995201624 0 1 -1
1011 1 9.697807646459347 14.789050474691493 13.560912378266135 0 1 0
3010 1 12.28142743644531 16.384676772448113 13.981604833758166 1 0 1
1091 1 15.114171330994 21.704970414084162 16.743540222218954 1 -1 1
2997 1 3.123890399062016 25.712331180301664 8.854574303586453 0 1 0
3487 1 6.378092106519465 18.090087611133402 13.350879891637364 1 0 1
754 1 7.745391537958552 16.597582693295095 15.160380766781824 1 0 -1
43 1 13.716497779429684 17.6392001678628 16.064585098028886 0 0 0
1519 1 12.627676874796322 6.970924244542781 0.7627596131171007 0 -1 2
912 1 1.844397012397859 27.33862042167396 6.145216069199278 0 0 0
69 1 15.076422826737755 43.851877316817095 23.593594108098344 1 0 0
4251 1 3.481739994180491 19.36804975210035 18.94119952141965 1 0 -1
4112 1 8.917731376770725 22.69440665325576 12.40916344191523 1 0 1
2999 1 4.135749161579667 27.393307849126714 10.724273273450022 0 0 -1
2565 1 12.07365881636962 20.936788555425878 13.78407967417976 0 0 0
3023 1 3.5293969160662253 28.89380386062763 7.811332724319505 0 0 1
2457 1 11.070256166540826 30.604102029395296 14.304849928883632 0 -1 -1
2604 1 11.624051860808226 26.80338621634388 12.163692778816728 0 -1 0
3232 1 12.348819462911571 28.10890122735248 14.362758887718998 1 -1 -1
3857 1 1.7832026446917362 49.741099724360026 10.900319793132432 2 0 0
3448 1 1.6385416741965186 27.85732141668298 12.445714995705938 -1 1 0
1719 1 2.668885522747392 31.9858529535221 9.081302597352217 1 -1 -1