LAMMPS data file via write_data, version 29 Oct 2020, timestep = 100000

8507 atoms
1 atom types

0.5169828032625077 104.1891937924121 xlo xhi
-0.19836945412453133 50.46682665461927 ylo yhi
-0.19836945412453133 50.46682665461927 zlo zhi

Masses

1 18.015

Atoms # atomic

448 1 3.095929917876025 0.9363852511308892 0.5077482644758444 0 1 0
457 1 4.737611292295507 2.4045112789054204 1.8818672645868664 0 1 0
459 1 9.653827386026151 1.1149310960344987 0.5830294751009816 0 1 0
460 1 11.332227068505182 2.4761698260629563 2.0468312097645858 0 1 0
463 1 17.684075313995496 2.2386978361782295 2.3189058800701865 0 1 0
462 1 15.745466930644385 0.581445650830478 0.8513696175320529 0 1 0
1131 1 22.30343488859701 1.2120610402639513 0.3352957177147178 0 1 0
1132 1 24.014383771127022 2.3929403733993513 2.132409839664278 0 1 0
1127 1 28.87174715091719 0.8543394710010621 0.7307215416306779 0 1 0
1134 1 30.450096575938897 2.602698224666959 2.206934321603413 0 1 0
1130 1 35.03235478112604 0.7514798156442334 0.7876953216547689 0 1 0
333 1 2.201485428767756 6.166985386573957 2.5572943481640307 0 0 0
334 1 6.714227155439356 4.813066566526148 0.759254880003543 0 0 0
336 1 13.245237753751411 3.6405941493594716 0.5741187991832231 0 0 0
337 1 14.707798203608018 6.158456109597561 2.593254239571683 0 0 0
739 1 19.08256362838092 4.6181170388405945 0.6248528521043787 0 0 0
1028 1 20.820665184185444 6.218304993447285 2.2807413623781763 0 0 0
1031 1 25.989656935888746 3.640660238556718 0.8667316274988346 0 0 0
1033 1 26.98788558775115 6.146372790736935 2.265258021559608 0 0 0
1136 1 32.20770845283933 4.988167625739591 0.8122830155283864 0 0 0
341 1 3.6889155526160047 7.574719181161587 0.8217281165205532 0 0 0
344 1 5.1498537883560696 9.269450328655738 2.4021644239725033 0 0 0
469 1 8.507067121550794 6.403685264695715 2.109667951291237 0 0 0
345 1 10.005866750019278 7.73967682035997 0.4297986745256045 0 0 0
476 1 11.363628521406646 9.390749962844664 2.0656441937112664 0 0 0
339 1 15.90404827690963 7.994640718459992 0.7558922876953622 0 0 0
349 1 17.583333982532913 9.227726994069586 2.7056898065270074 0 0 0
1029 1 22.186770905288853 7.717061458951578 0.548489619773854 0 0 0
1039 1 23.937515192995704 9.03993305399986 2.0681215127286126 0 0 0
1034 1 28.549331290054308 8.239412667966088 0.8240057198822432 0 0 0
1035 1 33.348814980978766 6.283204361972567 2.5663471111281573 0 0 0
1036 1 34.70373636479617 7.985457594444492 0.6795897201678227 0 0 0
351 1 2.1327529892401857 12.42172592616966 2.561035131002471 0 0 0
343 1 6.634259600187518 10.372580731858926 0.11908030912438589 0 0 0
355 1 8.066627959382679 12.116242104482696 2.080090694366468 0 0 0
348 1 12.811492140374073 11.09043209695688 0.7515883731745076 0 0 0
486 1 14.842889477369699 12.226495262275106 2.3085289792804033 0 0 0
834 1 19.344223808977222 10.415483067915625 1.2100806681602432 0 0 0
1038 1 25.02594039886564 11.058720585904 0.8513202280850314 0 0 0
1046 1 26.93944944744043 12.505904789357709 2.104144213298102 0 0 0
1041 1 30.406802813445857 9.454656800580675 2.3808021689443017 0 0 0
1042 1 31.798206966945806 11.276629709255513 0.7175251461938684 0 0 0
1048 1 33.70906620247214 12.508378072486503 2.6631463314543655 0 0 0
350 1 3.3119096628536857 13.748544411057175 0.6099653242075938 0 0 0
360 1 4.882222099301871 15.309231000113476 1.9408852085405015 0 0 0
354 1 9.58944987191493 13.882389031004184 0.6319942431083294 0 0 0
362 1 11.388861197052833 15.366516806702156 2.206055972455415 0 0 0
357 1 16.06173047205771 13.78597983742257 0.7810934756655135 0 0 0
365 1 17.741044780620044 15.459815018412208 1.917570871641662 0 0 0
1044 1 21.053701398646126 12.628292921467034 2.591996192294222 0 0 0
1043 1 22.185255454566384 14.195643373736766 0.6971419864694499 0 0 0
1050 1 23.772876241763782 15.488308727089764 2.2822597132712272 0 0 0
1045 1 28.4367109777036 14.30320713813749 0.7715102310313076 0 0 0
1052 1 30.137601948461423 15.50842413699567 2.6209379317898565 0 0 0
1407 1 0.5741990834443939 29.736571632886367 19.626858574963826 0 0 0
368 1 2.2988951637308497 18.641351200668417 2.0057828269971143 0 0 0
359 1 6.724219532144578 16.89529204134035 0.6709943797816141 0 0 0
370 1 8.149019971538607 18.8193336270402 2.2059890937595736 0 0 0
364 1 13.16471357756903 17.16759283895069 0.6648611011721506 0 0 0
372 1 14.623051030517775 18.67607311932904 2.3090950736915477 0 0 0
787 1 19.30371359853343 17.175248825764626 1.1009850409700037 0 0 0
1049 1 25.29785998066421 17.013466523401245 0.8437922504599573 0 0 0
1060 1 27.233915322062835 18.48934387154729 2.0863684174342776 0 0 0
1054 1 31.424481962962354 17.28898381758513 0.988259110641222 0 0 0
1419 1 0.5733123227142353 26.162695775711782 16.101739460311773 0 0 0
367 1 3.9781117636636756 20.21205217961057 0.06067165821677967 0 0 0
378 1 5.165184497493989 21.70693171121837 1.9556370386625668 0 0 0
371 1 9.768793619058078 20.44423175367204 0.43735626930963956 0 0 0
507 1 11.23554584428729 21.705959975556354 2.1523019640465724 0 0 0
373 1 16.203988610584737 20.117676750315464 0.398810353430045 0 0 0
509 1 17.81566578380221 21.776568724746838 1.7307664952527424 0 0 0
1056 1 20.707878137260813 18.98850719648336 2.395911169036745 0 0 0
1055 1 22.39582947883234 20.33649902210976 0.5181569841764213 0 0 0
1065 1 24.34609317931613 21.725450563267092 2.2148166724675495 0 0 0
1059 1 28.650969370241352 20.552947911239542 0.8379347556485492 0 0 0
1067 1 30.16548086316172 21.989021118741316 2.7973401801210644 0 0 0
1062 1 34.899743211458734 20.197610240172224 0.7283146730148264 0 0 0
41 1 0.9313376193563132 23.384243283096822 0.5198156897348886 0 0 0
384 1 2.2080187210067974 24.53289994015631 2.1732922699953954 0 0 0
376 1 7.0722518469873625 23.581150231481974 0.5196314733047479 0 0 0
380 1 8.945177001904849 24.835668276535966 2.011410632188417 0 0 0
381 1 12.710202247825457 23.192256322609474 0.43829886846955424 0 0 0
389 1 14.152655285907894 25.005923740239247 1.9716443266984602 0 0 0
104 1 19.244354993164013 23.705435789259866 0.4599984209418283 0 0 0
1070 1 20.96665753980735 24.920840250847725 2.243927302102616 0 0 0
1064 1 25.66218598303411 23.312976363767003 0.6182195940703687 0 0 0
1073 1 27.05966615317356 24.66945788837503 2.331055869927315 0 0 0
1069 1 31.450581409169647 23.051941564702563 0.8556331988701387 0 0 0
1076 1 33.10105536033066 24.588696895067493 2.3749305804786274 0 0 0
383 1 3.417757944613297 26.13873086738835 0.7248012949278861 0 0 0
387 1 10.280522869662992 26.936180650564562 0.7247785466189864 0 0 0
391 1 16.250714290807437 26.794346201755893 0.68695011099719 0 0 0
392 1 18.343654844637562 27.747428179549132 2.612002322657617 0 0 0
1071 1 22.31733561307342 26.471612318182196 0.7432693157365445 0 0 0
1072 1 23.790571623107937 28.01141079749082 2.20147880633713 0 0 0
1074 1 28.680884952200675 26.270615551099446 0.6948496277870416 0 0 0
1177 1 30.094816957614782 28.18336108531357 1.99143419902015 0 0 0
1077 1 34.95724967412735 26.073435776123382 0.642538504848586 0 0 0
126 1 0.6326343076728119 29.499080649225824 0.7918282135474736 0 0 0
395 1 2.1131750305592254 31.26060634578543 2.3810368933019586 0 0 0
396 1 6.584605921145026 29.390994418134174 1.4329574390919726 0 0 0
405 1 8.086783187700352 31.34869334698742 2.32263262587601 0 0 0
513 1 11.492082328421048 28.437540786719545 2.5540888862630586 0 0 0
398 1 12.76053022730375 29.77493308172045 0.8288014140301454 0 0 0
408 1 14.365043280427678 30.89034561526862 2.3241284719881627 0 0 0
928 1 19.28585169040716 29.517351646635024 0.6585435959335729 0 0 0
1080 1 20.809831671963664 31.132451653799073 1.8927707563783396 0 0 0
1081 1 25.348017402434515 29.63177310588219 0.9208824540285616 0 0 0
1084 1 26.86285039624231 31.089206885471505 2.4085804381767213 0 0 0
1085 1 32.11165434070059 29.70171347023576 0.27753160618327444 0 0 0
1086 1 33.66180035572553 30.895308830819697 2.006216853072418 0 0 0
401 1 3.4185549134166493 32.74969220878533 0.9818185564377973 0 0 0
402 1 4.968931747891121 34.244955584444874 2.2311307670812903 0 0 0
404 1 9.750055610828136 32.791450044868384 0.5937006051015773 0 0 0
406 1 11.615564093587428 34.2547669281841 2.4680266924964727 0 0 0
409 1 16.156402327914215 32.61568155347618 0.7254320238473376 0 0 0
410 1 17.88704958287242 34.08797147897996 2.1070184928770415 0 0 0
1088 1 22.554466880347967 33.05700219841083 0.5867734459278799 0 0 0
1089 1 24.083651250724547 34.06733890592271 2.308389153811728 0 0 0
1090 1 28.335003492932824 32.86789771473877 0.8017421941230403 0 0 0
1091 1 29.973725388129015 34.200992601046934 2.2664528378982953 0 0 0
1093 1 34.971417831695966 32.83868867890034 0.8387106512411107 0 0 0
412 1 2.449284323364454 37.6661867851564 1.9185654877929514 0 0 0
414 1 6.881990999499096 35.54860729673306 0.929268503573123 0 0 0
415 1 8.401976292980915 37.504986600071334 2.4492140376120504 0 0 0
417 1 12.661811231959657 35.70745924473223 0.528674191054048 0 0 0
418 1 14.358177142297626 37.1410836400527 1.8957578496858072 0 0 0
196 1 19.067114560167298 36.221709236371154 0.9342543574907942 0 0 0
1094 1 20.8694210363405 37.61159603835542 2.5248802994210053 0 0 0
1096 1 24.924191279031284 35.852168120265766 0.3873443503390469 0 0 0
1098 1 26.568901076170814 37.29605505352476 1.998370069274905 0 0 0
1099 1 31.89285840371375 36.00748082324167 0.8544597718048355 0 0 0
1100 1 33.33884506367626 37.20775948008938 2.615172080860761 0 0 0
422 1 3.7200969968553657 39.354562847061985 0.6055885780307512 0 0 0
423 1 5.586833414289723 40.83680503175021 2.257110010944273 0 0 0
425 1 10.096643584348023 39.096239701727185 1.1174763567419934 0 0 0
426 1 11.905438170693401 40.74083359964921 2.515659230112577 0 0 0
428 1 15.835239680033416 39.08309123166853 0.9834846443148273 0 0 0
429 1 17.905554813668658 40.847202379214515 2.5164788857644163 0 0 0
1103 1 22.05157682214784 39.01766158303473 0.49226010264062847 0 0 0
1104 1 23.716621687064496 40.4782145163485 1.9991881021400988 0 0 0
1106 1 28.362264427681552 38.53760765885694 0.3891972783028561 0 0 0
1107 1 30.054241663634144 40.64896556824096 2.1645201866779753 0 0 0
1109 1 34.61224654377138 38.692674502757434 0.914842324388367 0 0 0
116 1 0.7167505260558372 42.25256242840469 0.6956028440487334 0 0 0
544 1 2.1420442815190825 43.790871486299736 2.2911812592084297 0 0 0
431 1 7.306980844184269 42.53110407481812 0.9059685035055005 0 0 0
433 1 8.810716803485015 44.18484619468925 2.5372661545883206 0 0 0
434 1 13.117408225939535 42.514663486672085 0.9794411167401675 0 0 0
435 1 14.63498107952662 44.13752249751984 2.4800608510641426 0 0 0
749 1 19.383464454143052 42.227219929384674 0.7266035036107192 0 0 0
1110 1 21.0858199794664 44.14620946110127 2.0192689351192823 0 0 0
1112 1 25.53867872197633 42.32019266848083 0.44549257518745766 0 0 0
1114 1 26.90778412256564 43.927673059356856 2.4617603417177953 0 0 0
1115 1 31.850610946761165 42.43091729129021 0.48706508735096055 0 0 0
1116 1 33.35611088420507 43.75679295022415 2.473184299761695 0 0 0
439 1 3.401048408303687 45.56123922365488 0.8598836428030925 0 0 0
440 1 4.751609192364471 46.94210392702555 2.4463251221766225 0 0 0
442 1 9.98061587368411 45.785654620342406 0.5921349342101172 0 0 0
443 1 11.20427834503568 47.12305655695866 2.2292609228129403 0 0 0
445 1 15.963056536094722 45.43274246871894 0.6822531933806992 0 0 0
446 1 17.463490372430787 47.21384079684284 1.8779008392333232 0 0 0
1119 1 22.59975460242705 45.75035700003557 0.44609501205455426 0 0 0
1120 1 23.957680010275038 47.17581481744334 2.3932925343678932 0 0 0
1122 1 28.38185135857457 45.39845158737227 0.8769946671360886 0 0 0
1123 1 30.48978459669366 46.808983969742165 2.5172434364571914 0 0 0
411 1 0.5933882883591015 17.116487293270897 6.459180437122842 0 0 0
447 1 1.6590733657899563 49.96726562936593 2.194965165548073 0 0 0
84 1 0.5706343571206157 36.13248653057964 0.9536538796377796 0 0 0
450 1 6.324582088084092 48.72211254684124 0.8513521063307781 0 0 0
560 1 8.12805223879868 50.277655690823146 2.2003893372891246 0 0 0
453 1 14.271706585386688 49.879466645495725 2.2764810993798092 0 0 0
452 1 12.493754353338643 48.799857866269925 0.5090079468572155 0 0 0
1124 1 20.904667005074117 50.048387419707204 2.235107096959477 0 0 0
1117 1 19.615390610539986 48.324708815739044 0.6293272922353014 0 0 0
1126 1 27.32355772586945 49.865617759987366 2.2484614155417653 0 0 0
1125 1 25.451228774859096 48.64774152825266 0.89253857015024 0 0 0
1129 1 33.76330259458321 50.00090690957377 2.4026503419842773 0 0 0
1128 1 31.999862424399076 48.5367771345061 1.0865411287058309 0 0 0
566 1 1.6116578240598098 2.656860083358462 5.651779250509532 0 1 0
567 1 6.626041011846761 1.1455189545666944 3.8893394642643617 0 1 0
568 1 8.546431196813257 2.47448765416704 5.361587473918967 0 1 0
569 1 12.832831606899624 0.676223003987522 3.5490679038660993 0 1 0
570 1 14.455692684543894 2.543401934475712 5.062806752237351 0 1 0
917 1 19.44976028311286 0.879963182570763 3.885290143166264 0 1 0
1217 1 21.221536951130904 2.4181203278107426 5.405794508266503 0 1 0
1218 1 25.658726517880652 0.696866096332433 3.7714450998356353 0 1 0
1219 1 27.40201406312449 2.545663963528179 5.123071111022999 0 1 0
1215 1 31.960476885097336 0.9193974287790574 4.1108984187760536 0 1 0
1221 1 33.314642624824515 2.6306333538082187 5.549842146946231 0 1 0
466 1 3.637391503271054 3.9196856762496113 4.124830899854346 0 0 0
471 1 9.973768708319191 4.7367670267630855 3.801275525326829 0 0 0
473 1 16.452153822550162 4.692489047511958 3.885025528756568 0 0 0
1138 1 22.54066173744697 3.87080291621307 3.669981249719476 0 0 0
1220 1 28.747804772678705 4.844454304172601 3.5952442691999216 0 0 0
1141 1 30.34390112529442 6.027813515735851 5.457031889845572 0 0 0
37 1 0.5277464555133164 10.636937684541932 1.0316510071191896 0 0 0
2569 1 30.271156065876095 49.93501808071592 24.094999173799152 0 0 0
467 1 5.0560872589387555 6.267054284611031 5.627420251795758 0 0 0
468 1 6.655553997368865 7.706795825103905 3.787611643673261 0 0 0
470 1 11.479271218386947 6.3699794512427355 5.171092573382411 0 0 0
479 1 12.955407031813667 7.837927241167828 3.680194676143658 0 0 0
480 1 14.608193213010553 9.38596054362563 5.652991296764849 0 0 0
472 1 17.94389413080132 6.354531609572386 5.661104663970725 0 0 0
1376 1 19.724849730150368 8.005467198640327 4.060261905239923 0 0 0
1139 1 23.94898747318955 6.559143745258537 5.333190626124408 0 0 0
1140 1 25.630727706906605 7.683150886060548 3.6958335369747806 0 0 0
1146 1 27.023650297942925 9.092786822672792 5.742316611984862 0 0 0
1142 1 31.784908500868816 7.878840937015273 4.065943255884318 0 0 0
474 1 1.9694174891633354 9.504520535067703 5.413913169444419 0 0 0
475 1 3.4598186876499404 11.047945600242434 3.996061292517866 0 0 0
477 1 7.888099377761494 9.652187318240246 5.298571292038849 0 0 0
478 1 10.060092716721483 11.044726302700177 3.851621667948055 0 0 0
481 1 16.009829554567958 10.70124774858311 4.049849577861572 0 0 0
488 1 17.245335687766723 12.440669266033314 5.550000065675572 0 0 0
1144 1 20.854258113948756 9.770367352748654 5.557912610378705 0 0 0
1145 1 22.455202879284666 10.89640144077989 3.701986949813661 0 0 0
1151 1 24.07532675497083 12.295158096254099 5.595162724713198 0 0 0
1147 1 28.457649732018787 10.611940781478479 3.7009890923941833 0 0 0
1152 1 30.115312717719853 12.390229795156978 5.492437218315268 0 0 0
1148 1 33.56931701099218 9.459884886212183 5.634850895190848 0 0 0
490 1 1.966830294772892 15.391797102354838 5.164629192565213 0 0 0
484 1 5.002112441345629 12.739132059168805 5.499477292550837 0 0 0
483 1 6.687415083767224 13.910629939122822 3.904736283277411 0 0 0
491 1 8.3385060198008 15.452905501827539 5.5738677750736265 0 0 0
485 1 11.494219863277472 12.580319239639536 5.542160776888394 0 0 0
487 1 12.916997070509629 13.89472688227944 3.8655639030092583 0 0 0
493 1 14.347529384702153 15.52362931726496 5.359613673593449 0 0 0
714 1 18.98236665452584 13.892658365462456 3.901847962156488 0 0 0
1154 1 20.754095377552943 15.472412648952181 5.398100399082103 0 0 0
1150 1 25.304933090951202 14.030637251143785 3.71713069959071 0 0 0
1156 1 26.832095644602312 15.411643010207431 5.6762505323754375 0 0 0
1153 1 31.79619223096477 13.96735232408444 4.125282332256329 0 0 0
1158 1 33.64601701170535 15.712545223416765 5.896163859055369 0 0 0
489 1 3.420929630090075 16.883782980840596 3.7757899931179675 0 0 0
497 1 5.2372003195386965 18.728511918442244 5.259815347440391 0 0 0
492 1 9.762913895829762 16.860400503452436 3.7515523477122574 0 0 0
498 1 11.361342382519105 18.40291662634343 5.510076542134702 0 0 0
494 1 16.13792775423895 16.832664416020446 3.690039670568227 0 0 0
500 1 17.626245737293136 18.809977693716466 5.051026300295433 0 0 0
1155 1 22.13423103530803 17.148962795345497 3.6423546504396382 0 0 0
1159 1 24.200307730594886 18.372469269876074 5.378616325784317 0 0 0
1157 1 28.383794722205533 16.760207302600683 3.676317312943063 0 0 0
1161 1 29.74274198877632 18.482993163654346 5.4860489940493276 0 0 0
47 1 0.6851277098838188 20.18823740931406 3.5938376387520106 0 0 0
502 1 2.2178709857407535 21.615456254878758 5.413037896445099 0 0 0
496 1 6.653705343571095 20.342056314487184 3.738081237906133 0 0 0
505 1 8.180686250148925 21.619485556357226 5.2695009969528845 0 0 0
499 1 13.043919378416291 20.05437567054933 3.7130635990378877 0 0 0
508 1 14.495700261846839 21.49828700841168 5.304792735098737 0 0 0
128 1 18.918853668042633 20.60196491377058 3.6902746684299994 0 0 0
1164 1 20.83536425181415 21.970732596165103 5.264142282657596 0 0 0
1160 1 25.583105965002154 20.02641038909142 3.6403606476516592 0 0 0
1166 1 26.6926398969563 21.848040825106942 5.4777116718973495 0 0 0
1162 1 31.367686768094114 20.485503276312663 4.321681720082841 0 0 0
1061 1 33.10330414516812 18.942354026662958 2.819408787201375 0 0 0
1168 1 33.185242880345776 21.69175526523573 5.658010593659468 0 0 0
503 1 3.84316287619434 23.297152586589295 3.754059802757775 0 0 0
504 1 5.303857230127424 24.904997273430435 5.403814836925185 0 0 0
506 1 9.898743251747911 23.326174530966497 3.7971425017473552 0 0 0
514 1 11.609041146630252 24.710476017925398 5.252395162530439 0 0 0
510 1 16.079284066655745 23.172848118072064 3.6849489286323127 0 0 0
516 1 17.443978026771745 24.761441583177177 5.400070196459058 0 0 0
1165 1 22.589665544158873 23.089527483559383 3.32658361903067 0 0 0
1171 1 23.633908398514247 24.882128134221244 5.091538206336004 0 0 0
1167 1 28.428713085510484 23.27777562500334 4.108100988938014 0 0 0
1173 1 30.075427871253005 25.134276184865392 5.332373196975281 0 0 0
1169 1 34.55908798877895 23.102792990466806 3.9690663333869978 0 0 0
1495 1 0.5654915587260485 3.896756400212449 19.51778765542779 0 0 0
517 1 1.8308450358100898 27.833324193715676 5.287056905268219 0 0 0
512 1 6.992773547885753 26.45969431274622 3.898717029344496 0 0 0
385 1 4.813105856314931 27.55436109181048 2.946589006488008 0 0 0
520 1 8.223894404784314 28.01657223730766 5.4773941152036905 0 0 0
515 1 12.99282714990047 26.49053287942115 3.9722548806391593 0 0 0
523 1 14.522613428765625 27.948621821901636 5.56228052135006 0 0 0
103 1 19.16572486828608 25.753966452516774 3.888483028307859 0 0 0
1175 1 20.37117903660274 28.214286001543535 5.309997179127364 0 0 0
1172 1 25.210440569740705 26.155528641444374 3.49920440676061 0 0 0
1178 1 26.602857656898887 27.80635296921846 5.250503102816434 0 0 0
1174 1 31.97634406327161 26.5679366648958 3.82931966717571 0 0 0
1180 1 33.36030133582337 28.130186477930014 5.429475785283707 0 0 0
518 1 3.4398101789522304 29.529396130571183 4.088802144959929 0 0 0
519 1 5.175220456970808 30.889933870539487 5.568250514914659 0 0 0
521 1 9.558196610799396 29.905849769010505 4.033714368476514 0 0 0
522 1 11.112937734649405 31.502257760486827 5.0146189929432055 0 0 0
524 1 16.1972172930574 29.042852702687895 3.575714977693486 0 0 0
525 1 17.40119002124356 30.888428500728576 4.9337816378952315 0 0 0
1176 1 22.176782718238922 29.54928057141288 3.698886964927148 0 0 0
1183 1 24.082687868705502 30.906050003084452 5.810768769189614 0 0 0
1179 1 28.23758492691323 29.620658433082447 4.464622648486207 0 0 0
1185 1 30.229321670879685 31.10840061981216 5.558642128894211 0 0 0
1181 1 34.86752630885787 29.286792694345685 3.630013556634567 0 0 0
526 1 2.2395849531117182 34.48570434001994 5.321574527822625 0 0 0
528 1 6.4120452618600865 32.643192443666145 4.112678469341562 0 0 0
529 1 8.170861128983674 34.065129349431444 5.490660515322917 0 0 0
530 1 13.154570137642896 32.42956105437202 3.6879571909986075 0 0 0
531 1 14.617867180718303 33.90669444808104 5.166482436206441 0 0 0
1345 1 19.37032614251057 32.508580667649106 3.886825859274671 0 0 0
1182 1 20.7517529165319 33.99419882345763 5.296597420657557 0 0 0
1184 1 25.423233027571296 32.57801147003774 4.172827149236668 0 0 0
1186 1 27.256839756963835 34.37694641459032 5.5626556277736805 0 0 0
1187 1 31.863171198092385 32.76958208335207 3.770803687907446 0 0 0
1192 1 33.4507525707788 34.34453928217041 5.631774986347145 0 0 0
532 1 3.6449607472372367 36.04603724288618 3.5942107181571186 0 0 0
533 1 5.24828816750472 37.48851199827264 5.286629385388464 0 0 0
534 1 10.10349991855107 35.606500908657324 4.388528976269096 0 0 0
535 1 11.60702854876043 37.36944833338131 5.372183026954897 0 0 0
536 1 16.181811495370617 35.497816606752 3.41044881682629 0 0 0
537 1 17.521409862114883 37.20585677171233 5.263398272110257 0 0 0
1188 1 22.36664146288219 35.55160875805187 3.5534077470788583 0 0 0
1189 1 23.87722454652801 36.9802582544413 5.628021679835196 0 0 0
1190 1 28.370046281268877 35.8798637604071 3.867728499952383 0 0 0
1191 1 30.42309082789491 37.20685058578592 5.1666710100994555 0 0 0
1193 1 34.92546707804711 35.788501995896176 4.0938896800893385 0 0 0
539 1 2.0938458467567975 40.45873460117062 5.312744385118254 0 0 0
2459 1 28.895037079528798 48.18194167942263 22.82601082058621 0 0 0
540 1 6.8582938954785115 39.08078037542989 4.0647419364627355 0 0 0
541 1 8.3278004624566 40.698585222897556 5.442464367933255 0 0 0
542 1 13.31930839690301 38.82825442830022 3.7756892908458792 0 0 0
543 1 14.52864047216606 40.737283635803536 5.404003004820411 0 0 0
736 1 19.20521854420874 38.76708028093372 4.1263593865860715 0 0 0
1195 1 21.01357099939825 40.56712110861626 5.547899421600509 0 0 0
1196 1 24.98113043280748 38.73599002212348 3.8550553521275024 0 0 0
1197 1 27.096280979018374 39.908335284226716 5.099300157762793 0 0 0
1198 1 31.92881818094052 39.19367356484155 3.8710558914843345 0 0 0
1199 1 33.119533206260506 40.641111962054126 5.591838410512826 0 0 0
545 1 3.5756443431258123 41.74491570718613 3.763987958433563 0 0 0
546 1 5.116617415252672 43.9134298854765 5.082193658167252 0 0 0
547 1 10.060606457464623 42.41834040992026 4.079977668409818 0 0 0
548 1 11.512689910514958 43.985337603334536 5.534033175603281 0 0 0
549 1 16.403892152796736 42.58785053122318 3.873062615907549 0 0 0
550 1 17.89452863301905 44.18122409098478 5.512277233213759 0 0 0
1200 1 22.25029949196727 42.147059336614994 3.669578281589696 0 0 0
1201 1 23.67964860422148 43.638793841126706 5.367984997366493 0 0 0
1202 1 28.338621763580228 41.97706957715482 3.837538691308291 0 0 0
1203 1 29.82330722467222 43.581904361688885 5.444203924088871 0 0 0
1204 1 34.73553519647161 41.78007354532497 3.8822422644068313 0 0 0
71 1 0.7676847622919811 45.34041085683256 3.812418555378949 0 0 0
552 1 1.9618022741126926 46.72428882420646 5.628906283355713 0 0 0
553 1 6.813647941808942 45.36953078195265 3.7902210048659453 0 0 0
554 1 8.258317924787951 46.976409106912534 5.586736741531326 0 0 0
555 1 12.909910790811644 45.46961988716835 4.07842925507353 0 0 0
556 1 14.284931958278671 47.07619977889875 5.355808097158515 0 0 0
1101 1 19.38680491802837 45.75160437743986 3.569610104466538 0 0 0
1206 1 25.26407925805802 45.236369262487145 3.984811566968669 0 0 0
1207 1 27.16768400553552 46.6053599917071 5.475505776081231 0 0 0
1208 1 31.413535191668682 45.051747978382636 4.052654927335559 0 0 0
1209 1 33.043317666212566 46.388567505414485 5.23253806362954 0 0 0
558 1 3.125924748862826 48.28551705061959 3.8333424317927447 0 0 0
1814 1 11.73262443310206 49.77417160799383 23.990038798307328 0 0 0
559 1 5.0944706995866404 49.908922974347185 5.0386208641863375 0 0 0
561 1 9.507418134173204 48.67040341272728 3.7996558870824813 0 0 0
562 1 11.256057544397901 50.282969869725825 5.383937936944974 0 0 0
564 1 17.381528800152267 50.424141553103624 5.396888693915999 0 0 0
563 1 16.04186485707489 48.580826899484755 3.567631180214703 0 0 0
1205 1 20.646442340314685 47.42836520040859 5.585946113883442 0 0 0
1211 1 22.414690295970885 48.540757232902976 3.9381421046331564 0 0 0
1212 1 24.03109874001331 49.73979296835065 5.670808307835464 0 0 0
1214 1 30.405381540169728 50.066788535552405 5.229826782803623 0 0 0
1213 1 28.614524709472192 48.23887052119078 3.96656127193289 0 0 0
1216 1 34.89476053672544 48.20906824302988 4.086478553912775 0 0 0
658 1 3.6456912367106566 0.8754840082989284 7.280853811931643 0 1 0
35 1 0.6018786855527684 26.123064090503927 3.309623436114334 0 0 0
659 1 5.515036945945301 2.545538166693894 8.74399856086011 0 1 0
660 1 9.782716269888772 0.7481903895579066 7.196161718035788 0 1 0
661 1 11.688763613657173 2.0512087844192957 8.316598114346258 0 1 0
663 1 16.09868670643577 1.4505919311372864 6.999513057274158 0 1 0
664 1 17.655056115486886 2.7159901309292263 8.671106221439013 0 1 0
1302 1 22.445930980584485 0.7407575568283656 6.827158281319502 0 1 0
1303 1 24.17078648166783 2.3462852948926214 8.032615807349613 0 1 0
1304 1 28.669483944518905 0.9205065467888387 6.91581279528931 0 1 0
1305 1 29.98462077674398 2.2069549867778404 8.83692596052412 0 1 0
1300 1 34.57351677786705 0.9552477126943395 7.2925132962039445 0 1 0
573 1 6.915326221559874 3.8312372606525793 7.117475879739575 0 0 0
574 1 8.664333361500093 5.843032059480363 8.591547055154214 0 0 0
662 1 12.777765288008158 4.621023586873307 6.661178138760105 0 0 0
576 1 14.253915158751099 6.080865979335561 8.373205667700299 0 0 0
774 1 19.75840478731941 3.8653023006054656 6.951070617779026 0 0 0
1224 1 25.757820380954314 4.999048787197673 6.708809216489685 0 0 0
1225 1 27.07549281927842 6.203775951085002 8.467885062700807 0 0 0
1306 1 31.69922768809956 4.721372158495726 7.408098102889513 0 0 0
571 1 1.8005123366377427 6.336235821813146 8.868795550574758 0 0 0
572 1 3.36954197710956 7.9213382162853705 7.221571715958703 0 0 0
575 1 9.660344640908255 7.86466722964715 6.78694122850223 0 0 0
580 1 11.224330678051736 9.17441324566278 8.265768855192276 0 0 0
582 1 15.933514605546312 7.64050552097434 7.03708744414035 0 0 0
583 1 17.223939093224914 9.256325347138223 8.580301466173488 0 0 0
1222 1 20.76005763019738 6.5056052658515044 8.364309884475032 0 0 0
1223 1 22.396628604553776 7.967889412795124 7.084945606205888 0 0 0
1230 1 24.01460824837722 9.173583565686593 8.46145465077571 0 0 0
1226 1 28.733587779830767 7.457460469275324 7.099855927181553 0 0 0
1232 1 29.937239494154085 9.220941792001502 8.718706003165329 0 0 0
1227 1 33.39211256125959 6.598250344774594 8.885429056077275 0 0 0
1228 1 34.93892230067816 7.817652932156127 7.28525665770475 0 0 0
584 1 2.058424311281532 12.196478712828563 8.615106015554142 0 0 0
578 1 4.793694808377767 9.4651647928404 8.332183494950666 0 0 0
579 1 6.565682645368165 10.870031355173321 6.759488084684614 0 0 0
586 1 8.07472026081184 12.424120028525673 8.515428692717549 0 0 0
581 1 12.990112661725597 10.967603506137834 6.977509795455299 0 0 0
588 1 14.505348479402551 12.537531431622899 8.836668836767839 0 0 0
741 1 18.87987616340264 10.646245959758199 6.905170458482953 0 0 0
1234 1 20.68702057021027 12.308605741239793 8.629134944970051 0 0 0
1231 1 25.59796919613953 10.829725126190484 7.127842560627457 0 0 0
1233 1 31.535596093547092 10.75716016312069 6.820752102372824 0 0 0
1238 1 33.33542636133942 12.522751093208738 8.681687460001596 0 0 0
585 1 3.2985434366936923 14.025763664792901 7.408176854924676 0 0 0
590 1 5.022275457455509 15.478400108292353 8.840551349685922 0 0 0
587 1 9.854048530497318 13.983517201986103 7.018187042833193 0 0 0
592 1 11.296439963517871 15.453239450204068 8.73188438236182 0 0 0
589 1 15.934970381839012 14.183742934220547 7.0856064771007405 0 0 0
594 1 17.99610431751507 15.333517919355693 8.622117198006173 0 0 0
1235 1 22.201059517347364 13.680463525944662 6.847286489745955 0 0 0
1239 1 23.94814437463451 15.24717004510347 8.87167166547237 0 0 0
1236 1 27.174047906671614 12.793905694968942 8.69606578868354 0 0 0
1237 1 28.698564113640927 14.259295146686362 7.122536845444613 0 0 0
595 1 2.148545314722462 18.248110649001042 8.411163897516467 0 0 0
591 1 6.496349596898615 17.015648661488715 6.999569968424357 0 0 0
597 1 8.242205054887883 18.28230691319603 8.54641060604388 0 0 0
593 1 12.906330858896318 17.080212458037767 7.2665199882306775 0 0 0
599 1 14.855810464767808 18.20962978476053 8.788492711065919 0 0 0
743 1 19.14285847086389 17.21844924071204 7.036138258066329 0 0 0
1243 1 20.590135396121696 18.59088418642639 8.645695312181298 0 0 0
1240 1 25.57694186085022 17.104499992954015 7.114750035755306 0 0 0
1245 1 26.850238617446532 18.52614799143806 8.569363947169846 0 0 0
1241 1 30.316268811039272 15.849541304047047 8.676402791584518 0 0 0
1242 1 31.499523666005093 17.340991092405872 6.898995542182751 0 0 0
1247 1 33.18216916448745 18.597204485348172 8.635640740098468 0 0 0
596 1 3.8492230044797338 19.811611220371464 7.055442280303883 0 0 0
602 1 5.387207613518533 21.405694360218014 8.41898340066703 0 0 0
598 1 9.939917814495745 19.779079944979163 6.998618631210639 0 0 0
604 1 11.342558214945704 21.162533175818645 8.395535094446313 0 0 0
600 1 16.028885175987604 19.999333577710633 6.944506465491743 0 0 0
606 1 17.51540422276776 21.627261161668127 8.661660617202747 0 0 0
1244 1 22.40563868028646 20.08857915782381 7.254014026040614 0 0 0
1249 1 23.77848364643113 21.98379684426678 8.842756238245235 0 0 0
1246 1 28.31570079699773 20.236701780434615 7.075456918833285 0 0 0
1251 1 30.447997749065223 21.76041047727007 8.456125133020805 0 0 0
1248 1 34.58377733702518 20.293847244504924 7.080899917705233 0 0 0