
# Define the lattice
#
variable	    lattice_constant equal 6.36339
lattice		    diamond ${lattice_constant}
lattice		    diamond 6.36339
Lattice spacing in x,y,z = 6.3633900 6.3633900 6.3633900

# Define region
# multiples of lattice spacing
#
region 		    simbox block 0 9 0 8 0 8

# Create Atoms
#
create_box          1 simbox
Created orthogonal box = (0.0000000 0.0000000 0.0000000) to (57.270510 50.907120 50.907120)
  3 by 1 by 2 MPI processor grid
create_atoms        1 box
Created 4608 atoms
  create_atoms CPU = 0.000 seconds
mass                1 18.015

# Define potential
#
pair_style          sw
pair_coeff          * * /data/emrosky-sim/Freezing_Simulations/Melting/mW_fancy/mW.sw mW
Reading sw potential file /data/emrosky-sim/Freezing_Simulations/Melting/mW_fancy/mW.sw with DATE: 2019-02-27

# Add velocity/set timestep
#
velocity            all create ${TEMP} 120598 rot yes dist gaussian
velocity            all create 273 120598 rot yes dist gaussian
timestep            5.0

# Define output
#
compute	            1 all msd
thermo              100
thermo_style        custom step temp press vol etotal ke pe c_1[4]

# Neighbor lists
#
neigh_modify        delay 0 every 1 check yes

# Set fixes
#
fix                 1 all momentum 10 linear 1 1 1 rescale
fix                 2 all nve
fix                 3 all temp/csvr ${TEMP} ${TEMP} 500.0 928347
fix                 3 all temp/csvr 273 ${TEMP} 500.0 928347
fix                 3 all temp/csvr 273 273 500.0 928347
fix                 4 all press/berendsen iso ${PRES} ${PRES} 1000.0 modulus 20000
fix                 4 all press/berendsen iso 1 ${PRES} 1000.0 modulus 20000
fix                 4 all press/berendsen iso 1 1 1000.0 modulus 20000

# Run 0.5 ns equilibration
#
dump		    1 all custom 1000 eq.${NAME}.dump id type x y z vx vy vz
dump		    1 all custom 1000 eq.ice_273K_1atm_mW.dump id type x y z vx vy vz
run                 100000
Neighbor list info ...
  update every 1 steps, delay 0 steps, check yes
  max neighbors/atom: 2000, page size: 100000
  master list distance cutoff = 6.3065
  ghost atom cutoff = 6.3065
  binsize = 3.15325, bins = 19 17 17
  1 neighbor lists, perpetual/occasional/extra = 1 0 0
  (1) pair sw, perpetual
      attributes: full, newton on
      pair build: full/bin/atomonly
      stencil: full/bin/3d
      bin: standard
Per MPI rank memory allocation (min/avg/max) = 4.778 | 4.778 | 4.778 Mbytes
Step Temp Press Volume TotEng KinEng PotEng c_1[4] 
       0          273   -4578.9852    148418.52   -52804.524    3748.9976   -56553.522            0 
     100    218.00576   -660.81695     140927.7   -51662.327    2993.7841   -54656.111   0.28672618 
     200    218.76675   -48.109243    140243.08   -50780.945    3004.2345   -53785.179   0.37711063 
     300    225.71937    22.777638    140379.45   -50213.899     3099.712   -53313.611   0.38900049 
     400    244.54689    5.6741557    140566.05   -49830.703    3358.2626   -53188.966   0.35401917 
     500    259.13583   -2.8782474    140701.59   -49560.651    3558.6066   -53119.257   0.36931447 
     600    263.19291    46.026305    140824.72   -49297.969    3614.3209    -52912.29    0.3913817 
     700    266.69569    57.606574    140850.82   -49228.506    3662.4231   -52890.929   0.33548615 
     800    270.34301   -12.899927    140887.73   -49148.229    3712.5103   -52860.739    0.3727551 
     900    273.64891   -23.396686    140945.58    -49132.29    3757.9088   -52890.199   0.36982305 
    1000    276.41897     35.11125    140904.77    -49178.22    3795.9489   -52974.169   0.34905153 
    1100     274.5924      9.39837    140914.42    -49117.56    3770.8653   -52888.425   0.34867559 
    1200    277.32056     53.76424    140942.43   -49121.625    3808.3301   -52929.955   0.35707251 
    1300    271.92268   -9.1725562     140943.4   -49030.447    3734.2032   -52764.651   0.38086218 
    1400    273.26722   -25.451291       140962    -49124.04    3752.6672   -52876.707   0.33850876 
    1500     268.8514   -41.715981    140896.96   -49152.697    3692.0266   -52844.724   0.37223929 
    1600    273.36815     4.842894    140917.12   -49097.267    3754.0533   -52851.321   0.38009612 
    1700    271.72449    23.530136    140927.63    -49116.58    3731.4815   -52848.061   0.34253037 
    1800     266.3319   -21.807357       140940   -49112.584    3657.4273   -52770.012   0.35293839 
    1900    281.96827    17.669466       140957   -49026.869    3872.1552   -52899.024   0.37675896 
    2000    279.93575    -13.95201    140976.85   -48980.268    3844.2434   -52824.512   0.36165474 
    2100    274.27763   -20.196897    140925.55   -49136.949    3766.5428   -52903.492   0.33946591 
    2200    280.53955    -20.75244     140931.1   -49079.655    3852.5352    -52932.19   0.37409713 
    2300    278.44714    8.4789046    140942.86    -49010.61    3823.8009    -52834.41   0.37554075 
    2400    269.88312   -43.015563    140924.75   -49030.521    3706.1947   -52736.716   0.34890235 
    2500     275.9445   -26.065696    140933.36   -49074.645    3789.4331   -52864.079   0.37064244 
    2600    274.04544    13.227644    140932.43   -49112.839    3763.3542   -52876.193   0.37996432 
    2700    276.70352   -26.045587    140898.04   -49083.057    3799.8565   -52882.914   0.34895414 
    2800     274.6629   -1.8196268    140925.33   -48993.074    3771.8335   -52764.907   0.35676154 
    2900    277.29425    -11.76109    140937.65   -49009.539    3807.9688   -52817.507     0.383233 
    3000    279.50835    29.712647    140911.38   -49060.085    3838.3741   -52898.459   0.34949271 
    3100    273.88206   -47.622615    140924.53    -49034.84    3761.1106    -52795.95    0.3477348 
    3200    272.96999    4.9283893     140929.7   -49145.447    3748.5855   -52894.033   0.36992837 
    3300    268.33348   -42.088616    140857.68    -49201.95    3684.9142   -52886.864   0.36905733 
    3400    274.03178   -28.927146    140873.34   -49140.518    3763.1666   -52903.684   0.35044347 
    3500    272.74227   -7.1363153    140864.96   -49103.343    3745.4583   -52848.801   0.37207012 
    3600    272.76623    30.909398    140862.72   -49107.435    3745.7873   -52853.222    0.3765204 
    3700    271.93819   -5.8427171    140861.06   -49069.055    3734.4162   -52803.471   0.36186195 
    3800    269.68856  -0.68750901    140857.03   -49056.001    3703.5229   -52759.524   0.35845747 
    3900    276.88936    41.345046    140878.66    -49061.94    3802.4086   -52864.348   0.38444727 
    4000    274.58557   -1.1691998    140858.43   -49107.681    3770.7715   -52878.453   0.36644909 
    4100    268.70612    4.2238959    140864.83   -49126.491    3690.0316   -52816.523   0.35276118 
    4200    273.86045    13.418424    140840.17   -49070.524    3760.8138   -52831.338   0.37644119 
    4300    268.15683    5.5003066    140852.25   -49208.433    3682.4883   -52890.921   0.37492414 
    4400    273.29971    15.051621    140840.65   -49097.113    3753.1134   -52850.226   0.35902311 
    4500    273.71685   -20.782712     140850.4   -49160.051    3758.8419   -52918.893   0.35425529 
    4600    269.28868    39.847719    140808.29   -49189.009    3698.0316    -52887.04   0.39522993 
    4700    272.46157    10.854739    140831.44   -49090.481    3741.6035   -52832.085   0.35110888 
    4800    276.12299    35.293343    140863.73   -48998.078    3791.8843   -52789.962   0.35193264 
    4900    277.68597   -55.868318    140876.69   -48968.429    3813.3482   -52781.777   0.40167828 
    5000    267.93677   -19.118941    140868.05   -49085.734    3679.4663     -52765.2   0.36568403 
    5100    269.33481    12.184102    140857.95   -49013.202    3698.6651   -52711.867   0.35834696 
    5200    274.42309    6.7771504    140888.95   -49089.185    3768.5402   -52857.725   0.37250734 
    5300    266.89073   -12.148965    140837.82   -49185.624    3665.1015   -52850.726   0.37582174 
    5400    271.36017    50.339046    140822.39     -49159.9    3726.4785   -52886.378   0.33114942 
    5500    274.82277  -0.96766528    140822.78   -49126.101    3774.0289    -52900.13    0.3739784 
    5600    272.82595    -20.58679    140831.07   -49160.131    3746.6075   -52906.738    0.3806306 
    5700    274.64407    16.193209    140827.71   -49146.248     3771.575   -52917.823   0.34438467 
    5800    275.35155    41.781684    140820.63   -49090.952    3781.2904   -52872.242   0.36643469 
    5900     271.6089    3.5726421    140845.52   -49171.639    3729.8942   -52901.533   0.37379752 
    6000    269.07444    16.894921     140814.1   -49144.017    3695.0894   -52839.107   0.36376017 
    6100    267.40642   -10.362879    140831.95   -49225.973    3672.1832   -52898.157   0.35784507 
    6200    270.25552   -17.979254     140825.5   -49200.504    3711.3087   -52911.813   0.37345986 
    6300    278.13265    9.8732301    140856.93   -49086.016    3819.4822   -52905.499   0.36791268 
    6400    270.45693   -6.4186306    140869.33   -49134.727    3714.0747   -52848.802   0.35480599 
    6500    271.40208    18.120064    140840.54    -49140.67     3727.054   -52867.724   0.36626621 
    6600    268.30559    -5.056014    140832.03   -49153.521    3684.5311   -52838.052   0.37540834 
    6700     267.6714   -13.080952    140815.95   -49209.979    3675.8221   -52885.801    0.3685976 
    6800    269.94138    1.4470945    140811.01    -49161.38    3706.9948   -52868.375   0.35930615 
    6900    273.78106    42.553659    140849.84   -49096.064    3759.7236   -52855.788   0.37982819 
    7000    274.40256    30.987648     140874.5   -49096.734    3768.2583   -52864.992   0.36671518 
    7100    275.06888    30.223954    140883.12   -49099.793    3777.4087   -52877.202   0.33865011 
    7200    267.36328   -35.224724    140858.05    -49208.79    3671.5908   -52880.381   0.38123445 
    7300    269.31322     4.816698    140812.03   -49255.185    3698.3685   -52953.553   0.37256291 
    7400    270.73686    17.489338       140831   -49149.408    3717.9188   -52867.327   0.34492136 
    7500    275.60287    34.358241    140852.58    -49085.04    3784.7417   -52869.781   0.36850769 
    7600    273.24958    44.746153    140884.35   -49058.652     3752.425   -52811.077   0.38018348 
    7700    271.08639   -25.629947    140889.84   -49158.449    3722.7188   -52881.168   0.34745966 
    7800    271.60858   -26.875592     140844.9   -49208.867    3729.8897   -52938.757   0.35968328 
    7900    270.73375   -29.414262    140847.83   -49159.765    3717.8761   -52877.641   0.38405747 
    8000    274.25642    19.785948    140860.11   -49057.572    3766.2515   -52823.824   0.35598424 
    8100     273.1031    6.4307496    140894.24   -49025.431    3750.4134   -52775.844   0.35612783 
    8200    276.45257    46.487886    140906.62   -49042.742    3796.4103   -52839.153   0.37685444 
    8300    277.72781    7.0354748    140935.28   -49012.333    3813.9226   -52826.256   0.35935643 
    8400    275.22517   -6.4427386    140972.83   -48991.512     3779.555   -52771.067    0.3469272 
    8500     270.9566    9.8504591     140952.5   -49073.428    3720.9364   -52794.364   0.36686405 
    8600    274.73357    1.6860384    140932.72   -49084.287     3772.804   -52857.091   0.36892408 
    8700    275.97392    24.990003    140920.21    -49054.79    3789.8372   -52844.627   0.35054729 
    8800    268.11696    11.825091    140899.64   -49097.579    3681.9409    -52779.52   0.35706572 
    8900    272.92506    39.242729    140888.57   -49158.032    3747.9685   -52906.001   0.37509636 
    9000    270.04959    21.468621    140878.04   -49086.476    3708.4808   -52794.957    0.3595513 
    9100    268.88807   -9.0164341    140872.91   -49134.843    3692.5301   -52827.373   0.35648365 
    9200    270.96401   -4.6694459    140900.56   -49035.678    3721.0382   -52756.716   0.37738477 
    9300    268.59057   -15.767214    140873.37   -49177.359    3688.4446   -52865.803   0.36930068 
    9400     272.5737   -11.647317    140852.83   -49138.588    3743.1433   -52881.731   0.35521767 
    9500    274.66594    8.5512457    140832.56   -49184.222    3771.8753   -52956.097   0.37095434 
    9600    267.37616   -6.9434896    140837.07   -49167.491    3671.7677   -52839.259   0.37829559 
    9700    270.63877    33.049306    140893.21   -49056.271    3716.5718   -52772.843   0.35175441 
    9800     276.3958    13.393995    140936.79    -49013.02    3795.6308   -52808.651   0.36917688 
    9900    276.17913   -5.2348457    140927.02   -49045.119    3792.6552   -52837.774   0.37084579 
   10000    268.77799   -14.878886    140925.05   -49095.164    3691.0184   -52786.183   0.36284195 
   10100    276.63399    19.233049       140940   -49052.905    3798.9016   -52851.806   0.34781408 
   10200    278.20667    26.001154    140945.88   -49024.718    3820.4987   -52845.217   0.36636251 
   10300    277.57842    7.9983649    140928.21   -49017.213    3811.8712   -52829.085   0.37230454 
   10400    271.89012     9.772439    140954.96   -49029.595    3733.7561   -52763.351   0.34080413 
   10500    275.97819   -8.6393656    140920.03   -49072.123    3789.8958   -52862.019   0.37748028 
   10600    272.65963    4.8176251     140906.8   -49096.448    3744.3235   -52840.772   0.37344332 
   10700    271.97245    20.274585    140876.92   -49111.924    3734.8867    -52846.81   0.35007537 
   10800    264.85234   -10.271284    140858.21   -49230.043     3637.109   -52867.152   0.36843683 
   10900    265.60996    28.222005    140849.03   -49220.558    3647.5132   -52868.072   0.37614218 
   11000    265.92376    8.6400122    140829.93   -49231.849    3651.8225   -52883.672    0.3669675 
   11100    276.82341    18.824235    140866.15   -49141.595     3801.503   -52943.098   0.35153633 
   11200    274.34514   -26.930636    140878.36   -49251.058    3767.4699   -53018.528   0.37948686 
   11300     268.5872    12.277447    140870.19   -49168.971    3688.3984   -52857.369   0.37266286 
   11400    269.92219    5.2169412    140893.92   -49141.989    3706.7313   -52848.721   0.34792803 
   11500    278.09459    36.141531    140920.74   -49049.118    3818.9595   -52868.077    0.3756582 
   11600    273.70879    4.9274622    140926.02   -49046.008    3758.7311   -52804.739   0.37183896 
   11700    281.02446    38.371104    140962.49   -48927.175    3859.1942    -52786.37   0.35454126 
   11800    275.99312   -10.056231    140976.34   -48994.878    3790.1009   -52784.979   0.35793253 
   11900    271.30832     30.58737    140920.54   -49038.569    3725.7664   -52764.335   0.37805747 
   12000    276.69977   -16.277393    140908.42   -49005.084     3799.805   -52804.889    0.3682978 
   12100    275.51047    8.7393865     140877.3    -49054.05    3783.4728   -52837.522   0.34933078 
   12200    273.36052    34.760293    140909.19   -49060.259    3753.9485   -52814.208   0.37792996 
   12300    271.46603    29.911855    140893.85   -49117.154    3727.9323   -52845.087   0.37044882 
   12400    268.90315    4.4053303    140855.48   -49105.038    3692.7373   -52797.775   0.34983785 
   12500    276.65158   0.37609588    140899.97   -49039.833    3799.1432   -52838.976   0.37349502 
   12600    277.10593   -1.4212339     140904.3   -49002.612    3805.3826   -52807.994   0.38711505 
   12700    271.97216   -11.495306    140898.06   -49080.288    3734.8827   -52815.171   0.35088183 
   12800    274.19754   -16.411187    140917.85   -49062.553    3765.4429   -52827.996    0.3608569 
   12900    270.15392   -29.362138    140899.91   -49128.025    3709.9136   -52837.938   0.38529778 
   13000    275.72538  -0.81820346    140885.75   -49101.456    3786.4241    -52887.88   0.35328937 
   13100    272.43494   -14.114606    140883.98   -49172.416    3741.2379   -52913.654   0.35089599 
   13200    267.99643    6.4840479    140858.41   -49198.201    3680.2857   -52878.486   0.38052614 
   13300    268.41994   -28.608359    140832.66   -49278.543    3686.1014   -52964.644   0.36207649 
   13400    266.44242    36.657841    140843.41   -49264.055    3658.9451       -52923   0.34424952 
   13500    270.03659    30.913903     140840.5   -49173.484    3708.3023   -52881.787   0.37064646 
   13600    277.20881    4.6090421    140873.77   -49129.302    3806.7955   -52936.098   0.36565371 
   13700    276.77509    25.777046    140868.33   -49155.224    3800.8393   -52956.063   0.34926867 
   13800    271.24809   -28.516491    140881.84   -49110.541    3724.9393    -52835.48   0.36634534 
   13900    270.89324    -11.44093    140900.17   -49097.929    3720.0663   -52817.995   0.36897999 
   14000    278.79364    44.927898    140919.64   -48997.903    3828.5593   -52826.462   0.35858477 
   14100     274.7005    32.384645    140923.39   -49075.821    3772.3499   -52848.171   0.35031766 
   14200    270.85319    12.946827    140916.59   -49085.799    3719.5163   -52805.316   0.36303395 
   14300    274.60805   -2.4456186    140912.06    -49121.46    3771.0803   -52892.541   0.37456053 
   14400    273.71732    19.164721    140903.28   -49173.708    3758.8483   -52932.556   0.34454706 
   14500    266.61545    26.563386    140891.43   -49199.415    3661.3211   -52860.736   0.35403971 
   14600    271.67129     33.33711    140872.65   -49148.374    3730.7509   -52879.125   0.37737221 
   14700    273.18701    5.3030325    140890.67   -49102.851    3751.5658   -52854.417    0.3508611 
   14800    270.69836   -3.3478984    140916.87   -49079.461    3717.3901   -52796.851   0.35034547 
   14900    268.39166    21.313473    140922.12   -49092.873    3685.7132   -52778.586   0.38671629 
   15000    269.79372   -29.392361    140876.42   -49149.117    3704.9671   -52854.084   0.36601176 
   15100    270.06727    15.724513    140884.12   -49165.337    3708.7236   -52874.061   0.33614766 
   15200    273.83173   -16.892678    140896.05   -49095.261    3760.4194    -52855.68   0.38425628 
   15300    267.05464   -34.533697    140869.88   -49174.397    3667.3523   -52841.749    0.3765394 
   15400    271.71374    9.0169168    140875.68   -49164.546    3731.3339    -52895.88   0.33124968 
   15500    275.05947    -9.741308    140877.14   -49108.405    3777.2794   -52885.684   0.37761141 
   15600    281.41088   -42.626421    140933.84   -48992.641    3864.5008   -52857.141   0.37621962 
   15700    280.04775   -1.3115136    140953.61   -49007.429    3845.7815    -52853.21   0.33176875 
   15800    278.04623    3.5181325    140934.97    -49007.58    3818.2954   -52825.875   0.36262298 
   15900     274.9062     1.416042    140930.83   -49031.231    3775.1746   -52806.405   0.38728146 
   16000    267.36564   -48.621475    140914.21   -49074.543    3671.6233   -52746.166   0.34971281 
   16100    272.51944    34.763897     140874.7   -49097.726    3742.3983   -52840.124   0.35652547 
   16200    271.22008   -7.5569351    140894.45   -49114.048    3724.5547   -52838.603   0.38396234 
   16300    268.16187    -36.05071    140875.86   -49130.258    3682.5575   -52812.816   0.35464656 
   16400    270.00118    10.569352    140866.62   -49138.116     3707.816   -52845.932   0.35557454 
   16500    273.67281   -4.9590071    140875.72   -49060.588     3758.237   -52818.825   0.38938981 
   16600    279.65023    34.897261     140896.9   -48986.106    3840.3224   -52826.428     0.369725 
   16700    274.21779   -17.212961    140899.91    -49029.49     3765.721   -52795.211   0.36649473 
   16800    275.94684    6.3446467    140883.55   -49082.377    3789.4653   -52871.842   0.36322523 
   16900    275.37108   -14.565378    140869.84   -49103.107    3781.5586   -52884.666   0.36945754 
   17000    276.16383    16.672704    140851.92   -49151.763    3792.4452   -52944.208   0.35734925 
   17100    273.55248    0.3257339    140879.29   -49104.747    3756.5845   -52861.332   0.35482759 
   17200    274.12714    30.002597    140863.15   -49164.221    3764.4761   -52928.697   0.36992405 
   17300     270.5928   -23.711539    140845.74   -49258.411    3715.9405   -52974.352   0.36859314 
   17400    268.81416    10.126899    140820.04   -49242.769    3691.5151   -52934.284   0.35629816 
   17500    272.63744    42.122203    140843.69   -49147.245    3744.0187   -52891.263   0.36225581 
   17600    268.03924    21.621081    140870.62   -49158.606    3680.8735    -52839.48   0.38194049 
   17700    270.23978    1.4960517    140866.29   -49215.636    3711.0926   -52926.728    0.3556861 
   17800    274.26883    38.375971    140855.43   -49164.791     3766.422   -52931.213   0.35232759 
   17900    270.55846    13.030463    140882.92    -49116.44    3715.4689   -52831.909   0.38865511 
   18000    274.10459     4.913607    140907.47   -49029.552    3764.1665   -52793.719   0.36224981 
   18100    275.88658   -5.3550694    140932.27   -49038.837    3788.6378   -52827.475    0.3372782 
   18200    271.26982    7.6230094    140871.54   -49077.959    3725.2377   -52803.197   0.38859266 
   18300    270.93455   -29.329322    140889.53   -49085.068    3720.6336   -52805.702   0.37855795 
   18400    270.92049    10.155582    140861.51   -49171.625    3720.4405   -52892.066   0.34266749 
   18500    268.71302    7.4566901       140873   -49117.477    3690.1263   -52807.603   0.38015169 
   18600    276.63575    14.345071    140873.72   -49071.078    3798.9258   -52870.004   0.37832298 
   18700    272.57222   -5.0028216    140855.97   -49084.426    3743.1231   -52827.549   0.34611967 
   18800    269.32644    13.534145    140852.03   -49101.734    3698.5501   -52800.284   0.36454154 
   18900    268.91762    33.599106     140838.8   -49055.297    3692.9359   -52748.233   0.39515588 
   19000    269.46097   -16.592026    140842.62   -49088.443    3700.3975   -52788.841   0.36197355 
   19100    277.44362    17.556578    140856.07   -49008.232    3810.0201   -52818.252   0.35946891 
   19200    280.66598    23.852383    140858.08   -49037.939    3854.2714   -52892.211   0.39170319 
   19300     280.7391     38.79064    140867.44   -48929.484    3855.2755   -52784.759   0.35850208 
   19400    273.30683    6.2391678    140851.57   -48986.159    3753.2112    -52739.37   0.36972849 
   19500    274.08215   -24.664715    140851.81   -48985.862    3763.8583    -52749.72   0.38769361 
   19600      279.333   0.54044211    140875.38    -48980.22     3835.966   -52816.186    0.3722798 
   19700     275.4194    20.704146    140886.28   -49032.596    3782.2222   -52814.818   0.36642262 
   19800    274.17899   -1.0813503    140834.45   -48977.001    3765.1882   -52742.189   0.36562192 
   19900    273.44045    -23.17491    140849.52   -49060.581     3755.046   -52815.627   0.38528345 
   20000    274.23047    9.7582914     140824.5    -49085.46    3765.8951   -52851.355   0.37957169 
   20100    271.59651   -51.669774    140798.74   -49128.401    3729.7241   -52858.125    0.3657506 
   20200    269.81494    11.233425    140810.39   -49097.989    3705.2584   -52803.248   0.38373782 
   20300    279.72184    7.8863783    140809.85   -49063.592    3841.3058   -52904.898   0.38323922 
   20400     272.0957   -27.693432    140835.83   -49126.781    3736.5793    -52863.36   0.35959052 
   20500    269.86919   -15.066247    140803.25   -49163.675    3706.0035   -52869.678   0.36881994 
   20600    272.47053    -46.09538    140759.94    -49186.22    3741.7266   -52927.946   0.39604659 
   20700    265.09881   -30.033717    140761.55   -49131.737    3640.4937    -52772.23   0.37317558 
   20800    276.46122    59.668323    140810.06   -48996.051    3796.5291    -52792.58   0.35988146 
   20900    270.22649   -35.046497     140825.8   -49095.273    3710.9101   -52806.183     0.400217 
   21000    272.95721    25.719618     140829.3   -49110.796      3748.41   -52859.206   0.36033325 
   21100    277.01193    5.3856468    140829.88   -48994.309    3804.0918     -52798.4   0.35666353 
   21200    273.28916   0.65833478    140832.92   -49012.031    3752.9685       -52765   0.39898782 
   21300    276.17335    34.208025    140873.34   -49008.137     3792.576   -52800.713   0.36577402 
   21400    279.00749    38.048854    140857.66   -49047.405     3831.496   -52878.901   0.35049166 
   21500    275.96336    18.124857    140869.01   -48954.886    3789.6922   -52744.578   0.37901209 
   21600    273.51063    21.445147    140884.33   -48957.916    3756.0099   -52713.926   0.38585439 
   21700    278.40185    4.3556843    140863.61   -49088.803    3823.1789   -52911.982   0.35367505 
   21800    272.57891    -29.07647    140838.15   -49118.717    3743.2149   -52861.932   0.36684713 
   21900    276.11314    40.994768    140855.55   -49097.774    3791.7491   -52889.523   0.37597616 
   22000    273.65185    11.816948    140823.42   -49126.008    3757.9492   -52883.957   0.36278773 
   22100    271.10811   -14.291853    140808.84   -49168.753    3723.0171    -52891.77   0.36070372 
   22200    268.39494   -9.8150993    140777.05   -49244.204    3685.7582   -52929.962    0.3820298 
   22300    270.90317    9.1436157    140798.82   -49140.722    3720.2027   -52860.925   0.37305742 
   22400    276.15304   -28.927749    140823.46    -49090.67     3792.297   -52882.967   0.36101084 
   22500    272.93452    23.374437    140872.23   -49048.156    3748.0983   -52796.254   0.36408801 
   22600    272.33848    36.099825    140876.09   -49087.646    3739.9132   -52827.559    0.3820045 
   22700    272.41818    31.151301    140854.69   -49142.961    3741.0077   -52883.969   0.36118099 
   22800    271.49053   -11.078633    140874.77    -49073.12    3728.2687   -52801.388   0.35048518 
   22900     267.6986   -22.924518    140895.01   -49108.674    3676.1957    -52784.87   0.39166937 
   23000    268.01973   -18.089077    140888.76   -49178.416    3680.6056   -52859.021   0.36154724 
   23100    271.67644    6.5752832    140879.35    -49117.74    3730.8217   -52848.562   0.33745517 
   23200    279.75021    18.542883    140878.51   -49068.985    3841.6955    -52910.68   0.38012325 
   23300    273.75426   -5.7439073    140887.14   -49067.901    3759.3555   -52827.256   0.37733451 
   23400    267.51995   -15.488318    140858.95   -49108.998    3673.7424    -52782.74   0.35305702 
   23500    278.63332    38.659426    140911.08   -49008.583    3826.3577    -52834.94    0.3712091 
   23600    273.76624   -3.2621825    140936.02   -49025.902      3759.52   -52785.422   0.38930743 
   23700    274.74622   -11.251596    140906.86   -49016.808    3772.9777   -52789.785   0.34578188 
   23800    276.66695    19.435111    140915.49   -49022.431    3799.3543   -52821.785   0.35382787 
   23900    275.53795   -23.402803    140866.51   -49108.277    3783.8502   -52892.127   0.38629313 
   24000    273.86638   -25.207994    140882.14   -49056.808    3760.8953   -52817.703   0.36300171 
   24100    272.36862    18.439383    140907.32   -48990.247    3740.3271   -52730.574   0.35299687 
   24200    270.00823   -33.025757    140879.91    -49106.24    3707.9129   -52814.153    0.3813021 
   24300    271.35593   -2.4686267    140854.27    -49149.89    3726.4203    -52876.31   0.37477566 
   24400    273.23529    22.607224     140812.1   -49174.976    3752.2287   -52927.205   0.35775194 
   24500    273.74674    -18.08463    140797.84   -49124.474    3759.2523   -52883.726     0.368296 
   24600    272.10515   -1.3244979    140835.34   -49170.893     3736.709   -52907.602   0.38144016 
   24700    273.72604   -5.6172236    140852.82   -49170.329     3758.968   -52929.297   0.36323567 
   24800    275.33637   -24.896109    140860.81   -49115.209    3781.0821   -52896.291   0.34957109 
   24900     273.5592   -17.626474    140833.11   -49168.587    3756.6768   -52925.264    0.3800358 
   25000    271.59537    23.609106    140819.47    -49154.73    3729.7084   -52884.439   0.38004295 
   25100    270.41229    22.017892     140807.6   -49209.244    3713.4616   -52922.706   0.34985507 
   25200    267.25663     8.939889     140765.8    -49332.54    3670.1262   -53002.667   0.37289387 
   25300    273.49947      45.1157    140795.13   -49181.563    3755.8567    -52937.42   0.38536626 
   25400    265.97578     19.60207    140816.15   -49220.926    3652.5369   -52873.462   0.34751482 
   25500    277.13673     51.29488    140850.97   -49108.801    3805.8056   -52914.606   0.35538853 
   25600    276.76196   -3.1207518    140875.72   -49034.256     3800.659   -52834.915   0.38988492 
   25700    270.96259   -8.8924504     140865.2   -49123.444    3721.0186   -52844.463    0.3562855 
   25800    275.37207   -18.595607    140892.61   -48990.275    3781.5722   -52771.847   0.35598171 
   25900    272.42561   -21.833502    140905.92   -49009.697    3741.1097   -52750.807    0.3958602 
   26000    274.10542    42.250908    140939.64   -49065.545    3764.1778   -52829.723   0.35477304 
   26100    278.25842   -5.0569456    140917.33   -49041.281    3821.2093    -52862.49   0.34947151 
   26200    271.36522   -2.9792379     140890.8   -49140.813    3726.5478   -52867.361   0.38376595 
   26300    271.08718   -3.4788309    140892.41   -49105.341    3722.7297    -52828.07   0.37361154 
   26400    274.13712   -4.8362897    140869.68   -49159.146    3764.6131   -52923.759   0.35411984 
   26500    276.76492    21.213051    140892.42   -49082.372    3800.6997   -52883.072   0.36736534 
   26600    274.87084    6.7831541    140891.41    -49026.68     3774.689   -52801.369   0.38251073 
   26700    272.01268    8.4897763    140925.11   -49027.822    3735.4392   -52763.262    0.3627977 
   26800    272.39147   -40.615067    140901.59   -49077.888    3740.6409   -52818.529   0.35770542 
   26900    275.40881    8.8350666    140913.03   -49022.958    3782.0768   -52805.035   0.38492965 
   27000    273.65082    5.3091893    140903.88   -49052.322    3757.9351   -52810.257   0.37253541 
   27100    276.83504   -36.420948    140896.48   -48999.057    3801.6626    -52800.72    0.3599515 
   27200    272.97944    7.7960635    140897.71    -49063.21    3748.7152   -52811.925   0.36767249 
   27300    277.39849    33.421433    140919.26   -48898.316    3809.4003   -52707.716   0.38679127 
   27400    277.11699   -7.4604065    140920.91   -49017.996    3805.5345    -52823.53   0.35806596 
   27500     270.6512      -10.009    140884.03   -49118.052    3716.7425   -52834.794   0.35502284 
   27600    271.99701    1.7842566    140842.17   -49168.578     3735.224   -52903.802   0.39624844 
   27700    274.85598    46.847628    140877.98   -49072.382     3774.485   -52846.867   0.34923503 
   27800    272.92247   -44.758131    140901.81   -49052.858    3747.9329   -52800.791   0.35382162 
   27900    270.53639   -6.7424953    140867.31     -49108.5    3715.1658   -52823.666   0.39571341 
   28000    274.48982   -37.978996    140837.69   -49177.695    3769.4566   -52947.151   0.36749096 
   28100    269.49276    12.274155     140810.2   -49149.994     3700.834   -52850.828   0.35028342 
   28200    267.83306    17.030313    140839.85   -49119.687    3678.0421   -52797.729   0.38799145 
   28300    270.54591    -6.049559    140841.15   -49141.017    3715.2965   -52856.313   0.38332001 
   28400     271.8246    17.352376    140860.98   -49077.958    3732.8563   -52810.814   0.34023296 
   28500    270.73137   -19.670385    140882.65   -49113.096    3717.8434   -52830.939   0.37604206 
   28600    270.55863   -3.2602283    140884.55   -49117.334    3715.4712   -52832.805   0.38001752 
   28700    271.91723    -18.85169    140872.64   -49116.468    3734.1283   -52850.597   0.35021473 
   28800    272.96136    22.240722    140858.92   -49154.974    3748.4669   -52903.441   0.36504331 
   28900    275.67262    13.204891    140854.72   -49127.542    3785.6996   -52913.242   0.38172995 
   29000    273.15623    16.337932    140885.34    -49072.04     3751.143   -52823.183   0.35645795 
   29100    272.24768   -34.745603    140905.61   -49073.574    3738.6664   -52812.241   0.36224098 
   29200    276.88704    -3.060226    140908.16   -49014.446    3802.3767   -52816.822   0.37488799 
   29300    276.86479   -19.491284    140867.54   -49011.712    3802.0712   -52813.783   0.37026918 
   29400     276.9101   -9.9254289    140880.24   -49026.054    3802.6935   -52828.748   0.36215745 
   29500    270.53602   -39.176413    140879.39   -49062.775    3715.1607   -52777.935   0.37383436 
   29600    275.27002    9.9832948    140902.39   -49034.571    3780.1708   -52814.741   0.37488292 
   29700    272.09143    17.960377    140864.03   -49105.829    3736.5206   -52842.349   0.36849893 
   29800    273.86544    7.1871198     140840.4   -49199.204    3760.8823   -52960.086   0.35616206 
   29900    269.70931   -8.9364784    140865.87   -49183.998    3703.8078   -52887.806   0.38436887 
   30000    273.07591   -28.593087    140873.76   -49146.716      3750.04   -52896.756   0.37420025 
   30100     276.6031    5.8661632    140908.48   -49124.004    3798.4775   -52922.481   0.34690644 
   30200    272.43018    18.421855    140887.38   -49126.915    3741.1725   -52868.088   0.37315254 
   30300    271.17381   -9.3384102    140867.49   -49115.307    3723.9193   -52839.226   0.38648184 
   30400     265.3206  -0.72874376    140861.68    -49150.72    3643.5395   -52794.259   0.35458992 
   30500    267.64631   -27.430548    140807.22   -49242.722    3675.4776     -52918.2   0.35878273 
   30600    273.06222     40.22208    140840.04   -49122.564     3749.852   -52872.416   0.39450484 
   30700    265.78213  -0.12637651    140865.28   -49154.488    3649.8775   -52804.365   0.36149857 
   30800    277.71322    12.432345    140899.14    -49095.88    3813.7223   -52909.602   0.35295361 
   30900    272.78898    23.123783    140933.03   -49071.305    3746.0998   -52817.405    0.3886383 
   31000    274.06885    33.086556    140938.65   -49103.787    3763.6756   -52867.463   0.35181413 
   31100    273.59317    33.885045     140908.2   -49110.785    3757.1434   -52867.929   0.34813331 
   31200    272.37852    -22.45446    140910.86   -49061.433    3740.4631   -52801.896   0.38399998 
   31300    279.37222    21.067894    140925.81   -48998.536    3836.5047    -52835.04   0.36661584 
   31400    273.58555   0.87033162    140899.13   -49108.886    3757.0388   -52865.925   0.35308601 
   31500    272.91028    3.1888144    140868.98   -49058.283    3747.7655   -52806.048   0.37825454 
   31600    276.39163   -1.9979803    140882.67   -49081.854    3795.5735   -52877.428   0.38409035 
   31700    270.48566   -16.025585    140892.09   -49057.248    3714.4692   -52771.717   0.35672305 
   31800     274.5029    21.904503    140897.59   -49112.913    3769.6364   -52882.549   0.36623553 
   31900    274.84925    33.385002    140871.61   -49103.771    3774.3925   -52878.163   0.38249987 
   32000    273.74996    46.831437    140885.75   -49063.067    3759.2964   -52822.364     0.364292 
   32100    270.53986   -3.7553201    140884.71   -49097.055    3715.2135   -52812.269   0.36952779 
   32200    273.93353   -35.238476     140885.2    -49215.73    3761.8173   -52977.547   0.36143315 
   32300    270.22457    2.2068092    140852.34   -49161.255    3710.8838   -52872.139   0.38077175 
   32400     269.4359   -18.707072    140810.19   -49247.437    3700.0533   -52947.491   0.36133322 
   32500    276.53838    31.666387    140864.54   -49112.601    3797.5887    -52910.19    0.3634469 
   32600    272.91481    23.318732    140866.58   -49069.685    3747.8277   -52817.513    0.3820537 
   32700    272.76356    6.9035668    140870.98    -49155.69    3745.7507    -52901.44   0.35574248 
   32800     270.9759   -1.2019037     140902.5   -49029.388    3721.2015   -52750.589    0.3619181 
   32900    269.37319   -10.947432    140877.86   -49095.529    3699.1921   -52794.721   0.38721887 
   33000    270.01556   -2.1808148    140875.44   -49084.735    3708.0136   -52792.749   0.37271509 
   33100    273.19114    18.684513    140876.15   -49110.897    3751.6224    -52862.52   0.35212698 
   33200    273.96536   -7.2393968    140896.03    -49092.79    3762.2544   -52855.044   0.38645853 
   33300    277.19768   -2.2399941    140927.01   -49094.216    3806.6427   -52900.858   0.37198226 
   33400    274.42478    -17.33641    140898.03   -49115.746    3768.5635   -52884.309   0.34758293 
   33500    270.54179   0.65353129    140877.48   -49140.734      3715.24   -52855.974   0.37969934 
   33600     271.2258   -23.811611    140852.31   -49153.898    3724.6333   -52878.531    0.3930618 
   33700    274.71243    8.5924864    140869.78   -49055.057    3772.5137   -52827.571   0.35961468 
   33800     278.0896   -6.6901287    140893.82   -48947.813     3818.891   -52766.704   0.37304945 
   33900    275.36297   -6.9246241    140889.71    -48966.08    3781.4473   -52747.527   0.40318568 
   34000    276.90424    6.1207367    140868.82   -49103.257     3802.613    -52905.87    0.3553628 
   34100    271.27297    16.020032    140841.52   -49120.545     3725.281   -52845.826   0.36272999 
   34200    270.87456   -6.5464996    140824.18    -49120.59    3719.8097   -52840.399   0.39439845 
   34300     276.1859    18.079743    140854.31    -49160.04    3792.7482   -52952.788    0.3635657 
   34400    277.73938    36.198107    140830.81   -49088.573    3814.0816   -52902.655   0.36216533 
   34500    273.49176    12.227124    140877.82   -49019.503    3755.7507   -52775.254   0.38627138 
   34600    278.29828   -11.459661     140960.5    -49024.79    3821.7567   -52846.547   0.37608676 
   34700    273.19915   -22.494951    140911.68   -49127.206    3751.7325   -52878.938   0.34972171 
   34800    279.69407    19.146089    140898.42   -49122.383    3840.9246   -52963.307   0.35835104 
   34900    277.44141    3.8137432    140879.59   -49105.098    3809.9896   -52915.088   0.38493364 
   35000    271.52701    15.894366    140890.01   -49080.902    3728.7696   -52809.671   0.35636209 
   35100     274.3164  0.036672734    140898.11   -49096.738    3767.0752   -52863.813   0.35505918 
   35200    271.85288    7.9005338    140890.99   -49037.746    3733.2447   -52770.991   0.38462659 
   35300    270.97199    2.7005626    140886.72   -49113.976    3721.1478   -52835.124   0.37622289 
   35400    274.76404   -26.296115    140863.05   -49118.307    3773.2224    -52891.53   0.35053144 
   35500    272.75202   -3.2062232    140852.06   -49101.981    3745.5922   -52847.573   0.36952778 
   35600    271.37568   -12.866901    140879.86   -49081.705    3726.6914   -52808.397   0.38521521 
   35700    268.45348   -37.483636    140874.35   -49089.573    3686.5621   -52776.135   0.35196497 
   35800    280.73782   -25.284123    140932.19   -48937.952    3855.2579    -52793.21   0.36086341 
   35900    275.51193     13.34727     140922.8   -49042.045    3783.4928   -52825.538   0.38748924 
   36000    275.05841   -6.0248998    140879.43   -49100.449    3777.2648   -52877.714    0.3537094 
   36100    277.06761   -3.5112702    140866.52   -49144.441    3804.8564   -52949.297   0.34961429 
   36200    270.99612   -23.871235    140850.88   -49170.405    3721.4791   -52891.884   0.38688463 
   36300    273.47927    50.863554    140841.31   -49108.133    3755.5792   -52863.712   0.36820297 
   36400    273.05842    -13.57518    140833.31   -49156.239    3749.7998   -52906.039   0.35188168 
   36500    273.35389   -6.6857181    140845.79   -49135.022    3753.8574    -52888.88   0.37346054 
   36600    276.76746    39.327473    140860.45   -49137.415    3800.7346    -52938.15   0.37438637 
   36700     275.0478   -6.8798276    140857.32   -49176.047    3777.1192   -52953.166   0.33426049 
   36800    265.53456   -19.751743    140825.58   -49241.761    3646.4777   -52888.238   0.36947452 
   36900    266.35876   -11.832008    140804.61   -49162.092    3657.7962   -52819.889   0.38680661 
   37000     273.6547   -23.965669    140817.01   -49150.804    3757.9883   -52908.792   0.35755289 
   37100    270.52257   -14.539537     140818.6   -49191.284    3714.9761    -52906.26   0.36513867 
   37200    270.53343   -10.785162    140808.85   -49191.693    3715.1252   -52906.818   0.37713182 
   37300    268.34371   -23.233529    140835.78   -49190.643    3685.0546   -52875.697   0.37543753 
   37400    270.38125   -10.258197    140836.39    -49204.08    3713.0354   -52917.116   0.35315137 
   37500     272.3774    8.3085369     140832.8   -49174.324    3740.4477   -52914.772   0.36920009 
   37600    266.19121   -72.085354    140829.99   -49220.897    3655.4953   -52876.392   0.37971069 
   37700    268.41565   -4.2996204    140777.55   -49294.287    3686.0426   -52980.329   0.35752978 
   37800     268.2542    43.517497    140764.94   -49314.498    3683.8254   -52998.324    0.3590107 
   37900    272.39205     9.564578    140800.39   -49224.925    3740.6489   -52965.574   0.38392829 
   38000    272.65995   -16.880178    140819.63   -49157.662    3744.3278    -52901.99   0.37003645 
   38100    273.19737    14.280402    140864.63   -49103.196     3751.708   -52854.904   0.34667521 
   38200    276.69414   -7.0745402    140872.86   -49074.674    3799.7277   -52874.402   0.39137551 
   38300    272.08061   -16.267462    140877.88   -49122.558     3736.372    -52858.93   0.37527966 
   38400    275.14739    24.311223    140903.25   -49056.318    3778.4868   -52834.805   0.33808799 
   38500    272.88969   -32.313344    140878.75   -49115.248    3747.4828   -52862.731   0.38046188 
   38600    277.14145    9.9847626    140867.29    -49075.83    3805.8705     -52881.7   0.37669339 
   38700    277.44101    10.388261     140860.6   -49050.834    3809.9842   -52860.818   0.34980551 
   38800    278.34105     37.75943    140859.96   -49081.441     3822.344   -52903.785   0.35978876 
   38900    277.34459     16.07966    140854.44   -49019.841    3808.6601   -52828.501   0.39038058 
   39000    269.82888   -28.478504     140865.6   -49075.514    3705.4499   -52780.964   0.35695967 
   39100    274.42655   -32.971339     140861.5   -49097.428    3768.5878   -52866.016   0.36373241 
   39200    265.86416    1.9528273    140821.22   -49217.056     3651.004    -52868.06   0.39003412 
   39300    272.29126    39.577748    140796.22   -49222.621    3739.2647   -52961.885   0.35764061 
   39400    270.43282    -63.59561    140857.12   -49102.403    3713.7435   -52816.147   0.36466867 
   39500    272.71102   -2.1339126    140864.72   -49084.488    3745.0292   -52829.517   0.38199681 
   39600    278.05156    4.3081838    140889.49   -49084.588    3818.3686   -52902.957   0.36844677 
   39700    274.04486   -24.800561    140887.27   -49064.816    3763.3463   -52828.163   0.36187752 
   39800    276.59978   -1.7074388    140864.71   -49088.187    3798.4318   -52886.619   0.37370031 
   39900    278.18472    5.2357989    140881.53   -49060.174    3820.1972   -52880.372   0.37376889 
   40000    272.57517   0.42177859    140862.42   -49124.995    3743.1636   -52868.159   0.36747212 
   40100    273.69716    16.233118    140844.23   -49136.423    3758.5714   -52894.995   0.36491357 
   40200    272.33182   -6.6048731    140834.24   -49106.887    3739.8218   -52846.709   0.37717435 
   40300    272.84231    13.572276     140838.6   -49123.608    3746.8321    -52870.44   0.37436224 
   40400    273.05456   -25.836846    140823.59    -49205.69    3749.7469   -52955.437   0.35084778 
   40500    275.35984    15.441328    140825.33       -49069    3781.4043   -52850.404   0.37212238 
   40600    271.45537    -25.38211    140852.95   -49140.389    3727.7858   -52868.175    0.3814867 
   40700    274.09517   -1.3830669     140841.6   -49145.007    3764.0371   -52909.044     0.365554 
   40800    269.75754   -34.371868    140847.11   -49124.404    3704.4702   -52828.875   0.36436257 
   40900    270.55508    5.1191338    140842.43   -49110.489    3715.4225   -52825.911   0.39125757 
   41000    270.53428   -25.208323    140852.98   -49171.433    3715.1368    -52886.57   0.36728195 
   41100    269.66099   -33.401478    140832.82   -49141.359    3703.1444   -52844.503   0.35677181 
   41200    275.45371   -2.5707171    140889.26   -49039.948    3782.6934   -52822.642   0.38766474 
   41300    274.82799   -7.8811009    140874.35   -49116.391    3774.1006   -52890.491   0.36320716 
   41400    275.18053    15.396867    140844.37   -49061.424     3778.942   -52840.366   0.35791709 
   41500    271.86635   -10.099265    140880.23   -49079.482    3733.4297   -52812.912   0.37972493 
   41600    274.21075     50.95066    140882.24   -49080.952    3765.6243   -52846.576    0.3775983 
   41700    269.69955    -33.07457    140823.97   -49186.499    3703.6739   -52890.173   0.35423799 
   41800    273.71358    18.958776    140841.85   -49099.882    3758.7969   -52858.679   0.38105434 
   41900    273.86648    16.908918    140833.39   -49181.159    3760.8966   -52942.056   0.38174256 
   42000    274.64046    12.930571    140843.99    -49157.97    3771.5254   -52929.495   0.35723206 
   42100    265.87288   -10.663014    140802.88   -49221.769    3651.1237   -52872.893   0.37539352 
   42200    268.34961   -2.2349793    140808.95   -49184.798    3685.1357   -52869.934    0.3800534 
   42300    270.28396    5.6312857    140831.37   -49145.617    3711.6993   -52857.316   0.37301543 
   42400    269.49871    -5.076927    140856.42   -49176.543    3700.9159   -52877.459   0.35585259 
   42500    275.36865    18.402348    140826.98   -49140.396    3781.5253   -52921.921   0.37046181 
   42600    271.36667    3.7958861    140816.89   -49165.797    3726.5678   -52892.365   0.37896689 
   42700    268.93955   -21.026632    140826.38   -49239.523     3693.237    -52932.76   0.35587238 
   42800    272.86814   -24.098602    140823.72   -49159.682    3747.1868   -52906.868   0.37101622 
   42900     278.3201    23.284973    140821.28    -49173.97    3822.0563   -52996.027   0.37571319 
   43000    272.19162     9.511611    140792.21   -49190.255    3737.8964   -52928.151   0.36986198 
   43100    270.75117    9.8970003    140838.05   -49118.214    3718.1153   -52836.329   0.35659236 
   43200    270.41148   -15.559609    140834.15    -49131.37    3713.4505    -52844.82   0.39176455 
   43300    276.39222    12.147337    140824.97   -49127.008    3795.5816    -52922.59   0.37153392 
   43400    270.71508    10.757035    140836.36   -49054.265    3717.6197   -52771.885   0.35515283 
   43500    271.09599   -7.5528394    140842.23   -49103.757    3722.8505   -52826.608   0.39395722 
   43600    268.01319   -5.6083931    140842.71   -49147.823    3680.5158   -52828.338   0.38625545 
   43700    268.79727   -5.5936227    140809.47   -49195.096    3691.2832   -52886.379   0.35298771 
   43800    269.56685    37.047237    140815.84   -49228.417    3701.8515   -52930.268   0.37009277 
   43900    270.31645   -14.836195    140812.81   -49144.863    3712.1456   -52857.009   0.39221493 
   44000    270.20394   -5.6106975    140807.42   -49229.554    3710.6004   -52940.154   0.34989791 
   44100    269.63123     28.38929    140819.77   -49182.835    3702.7357    -52885.57   0.36552931 
   44200    264.00994   -6.5325377     140831.6   -49149.003    3625.5408   -52774.544    0.3937634 
   44300    271.33488   -28.028555    140834.23   -49151.607    3726.1311   -52877.738   0.37109674 
   44400    272.50034    29.651878    140820.48   -49160.132     3742.136   -52902.268   0.35749306 
   44500    273.78411    10.531357    140830.38   -49166.815    3759.7654   -52926.581   0.38418637 
   44600    271.43222    6.0517999    140825.29   -49174.164    3727.4678   -52901.632   0.37585347 
   44700     270.2327   -14.818454    140819.53   -49155.032    3710.9954   -52866.027    0.3545861 
   44800    272.66475    7.1507449    140814.07   -49115.682    3744.3938   -52860.076     0.379509 
   44900    273.49009    10.666317    140841.29    -49105.36    3755.7278   -52861.088    0.3819233 
   45000     272.8553    -15.40445    140834.52   -49143.104    3747.0104   -52890.115   0.35203707 
   45100    274.61042    27.954028       140857   -49038.254    3771.1128   -52809.367   0.36898753 
   45200    268.28625    14.806115    140852.23   -49068.585    3684.2656   -52752.851    0.3881372 
   45300    272.19024   -46.124381    140872.36   -49094.704    3737.8775   -52832.581   0.36087521 
   45400    273.87724    14.133579    140837.49   -49153.367    3761.0444   -52914.411   0.36314501 
   45500    270.04004   -2.5180294    140847.45   -49100.085    3708.3497   -52808.434   0.38228288 
   45600    273.62215    5.0204174    140846.63    -49086.34    3757.5413   -52843.882   0.37719228 
   45700    277.98069    -12.83182    140836.14   -49041.395    3817.3954    -52858.79   0.36567877 
   45800    273.32779   -6.7093982    140825.16   -49113.328     3753.499   -52866.828    0.3769341 
   45900    279.85889    12.401804    140843.06   -48981.826    3843.1879   -52825.014    0.3871728 
   46000    273.91121    20.139023     140860.4   -49046.922    3761.5109   -52808.433   0.35574553 
   46100    273.14868    27.057679    140902.58   -48960.038    3751.0394   -52711.078   0.37528717 
   46200    279.37822    29.184134    140902.34   -49006.286    3836.5871   -52842.873   0.37735528 
   46300    278.25626    -14.02944    140895.57   -48998.638    3821.1797   -52819.818   0.37533423 
   46400    277.41297    6.3260371    140878.73   -49046.795     3809.599   -52856.394   0.36120272 
   46500    275.08783    20.837582    140886.61   -49018.806    3777.6688   -52796.475   0.37873642 
   46600    272.79763   -28.764694    140872.12   -49067.205    3746.2185   -52813.423   0.38874704 
   46700    277.43029   0.34943217    140890.25   -49004.388     3809.837   -52814.225   0.35260595 
   46800    272.67052   -17.302978    140885.48   -49016.059    3744.4729   -52760.532   0.38452943 
   46900    279.22243    28.576301    140889.61    -49079.46    3834.4476   -52913.908   0.37923905 
   47000    276.36502   -12.870473    140868.49   -49102.378    3795.2081   -52897.586   0.35312156 
   47100    274.29497   -25.171791    140856.03    -49118.63    3766.7808   -52885.411    0.3788989 
   47200    276.71607    18.664978    140861.97   -49088.247    3800.0288   -52888.276   0.38565041 
   47300    264.85281     -46.4557    140849.76   -49202.184    3637.1155   -52839.299   0.37122496 
   47400    272.29424    10.287938    140848.05   -49142.689    3739.3057   -52881.994   0.36169734 
   47500    272.10255    3.0678448    140834.05   -49145.021    3736.6733   -52881.695   0.38845026 
   47600     270.3226    9.0141196    140850.25   -49140.587      3712.23   -52852.816   0.36863763 
   47700    268.62096   -22.008915    140841.35    -49066.93    3688.8621   -52755.792   0.36937108 
   47800    272.39465    18.470806    140863.74   -49123.394    3740.6846   -52864.079   0.37920872 
   47900    272.22018   -14.892868    140848.13   -49168.543    3738.2886   -52906.832   0.37123092 
   48000    271.51322    39.838386    140875.01     -49137.9    3728.5803   -52866.481   0.36840688 
   48100    275.96342    3.6827995    140844.27   -49174.582     3789.693   -52964.275   0.36439676 
   48200    272.08178   -25.104899    140860.27   -49167.704     3736.388   -52904.092   0.38145992 
   48300    274.72626    23.837497     140870.2   -49125.729    3772.7037   -52898.432   0.37583573 
   48400    273.64736    17.104482    140872.85   -49158.002    3757.8875    -52915.89   0.36406879 
   48500     265.3667    25.536865    140828.83   -49239.214    3644.1726   -52883.386   0.37982336 
   48600    269.63009    11.375728    140834.82   -49229.672      3702.72   -52932.392   0.38524674 
   48700    272.29337   -37.472534    140861.28   -49123.382    3739.2938   -52862.675    0.3654204 
   48800    273.35251    6.1637724    140881.82   -49106.274    3753.8385   -52860.113   0.36924989 
   48900    269.90474    1.9228602    140875.42    -49131.79    3706.4917   -52838.282   0.38699917 
   49000    266.18626   -16.113811    140833.28   -49164.253    3655.4273   -52819.681   0.36272495 
   49100    272.53369   -37.537336    140853.44   -49086.857     3742.594   -52829.451   0.36718969 
   49200    278.63478   -1.1399993    140854.52   -49119.599    3826.3777   -52945.977   0.38488077 
   49300    274.86683   -22.776131    140843.84   -49184.422     3774.634   -52959.056   0.36087626 
   49400    272.10317   -6.0413435     140830.3   -49203.641    3736.6818   -52940.323   0.35725178 
   49500    272.50546   -21.558519    140827.44   -49144.065    3742.2062   -52886.271   0.39352943 
   49600    269.55315   -2.6473445    140805.26   -49134.446    3701.6634   -52836.109   0.37187793 
   49700    275.01527    24.082036    140822.33   -49140.893    3776.6724   -52917.565   0.35710878 
   49800     269.7909   -2.3670338    140803.47   -49154.238    3704.9283   -52859.166   0.38701649 
   49900    264.59594    5.8606834    140798.12   -49130.613    3633.5881   -52764.201   0.38614151 
   50000    271.39543    16.551153    140806.47   -49137.108    3726.9627   -52864.071     0.363081 
   50100    279.35091    13.216317    140860.58   -49005.596    3836.2121   -52841.808   0.37927579 
   50200    277.48169    1.8776429    140872.68   -49074.259    3810.5428   -52884.801   0.37966005 
   50300    272.22144   -19.677494     140862.4   -49090.836    3738.3059   -52829.142   0.36298418 
   50400    272.90534    28.125626    140846.68   -49105.019    3747.6977   -52852.717   0.37164883 
   50500    280.00809    35.732533    140863.73   -49024.885    3845.2368   -52870.122   0.38125528 
   50600    280.23036    8.4767366    140855.94   -48952.878    3848.2891   -52801.167    0.3707316 
   50700    268.81389   -32.281175    140819.71   -49178.463    3691.5115   -52869.975    0.3727593 
   50800    271.34973   -33.050659    140784.58   -49161.399    3726.3351   -52887.734   0.38027437 
   50900    273.74995    32.625218    140797.74   -49178.972    3759.2964   -52938.268   0.36737951 
   51000    271.19263    9.2744619    140821.81   -49146.075    3724.1777   -52870.252   0.36832966 
   51100    268.82113    -17.86608    140822.24   -49159.054    3691.6109   -52850.665   0.38109845 
   51200     269.6555   -37.331297    140791.48   -49214.754     3703.069   -52917.823   0.37959422 
   51300    271.26717    20.223954    140781.95   -49227.284    3725.2013   -52952.485   0.37284476 
   51400    272.34919     19.13006    140805.98    -49165.26    3740.0603    -52905.32   0.36957427 
   51500    267.13643    1.3262054    140785.49   -49221.798    3668.4756   -52890.274   0.38206226 
   51600    269.57666   -1.2996399    140786.41   -49140.586    3701.9862   -52842.572   0.38147806 
   51700    277.98414    49.867189    140839.17   -49038.617    3817.4427    -52856.06   0.36473584 
   51800    279.10418   -7.0864007     140835.3   -49079.828    3832.8239   -52912.652   0.38725122 
   51900    272.21156   -9.7196583    140846.33   -49138.891    3738.1702   -52877.061   0.38344096 
   52000    269.47245   -25.553699    140840.61   -49124.998    3700.5552   -52825.553   0.36784994 
   52100    268.46433    1.0109015    140843.48   -49197.819    3686.7111    -52884.53   0.37293497 
   52200    266.46232   -14.548752    140804.57   -49247.366    3659.2183   -52906.584    0.3875938 
   52300    267.98364   -6.9032392     140802.5   -49231.172      3680.11   -52911.282    0.3656966 
   52400    265.57597    7.4066849    140772.12   -49309.611    3647.0464   -52956.657   0.36460389 
   52500    270.33078    25.291341    140765.15    -49164.94    3712.3422   -52877.282   0.39147514 
   52600    272.12255      10.6754    140818.67   -49142.703    3736.9479   -52879.651   0.36443651 
   52700      273.431     22.04337    140823.19   -49081.071    3754.9164   -52835.987   0.36474256 
   52800    273.68316   -13.930113       140853   -49056.975    3758.3792   -52815.354   0.39402153 
   52900    275.73812    8.0723407    140861.98   -49075.456     3786.599   -52862.055   0.37456313 
   53000    277.82812    8.6831336    140874.09   -49028.797    3815.3003   -52844.098   0.35775901 
   53100    274.64961   -6.1852247     140824.9   -49153.775     3771.651   -52925.426   0.37824964 
   53200     266.8096   -20.243919    140801.74   -49198.612    3663.9873   -52862.599   0.37878483 
   53300    274.22046    49.015007    140793.32   -49165.258    3765.7576   -52931.016   0.35528251 
   53400    274.79507    5.0107959     140840.5   -49105.186    3773.6486   -52878.835   0.37012049 
   53500    271.04377     47.01384    140834.19    -49093.54    3722.1335   -52815.673    0.3841631 
   53600    267.54334   -13.678358    140846.45   -49157.173    3674.0635   -52831.237   0.36762689 
   53700    271.72767    8.9244331     140899.1   -49143.808    3731.5252   -52875.334   0.36571454 
   53800    270.73417    4.2343357    140897.61   -49167.435    3717.8818   -52885.317   0.37021644 
   53900    271.76134   -14.626835    140885.53   -49178.292    3731.9875    -52910.28    0.3653185 
   54000    270.74294   -1.6359624    140865.21   -49185.248    3718.0023   -52903.251   0.36495191 
   54100    269.37526   -3.4870422    140862.42   -49160.164    3699.2205   -52859.384   0.37032038 
   54200    269.10347    9.7548504    140859.47   -49111.088    3695.4882   -52806.576   0.37780112 
   54300    273.02814   -16.900179    140877.49   -49040.244     3749.384   -52789.628   0.37275464 
   54400    279.81594    26.616507    140916.72   -48964.208    3842.5981   -52806.806   0.36319716 
   54500    274.12688   -4.9276251    140867.76   -49024.222    3764.4726   -52788.695   0.38431772 
   54600    275.38381   -33.769589       140876   -49045.222    3781.7335   -52826.955   0.37676936 
   54700    271.61683   -14.913768    140867.35   -49096.056    3730.0031   -52826.059    0.3653979 
   54800    274.90984   -4.2608067    140891.87   -49038.129    3775.2247   -52813.353   0.37742866 
   54900    278.58395    31.377073    140895.78   -49054.567    3825.6798   -52880.247   0.37455119 
   55000    277.15777     -27.0191     140878.5   -49077.162    3806.0946   -52883.256   0.36018147 
   55100    273.29415   -7.0906697    140886.21    -49101.29    3753.0371   -52854.327   0.36706388 
   55200    271.27493   -16.565133    140844.09   -49202.582    3725.3079    -52927.89   0.38704642 
   55300    266.34448    3.2670973    140824.65   -49249.098       3657.6   -52906.698   0.36290325 
   55400    273.25449    22.764722    140825.77   -49216.098    3752.4924    -52968.59   0.36200412 
   55500    267.52603     28.68993    140821.86   -49177.082    3673.8258   -52850.908   0.39285066 
   55600    274.79606    20.022911    140851.28   -49075.419    3773.6622   -52849.081   0.35768433 
   55700    273.85173     15.46023    140879.25   -49036.354    3760.6941   -52797.048   0.36767644 
   55800    276.24341    15.279359    140909.32   -49028.178    3793.5381   -52821.717   0.38373922 
   55900    273.81554   -22.009783    140889.42   -49035.631    3760.1971   -52795.828   0.36744175 
   56000    270.36666   -5.7477309    140885.44    -49048.86     3712.835   -52761.695   0.36669088 
   56100    275.41193    5.2880623    140912.51   -49037.941    3782.1197   -52820.061   0.38316316 
   56200    272.31995    17.426843    140903.36   -49067.991    3739.6588    -52807.65   0.37819988 
   56300    274.97008    16.482305    140866.22   -49136.009    3776.0519   -52912.061   0.35931467 
   56400    271.33507   -27.704827     140819.8   -49181.921    3726.1337   -52908.055    0.3856923 
   56500    267.01888   -10.078287    140812.64   -49228.708    3666.8613   -52895.569   0.37724845 
   56600    267.65227    23.200649     140799.7   -49280.823    3675.5594   -52956.382   0.35750943 
   56700    269.60597    3.5614298    140829.27   -49267.957    3702.3887   -52970.345   0.37572459 
   56800    270.82592   -8.5217519    140859.89   -49159.413    3719.1419   -52878.555   0.36630349 
   56900    267.09306    5.2508392    140859.73   -49250.113    3667.8799   -52917.993   0.36924191 
   57000    265.31222   -14.920346    140828.95   -49234.994    3643.4244   -52878.419   0.37612834 
   57100    272.90198   -14.272578    140852.17    -49151.87    3747.6515   -52899.521   0.36816175 
   57200    277.04971    16.460217    140874.42   -49113.318    3804.6107   -52917.929   0.36951356 
   57300    270.76245   -31.195319    140833.67   -49236.319    3718.2702   -52954.589   0.37500189 
   57400    266.86532   -2.7754385    140855.51     -49131.7    3664.7525   -52796.452   0.36629745 
   57500    270.46842    10.560901    140855.01   -49090.144    3714.2324   -52804.377   0.38070887 
   57600    271.38169    -4.087749    140859.13   -49200.514     3726.774   -52927.288   0.37138617 
   57700    276.32049    40.510656    140842.94    -49113.39    3794.5965   -52907.986   0.36541377 
   57800    279.93467    23.773055    140886.48   -49070.448    3844.2286   -52914.676   0.37545177 
   57900    276.02048   -24.014266     140903.3   -49110.028    3790.4765   -52900.505   0.37246047 
   58000    274.19793   -6.9774667    140915.34   -49069.959    3765.4483   -52835.407   0.37136637 
   58100    272.28448    3.8556937    140903.63   -49113.569    3739.1716    -52852.74   0.36752805 
   58200    275.23142   -1.2917334    140903.22   -49012.907    3779.6407   -52792.548   0.38730259 
   58300    272.64285   -27.744694    140904.01   -49079.322     3744.093   -52823.415    0.3668659 
   58400    274.96226   -4.9220567    140884.29   -49120.155    3775.9444   -52896.099   0.36850622 
   58500     272.5061   -12.714757     140856.5   -49120.891    3742.2151   -52863.106   0.38799209 
   58600    271.33327   -3.7838821    140838.01    -49160.17    3726.1091   -52886.279   0.36392307 
   58700    272.94664    7.7351815    140843.17   -49112.089    3748.2648   -52860.354   0.37433408 
   58800    273.32873   -11.204419    140826.44    -49151.19    3753.5118   -52904.702   0.38628955 
   58900    276.60318   -5.5716271    140862.54   -49075.431    3798.4785   -52873.909   0.36778598 
   59000    272.44578   -30.097729    140888.59   -49042.472    3741.3868   -52783.859   0.37529644 
   59100    277.61617    19.065584    140913.61   -49010.284    3812.3896   -52822.673   0.37957775 
   59200    274.57389    29.742474    140878.34   -49118.681    3770.6112   -52889.292   0.37292209 
   59300    277.72565    13.346924    140874.95   -49105.906     3813.893   -52919.799   0.36109339 
   59400    272.56507   -9.1915765    140872.69   -49089.364    3743.0249   -52832.389   0.37169306 
   59500    270.13877   -2.5089298    140854.68   -49189.759    3709.7055   -52899.464   0.37623395 
   59600    272.16055    1.1639257    140862.63   -49170.495    3737.4698   -52907.965   0.34942126 
   59700    272.51983    3.3863276    140859.96     -49099.5    3742.4037   -52841.903   0.37557295 
   59800    268.68057    12.009647    140859.76   -49209.865    3689.6807   -52899.545   0.36951416 
   59900     270.7891   -8.0973721    140835.99   -49202.393    3718.6362   -52921.029    0.3589271 
   60000    271.39189   -2.4985945    140849.69   -49172.946    3726.9141    -52899.86   0.37002807 
   60100    273.29091   -12.633119    140832.55   -49130.412    3752.9925   -52883.405    0.3656764 
   60200    273.77641    17.769306     140836.8   -49101.924    3759.6597   -52861.583   0.37222421 
   60300    273.45643    20.203728    140848.96   -49059.654    3755.2655    -52814.92   0.37138394 
   60400    271.16816   -40.914394    140863.59   -49015.952    3723.8417   -52739.793   0.38260146 
   60500    277.01129   -14.019081    140881.88   -49040.375    3804.0829   -52844.457   0.38210475 
   60600    273.62039   -13.295847    140884.19   -49101.509    3757.5172   -52859.026   0.36704535 
   60700    276.81311    17.454505    140923.61   -48939.717    3801.3615   -52741.078   0.37196185 
   60800    279.81213     33.91689    140954.52   -48964.389    3842.5458   -52806.935   0.36804147 
   60900    271.60586   -5.9152516    140932.48   -49051.225    3729.8524   -52781.078    0.3668481 
   61000    273.72069   -23.737116    140883.25   -49090.763    3758.8945   -52849.657   0.36927925 
   61100     273.2531   -7.5236673     140874.9   -49072.748    3752.4733   -52825.221   0.37890719 
   61200    274.93271      36.3907    140893.57   -49019.029    3775.5387   -52794.568   0.37335579 
   61300    273.42585   -44.829291    140865.56   -49109.062    3754.8456   -52863.908   0.37056179 
   61400    271.19002   -37.176765    140859.16   -49157.646    3724.1418   -52881.788   0.37271858 
   61500    271.73579   -19.793548    140856.14   -49093.996    3731.6367   -52825.632   0.38016557 
   61600    271.97124    5.3324333    140885.33   -49142.627      3734.87   -52877.496   0.35535564 
   61700    274.02809   -22.079652    140857.53   -49202.006    3763.1159   -52965.122   0.36729596 
   61800     273.6031    12.411025    140830.11   -49189.721    3757.2797   -52947.001   0.37958245 
   61900    272.34991    12.668127    140856.52   -49086.333    3740.0702   -52826.403    0.3543583 
   62000     271.0998    38.111583    140858.68   -49095.487    3722.9029    -52818.39    0.3748953 
   62100    268.33632   -38.609216    140852.29   -49160.604    3684.9532   -52845.557   0.38393808 
   62200    275.41283    10.510065    140895.29   -49062.629     3782.132   -52844.761   0.36287929 
   62300    272.00993    14.411715    140887.88   -49105.719    3735.4014    -52841.12   0.37356623 
   62400     272.2213    2.2296766    140898.57   -49155.698     3738.304   -52894.002   0.36878365 
   62500    268.50025     34.07979    140852.01   -49143.402    3687.2044   -52830.606   0.37275029 
   62600    273.06581    32.894528     140881.5   -49174.733    3749.9014   -52924.634   0.35691289 
   62700    269.33438   -1.3071959    140844.13   -49203.493    3698.6591   -52902.152   0.38260969 
   62800    268.85128    7.7740683    140803.03    -49174.82    3692.0249   -52866.845   0.37993259 
   62900    270.86355   -8.8439361    140844.51   -49088.452    3719.6585    -52808.11   0.36801659 
   63000    273.30469    28.714859    140849.96   -49115.079    3753.1818   -52868.261   0.37389911 
   63100     268.4962    32.175511    140832.87   -49187.904    3687.1487   -52875.052    0.3700972 
   63200    276.15984   -3.2360919    140832.66   -49074.198    3792.3904   -52866.589   0.37974751 
   63300    270.42679   -39.225825    140835.82   -49168.696    3713.6607   -52882.356   0.36927806 
   63400    266.92792    14.235654    140787.99   -49245.262    3665.6122   -52910.874    0.3801798 
   63500    272.76843   -24.559759    140797.42   -49222.988    3745.8176   -52968.805   0.38090207 
   63600    272.01264    13.105807    140791.57   -49268.923    3735.4386   -53004.361    0.3619841 
   63700    271.75799    14.797585    140789.83   -49237.425    3731.9416   -52969.367   0.37610435 
   63800    268.70664   -42.475579    140787.39   -49306.259    3690.0387   -52996.297    0.3770797 
   63900    271.46226    6.3912737    140802.02   -49202.864    3727.8804   -52930.744   0.37027243 
   64000    273.18523    24.330299    140824.39   -49120.169    3751.5412   -52871.711   0.37055944 
   64100    274.83957   -6.8159744    140840.73   -49075.908    3774.2596   -52850.168   0.38705558 
   64200    278.21615   -22.869545    140865.01   -49067.454    3820.6288   -52888.083   0.37282853 
   64300    275.58014   -4.5833654    140869.95   -49101.864    3784.4296   -52886.293   0.36667541 
   64400    268.78326   -18.734573    140851.65   -49156.741    3691.0908   -52847.832   0.38548871 
   64500    269.51274   -12.618929       140835   -49144.499    3701.1085   -52845.607    0.3819465 
   64600    268.35146   -18.904962    140835.69    -49181.56    3685.1611   -52866.721   0.36524577 
   64700    265.80664     33.92469    140848.89   -49185.769     3650.214   -52835.983   0.37216722 
   64800    271.39906   -4.7039974    140841.42   -49134.325    3727.0125   -52861.338   0.38503273 
   64900    276.77151    9.3508486    140876.52   -49057.228    3800.7902   -52858.019   0.36567522 
   65000    275.29325   -16.886919    140881.84   -49046.508    3780.4898   -52826.998    0.3759211 
   65100    274.85346    -28.80994    140854.36   -49113.832    3774.4504   -52888.282   0.38250807 
   65200    271.51256   -3.0626937    140834.48   -49124.486    3728.5712   -52853.057   0.36731503 
   65300    276.06467    3.3408366    140885.09   -49064.034    3791.0835   -52855.117   0.36451708 
   65400    272.50931   -7.7655347    140871.77   -49104.232    3742.2592   -52846.491    0.3791516 
   65500     277.7329    -27.60032    140885.71   -49042.539    3813.9926   -52856.532   0.36945038 
   65600    275.22283  -0.86350287    140876.19   -49053.575    3779.5228   -52833.098   0.36070204 
   65700    276.90558    20.585308     140895.2   -49016.856    3802.6314   -52819.487   0.37823922 
   65800    276.31233    2.7485177    140885.45   -49081.165    3794.4845    -52875.65   0.37082177 
   65900    270.71939   -20.666826    140862.23   -49089.738    3717.6789   -52807.417   0.37120708 
   66000    269.22686   -22.479815    140831.34    -49101.61    3697.1827   -52798.792   0.37899737 
   66100    268.89117    55.873233    140836.12   -49068.481    3692.5727   -52761.053   0.38396766 
   66200    269.56206   -10.434048    140805.32   -49193.298    3701.7858   -52895.084   0.37239889 
   66300     274.3169     35.71481    140805.87   -49123.949     3767.082   -52891.031   0.37343722 
   66400    268.11277    2.9975011     140820.4   -49131.899    3681.8833   -52813.783   0.38180837 
   66500    269.20279   -17.079138    140814.12   -49165.407    3696.8521   -52862.259    0.3720786 
   66600    269.95254    -2.025594    140828.86   -49172.594     3707.148   -52879.742   0.37028137 
   66700    266.71329   -7.8477111    140809.63   -49158.357    3662.6647   -52821.021   0.38040531 
   66800    266.45647  0.080337988    140806.14   -49175.501     3659.138   -52834.639   0.38320844 
   66900    264.32486   -26.175025    140813.03   -49182.318    3629.8654   -52812.183   0.37347276 
   67000    268.49046   -19.711787    140770.16   -49284.593      3687.07   -52971.663    0.3695671 
   67100    274.78065    2.9693961    140848.68   -49134.317    3773.4505   -52907.767   0.38455958 
   67200    267.73236   0.82450254    140837.67   -49235.244    3676.6593   -52911.903   0.37057959 
   67300    269.85483    2.1564182     140849.7   -49159.689    3705.8063   -52865.496   0.36363484 
   67400    275.13875    23.691589    140881.69   -49140.855    3778.3682   -52919.223   0.37647733 
   67500    277.81181    3.6458328    140857.43   -49121.028    3815.0761   -52936.104   0.37524605 
   67600    276.25537    4.9203723    140883.88   -48991.773    3793.7022   -52785.475   0.36536983 
   67700    274.21601    6.2951057    140876.91   -49060.993    3765.6966    -52826.69   0.38815271 
   67800    275.78376     10.11655    140883.89   -49099.598    3787.2259   -52886.824   0.37590192 
   67900    269.06488    14.680057    140873.35   -49127.145    3694.9582   -52822.103   0.35887403 
   68000    269.35994   -28.174164     140838.6   -49158.983    3699.0101   -52857.993   0.37984948 
   68100    268.08616   -16.631609    140813.66   -49162.158    3681.5179   -52843.676   0.39147806 
   68200    273.38731    29.220613     140829.1   -49135.884    3754.3164   -52890.201   0.36706902 
   68300    272.79248    25.108241    140850.79    -49083.37    3746.1478   -52829.518   0.36971823 
   68400    272.18433   -29.761146    140868.04   -49051.144    3737.7964    -52788.94    0.3887641 
   68500    274.11936   -9.1586889    140889.61   -49049.549    3764.3694   -52813.918   0.36509035 
   68600     270.0019   -31.620256    140861.72   -49138.734    3707.8259    -52846.56   0.37148724 
   68700    271.96933    1.0114224    140854.54   -49109.824    3734.8439   -52844.668   0.38351393 
   68800    271.25293   -2.7950389    140901.86   -49112.689    3725.0058   -52837.695   0.36943777 
   68900    270.91505   -16.982784    140873.65   -49116.414    3720.3659    -52836.78   0.36627208 
   69000     271.5263    4.6985973     140875.7   -49113.167    3728.7598   -52841.927   0.36728809 
   69100    270.85295   -2.8277301     140826.8   -49170.464     3719.513   -52889.977   0.38379637 
   69200    271.58002   -9.6750421    140830.84   -49185.021    3729.4976   -52914.519   0.36404264 
   69300    266.51055   -2.2782049    140809.26    -49210.95    3659.8806   -52870.831   0.36976706 
   69400    268.42217   -1.2110467    140822.36    -49262.18    3686.1321   -52948.312   0.38236012 
   69500    266.39062    48.346983    140823.35   -49132.965    3658.2336   -52791.198   0.37626177 
   69600    274.49902   -13.049039    140884.18   -49027.521     3769.583   -52797.104   0.37120462 
   69700    271.61456   -50.868872    140851.78   -49117.684    3729.9719   -52847.656   0.38732283 
   69800    272.54561   -5.4926487    140846.65   -49114.885    3742.7576   -52857.643     0.384211 
   69900    270.73624   -10.887884    140847.96   -49206.587    3717.9103   -52924.497   0.36355127 
   70000    268.57495    37.793105    140862.86   -49143.982    3688.2302   -52832.212   0.37761997 
   70100    270.42194    31.690558    140844.73   -49262.146    3713.5942    -52975.74   0.37532604 
   70200    273.60184    16.081701    140887.16   -49104.707    3757.2625    -52861.97   0.36199856 
   70300    272.47488   -2.6731131    140875.45   -49113.839    3741.7863   -52855.625   0.36991238 
   70400    280.65636    43.690112    140922.55   -49009.844    3854.1393   -52863.983   0.38027795 
   70500    275.85369    18.316223    140916.46   -49080.402    3788.1862   -52868.588   0.35641765 
   70600    271.31368   -19.723285    140866.25   -49137.598    3725.8401   -52863.439   0.37307853 
   70700    270.26486    7.1731019    140841.65   -49104.788     3711.437   -52816.225   0.38083065 
   70800    271.44492   -8.6296828    140858.69   -49141.501    3727.6424   -52869.144    0.3741332 
   70900     270.6815    1.1919043    140858.41   -49129.463    3717.1585   -52846.622   0.37320238 
   71000    270.28425   -23.156764    140847.76   -49146.097    3711.7033     -52857.8   0.36956122 
   71100    274.92596    18.471577    140833.27   -49137.871     3775.446   -52913.317   0.37733816 
   71200    272.56841   -26.962666     140852.8    -49176.75    3743.0708   -52919.821   0.37367213 
   71300     270.5029    7.2752406    140822.43     -49222.3    3714.7059   -52937.006   0.36498308 
   71400    273.57031   -10.894508    140824.58   -49166.483    3756.8294   -52923.313   0.37307222 
   71500    267.52617    25.298736    140830.53   -49117.701    3673.8278   -52791.529    0.3841392 
   71600    273.03569    16.604057     140812.1   -49133.469    3749.4876   -52882.957   0.37332492 
   71700    272.67868    17.258883    140834.25   -49127.341     3744.585   -52871.926   0.37566932 
   71800     264.2644  -0.54617426    140805.05   -49286.922    3629.0352   -52915.957   0.38591444 
   71900    268.16249     30.08053    140796.93   -49228.884    3682.5661    -52911.45   0.36849189 
   72000    271.92227    23.669241    140781.95   -49200.238    3734.1976   -52934.435   0.37546757 
   72100    270.02019   -42.323186    140849.74    -49079.94    3708.0771   -52788.018   0.39078819 
   72200    277.94392    3.4800823    140908.52   -48976.717    3816.8904   -52793.608   0.36672837 
   72300     283.7895  -0.79304637    140942.73   -48956.665    3897.1655   -52853.831   0.36385433 
   72400    276.63912    8.7586126    140897.35   -49064.406    3798.9721   -52863.378   0.38337529 
   72500     273.0022   -15.967475    140878.16   -49058.039    3749.0277   -52807.067   0.37091059 
   72600    271.60566    28.996506    140901.07   -49005.762    3729.8497   -52735.612   0.36670204 
   72700    268.51082   -44.722035    140849.85   -49151.189    3687.3496   -52838.539   0.39235335 
   72800    272.84451    2.8796141    140863.87    -49088.43    3746.8623   -52835.292    0.3672218 
   72900    275.90239    33.158128    140860.56   -49090.917    3788.8549   -52879.772   0.36594166 
   73000    275.32284    5.4778193    140873.74   -49104.644    3780.8962    -52885.54   0.37472107 
   73100    273.30894    22.317998    140857.08   -49061.647    3753.2401   -52814.887   0.37280643 
   73200    276.68333   -18.734322    140889.09   -49053.461    3799.5792    -52853.04   0.37048909 
   73300    276.33762    14.091085    140910.94   -49022.757    3794.8318   -52817.588    0.3768425 
   73400    278.62815    3.8718937    140889.37   -49008.344    3826.2867    -52834.63   0.37274907 
   73500    277.81887   -10.322255    140882.72   -49010.119    3815.1732   -52825.292   0.36810966 
   73600    274.64761   -9.5958625    140867.01   -49054.922    3771.6235   -52826.545   0.37882083 
   73700    272.02399   -10.216394     140846.9   -49111.795    3735.5945    -52847.39   0.36564528 
   73800    267.01498    6.2779051    140837.66   -49197.519    3666.8077   -52864.327   0.37580105 
   73900    272.00212   -1.4604578    140848.62   -49181.867     3735.294   -52917.161   0.37636869 
   74000    273.81457    39.616544    140853.43   -49102.946    3760.1838    -52863.13   0.36291857 
   74100    280.96342    1.4703391    140935.05   -48956.008     3858.356   -52814.364   0.36906961 
   74200    272.61514   -50.725779     140926.1   -49115.739    3743.7125   -52859.452   0.38084533 
   74300    274.43395    36.492584    140888.29   -49113.171    3768.6894    -52881.86   0.35963774 
   74400    271.63663   -13.272399    140860.51   -49143.886    3730.2749   -52874.161   0.37038495 
   74500     272.7462   -27.533394    140845.11   -49166.186    3745.5123   -52911.699   0.39078123 
   74600    275.18244    8.8191077    140843.11   -49162.888    3778.9681   -52941.856   0.35653339 
   74700    278.24089    16.113793     140868.3   -49082.063    3820.9686   -52903.032   0.37327694 
   74800    275.03742    16.381423     140857.7   -49133.999    3776.9766   -52910.976   0.38288178 
   74900    271.32439   -27.773128    140886.53    -49134.14    3725.9871   -52860.128   0.35886937 
   75000    275.22428    9.1678924    140884.14   -49118.888    3779.5427   -52898.431   0.36530309 
   75100    277.66377    14.591909    140910.35   -49054.107    3813.0432   -52867.151   0.38304954 
   75200     276.4088    2.0982654    140935.34   -49103.528    3795.8093   -52899.337   0.36064658 
   75300    271.55977   -70.621029    140876.19   -49145.846    3729.2195   -52875.066   0.36860235 
   75400    270.30789    6.2547501    140885.86   -49160.554    3712.0279   -52872.582   0.38357882 
   75500    268.87912    9.1560965     140889.9   -49158.568    3692.4072   -52850.975   0.36235356 
   75600     277.2269    17.234803    140885.83   -49087.211    3807.0438   -52894.255    0.3631055 
   75700     271.9697   -31.383641    140899.37   -49049.376    3734.8489   -52784.225   0.38334284 
   75800    277.46061   -18.046957    140896.09   -49065.829    3810.2534   -52876.082   0.36740948 
   75900    274.90699   -3.5125583    140897.76   -49083.674    3775.1855   -52858.859   0.36563804 
   76000    274.62064    27.734103    140876.22   -49085.965    3771.2532   -52857.218   0.37817178 
   76100    271.05596     3.907337     140826.8   -49165.347    3722.3009   -52887.648   0.36861675 
   76200     267.6476   -3.3797987     140798.9   -49211.386    3675.4953   -52886.882   0.37932993 
   76300    273.04508    29.600195    140829.71   -49156.243    3749.6167    -52905.86   0.37947738 
   76400    273.01718    4.1478551    140867.62   -49151.397    3749.2335   -52900.631     0.359825 
   76500    274.26392    10.178358    140874.52   -49147.189    3766.3545   -52913.544   0.36899995 
   76600    268.56506   -12.972556    140874.85   -49187.343    3688.0943   -52875.437   0.37066185 
[...]
   81900    266.76759    11.226724    140833.32   -49178.296    3663.4104   -52841.706   0.37775864 
   82000    271.41818    21.109088    140857.98   -49094.396    3727.2751   -52821.671   0.36627915 
   82100     277.0881   -23.267084     140895.4   -49048.723    3805.1378   -52853.861   0.38276481 
   82200    280.11749    8.9608573    140902.23   -49062.767    3846.7392   -52909.506   0.36027389 
   82300    268.88565   -7.9622226    140888.01   -49131.128    3692.4968   -52823.625   0.36683637 
   82400    275.46034    46.716129    140882.01   -49015.322    3782.7844   -52798.106   0.38575954 
   82500    275.49396   -29.524566    140929.84   -48922.243    3783.2461   -52705.489   0.37309728 
   82600    275.77652    -9.301883    140937.15   -49016.642    3787.1264   -52803.769   0.37067175 
   82700    275.19149   -15.357982    140902.04     -49092.6    3779.0924   -52871.692   0.36611495 
   82800    271.18422   -10.931605    140859.95   -49098.101    3724.0623   -52822.164   0.37945739 
   82900    277.18555    -17.51664    140890.01   -49061.838     3806.476   -52868.315    0.3626421 
   83000     277.1114    24.077217    140923.16   -49001.279    3805.4578   -52806.737    0.3767695 
   83100    274.13438   0.32968692    140912.76   -49039.835    3764.5756   -52804.411   0.37197888 
   83200    274.25669   -3.4728223    140904.46   -49067.422    3766.2553   -52833.677   0.36486776 
   83300    274.03409    -17.74086    140874.51   -49057.163    3763.1983   -52820.362    0.3840394 
   83400    274.81017   -44.540176    140880.53    -49139.03    3773.8559   -52912.885   0.36544044 
   83500    273.99492   -2.0719635    140821.13   -49230.307    3762.6605   -52992.968   0.36958816 
   83600    269.61649    10.919599    140805.78     -49179.5    3702.5332   -52882.033   0.37798044 
   83700    268.73195   -10.809468    140813.47   -49210.789    3690.3862   -52901.175   0.37404425 
   83800    271.91035    28.505813    140817.26   -49170.594    3734.0339   -52904.628   0.37185944 
   83900    266.98667   -6.8065427     140814.6   -49171.424     3666.419   -52837.843   0.37854801 
   84000     269.2963   -21.312909    140821.02   -49188.634    3698.1362    -52886.77    0.3704482 
   84100    274.17069    -7.187644    140843.54   -49122.963    3765.0742   -52888.037   0.37707015 
   84200    272.64807    7.7065328    140849.24    -49076.86    3744.1647   -52821.025   0.37515935 
   84300    273.71447   -8.3239584    140854.94   -49126.706    3758.8091   -52885.515   0.36758931 
   84400     273.3556    17.136059    140863.05   -49125.361    3753.8809   -52879.242   0.37928405 
   84500    271.18452   -26.672481    140852.24   -49180.442    3724.0663   -52904.508    0.3658697 
   84600    273.60599    14.472248    140866.39   -49096.958    3757.3194   -52854.278    0.3697447 
   84700    273.33382    10.308193    140871.23   -49105.521    3753.5818   -52859.103   0.37243936 
   84800    274.16159    8.2528144    140884.34   -49103.858    3764.9493   -52868.808   0.37477752 
   84900    273.92527     17.40239    140860.78   -49027.523    3761.7039   -52789.226   0.37086074 
   85000    272.70386    23.413723    140842.09   -49087.979    3744.9308    -52832.91   0.37598857 
   85100    270.11101    13.176847    140822.42    -49114.53    3709.3243   -52823.854   0.38694375 
   85200    273.52367   -13.572967    140809.97   -49150.186    3756.1889   -52906.374   0.36769724 
   85300    270.13942    6.3427851    140826.02   -49153.618    3709.7144   -52863.332   0.37739586 
   85400    271.08112   -15.810051    140796.56   -49181.344    3722.6464    -52903.99   0.38117545 
   85500    271.95068   -17.213669    140821.88   -49133.195    3734.5878   -52867.783   0.37573454 
   85600    268.60103    -17.96519    140837.08     -49166.4    3688.5884   -52854.989   0.37080668 
   85700    272.86012    13.653015    140805.79   -49106.763    3747.0766    -52853.84   0.38326698 
   85800    274.64832   0.94359175    140827.46   -49101.155    3771.6333   -52872.788   0.37533053 
   85900     276.0365    34.287237    140865.62    -49069.82    3790.6967   -52860.517   0.36877508 
   86000    273.93509    27.106997    140860.57   -49125.445    3761.8389   -52887.283   0.37611933 
   86100    271.76793    9.2744461    140857.04   -49098.069    3732.0781   -52830.147    0.3778026 
   86200     274.3224   -12.713438    140864.74    -49064.51    3767.1576   -52831.668   0.37667532 
   86300    269.78293    -0.663463    140837.45   -49107.383    3704.8188   -52812.202   0.36889613 
   86400    268.00427   -34.394452    140801.03   -49163.038    3680.3932   -52843.431    0.3834702 
   86500    272.58659    13.741345    140802.44    -49191.48    3743.3205   -52934.801   0.37192991 
   86600    279.15183    38.190786    140874.71   -49046.339    3833.4782   -52879.817   0.36643454 
   86700    274.95121   -9.3387749    140870.35   -49044.081    3775.7928   -52819.874   0.37911802 
   86800    268.88061    14.209604    140845.78   -49155.811    3692.4277   -52848.238   0.36895232 
   86900     270.5751    -12.68958       140832   -49142.935    3715.6974   -52858.632    0.3765383 
   87000    273.33728   -29.946272    140850.06   -49117.965    3753.6293   -52871.594   0.37358805 
   87100    274.14456   -10.644962    140835.89   -49095.329    3764.7154   -52860.044   0.37789756 
   87200    279.90009    15.850926    140852.87   -49028.923    3843.7537   -52872.676   0.37562542 
   87300    269.52632   -5.0916735    140868.97   -49040.148    3701.2949   -52741.443   0.37516596 
   87400    273.73413   -8.0526732     140870.5   -49096.923     3759.079   -52856.002   0.37560063 
   87500    275.88783     -20.7738    140855.91   -49068.228    3788.6549   -52856.883   0.37950534 
   87600    279.29158    45.644863    140885.67    -49090.28    3835.3973   -52925.678   0.36227807 
   87700    272.80002   -1.6735455    140909.01   -49065.895    3746.2514   -52812.147   0.37641927 
   87800     268.8144   -52.603627    140892.24   -49150.812    3691.5184    -52842.33   0.38137532 
   87900    272.39435   -4.6585566    140858.92   -49169.096    3740.6805   -52909.777   0.36465868 
   88000    267.49627   -8.6271187     140864.4   -49139.775    3673.4171   -52813.192   0.36858692 
   88100    277.72694    20.203744    140867.98   -49112.729    3813.9108    -52926.64   0.37732396 
   88200    272.44743   -27.336482     140836.7   -49205.244    3741.4094   -52946.653   0.37575348 
   88300    271.52362    2.8923101    140873.19   -49149.262     3728.723   -52877.985   0.35530669 
   88400     272.7784   -22.741024       140887   -49080.944    3745.9545   -52826.899   0.38313998 
   88500    269.80348   -13.252153    140894.97   -49150.243    3705.1011   -52855.344   0.37821651 
   88600    267.77478   -59.148894    140897.66   -49144.789    3677.2417   -52822.031   0.35735507 
   88700    272.07223   -26.258709    140890.17    -49122.51     3736.257   -52858.767   0.38405894 
   88800    272.23264    30.721359    140880.89   -49182.993    3738.4598   -52921.453   0.36617201 
   88900    270.47116     9.717505    140834.99   -49118.047    3714.2701   -52832.317   0.37176654 
   89000    276.91197    22.199484     140877.1   -49086.101    3802.7191   -52888.821   0.37535874 
   89100    270.43789   -53.913423     140858.1   -49135.722    3713.8131   -52849.535   0.38068007 
   89200    277.20646   -3.1515752    140858.67   -49089.014    3806.7632   -52895.777    0.3705388 
   89300    268.96318    13.578645    140814.26   -49198.827    3693.5615   -52892.389   0.36955529 
   89400    275.06874   -22.293929    140882.93   -49107.614    3777.4068   -52885.021   0.39172012 
   89500    270.82373   -47.273703    140882.86   -49204.323    3719.1117   -52923.435   0.36804799 
   89600    271.27933    10.963976    140804.21   -49218.137    3725.3684   -52943.505   0.36719035 
   89700    275.46362    27.967808    140815.22   -49141.941    3782.8294    -52924.77   0.38756598 
   89800    271.86832   -8.7824188     140837.9   -49080.205    3733.4566   -52813.662   0.37942467 
   89900    272.29472    45.410979    140849.01   -49069.399    3739.3123   -52808.712   0.36982891 
   90000    274.50547   -18.920459    140856.85    -49088.42    3769.6715   -52858.092   0.37922937 
   90100    269.17472    12.122104    140836.86   -49070.383    3696.4666    -52766.85   0.38926929 
   90200    271.96261   -30.085807    140814.58   -49140.573    3734.7516   -52875.325    0.3726387 
   90300    276.08629    13.216118    140811.55   -49113.563    3791.3804   -52904.943    0.3808497 
   90400    275.96336    54.095281    140821.66    -49102.03    3789.6922   -52891.723   0.37885355 
   90500    275.53821    18.615006    140819.04   -49109.155    3783.8538   -52893.009   0.37592396 
   90600    272.88756    3.4277852    140789.77   -49129.486    3747.4535    -52876.94   0.37982177 
   90700    269.15321    13.129471    140786.82   -49154.261    3696.1712   -52850.432   0.39122747 
   90800    265.52869   -4.4839679    140796.54    -49178.69    3646.3972   -52825.087   0.38535346 
   90900    268.37767   -31.832895    140803.85   -49151.409     3685.521    -52836.93   0.36689857 
   91000    274.89114    -17.95122    140802.09   -49170.629    3774.9678   -52945.597   0.37861311 
   91100    269.10702   -25.723761    140766.85   -49266.544    3695.5369   -52962.081   0.37866005 
   91200    270.11938   -35.692781    140765.41    -49215.18    3709.4393    -52924.62   0.38218855 
   91300    269.57152   -11.358797    140804.62   -49157.623    3701.9157   -52859.539   0.36922192 
   91400     271.7355      21.7488    140810.48   -49132.663    3731.6327   -52864.296   0.38116076 
   91500    272.43516   -28.900342     140847.2   -48980.058    3741.2408   -52721.298   0.38673909 
   91600    282.93912    43.517633    140867.89   -49040.708    3885.4875   -52926.195    0.3556687 
   91700    271.14774    2.6165143    140839.56   -49110.816    3723.5613   -52834.377   0.38342678 
   91800    270.27099   -25.532687    140839.11   -49085.368    3711.5212   -52796.889   0.38562532 
   91900    273.47664    12.333966    140855.02    -49073.93    3755.5431   -52829.473   0.36390005 
   92000    272.30779   -5.4977366    140875.95   -49125.374    3739.4918   -52864.866   0.36267761 
   92100    272.96342   -61.059704    140843.56   -49105.174    3748.4953   -52853.669   0.39037741 
   92200    274.67395    11.613153    140832.67   -49136.304    3771.9853    -52908.29   0.36678285 
   92300    277.96813   -9.0185302    140870.87    -49020.23    3817.2229   -52837.453   0.36437758 
   92400     276.4655     22.49633    140878.13   -49062.975    3796.5879   -52859.563   0.38609695 
   92500     276.1242    18.547579    140885.26   -49055.269    3791.9009    -52847.17   0.36693513 
   92600    281.74486    9.7555166    140884.06   -48962.349    3869.0872   -52831.436   0.36504038 
   92700    274.41325     29.85877    140887.62   -49088.803    3768.4052   -52857.208   0.37307999 
   92800    275.48642   -3.8215223    140895.72   -49096.111    3783.1426   -52879.254    0.3646706 
   92900    268.34032   -34.082676    140896.25   -49137.949    3685.0081   -52822.957   0.35229739 
   93000    267.67252   -13.486607    140876.88   -49141.766    3675.8374   -52817.603   0.37437456 
   93100     271.4684   -17.166058    140866.56   -49066.944    3727.9648   -52794.909   0.38384598 
   93200    272.65968   -20.606823    140872.47   -49130.409     3744.324   -52874.733   0.35093439 
   93300    273.43023    4.2661359    140829.13   -49169.647    3754.9057   -52924.553   0.37708351 
   93400    270.18597    -16.07225    140824.84    -49228.72    3710.3536   -52939.074   0.37814464 
   93500    268.83822    8.8393415    140805.03   -49222.978    3691.8455   -52914.824   0.36440374 
   93600    272.67714    7.0229209    140822.06    -49178.88    3744.5639   -52923.444   0.37514552 
   93700    272.51865    5.7749539    140817.28   -49156.028    3742.3873   -52898.415   0.37248414 
   93800    270.70438   -9.0315542    140779.58   -49152.075    3717.4727   -52869.548   0.37930344 
   93900    267.74609    -45.17454    140772.09   -49228.841    3676.8478   -52905.689   0.37534787 
   94000    269.53998    15.944962    140757.42    -49192.81    3701.4826   -52894.293    0.3795219 
   94100    274.12889    32.095689    140806.74   -49077.154    3764.5002   -52841.654    0.3769448 
   94200    274.27556    -1.460973    140865.72   -49077.828    3766.5144   -52844.343   0.36952824 
   94300    274.91287   -13.052973    140848.52   -49084.579    3775.2662   -52859.845   0.37701715 
   94400    276.81403   -20.548564    140844.02   -49076.479    3801.3741   -52877.853   0.37140527 
   94500    274.87933    5.6414133    140854.76   -49083.781    3774.8057   -52858.587   0.37179041 
   94600    270.56294    15.554015    140847.18   -49086.641    3715.5304   -52802.171   0.36691792 
   94700    272.87268    5.2460923    140844.64   -49128.681    3747.2491    -52875.93   0.36547846 
   94800    270.20477    13.991963    140834.26   -49166.926    3710.6119   -52877.537    0.3825666 
   94900    267.44495   -22.418744    140835.91   -49189.405    3672.7124   -52862.118    0.3629222 
   95000    267.83362   -27.190736    140827.01   -49154.561    3678.0498    -52832.61   0.37171536 
   95100    273.34284    28.138615    140855.51   -49114.121    3753.7056   -52867.826   0.38430496 
   95200    271.92159   -1.7197211    140871.41   -49147.449    3734.1882   -52881.637   0.36487535 
   95300    274.22394    16.474243    140853.96   -49104.655    3765.8054    -52870.46   0.36377179 
   95400    279.84643   -3.0660079    140863.16   -49075.854    3843.0168   -52918.871   0.38429151 
   95500    270.59401   -23.348164    140859.71   -49093.441    3715.9572   -52809.399    0.3702668 
   95600    275.19487    41.981088    140854.93   -49077.824    3779.1389   -52856.963   0.36695809 
   95700    270.47685   -19.599252    140838.71   -49116.667    3714.3482   -52831.015   0.37692582 
   95800     277.0951    9.2503417    140838.34   -49060.439    3805.2339   -52865.673   0.37387257 
   95900    272.72554    5.7896649    140847.91   -49076.454    3745.2285   -52821.683   0.36861166 
   96000    276.56269    12.731448    140861.72   -49044.107    3797.9225    -52842.03   0.37759996 
   96100    277.74084    16.633807    140892.44   -48993.111    3814.1016   -52807.213   0.37987419 
   96200    277.42018     6.665019    140898.74   -49019.533    3809.6981   -52829.232   0.36103841 
   96300    274.94243   -1.1745765    140886.28   -49035.503    3775.6723   -52811.176   0.37426818 
   96400    277.32797   -5.4152885    140865.59   -49081.369    3808.4318   -52889.801    0.3790441 
   96500    276.87516   -24.798154     140872.6   -49086.418    3802.2136   -52888.632   0.36466708 
   96600    266.56039   -4.7851082    140866.38   -49130.926    3660.5651   -52791.491   0.37242021 
   96700    270.94049     2.928789    140847.64   -49100.412    3720.7152   -52821.127   0.37373147 
   96800    273.49565    62.017572    140845.68    -49120.44    3755.8041   -52876.244   0.37219393 
   96900    276.45418     37.00376    140874.65   -49134.181    3796.4324   -52930.613   0.36015597 
   97000    270.83576   -42.911716    140869.13   -49203.291    3719.2769   -52922.568   0.36598895 
   97100    274.00132    32.779988    140865.71   -49176.307    3762.7484   -52939.056   0.37205726 
   97200     269.9154    8.8716191    140897.15   -49118.914     3706.638   -52825.552   0.36181863 
   97300     277.1434    27.081686    140922.71   -49015.753    3805.8972    -52821.65   0.36774615 
   97400    271.86214    17.117388       140930   -49105.216    3733.3718   -52838.588   0.36934809 
   97500    273.36893    6.0499971    140907.16   -49075.516     3754.064    -52829.58   0.36984858 
   97600    273.44443    15.083613    140920.79   -49018.969    3755.1007   -52774.069   0.36315298 
   97700    277.73433    17.196408    140955.85   -48980.401    3814.0123   -52794.413   0.36717895 
   97800    272.21747    4.3593986    140929.98   -49086.467    3738.2514   -52824.718    0.3798769 
   97900    270.81976   -8.6719462    140917.38   -49048.299    3719.0572   -52767.357   0.36173864 
   98000    272.57175   -19.619542    140881.66   -49131.601    3743.1166   -52874.718   0.36453787 
   98100    273.45535    -8.785474    140876.45     -49115.4    3755.2507   -52870.651   0.38767848 
   98200    275.51083    -2.153583    140896.28   -49107.183    3783.4779   -52890.661    0.3578471 
   98300    274.91059   -3.5384604    140913.12   -49046.573    3775.2349   -52821.808   0.35991768 
   98400    272.83823   -2.8248441    140927.33   -49087.506     3746.776   -52834.282   0.38413655 
   98500    272.80078    30.234341    140925.76   -49067.563    3746.2618   -52813.825   0.35987033 
   98600    270.31109    10.385616    140904.06   -49076.316    3712.0719   -52788.388   0.36432828 
   98700    270.60547    -10.97066    140927.14   -49043.371    3716.1145   -52759.486   0.37980882 
   98800    279.65587   -24.633112     140926.3   -49052.893    3840.3999   -52893.293   0.37339116 
   98900    270.81238   -10.027334    140890.26   -49109.589    3718.9559   -52828.545    0.3537839 
   99000    271.28453    27.598897    140876.07   -49102.964    3725.4398   -52828.403   0.37391692 
   99100    268.84726   -10.004503    140858.03   -49164.185    3691.9697   -52856.155   0.38186555 
   99200    267.96157    1.3736468    140866.58   -49167.584    3679.8069   -52847.391   0.35289255 
   99300     273.5345    29.517898    140883.13   -49098.842    3756.3377    -52855.18   0.36338583 
   99400    274.07733    36.499294    140880.61    -49137.96    3763.7921   -52901.752   0.37108844 
   99500    274.30637    18.422878    140898.99   -49098.164    3766.9374   -52865.102   0.35780867 
   99600     276.2723     -6.53592    140884.21   -49087.423    3793.9347   -52881.358    0.3626466 
   99700    274.36284     9.291676    140888.79   -49136.227     3767.713    -52903.94   0.36780855 
   99800    271.42556    29.645888    140879.64   -49148.774    3727.3765    -52876.15   0.36896553 
   99900    271.89096   -28.418853     140855.1   -49201.179    3733.7676   -52934.946   0.37149761 
  100000    269.03326   -21.619568     140850.3   -49112.819    3694.5239   -52807.343   0.36124756 
Loop time of 118.014 on 6 procs for 100000 steps with 4608 atoms

Performance: 366.059 ns/day, 0.066 hours/ns, 847.358 timesteps/s
99.1% CPU use with 6 MPI tasks x no OpenMP threads

MPI task timing breakdown:
Section |  min time  |  avg time  |  max time  |%varavg| %total
---------------------------------------------------------------
Pair    | 100.72     | 101.01     | 101.4      |   2.3 | 85.59
Neigh   | 6.3404     | 6.4947     | 6.7338     |   6.7 |  5.50
Comm    | 7.3345     | 7.7716     | 8.2307     |  10.7 |  6.59
Output  | 0.16788    | 0.16879    | 0.17221    |   0.4 |  0.14
Modify  | 1.8487     | 1.9137     | 1.9473     |   2.7 |  1.62
Other   |            | 0.6551     |            |       |  0.56

Nlocal:        768.000 ave         786 max         758 min
Histogram: 1 1 2 0 0 1 0 0 0 1
Nghost:        1689.50 ave        1703 max        1667 min
Histogram: 1 0 0 0 0 1 1 1 1 1
Neighs:        0.00000 ave           0 max           0 min
Histogram: 6 0 0 0 0 0 0 0 0 0
FullNghs:      24325.7 ave       24975 max       23985 min
Histogram: 2 1 1 0 0 1 0 0 0 1

Total # of neighbors = 145954
Ave neighs/atom = 31.674045
Neighbor list builds = 6564
Dangerous builds = 0

undump              1
unfix               2
unfix               3
unfix               4




################################################
#######         Run Simulation         #########
################################################

reset_timestep      0
log                 log.run_${NAME}
log                 log.run_ice_273K_1atm_mW
