LAMMPS data file via write_data, version 29 Oct 2020, timestep = 100000

8538 atoms
1 atom types

-0.30593554178159366 104.53833532853847 xlo xhi
-0.1647546164048279 51.071874616401665 ylo yhi
-0.1647546164048279 51.071874616401665 zlo zhi

Masses

1 18.015

Atoms # atomic

91 1 0.8671009782706649 1.3640807897052134 2.1403651563534605 0 1 0
92 1 7.352320869504795 1.0515302014895886 2.055121632459383 0 1 0
95 1 13.285866830073779 1.6827705541276705 2.3007526213032174 0 1 0
56 1 15.054599292869462 0.20657211785802632 0.6954918126113856 0 1 0
838 1 20.389067209500297 1.6742441463690463 2.1995239058129052 0 1 0
963 1 21.893562248470985 -0.03535062323706456 0.7174930590209598 0 1 0
839 1 26.89542848976247 1.5318003718412085 2.474022552813935 0 1 0
1371 1 28.40919196993179 -0.1112098604539343 0.9024207114687983 0 1 0
841 1 33.08722652227856 1.2116413990871095 1.955315983158222 0 1 0
2 1 4.178215857601262 5.056906893565314 2.2766818532375677 0 0 0
1436 1 5.748099173576581 3.0904987318080237 0.4389807604313557 0 0 0
4 1 10.451390684220657 4.680629872649732 2.144105978117693 0 0 0
1466 1 12.052270083479032 3.3198788509892516 0.3900847004962743 0 0 0
5 1 16.93849211962239 4.6415186419476 1.9301852105887694 0 0 0
2160 1 18.48170292056957 3.1046929279943103 0.4708449512055679 0 0 0
767 1 23.527775141967123 5.079240035843678 1.8793347438557984 0 0 0
817 1 25.205927162724336 3.270211093375797 0.8252233875887882 0 0 0
768 1 30.119028120462442 4.72779655491668 2.316668536380617 0 0 0
2765 1 31.53140493224338 3.2125157572386303 0.2769640610468918 0 0 0
7 1 1.1287807470395443 7.6673761253985795 2.2024025180455964 0 0 0
1996 1 2.5530143877896614 6.22791921123305 0.33540399039480895 0 0 0
10 1 7.574942103627671 7.428696543435395 2.1909399743404365 0 0 0
2085 1 8.883666879223457 6.0132122838570545 0.43716393616445914 0 0 0
14 1 13.782121814168734 7.7708314660103115 2.008056053555655 0 0 0
2112 1 15.43941544571675 6.492092575474943 0.3886334266169902 0 0 0
770 1 20.18181645657362 7.8513667477623965 1.9784001289850135 0 0 0
2176 1 21.834109631459246 6.3463369869853805 0.33583273213822806 0 0 0
772 1 26.91959674761496 7.849622205092386 2.416151917023134 0 0 0
2759 1 28.459586868856192 6.139552676927571 0.38584772429355807 0 0 0
774 1 33.18861575191638 8.165723083732775 2.355857498616082 0 0 0
2139 1 -0.18741381592640294 8.98134795238872 0.32609707535677307 0 0 0
18 1 4.812107060219109 10.976934814961867 2.506805907019481 0 0 0
2165 1 6.2550170490795916 9.388106596335945 0.5658165478374871 0 0 0
19 1 10.386884579128264 10.925430745556682 2.108723041689143 0 0 0
2111 1 12.26483742886173 9.483229317944122 0.3783947891582363 0 0 0
21 1 17.053150816581383 11.06640624868909 2.186800207235278 0 0 0
2748 1 18.78612967993758 9.776725416911557 0.47755385007237583 0 0 0
776 1 23.24018678623556 10.957588429499602 2.13121628661934 0 0 0
1186 1 25.273131060194775 9.4434602527518 0.6626487590791578 0 0 0
779 1 30.005468228505446 11.07084985551031 2.1967453641822865 0 0 0
2205 1 31.588140690030635 9.564567226804822 0.4662866316346511 0 0 0
50 1 2.744157432901028 12.34292872296899 0.6529321760624393 0 0 0
22 1 1.0050818700476363 14.081338485675799 2.1945745619743455 0 0 0
23 1 7.341325706790205 14.269149194654032 2.297516500430122 0 0 0
2148 1 8.822401266719575 12.532061250338407 0.4554336813987917 0 0 0
25 1 12.123438787327805 12.509141630540473 3.4490553731454154 0 0 0
24 1 13.634038293694944 13.695065463833926 1.7325558037040405 0 0 0
2113 1 15.432102103531872 12.38161945020927 0.26913616647690497 0 0 0
782 1 20.35815379972945 13.96482400571429 2.3472792525056887 0 0 0
2494 1 21.564403479330416 12.19041861744935 0.27947484083388646 0 0 0
1061 1 28.19561210433427 12.441781464845201 0.6096662539962997 0 0 0
783 1 26.483135828308313 13.994162221969939 1.9261119779680893 0 0 0
785 1 33.2957804239771 14.016160375511985 2.2333535930517754 0 0 0
2150 1 5.855734951323946 34.48562466833488 0.15651529221214328 0 0 0
180 1 5.566368355604924 15.629475070539323 0.7156182710043502 0 0 0
27 1 3.879171932196801 17.258100133963215 2.0465346537235076 0 0 0
30 1 10.792571734001296 17.01947205633074 2.2173456787845556 0 0 0
33 1 15.450728232878909 15.223435183431521 3.357115988936891 0 0 0
759 1 18.500292727721586 15.713275071852104 0.6744082244020165 0 0 0
32 1 16.902575019794217 17.26176661565868 1.9327391414095096 0 0 0
787 1 23.562542413783 17.041183683988248 1.933752103636548 0 0 0
788 1 29.85502860512639 17.06405258312941 2.036890480849308 0 0 0
2282 1 31.808459376341077 15.659651537981672 0.26763957982859593 0 0 0
34 1 1.12274422183153 20.52778697734167 2.3138479933528453 0 0 0
733 1 2.747154234379198 19.36346666788107 0.6677885151750067 0 0 0
36 1 7.748823371629911 20.27423397132041 2.0269449192008517 0 0 0
2149 1 9.428218488751504 18.560370888968347 0.32482554230291444 0 0 0
37 1 13.907976784233771 20.26218851117672 2.1548293899567166 0 0 0
791 1 20.309089213743924 20.369997434240805 1.8337185360186066 0 0 0
2351 1 21.9755993546743 18.807182164095458 0.2975501446763239 0 0 0
793 1 26.819066560239637 20.70238742778497 2.2128142362258862 0 0 0
1374 1 28.524338273039234 18.99547910425059 0.7170862955366754 0 0 0
795 1 33.324671693446156 20.60720929806705 1.8785118944628536 0 0 0
40 1 4.312587348687102 23.600254687074735 2.063780116407922 0 0 0
764 1 6.161745091242001 22.13188452325696 0.5776439322263545 0 0 0
42 1 10.646215099089485 23.459812612253067 2.401836359839556 0 0 0
718 1 12.33456335129697 21.914626051881083 0.5791743201586543 0 0 0
44 1 15.390620805567073 22.05977830002425 3.451524100022474 0 0 0
45 1 17.1984975293397 23.58498547361089 2.3266275003214565 0 0 0
1609 1 18.422036594312434 22.197101498952623 0.437195289477032 0 0 0
798 1 23.494877826189107 23.964857366266216 2.3115050875758834 0 0 0
1378 1 25.06367102849697 22.1889337447615 0.5854996975886378 0 0 0
1373 1 31.319416629805904 22.065531833709883 0.8498775700412533 0 0 0
800 1 30.014140634145807 23.675701729157325 2.515248361461537 0 0 0
46 1 1.4407042296098613 26.731290311254632 2.261860933123591 0 0 0
2076 1 2.887771770232467 25.202257300500936 0.5379910768994517 0 0 0
48 1 7.779578149053513 26.42166106253108 2.4839911830412307 0 0 0
2159 1 9.134924471716307 24.9888441298439 0.5654657725470423 0 0 0
49 1 14.019793142920468 26.863248113947673 2.245576838664639 0 0 0
26 1 15.435922843349069 25.02040942651326 0.65745530476454 0 0 0
803 1 20.387037307120124 26.64761252274294 2.123762664211138 0 0 0
2761 1 21.921324370062848 25.284128526372168 0.48244398599482097 0 0 0
1369 1 28.44881380892383 25.23328562687399 0.9811301022160099 0 0 0
1309 1 34.3527542788011 24.760318512274946 0.9397169449784775 0 0 0
806 1 33.09904044367678 26.675759557614835 2.5832556513951945 0 0 0
8409 1 -0.11233647524865659 14.170254052258063 6.261234925175941 2 -2 0
51 1 4.45973551180634 29.87531585381434 2.387260677114185 0 0 0
90 1 6.045678361232646 28.379597668580825 0.734048429080993 0 0 0
520 1 12.295151685016627 28.597469636885826 0.6939415286237081 0 0 0
711 1 18.713173672837595 28.826701662373875 0.6790558617640631 0 0 0
882 1 22.36222066292092 28.291887960360015 3.3684200673493434 0 0 0
804 1 26.797174436115426 27.173270861648778 2.118301637880658 0 0 0
2766 1 25.28329597307743 28.5523054882557 0.34534434973095507 0 0 0
826 1 31.894379821377264 28.327493134546152 0.6125914880205351 0 0 0
86 1 2.940041015706184 31.247872727232167 0.7525685096602693 0 0 0
60 1 7.426580298834114 32.96860494526369 2.1341123852181583 0 0 0
53 1 10.618606996467195 30.24781508205614 2.298173052268674 0 0 0
1604 1 9.27326213212014 31.744174054572515 0.3381763267814415 0 0 0
57 1 17.035671688066635 30.40484446575014 2.0885175143551606 0 0 0
758 1 15.602797716204702 31.823961830987315 0.6448957217549232 0 0 0
807 1 23.57961484175382 30.257911006560892 2.014292109906327 0 0 0
2769 1 22.050056920053212 32.0966039867516 0.47740895764124813 0 0 0
809 1 30.482859593936777 30.037389489092455 2.0857376525576736 0 0 0
1383 1 28.58033593641581 31.62885572074987 0.60237517734028 0 0 0
58 1 1.2637765911316376 33.19941697464272 1.9281030184859254 0 0 0
763 1 12.124400340704053 34.98800925096469 0.5858712444724608 0 0 0
61 1 13.905198767227292 33.244854722102566 2.1939198007908667 0 0 0
757 1 18.68000832064809 35.05461808585733 0.9124238351317184 0 0 0
811 1 20.58680220258101 33.375109094905945 2.1705917819195975 0 0 0
813 1 26.83346872784568 33.352607491935636 2.3450545591099936 0 0 0
1368 1 25.346573149204602 35.428884219710675 1.2097076090857817 0 0 0
814 1 33.345883300988184 33.22091455005113 1.875930702483155 0 0 0
1380 1 31.641529508719014 34.80310084566422 0.6364468767101585 0 0 0
62 1 4.41128515487924 36.09931792412619 1.7710148763956406 0 0 0
157 1 5.5634879788443925 37.926795386623205 3.400255917199917 0 0 0
1776 1 2.835886452181499 37.976068812279166 0.49492273792523045 0 0 0
728 1 9.083235454928154 38.06065854893294 0.7495655450950239 0 0 0
64 1 10.57901343981257 36.47995036030932 2.09545961724629 0 0 0
741 1 15.255752726745284 38.41979426179396 0.7064491328562126 0 0 0
66 1 16.766653137222242 36.771492124976746 2.2864422891739293 0 0 0
819 1 23.643599694517615 36.94006802675339 2.4573493510824895 0 0 0
842 1 21.999831464464588 38.52967949991431 0.7850298926581927 0 0 0
820 1 30.083514185056117 36.36112498137265 2.3246305565623135 0 0 0
1364 1 28.75917116796165 38.08652610988637 0.8831522098551272 0 0 0
67 1 0.9483606314487465 39.42186970478253 2.025977602644407 0 0 0
41 1 5.705539230708719 41.30856746942006 0.6918130511822631 0 0 0
69 1 7.227517439814364 39.46641249579994 2.297447570208058 0 0 0
2152 1 11.831358383407277 41.8175019577179 0.5653600715417515 0 0 0
71 1 13.545403511641876 40.01390732893097 2.270733441650711 0 0 0
752 1 18.44674318595387 41.54558959415931 0.8040289975690481 0 0 0
821 1 20.362551530158797 40.0694571095923 2.172306358707848 0 0 0
822 1 27.00482812566896 39.748904459472705 2.2966120305470947 0 0 0
1366 1 25.468770861710684 41.580782929726 1.0544516083303401 0 0 0
823 1 33.32255249889181 39.44732634617553 2.3802932830133274 0 0 0
1365 1 31.917056540273506 41.348254874128536 0.7405361250339308 0 0 0
9 1 2.222000445613892 44.23951744719682 0.8503171542962311 0 0 0
74 1 3.963138925544686 42.7118010188322 2.6296127934098688 0 0 0
77 1 9.895329840542658 42.904609781348256 2.1472095117588177 0 0 0
89 1 15.321466865570146 44.61993237410814 0.9498277422393995 0 0 0
79 1 17.031971793349562 43.31557301895682 2.4987846278897896 0 0 0
1082 1 21.891923651266847 44.787724789740565 0.9215133589295501 0 0 0
827 1 23.71133403840323 43.209469966859736 2.4585353650912944 0 0 0
829 1 30.091187046346683 42.493948905823714 2.2113030572353645 0 0 0
1367 1 28.377250490416536 44.370370646986835 1.144646143913973 0 0 0
830 1 31.28989559690513 44.54340537708805 3.4319046585843505 0 0 0
2223 1 34.475609521429256 44.77331110103416 0.4896018023988197 0 0 0
80 1 0.6443605414258994 45.88610071773263 2.33010865417459 0 0 0
2156 1 5.596778132777023 47.5180109500416 0.5112065134070763 0 0 0
82 1 7.58646699687375 46.373161316797976 2.091100152679175 0 0 0
760 1 11.957367492833471 47.830878840858574 0.7142347919562654 0 0 0
84 1 13.38291664674155 46.14181567417043 2.3973666157690565 0 0 0
76 1 18.415257103648152 48.07811243533384 1.1705474759682986 0 0 0
831 1 19.97520993617309 46.15500293458157 2.5112334856030505 0 0 0
832 1 26.576607765293016 46.00148171501038 2.5390793207351683 0 0 0
2363 1 30.98525670153398 48.018931055414164 0.34406977169249964 0 0 0
833 1 32.751285755080694 46.36948997834698 1.7115240901269229 0 0 0
1964 1 2.491542745012507 50.871964410850985 0.5084588921351988 0 0 0
85 1 4.023485933580453 49.16329520692235 2.1813421158214656 0 0 0
87 1 10.715960988270272 49.53884020469935 2.5056353272612917 0 0 0
742 1 9.315351523842352 51.005969749696575 0.736621035687993 0 0 0
88 1 16.84572013397655 49.97798606659607 2.4451079418895745 0 0 0
834 1 23.574795550199863 49.54195140103472 2.380620264401236 0 0 0
877 1 25.54592058033402 48.38929917851158 1.090358627471303 0 0 0
836 1 29.847018285420795 49.45957722440674 2.311581676320805 0 0 0
189 1 4.032082717622171 1.6068238329849742 5.401538904493259 0 1 0
190 1 10.295537042391286 1.836892450783096 5.6094969463657 0 1 0
94 1 11.959531945959421 0.3793521720501838 4.100065941812745 0 1 0
191 1 16.76432833711551 1.4998042243874659 5.423772314643911 0 1 0
1172 1 18.774465174532672 0.24603599975773222 3.836593948489937 0 1 0
919 1 23.672290918552378 1.8186022515330342 5.428207991699826 0 1 0
920 1 30.153018054391527 1.628776346416157 5.41059082146049 0 1 0
769 1 34.346309548030526 2.8371384787322325 3.9634612532929214 0 0 0
1 1 2.769615023384022 3.0586195757627275 3.539848115711255 0 0 0
12 1 -0.07702994664593091 5.813171034334734 3.6156156140006077 0 0 0
99 1 1.5114243621388659 4.688829837560369 5.39187929618099 0 0 0
101 1 8.696190364908894 3.2253894511322363 3.6869895594931594 0 0 0
102 1 7.418062097556924 4.756650475665419 5.415938902193813 0 0 0
104 1 15.299283197181687 3.0824792367864333 3.9097372716659207 0 0 0
103 1 13.804757715037974 4.826386021440489 5.455204049969825 0 0 0
843 1 19.993770245538737 4.807616081760917 5.445846738936962 0 0 0
766 1 21.91779799618495 3.6107358475017244 3.712190454331926 0 0 0
845 1 26.814179915325887 4.93535321219558 5.355840290351976 0 0 0
846 1 28.43877356643216 3.098523562113845 3.946768006509501 0 0 0
847 1 33.435117210572955 4.801877740972375 5.862442359033967 0 0 0
11 1 5.667417087554207 6.362777083931518 3.935666078000014 0 0 0
106 1 4.3635448180434 8.078271694660971 5.531728537017103 0 0 0
13 1 12.0699115464915 6.139343267513099 3.656329066768576 0 0 0
107 1 10.547797683055647 7.583309792815412 5.470626654815032 0 0 0
744 1 18.405299838557443 6.677380230992328 3.8973644850361886 0 0 0
108 1 17.014851124442238 8.334019578141529 5.403713075591232 0 0 0
771 1 24.977428385877772 6.316327938393392 3.85562100353223 0 0 0
849 1 23.480752271444597 8.164191600934249 5.466456789788689 0 0 0
851 1 29.9392612742077 7.936729422470886 5.914631934387282 0 0 0
773 1 31.861054232360672 6.630518716755709 4.125015522576976 0 0 0
111 1 2.635879991754717 9.465511658413588 3.6091588014626237 0 0 0
110 1 1.358555996848118 11.145654175523163 5.603998587317636 0 0 0
112 1 8.940452815439729 9.419151265745885 3.9617956330710946 0 0 0
113 1 7.35772642807188 11.050624313342132 5.785686592384554 0 0 0
15 1 15.18226622869375 9.455937139300243 3.5667743734829616 0 0 0
115 1 13.670050415893867 11.01395389441287 5.245986572902345 0 0 0
775 1 21.667554416414543 9.317842330748821 3.8164240338110695 0 0 0
853 1 20.424308397284552 10.966704616141906 5.661703762150619 0 0 0
854 1 26.785495248548592 10.900592528541909 5.325241039458041 0 0 0
777 1 28.71031313411345 9.448378252225787 3.8621736728963656 0 0 0
855 1 33.43663870960126 11.106110783603024 5.396863822093059 0 0 0
240 1 13.958140474730657 49.37364284640324 24.350792718363536 0 0 0
117 1 5.81738422130628 12.804098763214405 3.967990209532089 0 0 0
118 1 4.437684794084228 14.05452228811106 5.7746191039301165 0 0 0
120 1 10.559884092162038 13.798566487303935 5.348271277836721 0 0 0
121 1 17.074819578784606 13.914449209230735 5.231349440339903 0 0 0
1376 1 18.766459468239354 12.343184488857734 3.8561771434088072 0 0 0
857 1 24.97431562045833 12.502422713105814 3.7158537305543797 0 0 0
858 1 23.581072729820825 14.107918481651174 5.439351700240148 0 0 0
860 1 30.28265848740484 14.021125527833835 5.838131205506589 0 0 0
780 1 31.532982033776847 12.450771266066013 3.7981545893143047 0 0 0
123 1 2.7212767006189806 15.736251795315974 3.826540617888196 0 0 0
122 1 0.8120281022535598 17.346578425869314 5.323018407656809 0 0 0
124 1 7.691376516950322 17.35640273476286 5.354919844373566 0 0 0
119 1 9.236946085856262 15.680945457704428 3.905397605754427 0 0 0
125 1 14.065400309711345 16.705903587592108 5.370840502332986 0 0 0
856 1 21.856936420432778 15.566283102044128 3.8423697200163485 0 0 0
862 1 20.197823379041967 17.301991849354376 5.055694415124945 0 0 0
864 1 26.884831328892137 17.16900067394007 5.022095797117673 0 0 0
784 1 28.387079591139752 15.283927307654887 3.7919149125217495 0 0 0
866 1 32.80959039431988 17.439959443448675 5.17320960209776 0 0 0
127 1 5.915401239449716 18.69100095830431 3.5383624087247747 0 0 0
126 1 4.022719730973604 20.357048818792748 5.18646289653074 0 0 0
31 1 12.347132494867637 18.722513903995527 3.77108218245758 0 0 0
130 1 10.656537287298699 20.213489342450014 5.524216614367748 0 0 0
730 1 18.490850909911387 19.059500715965772 3.621382970508329 0 0 0
131 1 17.24459723116957 20.708572939749853 5.134514645850736 0 0 0
863 1 25.019367331366112 18.760028029771487 3.4707511480692506 0 0 0
867 1 23.52846415702933 20.68270702256274 4.9904920099546555 0 0 0
790 1 31.322708637001508 18.869073084031083 3.5141842084854047 0 0 0
870 1 30.10356116253303 20.381242586437914 5.349165194821964 0 0 0
35 1 2.526201892731852 22.32334882397552 3.678454072390506 0 0 0
133 1 0.8843549792412839 23.70620994470829 5.258215603633626 0 0 0
128 1 8.985416691927151 21.89464883784962 4.003417182345163 0 0 0
135 1 7.459177767199024 23.34966192763965 5.504693428701389 0 0 0
136 1 13.973098324255492 23.64016878767112 5.040349772931404 0 0 0
872 1 21.87496341197257 22.226773319689716 3.6548646388314445 0 0 0
1039 1 19.05715626748562 22.094397474820404 6.447214882621882 0 0 0
874 1 26.710765551602076 23.503058650670543 5.009151174577328 0 0 0
794 1 28.363223397659485 21.940915606582816 3.8811178111515705 0 0 0
876 1 33.35406011581789 23.400331215548906 5.907551493782624 0 0 0
138 1 5.851404325908564 24.837804973103605 3.8147778125604495 0 0 0
137 1 4.434696635181318 26.78414593696742 5.364012197630979 0 0 0
140 1 10.695069266986195 26.67601314968764 5.680817505754285 0 0 0
43 1 12.30838449272089 25.195108771311165 3.802234931228409 0 0 0
143 1 16.94162488542043 26.555974388882877 5.2688501843371105 0 0 0
873 1 20.778452227126262 24.02703792373366 5.2799093129267884 0 0 0
796 1 18.961194620854332 25.175387157113235 3.7513953891885476 0 0 0
799 1 25.23560059036893 25.260889875730726 3.7599590315494815 0 0 0
801 1 31.77097600804145 25.00204510449435 4.054941889478007 0 0 0
145 1 2.7217974707908077 28.55717927339983 3.9270951534705567 0 0 0
139 1 9.15945518046399 28.606218715671076 4.166039948930899 0 0 0
142 1 15.653103797751708 28.660134196295925 3.7428380478715786 0 0 0
748 1 18.746512565505522 28.384801172648846 6.442683802821097 0 0 0
878 1 23.784471410118993 27.15653087667464 5.286965137877671 0 0 0
884 1 26.989405799322864 29.92797160362517 4.893108220309041 0 0 0
805 1 28.925852053396042 28.53554341676709 3.6899271184987876 0 0 0
879 1 30.43361374878767 27.041299545000967 5.420466172558672 0 0 0
144 1 1.094824302857533 30.41980611807645 5.205491717696833 0 0 0
246 1 2.6949854329367473 31.996598685351003 6.656300112958539 0 0 0
1049 1 33.177061861889854 49.38880422879936 24.697914266242222 0 0 0
150 1 6.015075683191035 31.31341349064045 3.688304553998339 0 0 0
146 1 7.428730327967125 30.283782798954842 5.691336360584311 0 0 0
149 1 14.011958335938518 30.09424665710818 5.375424900418382 0 0 0
148 1 12.549353762570453 31.564985925512975 3.7719919274993523 0 0 0
881 1 20.578034320754664 30.088529701488678 5.148628348140875 0 0 0
815 1 18.919394558483457 31.73030636351128 3.737949601345229 0 0 0
812 1 25.088987689265025 31.862106635883237 3.721882025006938 0 0 0
890 1 30.247038307318945 32.85395429480985 5.579807456036029 0 0 0
810 1 31.93169707861449 31.797887223329035 3.645423473737966 0 0 0
885 1 33.21562392932572 30.041716936178677 5.459256133705808 0 0 0
155 1 2.949184381227389 34.698019796567024 3.493879343156851 0 0 0
151 1 4.616145933584834 33.23587606176078 5.115928562882052 0 0 0
152 1 9.059223945958513 34.841755085083975 3.8912341935023615 0 0 0
153 1 10.914812547903296 33.217883248426574 5.28166726310168 0 0 0
162 1 15.493246813588291 34.97593480962369 3.739659855379917 0 0 0
154 1 17.082100007206982 33.37200906343757 5.327509502736294 0 0 0
889 1 23.532101843612107 33.3929363801361 5.663087832300571 0 0 0
887 1 22.225129083864193 35.03660021290571 3.9530923343690096 0 0 0
894 1 28.538934709640728 34.91420307300373 4.044462711343805 0 0 0
156 1 1.127867488067412 36.439543947859335 5.001238246533326 0 0 0
263 1 2.6874362000103593 37.86424482173704 6.582858456541273 0 0 0
159 1 7.253917747528141 36.640431056777025 5.4710984265676315 0 0 0
160 1 12.13491413376277 38.30765571668846 3.6652633604553864 0 0 0
161 1 13.491114414014724 36.42227601995496 5.209717344496319 0 0 0
267 1 15.564962820426793 37.84482165363136 6.429638884190781 0 0 0
797 1 18.827853534933855 38.29894339625776 3.7371517475472524 0 0 0
893 1 20.455106380187196 36.55118064992939 5.373612523285243 0 0 0
895 1 27.07577189516067 36.83725319653668 5.77417092232185 0 0 0
898 1 25.410814149097877 38.29915662281642 3.8616301822362296 0 0 0
897 1 33.37068865951001 36.47879938505414 5.261387484130115 0 0 0
900 1 31.641973121432684 38.0200876523141 3.870724050097814 0 0 0
68 1 2.2111234690242227 41.1585844994675 3.9167317823956855 0 0 0
163 1 3.6765050347801713 39.51649408313835 5.102180980441322 0 0 0
164 1 8.796329405599296 41.15718519529943 3.799386019072752 0 0 0
165 1 10.65960244277071 39.916733075937216 5.254496428394551 0 0 0
171 1 15.351769081093778 41.583579841197064 3.881732958384683 0 0 0
166 1 17.253163877351028 39.91628075165706 5.473188888561532 0 0 0
825 1 22.102062013593862 41.32520715192552 3.65469750722592 0 0 0
899 1 23.65037282479224 39.81560084255514 5.337704055514171 0 0 0
901 1 30.270706651582177 39.597619639822035 5.583451986146032 0 0 0
906 1 28.59023281109295 41.26613472219423 4.305123370846845 0 0 0
824 1 34.38171165464076 41.19978074821569 3.8296283475670854 0 0 0
167 1 0.6421973325668846 42.870333862169346 5.517026453823965 0 0 0
75 1 5.677570366010143 44.83163870680493 3.776664475308242 0 0 0
169 1 6.611244527196624 42.417456382933956 5.260214486880087 0 0 0
178 1 11.825573644445795 43.972382725121236 3.906585168592893 0 0 0
172 1 13.853872059027722 42.852837367832805 5.802315067275092 0 0 0
70 1 18.551904784031034 44.60819837246899 4.099421014061843 0 0 0
903 1 20.532749490012115 42.58578428006715 5.5445830820459125 0 0 0
905 1 26.991637996287647 43.12998659454975 5.389814217441806 0 0 0
828 1 25.22586718118092 44.6126813358599 4.3207334670511015 0 0 0
907 1 32.80172802934055 42.859313626098505 5.375217426970637 0 0 0
81 1 2.3495167680627214 47.4712225606821 3.6693075199857432 0 0 0
174 1 3.975272825626371 45.93514219927145 5.35526885921048 0 0 0
176 1 9.119441560047393 47.62616578134123 3.7566146745428406 0 0 0
177 1 10.527606136397047 45.900148606702025 5.556008430261973 0 0 0
186 1 15.198185042390632 48.03589280409424 3.79068748255227 0 0 0
179 1 16.92815396460861 46.37841184171009 5.585250115281364 0 0 0
908 1 21.73234956661911 47.76089193278074 3.8787770670039565 0 0 0
909 1 23.403764996049553 46.505837108669695 5.436615869656834 0 0 0
835 1 28.00290762375636 47.87037509054588 3.8100234436056954 0 0 0
910 1 29.67569414497453 45.92746709179668 5.220675802868512 0 0 0
182 1 0.9949634508684928 49.319982550262154 5.210412289242749 0 0 0
93 1 5.54408348978673 -0.15249199669679556 3.6541846174318393 0 1 0
183 1 7.491798263621043 49.258573862150264 5.132035226105027 0 0 0
187 1 13.777526741601129 49.791301021780434 5.191662126837028 0 0 0
914 1 20.186702506849283 49.60803490670537 5.461009340617684 0 0 0
915 1 25.030902461352564 -0.1419379221195933 3.9465046367204915 0 1 0
916 1 26.601578780729668 49.41907491302025 5.698380805869562 0 0 0
917 1 33.42490840145332 49.29262852401368 5.156225835470673 0 0 0
840 1 31.50845101029657 50.88881951711624 3.994088349455362 0 0 0
284 1 1.0261676444774437 1.7524871527052412 7.908463208858024 0 1 0
285 1 7.245533563945839 1.314977292680545 8.38616871847731 0 1 0
288 1 13.785957150374326 1.359254209628121 8.667789420373177 0 1 0
289 1 15.428818859275486 -0.08232518713369931 7.095659439982344 0 1 0
1001 1 20.502514423680687 1.4644482824266303 8.236527442385604 0 1 0
1002 1 26.91230499722293 1.429267947761282 8.588672008638785 0 1 0
921 1 28.519453997224648 -0.06101489254037974 6.801543516261949 0 1 0
1003 1 33.35374940463991 0.89761435996051 8.425690536577378 0 1 0
391 1 2.5582118310544653 2.9923085505553546 9.716761146531022 0 0 0
100 1 5.78372911966331 3.1369530675724824 6.833491075926737 0 0 0
193 1 4.512844214777389 4.786978527731087 8.716392708061926 0 0 0
197 1 12.171016193472246 3.062666482894328 7.073596061585088 0 0 0
196 1 10.591317731640228 4.532827853885757 8.864087239005377 0 0 0
714 1 18.48658542778486 3.013786628699302 7.018137426937515 0 0 0
198 1 17.141425423739747 4.822917860969533 8.630402541593789 0 0 0
922 1 23.439489057278916 4.88461712194117 8.521547566007682 0 0 0
844 1 25.294001973024518 3.249339654933719 7.1975670737479875 0 0 0
923 1 30.032011753162458 4.771851300390982 8.703662847029005 0 0 0
848 1 31.734534803035984 2.9618459569650715 7.356151720267202 0 0 0
200 1 0.9630001382013413 7.595263683694406 9.002438816111267 0 0 0
194 1 2.959150196161579 6.490535123728313 7.108324735280106 0 0 0
202 1 7.636160255196778 7.508793451113845 9.124570200292213 0 0 0
201 1 9.346958903525788 6.246014469651687 7.19250815168961 0 0 0
205 1 14.145655751446379 8.004582278892363 8.690702735375034 0 0 0
204 1 15.68677798796098 6.357245433824106 6.945755416422151 0 0 0
926 1 21.7258004177098 6.278208070720988 7.200028849614562 0 0 0
927 1 20.301379563690215 8.03671996734814 8.841579276369478 0 0 0
850 1 28.238059045374246 6.456130729234521 7.0794860334782825 0 0 0
929 1 26.814590671569587 8.100952542567088 8.749478136795778 0 0 0
930 1 33.281046517114355 7.996332763188478 9.007981708774752 0 0 0
721 1 -0.28108952623409644 9.319455458218911 7.2271429132204865 0 0 0
209 1 5.953215316981644 9.301371034672894 7.080605165026524 0 0 0
210 1 4.575961455223646 11.018002134803863 8.794796214915332 0 0 0
114 1 12.339238712160434 9.380852258921417 6.840580431217258 0 0 0
211 1 10.801281216264703 10.777172337586483 8.698498932890953 0 0 0
214 1 17.061941058562038 10.985500614399664 8.601119185991655 0 0 0
892 1 18.873465052800555 9.47178110790183 6.91216764537611 0 0 0
932 1 23.547333431134867 11.050299251406454 8.816076026436047 0 0 0
928 1 25.152422902531153 9.5625277995476 7.219318342795855 0 0 0
935 1 30.22563993710183 10.989340278227802 8.833971500771762 0 0 0
931 1 31.855827268792147 9.633813888325578 7.0861192007767535 0 0 0
216 1 1.1435510251112015 14.1620878504432 8.588877421967023 0 0 0
217 1 3.0589149849351154 12.527298619928509 7.219026178202312 0 0 0
218 1 7.664091351182252 14.046776737511795 8.862608820131863 0 0 0
212 1 9.224591500997377 12.390809892072006 7.409649440582052 0 0 0
221 1 13.902510088735418 14.212765856276118 8.555201716653755 0 0 0
116 1 15.536752513890757 12.607156736554936 6.885616549176649 0 0 0
939 1 20.159740055043038 14.313864831165988 8.334076609091554 0 0 0
938 1 21.937997463303923 12.650313627942566 7.079438424961344 0 0 0
940 1 26.88805384480286 14.034629317915105 8.538884344917635 0 0 0
941 1 28.300541862147867 12.386054692707862 7.204470598383004 0 0 0
943 1 33.396119854376884 14.534844123414896 8.80070352639123 0 0 0
223 1 4.5239207766485 17.108544885369025 8.388877685193677 0 0 0
224 1 6.231048534535716 15.732097207832364 6.935223393799128 0 0 0
220 1 12.277616654550325 15.38048778595284 6.8057497401376885 0 0 0
225 1 10.990879509708924 17.047388039200158 8.505840579137429 0 0 0
168 1 18.56781399844896 15.737819006580176 6.730835404852211 0 0 0
226 1 16.979578437147868 17.50538529960271 8.327011197604996 0 0 0
946 1 23.756917819169736 16.964063514587632 8.639756088524468 0 0 0
859 1 25.36708197002647 15.669391058951852 6.888571884159807 0 0 0
948 1 29.984457769504804 17.546271250143853 8.414204438390543 0 0 0
865 1 31.741344075753204 15.823321332427534 7.252424857985816 0 0 0
229 1 2.796528611523129 18.598434854631964 6.89990397269904 0 0 0
228 1 1.2529978991788544 20.418477971513042 8.423703666404636 0 0 0
129 1 9.065301244627047 18.7351625992966 7.164518707905027 0 0 0
230 1 7.362623027830917 20.423596052508522 8.482374158792782 0 0 0
132 1 15.34296178395875 19.173511854865566 6.783171907841764 0 0 0
232 1 13.741941070595079 20.625848307911603 8.565658031059202 0 0 0
950 1 20.399362800792602 20.414956649293394 8.463885267633625 0 0 0
951 1 21.95821039274651 18.85621009671567 6.902898855658259 0 0 0
869 1 28.224593967901274 18.8227828219182 6.834038111473092 0 0 0
953 1 26.84546267706981 20.615881993261123 8.433943446413105 0 0 0
955 1 33.2680152142488 20.808484365005167 8.751552632458349 0 0 0
816 1 31.494338090340435 50.95652097081415 22.945057253117145 0 0 0
236 1 5.602573931628402 21.965418331637935 7.0622591912613535 0 0 0
234 1 4.0580479890236365 23.71437959432721 8.528858625058998 0 0 0
231 1 12.324523395518524 22.184908484411384 6.764051377499701 0 0 0
238 1 10.784596033792045 23.785596201610367 8.492599721467197 0 0 0
239 1 17.201472674367476 23.441926527502954 8.262023833374887 0 0 0
868 1 25.11267959451092 22.282571441832417 6.9013787023321775 0 0 0
961 1 30.16230088208284 23.827870531712655 8.344753162912033 0 0 0
875 1 31.492027405700135 21.883291518624794 7.231446879796832 0 0 0
134 1 2.649365045452461 25.466418777313454 6.956918254155668 0 0 0
241 1 1.0673052966410457 26.978309174744883 8.539734576201688 0 0 0
237 1 9.047877060211066 25.15155918909421 7.0657531420568755 0 0 0
243 1 7.620805250694801 26.84467333575684 8.681829536199613 0 0 0
141 1 15.49678908223035 24.956781861626048 6.786164330003907 0 0 0
245 1 14.12584405385594 26.65075507289674 8.506442830233249 0 0 0
958 1 23.672522301751687 23.99868490564547 8.607418726065191 0 0 0
957 1 22.0857679992531 25.807079111543803 7.105605570396773 0 0 0
960 1 28.338116802730013 25.30029001846245 6.794478544008258 0 0 0
966 1 33.56102717315441 26.953905795993588 8.732280939998576 0 0 0
242 1 5.80138727384787 28.488290672014685 7.053956028740616 0 0 0
248 1 10.961253456585302 29.926585903279456 8.667021063680561 0 0 0
244 1 12.48938150371226 28.289521817106444 7.079181014111552 0 0 0