LAMMPS data file via write_data, version 29 Oct 2020, timestep = 200000

4608 atoms
1 atom types

0.07048724718056221 53.329512752818076 xlo xhi
0.021632047370218288 50.88548795262666 ylo yhi
0.021632047370218288 50.88548795262666 zlo zhi

Masses

1 18.015

Atoms # atomic

635 1 3.0249119471766894 0.8758004180899187 0.33698981180965937 0 1 1
3279 1 6.653412352305385 1.8533125297259345 1.6596209728366402 1 1 1
3351 1 3.2750542852919287 48.56805365269442 0.20917907682071213 1 -1 0
3659 1 13.15377984851654 49.81590277724238 21.22668997879205 0 0 1
1079 1 4.485346922160091 40.240041452078806 22.344658023201298 2 1 0
290 1 9.668644777023566 1.4593651328582757 0.6182454944852449 0 0 1
3667 1 14.269322434074576 0.7163393296715297 0.9788369796013356 0 1 0
3271 1 1.0263768840289287 37.38283853677336 11.192921120134395 2 0 0
4270 1 15.571006146983443 2.1889278324013133 4.144947491426355 2 1 1
3651 1 14.066098992122491 48.281253991242 23.5877032502937 1 -1 1
4108 1 5.725367451068674 7.761741996015275 0.615729539242747 1 1 -1
1481 1 16.332596462487416 18.761064230932686 1.8575706452115812 0 1 0
3319 1 10.456885788587076 5.808380405950749 2.2707971589548785 0 1 0
3656 1 13.009307011467536 6.836848663697586 1.431168634507679 0 0 -1
55 1 14.691780756489806 9.09601043499066 24.536517082559612 0 1 1
1718 1 7.8027631483802375 29.521475527138602 24.976762086536368 0 -1 -1
3969 1 2.010001486582693 3.9420062840097585 2.1791065188990446 1 0 1
711 1 0.6441087273035727 47.178172125189114 24.42603510175729 -1 -1 -1
3412 1 6.52679289674422 10.64121775872034 1.3327771007287836 1 1 1
884 1 14.722859907546502 42.90794368905298 0.31631135764046264 0 -1 0
4597 1 13.903413418254228 7.591829777497341 4.646101733977882 1 0 1
2283 1 8.990779081739001 8.81328319839323 1.6454675365761335 1 0 0
2822 1 6.953308389872996 21.180627826812 0.7705284453432675 2 1 0
3009 1 4.853435704070465 31.313041037788683 0.2787950271330156 0 1 0
3286 1 2.976531971697284 12.469313883198778 0.9199858535558791 1 1 0
1861 1 9.809694655265206 11.76221480726424 1.9245749769228717 1 0 0
3889 1 13.33439848236595 9.926517962326498 1.690983479491344 0 0 1
4179 1 15.31172344631564 43.254816830282294 24.750776105119588 0 -1 1
2856 1 12.045430735293927 13.977660881441654 2.4964055113606327 0 1 0
1057 1 4.579739189232009 5.297930090660863 25.27947445055926 0 0 1
1392 1 12.323503263141593 34.384745868844824 0.7550580857866522 -1 0 1
1407 1 0.7591582405100631 14.126191937850995 24.136430677568605 -1 0 0
2879 1 2.5943103995984877 20.99154918934755 1.4255956656828095 0 1 0
2420 1 5.999254821500664 17.479651781132684 4.120332566668627 -1 0 0
4478 1 4.061425207964854 15.630772164206164 4.1470783455161815 0 -1 0
619 1 9.3304629192071 19.468925635084247 1.0632907889931529 -1 -1 0
3708 1 17.37616574384186 36.13103884416291 2.015036478070564 1 0 0
4451 1 1.8113597764310512 9.299618224086652 24.323332775913794 0 0 -1
4206 1 5.107572689315344 19.399075225935867 2.0779554184575333 2 -1 0
2047 1 0.5021945930566005 50.189049570886176 0.610821026046514 0 -1 0
2887 1 0.5025855945595329 46.76574057802921 12.592263249896032 0 0 2
244 1 15.303142848520153 25.281654851786964 3.9734986667720533 0 1 1
3586 1 9.423954332404415 32.258679477551894 23.581163326857023 1 -1 1
709 1 4.715031773732025 23.27420313364231 1.0224424227952733 0 1 0
3060 1 6.555123465950535 25.67957234447356 1.3508018921160538 0 1 -1
2783 1 5.208277982260072 0.9043152578864416 24.281351051519852 0 -1 1
477 1 13.011004031876533 24.054037420758792 2.885236852065435 2 -1 1
666 1 0.6167841808748512 29.893259591716628 0.07211976571747034 1 0 1
474 1 8.106781024110338 4.306435856804378 1.0477912870854962 1 -1 0
2105 1 16.4053721247308 37.88330719686152 25.10405459411437 -1 0 1
1475 1 4.781230799638613 48.454902889275516 23.91942155622171 0 0 0
3611 1 10.412325711421087 28.123591649466455 2.8104003457579183 2 0 1
2652 1 16.048797906478615 21.92046194941036 0.8558140952862874 1 0 2
3329 1 3.07296962932504 28.3991075346201 2.926798251494952 2 -1 0
826 1 0.8992100073605014 11.819370039645033 13.973359298845294 -1 0 0
1477 1 7.414306560953104 28.57900876833399 2.7971382187049496 0 0 1
4446 1 16.369276186736737 40.57923842348748 24.248195260275597 0 0 1
1393 1 10.495267789913127 32.39391075922543 0.8940621740396798 0 -1 1
1542 1 11.903811197256635 16.21891463156937 0.4260927370216758 1 1 1
3320 1 10.54131744246131 23.94888441200981 23.459267405732817 1 0 0
1563 1 11.655152679620974 37.65807914579724 1.2148280700472744 0 0 0
4316 1 14.86627683551663 32.7992039192063 2.4485425386956483 1 1 1
256 1 4.88715152352202 49.296979490387415 8.059944265829865 2 0 0
2107 1 1.9771728259449517 36.69836288646743 2.7859011189446776 1 0 -1
887 1 0.37042125711766777 10.32378236906156 7.242097177731704 0 0 1
4607 1 1.5009210740106345 18.60362926650595 9.510579451321295 1 0 0
2513 1 8.302566227319351 40.528864831716525 2.1558993265864452 1 0 0
1269 1 17.285949563823372 18.66758474051053 24.062182563869307 0 -1 0
499 1 2.448971611458944 37.62384467129743 7.722865401602114 1 0 0
1560 1 4.725040718493276 39.8064944788373 1.9261642675485944 1 -2 0
2023 1 11.14932805443837 40.873708257318214 1.4489190029865142 0 1 -1
176 1 0.7991008165080075 42.634127432971724 16.180814105131144 0 -1 -1
4523 1 13.84421055778739 40.40656437553533 1.7722142790719386 1 0 0
952 1 0.09676345411536147 35.45390339998371 22.21553965767528 0 0 1
1303 1 9.088143036787232 16.764709117239043 0.279328274557559 0 0 2
2165 1 9.447777552557465 47.39948182304177 1.180511429243521 -1 1 0
3596 1 11.440289066516636 42.56075047985828 3.4543853509225966 1 -1 1
3917 1 16.005199311472985 45.216636338445625 0.9124334025831918 1 1 2
3140 1 9.279111461162264 23.600884945855796 0.5309760883387981 1 -1 -1
3122 1 1.8838313720764073 20.679688422757945 19.908078635388847 0 -1 0
1193 1 0.22601340151795532 45.911634074997274 5.110250239067343 0 0 1
4453 1 3.282182231877999 20.396274594027087 23.66999791038761 0 0 1
1250 1 5.414740361527444 50.60709071293983 5.043509652742162 -1 0 1
2676 1 12.90214787228331 44.744098119060695 2.310225173315039 1 1 1
2682 1 16.375530572160688 49.73122480839744 1.385692425196277 -1 0 1
2611 1 17.21198724707728 0.18552044013795665 16.114367046333978 1 1 1
1669 1 1.0484886979509693 27.690514208162494 22.08337412121492 0 2 0
596 1 7.136842289435643 9.4844561292327 25.16285912127372 -1 0 -1
421 1 1.2955372192486903 10.708362435465371 20.904826776787893 0 1 0
2544 1 0.906356002282558 29.35829873473265 15.474501473873516 0 0 1
4475 1 9.622196695072574 29.73368825088091 22.724171641347862 2 0 1
620 1 4.052692596899584 1.660198415930825 2.629390326335823 1 1 1
3657 1 5.015902176972092 4.492204520137412 1.1297257723467982 1 1 0
3209 1 8.813204677359693 1.7478250504667436 3.565106588916622 1 0 0
781 1 13.097077727956039 1.0175844803369491 3.8046805892143727 -1 1 -1
1513 1 15.529767801042999 3.244435980920994 1.3351323589320023 0 0 1
4203 1 12.059491402622285 29.747661249167113 1.315733998001776 1 0 1
3065 1 2.205202849504956 4.371656745213554 6.192677483168238 1 0 0
3697 1 6.567140764284078 4.352398371345013 6.241522716056722 0 0 0
2214 1 5.2696258098814575 5.277828148573713 4.082802413921287 0 0 0
1414 1 7.284096945183508 6.641127507847702 2.8558155141593606 0 0 0
970 1 15.966624801400096 6.032967731334194 2.4832040523642402 1 1 0
3450 1 1.0482099682931882 14.257126685904035 12.574237978485165 2 -1 0
282 1 3.2515551092064254 7.79464967568979 2.2472828136672973 0 1 0
2753 1 7.351634029133692 8.457661942900327 5.593189526670917 0 -1 -1
2240 1 11.341645781566081 2.9426134991221744 3.1059678690750356 0 -1 1
4185 1 13.06924287130115 11.983670113230975 7.4250625447595615 0 0 -1
1606 1 4.894561281325649 10.426497225569895 3.5989126201103825 0 2 0
3551 1 6.979699570227758 11.251472148053244 5.1574941599229325 1 1 0
240 1 7.888413152029813 13.055778400176939 3.613480596531095 0 0 0
753 1 10.090673849012497 12.208762042506239 5.881359196989607 1 0 0
500 1 13.032950157204597 10.068261761319953 5.406752773922997 0 0 -2
2585 1 15.807048358027593 18.40817714079787 18.713867040439627 0 0 0
3765 1 10.94154606927449 48.066967381673926 22.203850386542513 1 -1 -1
3515 1 3.2995917612494887 12.83232380060177 3.990518513591534 1 1 0
3888 1 5.726914361052109 13.358257538657758 1.853868837062849 1 1 2
2538 1 12.927590398594104 18.077067254664687 2.140812311303825 0 1 -1
3238 1 12.116194945283086 14.330109344783297 5.385714663854477 0 0 1
2679 1 16.19001424084171 12.868791608598972 7.001227733612197 0 0 1
2184 1 16.9160827266488 13.747531735070284 2.6758774808759918 0 1 0
420 1 1.8396483236801018 16.277684385434558 2.7763809885067525 2 0 0
3671 1 5.641365303443617 49.21710009308238 2.414082325926116 1 -1 1
3099 1 8.292211287217976 20.280742153960365 5.074567071945524 0 0 1
2302 1 5.167892346276489 21.954462352787953 4.149599794047992 0 0 1
3005 1 10.406872536185384 18.94714768246862 3.758797292441201 0 1 1
2850 1 13.611583392360009 21.48495992870237 2.05020347017087 0 0 0
2445 1 1.4461418751553052 25.482703993052617 2.518043767505171 0 0 1
1604 1 5.94252510900361 24.084447586823128 6.361982150404789 0 1 1
3682 1 8.041756166393668 22.326461317717815 3.130225771250894 0 0 -1
541 1 12.732259490512654 19.319647056418624 25.152957585248057 0 0 -1
3356 1 15.071501290259723 17.674163780269897 3.957997672744633 1 -1 1
2157 1 3.074476068279701 23.42468646884087 6.49307492739412 1 1 0
222 1 0.8028100365412751 29.393079828514097 6.161626881514083 0 -1 1
2697 1 5.5352352045685524 24.24908678034069 9.242054407542158 1 0 2
805 1 9.692208106069767 23.69078422066136 6.625325812285255 0 2 0
4385 1 8.394832044895034 25.27482651343637 3.4146052762214585 1 0 1
173 1 10.793705734586771 25.61410929720817 1.641968857870579 -1 0 0
946 1 1.6510405767845862 23.47355481511147 0.6639324719480703 0 -1 0
3224 1 4.0407395000616715 24.569551615435483 3.7711926233307134 1 1 1
1617 1 4.681559326820247 27.66346710428337 0.652104514597651 0 -1 0
3573 1 5.510066145533634 27.079975755955513 4.486016130920022 0 0 0
229 1 14.691697221844924 26.840051013459227 6.4385906513895765 0 0 0
279 1 11.266907914994787 29.198094987714796 5.505501777504781 0 -1 0
385 1 4.740867859617736 17.653188228609828 0.3816298443383682 0 0 0
1463 1 17.651708929709308 10.316843699283249 24.259746699995084 0 1 -1
1625 1 2.542400009019696 31.30064198253325 1.600761266066352 0 0 -2
2980 1 5.3479476193248905 33.90686830268256 0.9965374754587107 0 -1 1
1238 1 12.61537892774324 33.67365300183651 3.863948821657538 -1 0 1
1464 1 14.722811952882173 30.077400908315198 2.2726845594074048 0 1 0
2359 1 2.8522386638151604 49.30127451232464 15.585393540160014 1 0 0
3382 1 1.3711703468010639 18.97385497326313 3.547173667536879 1 1 0
360 1 2.140725596814125 40.65444516594479 6.731808810642739 -1 -1 2
1406 1 2.9917305144853437 33.688279614302225 3.224863572017507 1 1 1
3691 1 17.16012338887667 39.89758293045672 0.6140137785805653 1 0 0
3133 1 13.016838298761305 36.18063702768888 3.484002838810886 0 0 0
2956 1 14.685593839662141 47.57568156029518 0.93325391411728 -1 -1 1
3953 1 4.075931041395837 37.848669456847425 5.600751027370114 1 1 1
3600 1 6.234821144704797 35.057771280144266 6.398783547592564 1 -1 0
2430 1 4.789043031153441 35.86606372440794 4.260207527186952 0 1 0
1337 1 8.641913728498205 39.20955224719006 4.648470712061175 -1 -1 1
1143 1 10.921292060701628 40.54376204941687 6.1426600632469315 0 0 1
2489 1 17.22309352965915 44.61425641895435 3.2601659398303275 -1 -1 1
2013 1 5.419466122130383 41.34476451906146 4.299740590742284 1 0 1
850 1 8.683875505470356 43.259911541149094 2.576082718934735 0 0 2
676 1 16.437660981429307 42.00266282013277 2.4338334253702065 0 0 1
1698 1 14.591718799573602 41.562270941269944 8.219280325009755 1 0 -1
1768 1 0.6507959865623045 42.9038980916568 3.433325314313458 1 -1 0
3819 1 5.645358164721641 42.296981432882816 1.0131512711084416 0 0 0
539 1 4.9696098541515275 45.400611255025204 3.8347977641779716 1 0 0
3707 1 13.077732266390699 47.58771706457033 3.794935850489772 0 0 1
2574 1 1.4775782700819933 39.12040728555857 4.3846754677373605 0 -1 0
1781 1 2.6093638969019617 49.48837359912154 5.058287048546114 2 0 0
1159 1 7.069541170518463 45.77090792693318 1.93531016151544 0 -1 0
3836 1 2.363022730403456 47.07451484171401 6.533519660685703 1 -1 1
3223 1 11.6865991306454 49.10540718812902 1.546946104903517 2 -1 0
825 1 7.407259330703463 48.18954853731321 4.723315024155922 0 -1 2
3539 1 15.166184572559498 33.23807437726289 25.250881700874853 1 0 -1
2665 1 11.684197399191829 49.60093308128339 5.224419419141502 0 0 1
1175 1 13.843634119139297 24.609997628810444 24.607714011236453 -1 0 -1
2331 1 2.1583654014327824 50.06727238953725 8.842390877529219 1 -1 0
4508 1 9.323086246712023 49.862072188110155 3.450960550766151 1 -1 0
515 1 13.418876628656092 1.2601161959734664 6.734569158430155 -1 1 -1
704 1 16.241532547455392 47.62503029248785 4.666630026775142 0 -1 0
4109 1 17.204858240183672 50.21555920630959 4.192655347145389 0 -1 1
4157 1 2.8768097582736987 1.8078230106989717 10.221662973006469 1 0 0
4087 1 6.629733385663305 1.1507937561671768 7.51430033757008 0 -1 1
340 1 8.569001278843182 2.6806868762536076 6.166469662253657 0 0 -1
2243 1 11.202428928978266 3.3044012247785988 7.064789427551696 0 1 0
4370 1 11.2695242715589 5.122687919660932 9.334680342759889 0 1 0
1314 1 14.011453111570455 1.7485465228470998 10.293142969185867 -1 0 1
3125 1 14.510379750437977 4.327452425660387 6.047755976006738 0 1 -1
3457 1 4.400173049491359 3.0583483161429643 7.7721789436461135 1 1 0
2461 1 2.700146062419248 5.9681396925122385 10.394444122978 0 1 1
3033 1 11.854343888065843 5.051675905931406 5.1046826983007545 1 1 0
4077 1 11.644181428367185 49.0197346025532 17.63333734696576 1 0 0
2772 1 13.874061222930868 7.928872253889557 7.729324246034697 -1 1 0
3972 1 3.0868918229713413 8.75384053514884 7.934245560377503 1 1 0
43 1 2.0936542823916064 5.570001965467067 4.040619624664783 0 1 1
2737 1 10.063165884403011 7.568302972767534 4.853094734480849 1 0 0
595 1 6.723498974606857 6.479121107872006 8.195297586702747 1 0 1
208 1 14.976497398048897 11.039252996099128 10.858068782431445 0 0 1
2708 1 12.617607629624265 9.817104453608861 9.338170746551656 -1 0 0
544 1 5.323356331789388 11.495567979758007 7.528463184510978 1 0 0
2031 1 16.458252764456454 9.421475282167354 8.344894309152677 1 0 1
2997 1 10.151823970305237 11.713310368181807 8.809858423890192 0 1 0
3899 1 10.919648709068207 10.051850496369612 3.794920060080325 1 -1 1
2425 1 16.549391210620318 13.524559116479576 11.570376376549948 1 1 1
2728 1 6.283910856699874 15.091151371141654 7.878980016229257 0 0 0
3237 1 6.701936998676698 13.681964031195067 10.331299416481281 1 1 0
2480 1 7.747966230205177 15.531672482704316 5.277797894897469 1 1 0
2573 1 10.476949537286519 17.106248196697106 7.688585938940778 -1 -1 2
3993 1 12.000658408075909 15.048739305513433 8.556078316516814 0 0 0
4356 1 10.194561415987469 16.38446242407242 5.1041913090641176 1 0 0
4100 1 14.73957982078093 14.775917619561918 9.14658706850181 1 0 1
161 1 4.17730974805229 20.539897895139596 6.481778568425444 0 -1 -1
4426 1 3.5445607384094404 16.051655422051144 7.029712879414805 0 1 1
3576 1 6.427827122840664 18.493487235215163 6.734985690177825 1 0 1
1788 1 15.854892339599951 16.23130714074709 7.095605009190483 1 1 1
3918 1 15.023793124953578 14.706085471279215 4.651510340253768 -1 1 0
2287 1 14.792978717467788 18.71402301359335 6.782699536713403 0 0 0
1795 1 3.33234352147693 46.172234190888084 25.164417019497453 1 0 0
2831 1 3.106157985410127 22.737309089152404 8.943954546491213 1 0 2
3630 1 10.277844186996438 20.820540176890816 9.401975827141174 2 0 1
3742 1 5.182995943592244 20.649612556012528 9.219371161711639 1 -1 -1
4050 1 7.497922328248625 21.741576640388622 7.145705495618416 0 0 0
3806 1 10.809793662630588 20.82980419642041 6.379197958074736 0 0 0
2469 1 8.44721747466697 24.519760784295766 22.126933495804327 0 0 -1
2866 1 17.40381862656397 27.3048420387276 14.113578346694943 0 -1 0
1897 1 1.1149147285125776 25.208140492588036 9.768392148795334 2 -1 1
765 1 10.533393065527495 24.809963674614686 12.011597650814371 0 -1 -1
3639 1 13.14969631087877 20.269880392703236 4.507685155672302 0 0 1
4333 1 12.637976963467752 23.130221167141304 5.828715915228558 0 0 0
3720 1 15.129964453759275 22.91853576819265 6.819780507250412 0 0 1
2717 1 6.455273269915197 37.43027040356388 2.889835530140525 1 0 0
3890 1 16.465700816658202 5.01279688946186 19.88334036460222 1 1 0
3370 1 5.9467269749663805 26.50087556046318 10.952292800943606 1 0 0
3858 1 7.756614208515525 26.17205153511789 6.088544428295441 0 0 0
316 1 11.131084578917472 27.659784020011724 11.522319771233896 0 1 0
2304 1 10.01447466530384 27.630892104984326 7.228283616650347 0 0 0
610 1 0.3575930079613465 44.57946724651166 10.531445357254633 0 -1 0
2120 1 3.465385830670722 28.975205107302543 5.555815801882997 1 0 1
4225 1 1.1320258775276306 30.368431105622996 9.304309470103165 0 0 0
4003 1 7.718763516037699 29.264364969461077 5.9371831148945 1 -1 0
1890 1 7.369658580144413 31.367511171137956 3.926336309978319 -1 -2 0
3999 1 9.64474565161504 33.25447842824503 3.624914126531126 1 1 1
4521 1 9.613325560741076 31.296711648413105 6.102627357454259 1 -1 1
424 1 12.843565240672936 33.73817381179544 6.694641934764513 -1 0 1
3570 1 4.6887705698173425 31.836732078208847 4.787769588871413 0 -1 0
2358 1 7.916881687696384 35.27299684084945 1.9833428736832215 -1 -1 1
2797 1 9.096557900495416 34.96732556324971 5.558547731195771 0 -1 0
3201 1 17.22178971620293 35.498500236057616 5.196272176925828 0 -1 0
285 1 0.6206672637498126 39.81180531694277 9.078546810359862 -2 -1 2
3685 1 5.463162370697466 37.068623956372484 8.605954064298869 2 0 1
3151 1 9.898190870795323 36.91766099683586 3.6351175757316594 1 -2 1
4506 1 15.282514306934885 37.568057121232975 4.290010966294157 0 1 0
2909 1 13.539800552305444 40.65346266840687 4.830368767956867 0 1 0
3741 1 17.366703205344788 20.898404618759542 3.81775176781408 1 0 0
1167 1 3.11655650864266 43.100276715884604 5.083992754153755 0 -1 0
3895 1 6.919132196804755 39.36222958803376 10.027387618210962 0 0 2
3558 1 6.393737740626532 39.52530083460378 6.030312209550313 2 -1 0
2891 1 12.010563056781711 42.99893789076695 7.581924854363108 0 0 1
3990 1 12.2594073299542 39.39907316426114 8.786377009633117 0 -1 1
2466 1 4.75973421529187 21.491542030748366 21.581858388907687 2 0 0
358 1 2.707737739801248 44.26040185315228 7.521811050682149 0 0 -1
211 1 8.960907547807922 45.988712110309905 5.759451029056631 0 -1 0
856 1 7.233439219151749 43.572416895037016 4.825352968436819 0 0 1
1602 1 11.74309077875823 45.19327013749777 5.033417656172771 0 0 1
1709 1 17.03775979056135 47.89675185040437 12.029411080718159 0 0 0
3733 1 16.15854440295641 44.577784022005794 6.111803849002619 0 -1 0
1145 1 1.592945473397112 47.33782570274196 9.380436075292605 1 0 0
905 1 6.117103160511026 46.32135870579602 8.43537608479372 0 0 0
3629 1 5.055570114019245 46.99543263570525 6.161952731782956 0 0 0
543 1 13.81817866035529 45.418971187668106 7.354468353054707 1 0 -1
3529 1 11.967582633841525 47.19501992578165 8.98855608973305 0 -1 0
281 1 14.454820994485914 48.43701398051184 6.921137746087501 -1 0 0
4074 1 4.1943574433089115 47.31135877157814 10.740057595080359 1 1 -1
2500 1 8.145217922553567 48.39112574520992 7.623679531965915 0 -1 -1
2638 1 10.791382766922927 49.37169774664638 7.8313912120376274 -1 0 0
2539 1 16.72809656085034 49.85450545079794 7.987568549243591 0 0 -1
1747 1 2.7214950060718106 49.92332304248595 11.723806399087374 0 0 0
1398 1 7.363464261010277 1.4356092670154614 10.436229335633117 0 1 0
4102 1 11.577351123056095 0.7316291143402831 9.217885158281417 1 0 1
1110 1 12.08908539616513 3.1733041229409253 11.767094274901977 -1 1 1
3102 1 1.0269299073890275 17.078924727448037 24.9681446109157 1 0 0
406 1 9.467746600785732 12.931465092645603 25.25403753333759 1 -1 0
347 1 5.191874565357238 2.237982984146804 11.81437628508799 0 1 0
4196 1 5.290298526221994 4.5383498053749785 9.702872430247764 1 1 0
1376 1 8.63309087618348 4.91733451801877 12.324127397831479 0 1 1
101 1 13.822158113963646 6.054310653458988 9.833814400520078 -1 1 0
3520 1 12.38781540040029 4.100476663995284 14.370677380152767 1 0 0
2680 1 15.308835866289433 3.8054965856188687 8.93837696167423 1 0 0
1494 1 14.997177967299951 2.121208614217797 13.283837775766571 -1 0 1
3230 1 1.169247208013516 1.0488758366363748 4.268151625912946 1 1 0
1334 1 5.703587404389825 9.056115410736597 8.96085271291034 0 1 0
2453 1 9.11967665117007 6.5530610861202465 9.960087519282418 -1 0 0
994 1 13.715623552037368 7.112029911860031 12.237964935305392 -1 1 0
2150 1 0.48779894405078 13.12845984091321 10.177747779985502 0 1 -1
2774 1 6.207308366963904 6.642046241288694 12.69411462952887 0 1 1
272 1 7.7270539416381245 10.937418919251144 10.224507212906229 0 0 -1
1232 1 10.90838014093053 13.79931806789115 10.825670258550101 -1 -1 0
1556 1 8.368071901717862 50.301166221152776 20.477038183119433 0 0 0
327 1 4.5881667218853295 18.3415402409332 11.632755875677992 -1 1 -1
1454 1 4.262998321001944 13.109312089595777 11.759748220579183 0 0 0
4265 1 2.8462580212680906 11.608083454984074 9.815442544664359 1 0 0
4373 1 8.330556915011208 11.496323675309391 15.026007415187573 0 0 2
109 1 16.31515717920001 14.203082546365206 15.100273239180304 0 -2 0
3976 1 17.281202348085905 13.37691707712262 18.910822423578157 0 0 0
4529 1 17.318844433244568 15.351686659609054 0.44639508585866394 0 0 2
1313 1 2.1472169191252237 18.531057335401776 6.062718760180758 0 0 0
4290 1 12.480882891630348 18.90885912875101 8.545480199154268 1 1 1
411 1 7.903704930238581 17.358246919373 8.778563113830495 1 -1 1
4318 1 15.577239780687272 18.11582364752761 10.481286000591982 1 -1 0
4101 1 12.93918304073093 17.24656996930985 10.645128596670029 1 1 0
4554 1 2.9543875749123476 47.50800456429104 2.8164226427962764 1 0 1
3100 1 1.5279191644603904 21.118368715424474 10.980827069248212 1 0 0
1217 1 9.2952264029639 18.86974133337271 13.32219443487716 1 2 1
40 1 7.748143934331908 19.532923087090285 10.604831387056663 0 1 -1
1343 1 15.235297132494615 20.994214645309057 10.722239494329129 0 -1 1
2920 1 0.1209553122800299 28.22911552857391 2.5173022590438427 1 0 1
2581 1 7.775891134211708 24.634388760896126 12.528100278571761 0 1 1
2126 1 13.620638956863543 23.07631806532749 9.341034714288813 1 1 0
2401 1 10.811421178683386 23.534352266887364 9.481040584559867 0 -1 2
98 1 14.713095080532149 25.57459869091023 12.968195098966556 1 0 0
1204 1 15.494960667889272 28.97681026883 8.800464081938358 -1 0 0
4530 1 12.6072557492045 23.638221527172526 13.57805798504733 2 0 -1
374 1 7.884682434621698 28.291669617902567 13.468235787325538 0 0 -1
1309 1 13.610514221387703 26.9408082774999 10.108548771222528 1 0 2
1607 1 14.234430707424643 31.39781773774592 7.785229845922504 0 0 0
2217 1 15.04762626571866 37.96231072801285 1.3194634459996415 -1 -1 0
3552 1 2.3929383523802774 26.382457482985878 7.702099753199906 1 -1 0
1873 1 4.445972625372746 30.14617323335534 11.517411011781963 -1 0 0
218 1 3.5499192722652477 28.568259736935456 9.115189395250464 0 1 -1
950 1 7.272802714783018 28.914891417143103 9.890056020583504 0 0 -1
4093 1 10.006840011506801 29.051615902874484 9.417715175483751 0 1 1
3867 1 16.43958735699938 30.9030020266913 10.448799080178128 2 -1 1
2759 1 0.8791031227215754 34.96672417682498 12.466208477388246 0 -1 1
3172 1 2.716403866874698 33.13827881201971 9.151627305350647 1 -1 0
984 1 7.161525915606524 35.43680559409295 10.209447171647287 1 0 0
1815 1 4.8452647973488165 32.9434467172949 7.394961384857321 2 0 1
1265 1 5.476173925139027 29.80419342799433 7.381821530095279 -1 0 1
1754 1 9.672216832283958 32.588488836867334 8.593027340564396 1 0 1
2229 1 14.085149545941972 33.219752520927024 15.013340971902917 0 1 -1
618 1 13.223709805730998 36.78017343911394 7.728038814652239 0 1 0
1852 1 5.145424802480356 33.744679372476135 13.454570517703136 0 -1 0
520 1 4.92484203181146 36.29152200466197 12.157684859815706 0 1 0
1954 1 10.54720673297341 35.10780236925968 7.725243962342344 0 0 1
658 1 9.527600866581796 36.77817928386205 9.905483944167075 0 -1 0
2550 1 15.031138720054328 38.86580896179905 6.630492626466474 1 0 0
4239 1 3.384828983440955 35.6570870494058 9.96278924523816 0 -1 0
992 1 4.548677181455602 40.15916113718097 8.755326169362524 -1 -1 1
2002 1 7.1063979860505935 42.25245130648345 7.2414964479477675 0 -1 0
3022 1 9.103177368489295 40.400477648034624 8.94067949720399 -1 -1 1
697 1 16.503085613566693 41.423168701420515 10.383726915654831 0 -1 0
2824 1 5.004387626317754 43.721735473012785 8.738561850092166 1 0 0
1032 1 9.445655918859941 43.31152003932666 8.769087826438227 0 -1 0
3706 1 14.031486472480434 44.67388643647693 11.742257869698882 0 0 0
1333 1 0.5775749811542101 20.797220671665446 17.511804788883893 -1 0 0
3283 1 5.14976887571118 44.533597519248076 11.845154144011072 1 0 0
894 1 9.471166157852162 46.135137279643814 8.94118918553302 -1 0 1
357 1 9.613860290340698 43.920099878810944 11.7261980074292 0 -1 -1
2059 1 14.636057944502092 46.938747091825405 12.640099559061127 0 -1 0
3549 1 15.517862779757932 44.5932121984356 9.578703045459424 0 0 0
131 1 1.3482814706134636 15.465884009425954 16.643571335295096 0 1 0
1144 1 1.7063894545813778 18.478374888936344 22.667349085788903 1 1 0
2732 1 6.777881937969091 49.43259068771919 10.504789308406448 1 0 0
637 1 6.767476390738377 49.52909541867198 13.29118478740586 0 -1 -2
3926 1 9.939102358770887 1.6488120985266916 11.614581606259046 2 0 1
311 1 13.486528137304099 48.84236537920317 10.849833787301923 0 -1 1
2132 1 11.007707587291977 45.351127067588976 0.33121580319614624 -1 -1 0
2251 1 1.9373871501489142 3.5361541021777447 12.198238579154252 1 0 0
1864 1 5.368105565883745 2.351914672119396 16.144558888074314 0 1 1
2741 1 7.51051019987184 4.009169970208049 14.728045960989768 1 1 1
2533 1 14.614184813750288 0.05704789148165735 15.175482268524386 1 -1 1
3051 1 17.487834025745652 34.71800634866671 14.32019257771606 0 0 0
974 1 1.1806758317318107 23.171314211194517 14.252086308708648 -1 0 0
3868 1 2.648583393505247 3.140237800421631 15.256318803701422 1 0 0
1673 1 4.935285475494745 4.557895671458147 13.645967611276072 1 0 0
1043 1 5.127151592438535 7.954013568139942 17.292276602569032 0 0 0
1934 1 10.146325899670936 6.241852421798407 14.40523102121197 0 -1 0
3887 1 12.566427140220286 7.037123642642286 16.77248920017577 1 -1 1
3189 1 0.40315733375179247 10.227031824349401 11.688895337987232 1 1 0
1146 1 6.919154459983655 8.773328632637043 14.515131133550435 0 0 1
3880 1 15.338941730369656 5.221607379611474 13.841774162610267 -1 0 0
2775 1 11.629650629453854 8.6433770533594 13.146145539213927 0 0 1
4268 1 0.5958546572544069 35.48759172941255 7.339689515934177 0 1 0
3046 1 15.134068301206216 40.37768656816744 13.047819851597687 1 -1 -1
2973 1 4.81593309483511 8.926625925585638 11.488811774643684 0 1 0
1943 1 3.7155872327582187 11.549546817751619 14.391919022711013 1 0 -1
585 1 9.544687934339077 11.53719536027042 12.34190871419482 -1 1 0
426 1 8.78689402898744 8.32103550715367 12.439114624547235 0 0 0
4277 1 12.532914617208142 13.662783159104528 13.03847524473013 1 0 1
1688 1 13.110884789281087 11.055947973146933 12.813813169541472 0 0 1
1647 1 17.32074101012783 9.970669628248565 14.851036255870412 0 1 1
3623 1 15.542832481222199 14.288880612385347 21.011822475542825 1 -1 0
3779 1 14.212992245876633 12.56675015578732 1.6664690161919544 3 -1 1
2052 1 15.449711733387074 25.92657598788911 1.0088903909550244 0 -1 0
3989 1 6.985296213755636 17.90280883206263 15.101877635949519 0 0 0
3526 1 6.166052610360862 10.98279210035646 12.713954028226096 1 0 0
3186 1 8.730144032763247 15.239853866281393 11.035073601779011 0 -1 -1
2261 1 16.655289799907937 30.6981614732809 14.909072587781115 0 -1 0
2390 1 4.106335995621929 17.885770056039817 9.129125846907764 0 0 0
3205 1 12.321804966530536 19.0110685554187 12.89580884266476 1 0 0
761 1 13.99204454421211 18.521298167995198 14.913436467635899 2 0 0
1808 1 14.822647640463138 15.65181342973558 13.34140928069869 0 0 1
3474 1 7.710403199521274 21.822215051293114 12.783030869592267 -1 0 0
2179 1 10.411295826227807 19.78600945791087 15.497765262770313 1 -1 -1
2415 1 16.316535126624945 19.946556279435782 16.315960193902004 0 1 0
3463 1 12.494353816607715 21.507053075837483 11.687067961429046 1 0 0
1532 1 5.431398149920322 26.828079699013198 21.174172490205372 0 0 0
573 1 16.311133719017324 33.415136795876535 9.126262299260661 0 -1 0
3560 1 5.09650061137072 28.00109299529216 13.330641131382357 0 0 1
1901 1 9.517023406483858 23.855677201318485 16.705538746525846 0 0 0
2071 1 13.152005008316387 21.407259860510784 15.496295450468894 -1 -1 -1
3723 1 15.604154938307957 22.762646277414966 16.519321778243082 0 0 0
645 1 0.5821703306050413 25.67766772133041 15.010736460350369 0 0 0
1527 1 2.436292121543501 27.196508121072423 11.616681251089332 -1 1 0
2932 1 7.595696337724686 25.476950526608103 15.435812767023918 0 -1 0
4095 1 13.012250624343968 25.028379044874047 15.977211236191938 0 0 1
3222 1 11.014084093137015 26.632390952647913 16.499639250286254 0 0 0
2619 1 8.65788152522992 28.314661970822115 16.18573710545901 -1 0 1
3010 1 1.913165180720891 9.755294869956591 0.9043177456585235 0 1 0
600 1 7.445803873595663 27.837266266324956 18.422444989853073 0 0 0
935 1 2.9791840770389806 32.38894915513246 11.99832072665032 0 0 0
149 1 7.7229904758878645 33.47514878410684 12.956623892346668 1 -1 0
811 1 14.609560018347135 28.480182432050395 13.189111901011414 0 0 -1
1845 1 11.859422261507818 31.217840704555563 9.400406135021669 1 -1 0
3721 1 14.491292104536456 31.18410305253794 12.59882951061477 2 1 0
2253 1 4.997155756576242 28.468652107306 16.797701527543342 1 0 0
1290 1 7.046902375994857 32.74340737287619 9.572961099279471 1 -1 1
3064 1 12.00883450898215 32.08271205521862 11.837742062848523 2 0 0
1410 1 15.0791958174561 35.92566109635073 14.268454176935927 0 -1 1
3154 1 1.9694943508973892 41.40486555580487 13.501828547628756 2 -2 0
2646 1 6.030345939723293 30.989164827970804 16.279781251115228 2 1 0