LAMMPS data file via write_data, version 29 Oct 2020, timestep = 200000

4608 atoms
1 atom types

-0.03809669448756381 57.30860669449058 xlo xhi
-0.0338637284326353 50.940983728428975 ylo yhi
-0.0338637284326353 50.940983728428975 zlo zhi

Masses

1 18.015

Atoms # atomic

25 1 3.173185040657285 0.13670622334059093 2.918067034428924 0 0 0
29 1 4.574588952799518 2.1247837515693186 1.6613546295276371 0 0 0
42 1 -0.023487823283573385 9.40793331403062 16.102054465533985 0 0 0
285 1 10.815712435067665 1.7504292315747396 1.5294561203569448 0 0 0
541 1 17.269669517300983 1.7115178307127652 1.316628331800586 0 0 0
1440 1 15.809538622520789 28.928954251987534 25.161265232073852 0 0 0
30 1 1.540734229761725 4.721915391102483 1.5874548075194472 0 0 0
34 1 0.03196934436738312 9.42784900601742 22.35096775958399 0 0 0
224 1 2.6283683736564254 41.10719976604888 0.24227761304201878 0 0 0
286 1 7.953960407100066 4.484455287581337 1.5760508290439534 0 0 0
282 1 6.056181451488212 3.4239818984653634 3.311862655852039 0 0 0
26 1 0.34108434855697106 2.877183934604176 2.993447416107039 0 0 0
538 1 12.425963837148625 3.2016896657546066 3.0339528528494726 0 0 0
542 1 14.129425960161134 4.824842150439889 1.394101311601663 0 0 0
569 1 15.522416658742468 6.501338163757034 2.9448557186783444 0 0 0
1536 1 16.11543386463756 47.51603677683754 25.021432640411437 0 0 0
895 1 0.10531664810856664 19.049072888447697 25.011410817351447 0 0 0
61 1 5.205241434071556 8.014564651526245 1.8903029173704673 0 0 0
317 1 10.751535909087211 7.963323730321467 1.4942539649057331 0 0 0
39 1 0.2933015009949072 6.637591806737193 19.531779855492438 0 0 0
573 1 17.38374239201175 8.103578951535646 1.571932213128405 0 0 0
62 1 1.4176673637391122 11.103107085497497 1.5796668465900094 0 0 0
318 1 7.721537619525001 11.28995821884219 1.6820828268801995 0 0 0
574 1 13.982099038385346 10.718807636842385 1.1200086669292397 0 0 0
570 1 12.479217592855397 9.538943008689719 2.8277381765048486 0 0 0
640 1 15.774777273251193 21.986287358642393 0.050401146784103526 0 0 0
93 1 4.277072923571339 14.263637800593647 1.432383314210511 0 0 0
1088 1 9.517854635265772 9.699590340072048 25.343215341923095 0 0 0
159 1 0.09246765072539148 24.88805038219625 0.2364539648966456 0 0 0
349 1 11.15515029872416 14.026228938254572 1.602321619613835 0 0 0
602 1 12.701768388831859 15.720569485187779 3.1481196638792963 0 0 0
605 1 17.233935927635144 14.267285549243708 1.3191692138989712 0 0 0
601 1 15.789507018046598 12.239368502784952 2.7362685354408094 0 0 0
94 1 1.5347285467912943 17.51661893086288 1.6983308777960877 0 0 0
121 1 2.9310155734269663 19.303006767104062 3.0559648158423274 0 0 0
350 1 8.126953268744822 17.264361395624952 1.4128936689319802 0 0 0
606 1 14.25463790319496 17.25237747899041 1.5401247433886462 0 0 0
1216 1 9.761900664891161 34.88597400639208 25.26764295460308 0 0 0
130 1 0.18359043173102252 28.746489639369788 22.346347613581873 0 0 0
125 1 4.7082739036484345 20.573388573302804 1.4495406651677136 0 0 0
479 1 6.094108818317961 38.19122480325372 0.08458335019689472 0 0 0
381 1 11.009541439385476 20.433664054969835 1.7858696879547824 0 0 0
634 1 12.663218360692822 22.160094117308653 3.1791132448446993 0 0 0
633 1 15.729706695814174 19.040782896140428 2.830194289989627 0 0 0
637 1 17.528346489161738 20.558197374374465 1.7110450908117592 0 0 0
126 1 1.8510640110201952 23.688426890896878 1.6466094334975188 0 0 0
1408 1 15.71044408586773 22.501394901350718 25.289403483459974 0 0 0
382 1 8.157550911705199 23.380379621624606 1.8676047599788965 0 0 0
638 1 14.365882961908301 23.81971048553799 1.6304085388742704 0 0 0
64 1 3.1478575198793752 9.37357932775129 0.04590112796834868 0 0 0
157 1 4.854670247062677 26.816388757870023 1.771368476328691 0 0 0
960 1 3.2984340288683307 35.129860070346794 25.050088057460655 0 0 0
413 1 10.98207439401601 27.186984786956163 1.6827360242187277 0 0 0
82 1 -0.020300590211419944 15.788566138565848 9.404900516646213 0 0 0
2495 1 18.900622488422513 31.58429904662246 25.326291995912957 0 0 0
768 1 15.395402007772596 48.274078102995325 0.088243315839855 0 0 0
669 1 17.366352569085112 27.343211865120868 1.474151673068295 0 0 0
158 1 1.6750403436288037 30.123506148349207 1.3145567781809333 0 0 0
740 1 17.404463359921625 49.39100740975019 23.518114070116514 0 0 0
414 1 7.806356622834025 29.89387339996068 1.5195135874235437 0 0 0
670 1 14.251874079827417 30.168711742086675 1.5790154307579947 0 0 0
189 1 4.806467436094042 33.00859072072196 1.1582712418331407 0 0 0
178 1 -0.017931288705874238 34.95433767478888 9.76355530244723 0 0 0
445 1 10.942683131535507 33.38727840299098 1.4810583068809549 0 0 0
151 1 0.06719871606730266 25.70208969309782 6.4686461083577695 0 0 0
701 1 17.098708506667883 33.67733060204659 1.6710651967604981 0 0 0
190 1 1.3612359292666314 36.31416668703026 1.4119312946567713 0 0 0
217 1 2.617546970477546 38.042008136799424 3.2930251006774105 0 0 0
446 1 7.608310829721213 36.358481896896635 1.6820142488408856 0 0 0
1754 1 18.874838820681124 41.47399700090571 3.4747809237202145 0 0 0
702 1 13.89391711537101 36.90317943106242 1.6554366099818842 0 0 0
122 1 0.042461544709070945 22.492591586853848 3.3192366335817693 0 0 0
1554 1 18.86823616306543 3.2240206958458173 9.763347753721206 0 0 0
221 1 4.360610906873484 39.587288853499366 2.012482350211788 0 0 0
474 1 6.066282854102635 41.69629571822841 3.153673435289531 0 0 0
1791 1 18.7388893102002 44.926182335722075 0.560871791518704 0 0 0
477 1 10.262492656412538 39.779112503975114 1.5325437972082496 0 0 0
1215 1 6.37576370706517 31.655576425368213 25.17467880889954 0 0 0
733 1 17.362671578127422 40.18797601941793 1.882322621122113 0 0 0
222 1 1.0587890578032244 42.74537019797088 1.7145084585095334 0 0 0
249 1 2.7552331807759325 44.32239322534128 3.0468649956442566 0 0 0
478 1 7.965426416554196 43.22994227289864 1.4767211159969817 0 0 0
1375 1 12.697375016839251 12.49009329192307 25.248810167555312 0 0 0
734 1 13.732260439745287 42.999778637636894 1.7814227810148404 0 0 0
253 1 4.420649585747556 46.00582061546353 1.566502008577497 0 0 0
160 1 3.3427402805585458 28.1819328675416 0.14502839263151693 0 0 0
509 1 11.07893097798348 46.379446852423264 1.8891383184203332 0 0 0
765 1 17.177371528783983 46.816348999510964 1.828920183806444 0 0 0
736 1 15.660906081972067 41.4856710503601 0.3412797745176642 0 0 0
415 1 6.432510086164465 25.328312600784603 0.12660293614524418 0 0 0
254 1 1.2803914536019392 49.42567275043613 1.5257344114611024 0 0 0
510 1 7.732476604984327 49.11471906758616 1.4409264197525224 0 0 0
506 1 5.933477998379621 47.91684854397279 3.031819360084401 0 0 0
762 1 12.316148195804985 48.44597537722919 3.475422556361223 0 0 0
766 1 13.635706476800834 49.74273424278344 1.6853024135382315 0 0 0
1746 1 18.9113630971948 41.49585702237292 9.171639397431301 0 0 0
1279 1 6.732391299542667 44.18086118850363 25.158579063650507 0 0 0
1703 1 19.01581384157192 31.790151218102075 18.980625347294755 0 0 0
27 1 1.9214228152930515 1.7585873006476072 4.760635687429978 0 0 0
279 1 6.171899214013535 0.21463948818437603 6.194881883264758 0 0 0
281 1 9.069479908204567 0.30262402637669 3.064456692836785 0 0 0
283 1 7.797881943347779 1.8260614247972538 4.784572366417961 0 0 0
539 1 14.151946208099018 1.895440672836366 4.823636897949781 0 0 0
537 1 15.638835755937343 0.16044397891072065 3.2860663267918753 0 0 0
896 1 3.1396796936652485 22.370406792373956 25.021047605760092 0 0 0
28 1 4.758971017531997 5.130711583933179 4.8997704007264495 0 0 0
284 1 10.911626864509698 4.638278576115454 4.838980704542158 0 0 0
540 1 17.34563838334283 5.385152782408767 4.772409004865009 0 0 0
15 1 0.01080429600747744 0.02951236692410668 12.90282727967135 0 0 0
59 1 1.7693354957648728 8.182421979309463 4.971671203822384 0 0 0
57 1 3.040133297421692 6.51086376406691 2.9870235931683182 0 0 0
313 1 9.312494355909037 6.46474023916536 3.337858707969344 0 0 0
315 1 7.737854545092558 8.087877650358555 5.152430915803896 0 0 0
567 1 12.69391493759149 6.42663691230988 6.201935017124673 0 0 0
571 1 14.017927164926652 8.051394590502788 4.615488369475001 0 0 0
568 1 15.875091777774175 9.636457329056492 6.246741033394885 0 0 0
314 1 6.205382362652957 9.832393125715262 3.3440216346671034 0 0 0
60 1 4.832732192412542 11.07642789912851 5.141419974136583 0 0 0
345 1 9.607472762134634 12.69454123350817 3.2817488334047016 0 0 0
316 1 10.923651520888049 10.821779845631537 4.7172504742283285 0 0 0
572 1 17.405300442655555 10.93707049143622 4.600926021975655 0 0 0
91 1 1.2255999597816312 14.35166403301144 4.692126627782062 0 0 0
89 1 3.125093691437861 12.749564996105628 3.203294747185728 0 0 0
347 1 8.069799925560616 14.361438146857644 4.723865071443192 0 0 0
603 1 14.411257109366527 13.71426257550644 4.739704386461564 0 0 0
92 1 4.419887297876828 17.346753119676663 4.556268815641004 0 0 0
346 1 6.30289858538011 15.689217547647438 2.916588918320943 0 0 0
377 1 9.357228499808821 18.87649712498425 3.379267601507442 0 0 0
344 1 9.436704900754897 15.733153554889286 6.52421820567269 0 0 0
348 1 11.019810888747573 17.2039271274681 4.89229685851848 0 0 0
604 1 17.574210655163665 17.69648120896584 4.504585982603489 0 0 0
600 1 15.682291177017307 16.169263165729514 6.144819809399017 0 0 0
123 1 1.2975572992219069 20.678802476908995 4.627654918785543 0 0 0
120 1 3.0535494523383493 22.430017927219243 6.317678438706858 0 0 0
379 1 7.838787541930091 20.32407615995165 4.872873422080304 0 0 0
635 1 14.319426719682317 20.613098741979567 4.410902223450377 0 0 0
124 1 4.82975930082054 23.741012462943267 4.732910969412431 0 0 0
378 1 6.2392286493533335 21.80461588070126 3.1915920412077714 0 0 0
409 1 9.530377778705699 25.553775779743223 3.541059484459718 0 0 0
380 1 11.058145998145054 23.633432155276555 5.04809763365839 0 0 0
632 1 15.835332530078896 21.92298488417001 6.14779694246801 0 0 0
665 1 15.990848591504943 25.607415791616404 3.120019836205705 0 0 0
636 1 17.272786276951386 23.514006704919144 4.638235164544345 0 0 0
155 1 1.5069512782234575 27.358097074324153 4.575200413420898 0 0 0
153 1 3.1256118008541773 25.50498689322671 3.3033355224905527 0 0 0
411 1 7.808495666887793 27.22276873507645 5.058562744818411 0 0 0
408 1 9.68429262912896 28.72365241157459 6.63297000358092 0 0 0
666 1 12.902956453465285 28.497425848852615 3.1490247607893225 0 0 0
667 1 14.358088185069978 27.034200984564325 4.744265361619093 0 0 0
410 1 6.402063765469857 28.247138765489584 3.0657649686793564 0 0 0
156 1 5.010281525755645 30.159778956146578 4.486094860951963 0 0 0
441 1 9.430658652646224 31.757453109844878 3.267657785852687 0 0 0
412 1 11.276766551295328 30.14187807295431 4.650986757392219 0 0 0
668 1 17.41254367340401 30.29521641755187 4.696594776644105 0 0 0
185 1 3.3518369301561095 31.61445220373778 2.872333128748126 0 0 0
187 1 1.539825636876331 33.34707843781662 4.3719905284028515 0 0 0
442 1 5.952783344662196 34.826731107323184 2.7791880501596182 0 0 0
439 1 6.359656615304708 31.694431859786665 6.236565897540642 0 0 0
443 1 7.6345762511329465 33.54693916024019 4.8394500658853215 0 0 0
698 1 12.490634308646678 35.20564551910722 3.042841498817526 0 0 0
699 1 13.839905395405054 33.32989873641855 4.5794044503517535 0 0 0
697 1 15.831808359844961 31.890947273936227 3.1168578819573254 0 0 0
188 1 4.075441506066599 36.408307603876935 4.472417518622611 0 0 0
473 1 9.169107311492025 38.04061598205016 3.1762788885509288 0 0 0
444 1 11.0228603835134 36.80650166756955 4.623954745817416 0 0 0
700 1 17.58273353203617 36.806051654337914 4.841529847144245 0 0 0
219 1 1.0566369013624624 39.74501170972413 4.885143434446548 0 0 0
1623 1 18.89066675062582 12.751124200063531 6.092750707737423 0 0 0
475 1 6.995186621847541 39.294448103835926 4.6296435891977366 0 0 0
472 1 9.064715666096028 40.873402887727295 6.0765593895593355 0 0 0
729 1 15.691053475293284 38.46483206255273 3.2582050951102297 0 0 0
731 1 14.20080961364123 39.72760460970058 5.16897443132532 0 0 0
484 1 10.824598694371394 49.42040186783547 23.925717494238842 0 0 0
220 1 4.372682811582811 42.794161113337005 4.724212303069074 0 0 0
503 1 5.97395939041417 44.715887951300864 6.271675422932999 0 0 0
505 1 9.490568598682124 44.476544799241964 3.133726074370074 0 0 0
476 1 10.891538481915948 42.759346312483984 4.923926241439292 0 0 0
730 1 12.182874323430712 40.841429907411175 3.282930328665146 0 0 0
732 1 17.259384182713504 43.23516597146197 4.953018522792615 0 0 0
351 1 5.9556490048003825 12.643333822452359 0.10826694272151963 0 0 0
1543 1 18.866035963314747 0.02398882092561585 19.549995506371356 0 0 0
251 1 1.4076006422962224 46.1617074008483 4.580095844437855 0 0 0
507 1 7.871241371426227 46.100612466305584 4.502119230882558 0 0 0
504 1 9.201691504830649 47.640589690994744 6.289543187172599 0 0 0
759 1 12.626733685425686 44.69610883290174 6.303635768471768 0 0 0
761 1 15.538254138921726 44.884178415982205 3.167624795201789 0 0 0
763 1 14.124854365059965 46.630617779011466 4.561441481675831 0 0 0
248 1 2.9091790924104193 47.633035302021064 6.382587199019679 0 0 0
252 1 4.429202446498054 49.66717555394955 4.770245942194761 0 0 0
508 1 10.66065509158483 49.89606868904642 4.9771414702692685 0 0 0
764 1 17.096395584594635 49.56070273743644 4.792365755848246 0 0 0
228 1 4.522091817961547 48.91014899090582 23.718229135192292 0 0 0
21 1 4.907507603327518 1.8562345226553478 8.068163262456455 0 0 0
24 1 3.3617518270504676 3.551087187932961 6.468311343229745 0 0 0
274 1 6.553802033746185 2.891484405172842 9.934039667185191 0 0 0
277 1 10.954924557413294 1.6033823732396844 8.215103182154635 0 0 0
535 1 12.526551913182933 0.14073245372856846 6.433760107707537 0 0 0
533 1 17.471565980362627 1.8919902321332436 7.982612442971357 0 0 0
98 1 0.10311096760106761 22.442441929207806 21.89550949178952 0 0 0
22 1 1.375800638825562 4.650171391338398 8.352747883689215 0 0 0
280 1 9.716923494607938 3.307815855913439 6.552064643829973 0 0 0
278 1 8.014865778599528 4.5641429585279925 8.474255265645041 0 0 0
305 1 9.359315215573954 6.4207055220270535 9.86174213341963 0 0 0
536 1 16.024350731180704 3.4184785110511777 6.3065726349262 0 0 0
534 1 14.491102504375094 5.05739866729057 8.042604546777575 0 0 0
561 1 16.095488284138344 6.445394187307697 9.891257167718155 0 0 0
210 1 0.16246446679685722 40.912077686277684 9.67532725781875 0 0 0
2559 1 18.929008842869003 44.477400885369825 25.329411722816122 0 0 0
311 1 6.340519460577566 6.347561779100959 6.440733399746321 0 0 0
53 1 4.9703023607468255 8.055422147341067 8.146166184619647 0 0 0
309 1 11.163815281890669 7.815822814596948 8.05036091141605 0 0 0
312 1 9.5951813001861 9.421215859030468 6.76809649923529 0 0 0
562 1 12.670513590880743 9.540489006910068 9.591445451282453 0 0 0
565 1 17.39248772227191 8.02308668598159 7.9534787039422055 0 0 0
1119 1 6.0866264327954935 13.103519133998333 25.24681971818201 0 0 0
54 1 1.5554290424938741 11.183443879952483 7.941299486396008 0 0 0
56 1 3.461006890575404 9.557007229115525 6.578447182583591 0 0 0
310 1 8.04265416707247 11.068721922638815 8.213632316922318 0 0 0
337 1 9.773904062096772 12.640229147797383 9.475426466996057 0 0 0
599 1 12.632607723716637 12.395618681145407 6.1672822854522575 0 0 0
566 1 14.249199138520869 11.233862958167272 7.907795839355519 0 0 0
593 1 15.894802098151965 12.88195303338587 9.242004634418908 0 0 0
85 1 4.918527572052898 14.114846670154295 7.7423216022906 0 0 0
343 1 6.616933153190155 12.745431635531176 6.296094423250992 0 0 0
341 1 11.352444866450094 14.054002290828798 7.8586869012215566 0 0 0
597 1 17.310545913733698 14.509659519538586 7.680771207294896 0 0 0
50 1 0.049581829126088175 9.640560314274607 9.49830818960115 0 0 0
86 1 1.664316722924173 17.40786841426563 7.776969648157941 0 0 0
88 1 3.1999611200062303 15.597124389197019 6.260955458611804 0 0 0
342 1 7.742726126801422 17.412960345602723 7.835340377155732 0 0 0
631 1 12.67927480547715 19.165273756622938 6.125796971010134 0 0 0
598 1 14.089450510856704 17.614179239611204 7.918198729626857 0 0 0
1152 1 9.673630617915467 22.534141382778245 25.305525030858135 0 0 0
117 1 4.455035054315717 20.686930385581235 7.881587341729872 0 0 0
113 1 2.94996508515732 19.244907548664745 9.633216292548926 0 0 0
375 1 5.991669596757756 18.946905038316412 6.422481160516236 0 0 0
376 1 9.41936974120288 22.116767041668478 6.4259572597735035 0 0 0
373 1 11.14721534852202 20.75778312798548 7.845513694668768 0 0 0
629 1 17.531306433369487 20.415869355055783 7.616115881058907 0 0 0
739 1 14.304545293849516 46.21509353204806 23.622682900807867 0 0 0
118 1 1.4795728740417193 23.934183668301454 7.8924077247010125 0 0 0
407 1 6.189467147919659 25.436450262311503 6.414220421094824 0 0 0
374 1 7.999589226962474 23.801230610906007 8.033776683173826 0 0 0
663 1 12.843290609073694 25.238696971162245 6.439316525203209 0 0 0
630 1 14.471392030098677 23.60830312882083 7.859286075253679 0 0 0
152 1 3.098936752942384 28.926833382537275 6.018596236779332 0 0 0
149 1 4.398370763942679 27.195248149025986 7.6256454804189575 0 0 0
405 1 11.322970180832378 26.86739685480575 8.019043871139527 0 0 0
661 1 17.769347266099015 27.123809718439762 7.7429513208209695 0 0 0
150 1 1.4723426313254702 30.396164365219175 7.877557512493221 0 0 0
406 1 7.842633694836997 30.1716737982683 8.096489316465957 0 0 0
402 1 6.057387507654737 28.628390275667744 9.466805507500963 0 0 0
662 1 14.46813868187561 29.916365767130642 7.798677913908873 0 0 0
695 1 12.544398222180783 31.65170889768077 6.409516782079675 0 0 0
664 1 16.00395580282504 28.495957026462438 6.185496231099057 0 0 0
483 1 7.775279042792792 45.92044639985203 23.582422564369008 0 0 0
181 1 4.5565577295992234 33.15659705850178 7.835345893231204 0 0 0
440 1 9.233660867856152 35.37782901164088 6.313944171618824 0 0 0
433 1 9.528447809175134 31.87355424465439 9.21814707267264 0 0 0
437 1 10.870642217721022 33.47254473692653 7.744535643324957 0 0 0
693 1 17.24655325485888 33.35052646906595 7.597575491117025 0 0 0
182 1 1.329501538662335 35.96317586479968 7.8759916545673265 0 0 0
184 1 3.0914260910858307 34.76450013016694 5.94552981361902 0 0 0
471 1 5.566466380978467 37.67938853045998 6.412689671301931 0 0 0
438 1 7.551516924231663 36.48415498089461 8.213667624404426 0 0 0
694 1 14.613573044266328 36.29114806179441 7.775004380188063 0 0 0
696 1 15.90315795023549 34.74517620027553 5.793093081442567 0 0 0
213 1 4.37953728941421 39.2065743384535 7.970680551368039 0 0 0
216 1 2.911255915545604 41.07302003036661 6.445517843302885 0 0 0
469 1 10.705018518305197 39.61918359694618 7.806183359000343 0 0 0
722 1 12.731557474977114 41.20513969016376 9.544576974954344 0 0 0
727 1 12.447575883939713 37.901100378474 6.512724668865731 0 0 0
725 1 17.547203061211565 39.626204865890244 7.978622982878981 0 0 0
214 1 1.1545377332903037 42.83522847004679 7.939508986066671 0 0 0
470 1 7.396949788721276 42.54146719971673 7.6566574448667994 0 0 0
497 1 9.262193512933921 44.12636928514854 9.359541297063892 0 0 0
728 1 15.755315983811608 41.6148165750702 6.5278976085124185 0 0 0
726 1 14.0855425883994 43.03947831884241 8.140639116792043 0 0 0
991 1 0.05657110043633812 38.17744389982062 25.359310463336783 0 0 0
245 1 4.347225517864733 46.24651312704557 8.07119126894173 0 0 0
501 1 10.799159444801079 46.03656243157973 8.040546429081227 0 0 0
757 1 17.502321737994713 46.710846750879426 8.270223636361015 0 0 0
227 1 1.4389403932596447 46.283129037770976 23.910372491514256 0 0 0
246 1 1.4386454052527804 49.81209464043132 7.26436169325716 0 0 0
502 1 7.62623490460902 49.37682013643694 7.739626476417244 0 0 0
273 1 9.240858255366469 50.80568478677498 9.318285754457047 0 -1 0
754 1 12.533746570610539 47.767974894402315 9.558065507336188 0 0 0
758 1 14.133241700598346 49.42087083066041 8.019808302091144 0 0 0
760 1 15.7677095853506 47.9866568523548 6.4557107583460285 0 0 0
708 1 17.476179272897713 42.67164097543489 23.451061695770225 0 0 0
19 1 1.5161068580257915 1.5913231307683473 11.223241427618506 0 0 0
16 1 3.461069565796007 2.7937535133504214 12.930874759591257 0 0 0
275 1 7.91719620666942 1.19899092930134 11.669635231878857 0 0 0
272 1 9.429922530758892 3.466244818859381 13.019566781911225 0 0 0
531 1 13.973512474468585 1.37757590569484 10.936122264123496 0 0 0
529 1 15.808939058928443 50.926096980342344 9.31507257850073 0 -1 0
675 1 13.901990357812576 33.231232195370445 23.643081358701682 0 0 0
20 1 4.686065088715554 4.643777761636057 11.060159211067996 0 0 0
49 1 3.271254773476225 6.4556862658732 9.579255552965636 0 0 0
530 1 12.609553782658844 3.4751077464640496 9.389582834535188 0 0 0
276 1 11.165641061288078 5.110506982586123 11.231975749929674 0 0 0
532 1 17.415374302006878 4.796485036325454 11.567581036127383 0 0 0
51 1 1.454812364754585 8.111528671726003 10.98462274315666 0 0 0
306 1 6.5059040858439925 9.566050584415164 9.770860642189337 0 0 0
307 1 7.81346941719208 7.942829869910174 11.555456002157124 0 0 0
559 1 12.919565928519736 6.789677442328479 12.928377164641795 0 0 0
563 1 14.295391066577572 8.225028092685736 11.173692132170313 0 0 0
560 1 16.158000089483867 9.98870010180395 12.445806801541673 0 0 0
1711 1 18.817450458637996 31.699692656548894 12.557430763872722 0 0 0
52 1 4.835370917131332 11.087909886110477 11.210960677133352 0 0 0
308 1 11.333557498163799 11.209936473773096 11.366245355149026 0 0 0
304 1 9.778694264676107 9.45684499233384 12.713921379570174 0 0 0
564 1 17.541628567671218 11.488960006729172 10.7108524129073 0 0 0
1472 1 15.721938456900743 34.89081099591904 25.10370040323522 0 0 0
10 1 0.03977118903427769 3.1992423359081634 16.05533504388204 0 0 0
83 1 1.5248908418028875 14.11995533273324 10.872618344736539 0 0 0
81 1 3.2579884600914713 12.736150323862319 9.396202900955263 0 0 0
339 1 8.016284343474215 14.21519220258232 10.871140492075408 0 0 0
594 1 12.77232941503808 15.985836121379545 9.40526759008121 0 0 0
595 1 14.509455256767238 14.342936205713277 10.967144508124711 0 0 0
592 1 15.923270708136181 15.668880857755356 12.81625902441811 0 0 0
1586 1 19.051023290806192 9.43122971569568 9.36630444185697 0 0 0
58 1 0.06594480500343991 9.551683199008608 3.454172662708434 0 0 0
84 1 4.56253406873244 17.48150796065095 11.178324311844856 0 0 0
367 1 6.356414609610067 19.132127738681845 12.836406841647767 0 0 0
80 1 2.9957031373413554 15.55371888702255 12.549569659233105 0 0 0
338 1 6.124362723436634 15.977260871084582 9.583008923259388 0 0 0
369 1 9.427544665601772 19.013702356856367 9.426098605102993 0 0 0
340 1 11.324619909956496 17.686986306258525 10.892705750264948 0 0 0
596 1 17.471095193721318 17.616178894676835 11.069163310270977 0 0 0
115 1 1.3201118084358061 20.910287386362185 10.898823222959688 0 0 0
371 1 7.998006568361198 20.48034699172175 11.187214149188087 0 0 0
626 1 12.706671733169673 22.339679895488285 9.903555675066217 0 0 0
627 1 14.523423924256335 20.717270575607266 11.097531845738857 0 0 0
625 1 15.710999845701485 19.155053299206035 9.332660509056847 0 0 0
624 1 16.247292628765248 22.45648958214567 13.029283605945396 0 0 0
481 1 9.445034049688118 44.31496383206589 22.3038303541086 0 0 0
387 1 7.905856354241562 26.80659262039066 23.929545100627042 0 0 0
116 1 4.8182679465365945 23.757016291109245 10.860365357646051 0 0 0
145 1 3.0027526809429705 25.46265708962326 9.647395734964512 0 0 0
370 1 6.4955412454127845 21.75451265480331 9.361091233779337 0 0 0
401 1 9.594648868702695 25.281454990372346 9.343856344980653 0 0 0
372 1 11.313444764675062 24.065451703189055 11.317727838378914 0 0 0
655 1 12.95288258954895 25.5654645141415 12.762119692227342 0 0 0
657 1 16.053386375941198 25.67696955904118 9.388087297932541 0 0 0
628 1 17.89829817349577 23.918739795600377 11.137919169346794 0 0 0
147 1 1.3830716707983366 27.095198897511878 11.192339644636856 0 0 0
403 1 8.359436281667065 27.245366746299748 10.605997265449458 0 0 0
658 1 12.676702737064105 28.728647184091763 9.438279589164638 0 0 0
659 1 14.21683428132396 27.1230017955531 10.918170390012952 0 0 0
148 1 4.5659776056171575 29.99926704010363 11.046439672606798 0 0 0
404 1 11.068604923504965 30.434171076134128 10.753422481790551 0 0 0
400 1 9.803032682558534 28.541381269778167 12.647008150107457 0 0 0
689 1 15.968977430360344 31.567684180180887 9.294493900930918 0 0 0
660 1 17.35014550277213 30.11358429422774 11.030329941083416 0 0 0
179 1 1.653085999211791 33.515168406761894 11.3297915729002 0 0 0
177 1 3.092367410698316 31.73981169632872 9.323797007217095 0 0 0
435 1 7.68612467213586 33.22112391753257 10.875402195399948 0 0 0
691 1 14.25862760238951 33.11128744577026 11.097582932608528 0 0 0
176 1 3.065799268913584 35.09431863837897 12.93593319732979 0 0 0
434 1 5.8022835667723465 34.617625282870144 9.528719636017154 0 0 0
180 1 4.5717254386556885 36.599425806406316 11.246876698535011 0 0 0
690 1 13.000420191660291 34.81630381572982 9.415878912071497 0 0 0
436 1 11.021674593368814 36.25661163417924 11.142702103122998 0 0 0
719 1 12.750168252997847 38.12149073528496 12.560908261114173 0 0 0
721 1 15.87081635850515 38.27317112838965 9.531098698766488 0 0 0
692 1 17.286447039452106 36.638128568182104 11.192788721858626 0 0 0
1247 1 6.598027599988158 37.99255598755217 25.089683868199188 0 0 0
209 1 2.7933955488838897 37.656895586203134 9.470235983839762 0 0 0
211 1 1.6432252102088114 39.563831990376435 11.217080295898706 0 0 0
465 1 9.409317880026906 38.02812834099205 9.546622248484123 0 0 0
466 1 5.853982697711383 41.22457389770251 9.409372041635885 0 0 0
467 1 7.949495193958491 39.84224251066382 10.864374140972044 0 0 0
723 1 14.325467840754676 39.94192313580232 11.216102083375002 0 0 0
720 1 16.087448657613823 41.36863462285358 12.852042879674789 0 0 0
241 1 2.6635098289743415 44.43042057555753 9.610192469524215 0 0 0
212 1 4.49576619713512 42.97799006224212 11.266269765635027 0 0 0
468 1 11.066978522938607 42.64173986866432 10.977148789702593 0 0 0
724 1 17.3246782229352 43.12967176286565 10.605238081228633 0 0 0
1538 1 18.693585807447594 3.046780003651835 22.081712721520983 0 0 0
1024 1 3.156400928114285 47.51139357218826 25.38386647113701 0 0 0
243 1 1.0964744391029437 46.585235237226684 10.818614444122652 0 0 0
498 1 6.123136795462269 47.59870097188811 9.579670723529938 0 0 0
499 1 7.900487825857207 46.08668786812582 10.893371638267103 0 0 0
496 1 9.721020113298394 47.39640118909187 12.758364484547586 0 0 0
751 1 12.795520577990755 44.58867761665248 12.610619100351862 0 0 0
753 1 15.89827594582942 45.10847600624423 9.262619151447304 0 0 0
755 1 14.19381258000808 46.39354447825497 11.207358397160895 0 0 0
752 1 15.73062182651191 47.99791756631078 12.501931352975404 0 0 0
452 1 11.225588370931613 42.97154993321539 23.909979354221896 0 0 0
17 1 2.9628619643299277 0.07073399906720267 9.06342054840913 0 0 0
244 1 4.227018295008054 49.59755730354477 11.19138183244417 0 0 0
271 1 6.200455906721986 50.50632508774069 13.044976408440252 0 -1 0
500 1 10.88608628533296 49.401299176214344 11.105709234129074 0 0 0
527 1 12.672829290136706 50.92233692631811 12.556806724867826 0 -1 0
756 1 17.515594113165413 49.631137397725496 11.11979912473428 0 0 0
1439 1 12.90382557693101 25.619963134374903 25.15294439011088 0 0 0
13 1 5.0760760572249355 1.292593361034721 14.58618197211912 0 0 0
266 1 6.591436666175094 2.9223129524141047 15.919726596680238 0 0 0
269 1 11.359889782949935 1.6129126303020909 14.11841225081305 0 0 0
522 1 12.588997715571098 3.5183771122602927 15.702962096959627 0 0 0
525 1 17.59564094544737 1.6701402233023295 14.316242023786366 0 0 0
14 1 1.6527553980584304 4.88817901427375 14.155295788030578 0 0 0
41 1 3.033731863119696 6.363656045310731 15.92598428407967 0 0 0
270 1 7.941489875048453 5.210068037919709 14.453442129509236 0 0 0
303 1 6.154765627869217 6.356481175990093 12.867797106992851 0 0 0
297 1 9.639179781330148 6.324428072081528 16.190933981418066 0 0 0
526 1 14.346467281246923 4.843017809422543 14.223842760143564 0 0 0
528 1 15.649659807343802 2.9198042833127924 12.801645889270803 0 0 0
48 1 2.877718976292743 9.566022819492035 12.811845039160508 0 0 0
45 1 4.575127532444787 8.130008633645552 14.205704320795508 0 0 0
298 1 6.315332441176028 9.696192422272228 15.674939490472964 0 0 0
301 1 11.191765191900855 8.003814235717176 14.53431567093064 0 0 0
557 1 17.674676806385392 8.501203055934532 14.052240021306526 0 0 0
553 1 15.824742897937092 6.533394824915328 15.54094941143928 0 0 0
46 1 1.1022138239197978 11.089220616213803 14.21335090457399 0 0 0
335 1 6.396743638624285 12.894755361900549 12.721411696502527 0 0 0
302 1 7.925080252271827 11.186967403954752 14.198512093385023 0 0 0
591 1 12.795902605191078 12.956767563401886 12.740304443138445 0 0 0
329 1 9.62849886869842 13.022978153292406 15.751538095212092 0 0 0
558 1 14.410455811303938 11.288044545676193 14.41195388098769 0 0 0
196 1 4.753880379367392 43.20216781476703 23.617149570893623 0 0 0
73 1 2.774556087331603 12.7432883388225 15.639253957870102 0 0 0
77 1 4.6618278559117305 14.271823894054661 14.250749079273287 0 0 0
330 1 6.071025790695669 15.914806732129819 15.969233732971258 0 0 0
336 1 9.507272298674476 16.25956484775025 12.598916916042029 0 0 0
333 1 10.932394684401652 14.68022062779457 14.188968023722857 0 0 0
589 1 17.89917711296453 14.260039307772368 14.565698557192219 0 0 0
78 1 1.358764822650149 17.288799058611094 13.920036940058843 0 0 0
334 1 7.804159777708198 17.41035203643444 14.256698859164885 0 0 0
361 1 9.64850301801134 18.977959837162494 16.00378407512937 0 0 0
623 1 12.818933429983758 19.24258073758828 12.501852718084105 0 0 0
590 1 14.704423853231978 17.609889400411475 14.33795171240842 0 0 0
109 1 4.251065162064622 20.646951732971303 14.234977054704714 0 0 0
368 1 9.412696754929083 22.395130991586466 12.496828602621614 0 0 0
365 1 11.328956656864047 20.518081826831523 14.268020833069473 0 0 0
621 1 17.721804053748258 20.626645609367788 14.382977630805359 0 0 0
110 1 1.5497303394916249 23.990663044179477 14.219533019571601 0 0 0
112 1 2.900509689265952 22.385384144440703 12.7144291122066 0 0 0
366 1 7.5655327727039 24.0542965803362 14.14485364766424 0 0 0
622 1 14.485677702510303 24.101850874740947 14.586591147050099 0 0 0