
# Create simulation box of size 50 x 50 x 50 Angstrom
#
lattice	            sc 1
Lattice spacing in x,y,z = 1.0000000 1.0000000 1.0000000
region 	            all block 0 ${X} ${YZ_LO} ${YZ_HI} ${YZ_LO} ${YZ_HI} units box
region 	            all block 0 53.4 ${YZ_LO} ${YZ_HI} ${YZ_LO} ${YZ_HI} units box
region 	            all block 0 53.4 -0.0338637284326353.0 ${YZ_HI} ${YZ_LO} ${YZ_HI} units box
region 	            all block 0 53.4 -0.0338637284326353.0 50.940983728428975.0 ${YZ_LO} ${YZ_HI} units box
region 	            all block 0 53.4 -0.0338637284326353.0 50.940983728428975.0 -0.0338637284326353.0 ${YZ_HI} units box
region 	            all block 0 53.4 -0.0338637284326353.0 50.940983728428975.0 -0.0338637284326353.0 50.940983728428975.0 units box
create_box          1 all
Created orthogonal box = (0.0000000 -0.033863728 -0.033863728) to (53.400000 50.940984 50.940984)
  3 by 1 by 2 MPI processor grid

# fill box with 4175 randomly distributed atoms
#
create_atoms        1 random 4608 63782 all
Created 4608 atoms
  create_atoms CPU = 0.001 seconds
mass                1 18.015

# Define potential
#
pair_style          sw
pair_coeff          * * /data/emrosky-sim/Freezing_Simulations/Melting/MLmW_fancy/ML_mW.sw mW
Reading sw potential file /data/emrosky-sim/Freezing_Simulations/Melting/MLmW_fancy/ML_mW.sw with DATE: 2019-02-27

# Run minimization
#
minimize            1.0e-8 1.0e-8 10000 1000
WARNING: Using 'neigh_modify every 1 delay 0 check yes' setting during minimization (../min.cpp:187)
Neighbor list info ...
  update every 1 steps, delay 0 steps, check yes
  max neighbors/atom: 2000, page size: 100000
  master list distance cutoff = 6.0032907
  ghost atom cutoff = 6.0032907
  binsize = 3.0016454, bins = 18 17 17
  1 neighbor lists, perpetual/occasional/extra = 1 0 0
  (1) pair sw, perpetual
      attributes: full, newton on
      pair build: full/bin/atomonly
      stencil: full/bin/3d
      bin: standard
Per MPI rank memory allocation (min/avg/max) = 4.234 | 4.248 | 4.253 Mbytes
Step Temp E_pair E_mol TotEng Press 
       0            0    7238469.2            0    7238469.2    4958290.2 
     658            0   -49877.815            0   -49877.815    -477.1197 
Loop time of 1.32668 on 6 procs for 658 steps with 4608 atoms

98.7% CPU use with 6 MPI tasks x no OpenMP threads

Minimization stats:
  Stopping criterion = max force evaluations
  Energy initial, next-to-last, final = 
      7238469.24106697  -49877.2846330566  -49877.8154762456
  Force two-norm initial, final = 1.6634797e+08 6.3448666
  Force max component initial, final = 88481356.0 1.3760694
  Final line search alpha, max atom move = 0.043173193 0.059409312
  Iterations, force evaluations = 658 1001

MPI task timing breakdown:
Section |  min time  |  avg time  |  max time  |%varavg| %total
---------------------------------------------------------------
Pair    | 1.0425     | 1.1154     | 1.2353     |   5.9 | 84.07
Neigh   | 0.027411   | 0.028764   | 0.030802   |   0.7 |  2.17
Comm    | 0.037781   | 0.15967    | 0.23434    |  16.0 | 12.04
Output  | 0          | 0          | 0          |   0.0 |  0.00
Modify  | 0          | 0          | 0          |   0.0 |  0.00
Other   |            | 0.02285    |            |       |  1.72

Nlocal:        768.000 ave         784 max         755 min
Histogram: 1 1 1 0 0 1 0 1 0 1
Nghost:        1567.83 ave        1600 max        1547 min
Histogram: 1 0 1 2 1 0 0 0 0 1
Neighs:        0.00000 ave           0 max           0 min
Histogram: 6 0 0 0 0 0 0 0 0 0
FullNghs:      21887.3 ave       22731 max       21237 min
Histogram: 1 1 1 0 0 1 1 0 0 1

Total # of neighbors = 131324
Ave neighs/atom = 28.499132
Neighbor list builds = 27
Dangerous builds = 0

# Add velocity/set timestep
#
velocity            all create ${TEMP} 120598 rot yes dist gaussian
velocity            all create 292 120598 rot yes dist gaussian
timestep            5.0

# Define output
#
compute	            1 all msd
thermo	            100
thermo_style        custom step temp press vol etotal ke pe c_1[4] density

# Neighbor lists
#
neigh_modify        delay 0 every 1 check yes

# Set fixes
#
fix                 1 all momentum 10 linear 1 1 1 rescale
fix                 2 all nve
fix                 3 all temp/csvr ${TEMP} ${TEMP} 500.0 928347
fix                 3 all temp/csvr 292 ${TEMP} 500.0 928347
fix                 3 all temp/csvr 292 292 500.0 928347
fix                 4 all press/berendsen iso ${PRES} ${PRES} 1000.0 modulus 20000
fix                 4 all press/berendsen iso 1 ${PRES} 1000.0 modulus 20000
fix                 4 all press/berendsen iso 1 1 1000.0 modulus 20000

# Run 0.5 ns equilibration
#
dump                1 all custom 1000 eq.${NAME}.dump id type x y z vx vy vz
dump                1 all custom 1000 eq.liq_292K_1atm_ML.dump id type x y z vx vy vz
run                 100000
Per MPI rank memory allocation (min/avg/max) = 3.485 | 3.499 | 3.503 Mbytes
Step Temp Press Volume TotEng KinEng PotEng c_1[4] Density 
     658          292    843.91763    138756.43   -45867.899    4009.9168   -49877.815 5.4794755e-34   0.99344235 
     700    159.55122   -228.94473    139296.86   -45059.197    2191.0517   -47250.249   0.24623964   0.98958808 
     800    214.27514   -230.48262    139289.69    -43763.71     2942.553   -46706.263   0.73399027   0.98963903 
     900     243.4092    26.445273    139255.63   -42973.712    3342.6392   -46316.352    1.3532738   0.98988114 
    1000    255.95459   -48.248575    139303.76   -42424.181    3514.9199   -45939.101    2.1139286   0.98953911 
    1100    271.00117    148.57807    139188.77   -42020.473    3721.5485   -45742.022    2.9452797   0.99035662 
    1200    276.01035    9.8670833    139125.93   -41711.069    3790.3375   -45501.406    3.8234147   0.99080392 
    1300    280.62722    215.96137    138833.01   -41476.628    3853.7391   -45330.367    4.7579707   0.99289436 
    1400    283.26999   -107.03773    138735.66   -41383.397    3890.0312   -45273.428    5.7848208   0.99359111 
    1500    289.94652    164.47957     138875.2   -41292.299    3981.7173   -45274.016    6.7488523   0.99259275 
    1600    285.70235    -345.3076    138867.88   -41244.311    3923.4337   -45167.745    7.8437088   0.99264505 
    1700    285.01636    104.93123    138655.13   -41269.022    3914.0134   -45183.036     8.989029   0.99416816 
    1800    288.54251    -113.0803    138695.84   -41171.224    3962.4365   -45133.661      10.1152   0.99387638 
    1900    291.60642   -50.146656    138676.31   -41114.543    4004.5119   -45119.055    11.374539   0.99401636 
    2000    293.55813    -292.1244    138592.08   -41072.852     4031.314   -45104.166    12.682397   0.99462048 
    2100    292.02531    25.335143    138459.21   -41184.462    4010.2645   -45194.726    13.871592   0.99557489 
    2200    293.03642   -25.705757    138285.86       -41144    4024.1496    -45168.15    14.980455    0.9968229 
    2300     295.7368   -49.591173    138481.17   -41095.204    4061.2328   -45156.437    16.112292   0.99541704 
    2400    294.03921    211.68447     138221.6    -41138.36    4037.9205    -45176.28     17.35573   0.99728635 
    2500    288.76473   -167.62822    138169.27   -41127.528    3965.4881   -45093.016    18.744176   0.99766407 
    2600    299.88378   -101.37133    138190.64   -40979.052    4118.1816   -45097.234     19.95659   0.99750982 
    2700    288.14876    250.49235    137862.85   -41035.148    3957.0294   -44992.178    21.151221   0.99988153 
    2800    288.92644    87.907359    137993.63   -41043.683    3967.7088   -45011.392    22.474957   0.99893394 
    2900    295.60793    180.17853    138103.32   -40989.599     4059.463   -45049.062     23.93816   0.99814047 
    3000    292.90792    91.689172    137868.27   -40962.272    4022.3849   -44984.657    25.401375   0.99984223 
    3100    293.55738    349.18422    137847.41   -40982.908    4031.3037   -45014.211    26.569897    0.9999935 
    3200    288.92108   -59.088882    138157.33   -40975.281    3967.6353   -44942.916    28.246687   0.99775032 
    3300    296.87379     38.87853    138049.75   -40998.033    4076.8466    -45074.88    29.590636   0.99852784 
    3400      293.666    211.78644    138165.07   -40974.541    4032.7953   -45007.337    30.845856   0.99769437 
    3500    297.53054     85.14331    138060.07   -40871.902    4085.8655   -44957.768    32.289729   0.99845317 
    3600    299.80227   -92.742288    138121.44   -40938.676    4117.0622   -45055.738    33.465632   0.99800952 
    3700     294.9603    127.28375    138251.38   -40916.366    4050.5695   -44966.935     34.53287   0.99707156 
    3800    293.58423   -187.30864    138220.07    -40934.65    4031.6724   -44966.322    35.806041   0.99729738 
    3900    293.69294   -4.8204526    138193.61   -41110.761    4033.1653   -45143.927    37.300906   0.99748834 
    4000    288.93509    5.5706546       137910    -41090.15    3967.8277   -45057.978     38.79019   0.99953971 
    4100    291.25476    -106.9682    137928.02   -41011.957    3999.6828    -45011.64    40.068941   0.99940911 
    4200    290.29508    65.621722     138086.9   -41016.273    3986.5038   -45002.777     40.94969   0.99825919 
    4300    291.97811   -223.88476       138373   -41006.789    4009.6163   -45016.405    41.862773   0.99619521 
    4400    295.55841    295.13157    138614.41    -40965.25     4058.783   -45024.033    43.276464   0.99446023 
    4500    294.45325   -232.70095     138464.4   -41023.985    4043.6063   -45067.592    44.470026    0.9955376 
    4600    294.22475   -164.97262    138471.26   -41023.479    4040.4684   -45063.947    45.503634   0.99548826 
    4700    288.33679   -61.165349    138246.65   -41079.784    3959.6114   -45039.396    46.545785   0.99710569 
    4800    288.33094    56.463694    137892.61   -41054.217    3959.5311   -45013.749    47.755029   0.99966576 
    4900    295.17792   -67.305532    137947.18   -41089.429    4053.5579   -45142.987    48.985147   0.99927027 
    5000    295.52145   -207.75268    137974.83   -41067.972    4058.2755   -45126.247    50.226508      0.99907 
    5100    293.29465   -115.90973    137922.19   -41092.414    4027.6958   -45120.109    51.349614   0.99945134 
    5200    293.42669   -163.71095    137966.39   -41138.507     4029.509   -45168.016    52.453978   0.99913114 
    5300    292.01116    79.637558     138097.8   -41113.761    4010.0702   -45123.831    54.107586   0.99818038 
    5400    294.15835   -72.476477    138077.86   -41012.785    4039.5566   -45052.342    55.668864   0.99832455 
    5500    290.51419    351.02694     138407.8   -40963.319    3989.5128   -44952.832    57.307785   0.99594472 
    5600    299.21049   -37.054047    138581.64   -40904.894    4108.9355    -45013.83    58.355308   0.99469534 
    5700    295.84814     -92.2779    138254.12   -40987.215    4062.7618   -45049.976    59.470569   0.99705175 
    5800    295.88917   -200.86505    138064.35   -40940.237    4063.3252   -45003.563    60.606405   0.99842227 
    5900    287.93271    151.52023    138179.08   -41140.972    3954.0624   -45095.034     61.89592   0.99759322 
    6000    288.31943     15.76657    138115.75   -41157.207     3959.373    -45116.58    62.839227   0.99805068 
    6100    288.63839     219.1151    138262.53   -41077.622    3963.7532   -45041.375    64.369278    0.9969911 
    6200     283.7743   -128.83805    138187.49   -41136.703    3896.9566    -45033.66    65.602992   0.99753256 
    6300    284.83157   -84.267716    138047.91   -41110.881    3911.4757   -45022.357    66.868404    0.9985411 
    6400     288.1224   -44.443164    138057.97     -41120.3    3956.6674   -45076.968    68.036804   0.99846839 
    6500    287.14019   -30.369748    138206.41   -41126.146    3943.1791   -45069.325    69.042969   0.99739599 
    6600    289.17179   -11.381981    138101.47   -41146.664    3971.0782   -45117.742    70.119408   0.99815389 
    6700    287.93848    184.14913     137724.3   -41142.704    3954.1416   -45096.846    70.943047    1.0008874 
    6800    288.16549   -65.762593    137927.62   -41209.396    3957.2591   -45166.655    72.172521   0.99941196 
    6900    292.10162   -1.4943847    138143.39   -41120.591    4011.3123   -45131.903    73.403116   0.99785097 
    7000    292.98713   -87.204501    138203.49   -41063.786    4023.4726   -45087.259    74.504761   0.99741707 
    7100    286.77411    102.78603    138116.99   -41136.879    3938.1518   -45075.031    75.487001    0.9980417 
    7200    290.95578    225.58079    138265.77   -41145.084     3995.577   -45140.661    76.617046   0.99696776 
    7300    288.89026    41.605444    138426.73   -41159.103     3967.212   -45126.315    77.730123   0.99580854 
    7400    284.70292   -56.341063    138214.81   -41203.729     3909.709   -45113.438     78.91289   0.99733535 
    7500    292.23907    166.32452    138143.97   -41057.614    4013.1999   -45070.814    80.480394   0.99784682 
    7600    288.44434   -51.829738    138270.91   -41085.342    3961.0885    -45046.43    82.143644   0.99693068 
    7700    288.97669    180.51258    138466.96   -41082.921     3968.399    -45051.32    83.776288   0.99551919 
    7800    293.93273    66.406026    138602.33   -41136.616    4036.4582   -45173.074     85.33042   0.99454687 
    7900    287.94783   -16.016818    138663.06   -41272.482      3954.27   -45226.752    86.949058   0.99411129 
    8000    290.94384    -243.0327    138547.24   -41213.181     3995.413   -45208.594    87.748534   0.99494234 
    8100    289.76931   -159.19609    138313.95   -41124.266    3979.2837   -45103.549    88.324886   0.99662051 
    8200    291.76747    165.79642    138210.77   -41151.319    4006.7235   -45158.042    89.314386   0.99736447 
    8300    289.88979   -29.051381    138184.91   -41057.297    3980.9382   -45038.236    90.108292   0.99755118 
    8400    290.12179   -2.5837424    138117.76   -41150.387    3984.1241   -45134.511    90.941481   0.99803613 
    8500    293.46779    -60.77069    138126.42    -41161.36    4030.0734   -45191.434    91.857634    0.9979736 
    8600    288.67775   -146.94147    138296.52   -41108.661    3964.2938   -45072.955    92.995835   0.99674613 
    8700    293.74577   -79.866649     138470.8   -41094.991    4033.8908   -45128.881    93.968245   0.99549158 
    8800    294.07824    113.80949    138497.58   -41059.762    4038.4565   -45098.218    95.257042   0.99529909 
    8900    293.40131   -115.18115    138704.12   -41079.496    4029.1605   -45108.657     96.55505   0.99381704 
    9000     293.2307   -37.656221    138740.44   -40970.621    4026.8175   -44997.439    97.785468    0.9935569 
    9100    293.40943    75.359336    138497.21   -40980.147    4029.2719   -45009.418    98.714243   0.99530174 
    9200    290.45502   -243.23733    138752.32   -41010.567    3988.7003   -44999.268    99.828439   0.99347176 
    9300    293.02058    164.46539    138631.25   -41011.275     4023.932   -45035.207    101.07276   0.99433941 
    9400    296.28671   -20.175464    138491.99   -41066.039    4068.7845   -45134.824    101.98323   0.99533924 
    9500    288.73772   -164.02785    138259.82   -41115.785    3965.1173   -45080.902    103.33782   0.99701069 
    9600    288.03668    -155.2896     138224.5   -41181.355    3955.4902   -45136.845    104.71559   0.99726544 
    9700    288.09599    133.14897    138114.02   -41087.058    3956.3047   -45043.363    106.13802   0.99806319 
    9800    297.86222     61.19833    138378.17   -41047.484    4090.4203   -45137.904    107.38336   0.99615798 
    9900    295.73526   -162.98685    138355.92   -41055.119    4061.2117    -45116.33    108.64947   0.99631819 
   10000    293.14753   -48.132395    137986.37   -41192.732    4025.6754   -45218.407    109.72966   0.99898647 
   10100    287.67288    23.392315    138032.41    -41163.73    3950.4942   -45114.224     110.5991   0.99865324 
   10200    286.48494     99.31627    138058.94   -41186.121    3934.1808   -45120.302    111.11633   0.99846135 
   10300    293.25981   -235.67429    138060.25   -41080.272    4027.2173   -45107.489    112.07477   0.99845191 
   10400    291.23388   -84.590378    137824.21    -41010.97    3999.3961   -45010.366    113.17714    1.0001618 
   10500    301.09133    354.57359    137938.86   -41025.798    4134.7644   -45160.563     114.5175   0.99933052 
   10600    292.87373    43.704727    137993.62   -40997.996    4021.9154   -45019.912    115.52958   0.99893398 
   10700    287.93813    1.3054059    138184.75   -41019.091    3954.1369   -44973.227    116.89329   0.99755228 
   10800    293.47454   -59.586234    138143.52   -40982.242     4030.166   -45012.408     118.3707      0.99785 
   10900    292.21464    163.78799    138275.69   -40965.671    4012.8643   -44978.536    119.46183   0.99689628 
   11000    291.38238    153.08367    138357.14   -40961.912    4001.4353   -44963.347    120.68114    0.9963094 
   11100    292.92475    133.65662    138436.95   -41000.576     4022.616   -45023.192    121.55534   0.99573502 
   11200    290.98693   -350.22808    138112.47   -41039.945    3996.0047    -45035.95     122.6688   0.99807434 
   11300    292.90349    123.53604    137827.78   -41122.495    4022.3241   -45144.819     124.1828     1.000136 
   11400    295.39106    86.206837    138057.43   -41133.609    4056.4848   -45190.093    125.11742   0.99847228 
   11500    291.92421   -74.001961    138254.38   -41201.294     4008.876    -45210.17    126.10311   0.99704991 
   11600    291.91489    160.18293     138616.9   -41282.999     4008.748   -45291.747    127.46163   0.99444239 
   11700    292.28687   -165.73636    138755.09   -41173.897    4013.8564   -45187.754    128.63978   0.99345197 
   11800    286.55208   -94.385169    138755.32   -41171.696    3935.1028   -45106.799    129.59411   0.99345035 
   11900    286.22186   -53.056368    138410.36   -41233.451    3930.5679   -45164.019    131.10318   0.99592633 
   12000    285.65551   -60.984411    138213.77   -41212.727    3922.7905   -45135.518    132.16407   0.99734285 
   12100    287.14182    56.192498    138231.33   -41132.137    3943.2014   -45075.338    133.22699   0.99721618 
   12200     294.0482   -2.1603003    138315.62   -40958.353    4038.0439   -44996.397    134.58573   0.99660847 
   12300    293.31816    67.996858    138622.22   -40945.267    4028.0185   -44973.286    136.52475   0.99440422 
   12400     299.6556    24.630146    138303.51   -40885.153    4115.0481   -45000.201    137.91388   0.99669574 
   12500    291.07343    -152.3379    138291.69   -40968.386    3997.1926   -44965.579     139.4154   0.99678092 
   12600    293.11917   -15.299908     138509.1   -40998.159    4025.2859   -45023.445    140.82046   0.99521634 
   12700    288.71373     58.78669     138394.6   -40995.112    3964.7879     -44959.9    142.32272   0.99603974 
   12800    289.86147    169.32524    138510.68   -41035.519    3980.5492   -45016.068    143.76548   0.99520494 
   12900    293.63902    86.420952    138413.92   -41006.046    4032.4248   -45038.471    145.08256   0.99590065 
   13000    291.55663    19.492034    138433.32   -41103.765    4003.8282   -45107.593     146.1831   0.99576114 
   13100    288.28416    117.05272     138392.3   -41059.252    3958.8887   -45018.141    147.53255   0.99605629 
   13200    295.42478    179.05084    138413.77   -40986.537    4056.9479   -45043.485    149.18626   0.99590175 
   13300    293.15741   -251.10982    138401.93   -40999.318    4025.8111   -45025.129    149.82759   0.99598696 
   13400     294.1676    70.330004    138389.59   -41063.472    4039.6836   -45103.156    151.19784   0.99607576 
   13500    294.99997   -1.1262684     138479.6   -41090.462    4051.1143   -45141.577    152.16782   0.99542836 
   13600    291.71359    164.61856    138666.47   -41101.741    4005.9836   -45107.725    153.54792   0.99408689 
   13700    293.51404    4.1626412    138660.84    -41144.36    4030.7085   -45175.068    154.39835    0.9941272 
   13800    290.72764    165.10455     138656.9   -41208.326    3992.4441    -45200.77    155.07758   0.99415545 
   13900    289.04348   -103.55954    138774.95   -41203.251    3969.3162   -45172.567    155.82676   0.99330979 
   14000    286.90918    94.622904    138741.51   -41257.402    3940.0067   -45197.409    156.76944   0.99354924 
   14100    291.32536    24.779057    138501.33   -41220.788    4000.6523   -45221.441    157.22115   0.99527215 
   14200    287.44016    71.338156     138453.2   -41156.851    3947.2984    -45104.15    158.42628   0.99561816 
   14300    283.74513    53.799539    138194.31    -41193.28    3896.5561   -45089.836    159.20359    0.9974833 
   14400    297.55255    57.078897    138271.69   -41089.572    4086.1677    -45175.74    160.88382    0.9969251 
   14500    293.28919    119.62122    138469.79     -41114.3    4027.6208   -45141.921    162.61495   0.99549887 
   14600    297.83941    231.89002    138392.81   -40973.011     4090.107   -45063.118    163.95463    0.9960526 
   14700    294.55795   -127.51341    138293.38   -40973.476    4045.0441    -45018.52    165.31246   0.99676875 
   14800    293.59618    151.76185    138031.25   -41031.105    4031.8365   -45062.941    167.04061   0.99866168 
   14900    289.82223    99.904206    138573.92   -40965.192    3980.0105   -44945.202    168.77641   0.99475081 
   15000    290.91071   -146.04423    138553.49   -41045.153     3994.958   -45040.111    170.11367   0.99489746 
   15100    292.86806    55.769707     138473.4   -41074.919    4021.8376   -45096.756    171.08981    0.9954729 
   15200    291.95405    265.72989    138279.28   -41164.562    4009.2858   -45173.848    171.84206   0.99687037 
   15300    295.72562   -241.03183    138310.37   -41093.108    4061.0792   -45154.187    173.14028   0.99664629 
   15400    297.52497    193.95549    138460.71   -40956.188     4085.789   -45041.977    173.78723    0.9955641 
   15500     295.3596   -98.054416    138385.18    -41022.18    4056.0528   -45078.233     175.2574   0.99610749 
   15600    288.02563    18.162183    138696.67    -41091.09    3955.3384   -45046.428    176.76442    0.9938704 
   15700    297.63297   -3.8068135    138757.54   -41095.956     4087.272   -45183.228    178.65535   0.99343444 
   15800    290.91756    237.87732    138762.87   -41148.765    3995.0521   -45143.817    179.87635   0.99339627 
   15900    287.35733    246.78854    138688.65   -41132.802     3946.161   -45078.963    181.32215    0.9939279 
   16000    293.89027    -168.2304       138580   -41174.224    4035.8751   -45210.099    182.27716   0.99470712 
   16100    285.81935   -91.932304     138390.9   -41167.721    3925.0405   -45092.762    183.76862   0.99606631 
   16200    295.24504   -169.48143     138163.8   -41016.482    4054.4796   -45070.962    185.34953    0.9977036 
   16300    296.21763   -103.74902    138033.79   -41012.829    4067.8359   -45080.664    186.99207   0.99864329 
   16400    296.39264   -74.102762    138049.73   -40961.147    4070.2392   -45031.387    188.22507   0.99852795 
   16500    293.85912     -97.5879    138210.17   -40988.131    4035.4474   -45023.578    189.84158   0.99736882 
   16600    290.58709    112.43801    137929.97   -40991.315    3990.5139   -44981.829    191.45327   0.99939495 
   16700    291.64881    34.369481    138053.36   -41087.636    4005.0941    -45092.73    193.12996   0.99850172 
   16800    295.52926   -144.81305    138085.19   -41040.753    4058.3827   -45099.135    194.93669   0.99827157 
   16900     291.8555   -72.799978    138014.34   -41062.001    4007.9325   -45069.934    196.31326     0.998784 
   17000    292.00459    55.054321    138061.43   -41045.582    4009.9799   -45055.562    197.84072   0.99844335 
   17100    296.65004     3.822409    138271.28    -41065.25    4073.7739   -45139.024    199.06587   0.99692808 
   17200     294.5818   -448.40236     138060.6   -41053.211    4045.3717   -45098.583    200.32234   0.99844935 
   17300    288.97078   -380.57474    137925.93   -41056.297    3968.3178   -45024.614    201.17038    0.9994242 
   17400    290.06803    7.4163341    137698.14     -41038.2    3983.3859   -45021.586    202.30181    1.0010775 
   17500    287.35502    257.62998    137797.41   -41069.791    3946.1292    -45015.92    203.92228    1.0003563 
   17600    291.97404   -438.00629     138040.4   -41079.509    4009.5604    -45089.07     205.6771   0.99859548 
   17700    289.25612   -112.77249    137951.98   -40997.963    3972.2362     -44970.2     206.7312   0.99923553 
   17800    288.25467    58.350023    137968.47   -41074.736    3958.4838    -45033.22    207.65445   0.99911607 
   17900     289.8545   -45.809441    138083.47    -41115.31    3980.4535   -45095.764    208.95979   0.99828396 
   18000    292.79151    -10.29124    138175.46   -41147.051    4020.7863   -45167.837    210.85521   0.99761938 
   18100    289.22543    345.63739    138416.47   -41127.647    3971.8148   -45099.462    212.63763   0.99588236 
   18200    290.35331   -122.86809    138403.96   -41066.749    3987.3035   -45054.052    214.08499   0.99597233 
   18300    290.98613    248.87799    138600.36    -41136.34    3995.9938   -45132.334     216.2584   0.99456106 
   18400    288.70881    128.38176    138692.52   -41166.301    3964.7202   -45131.021     217.9683   0.99390013 
   18500    288.47194    203.16858    138527.36   -41068.213    3961.4675    -45029.68    219.30328   0.99508512 
   18600    290.72219   -59.564816    138484.09   -41075.508    3992.3692   -45067.878    220.18884   0.99539607 
   18700    290.86365   -40.693822    138318.72   -40982.224    3994.3117   -44976.536     221.3145   0.99658616 
   18800    291.45823     74.75033    138262.97   -41078.266    4002.4769   -45080.743    222.57379   0.99698795 
   18900    289.90064    270.21276    138317.68   -41053.914    3981.0872   -45035.001    223.68214   0.99659358 
   19000    297.60281   -259.31142    138519.64   -41069.528    4086.8579   -45156.386    225.56167   0.99514057 
   19100    289.50376    23.345923    138464.32    -41115.86     3975.637   -45091.497    226.20458    0.9955382 
   19200    291.91677   -275.74787    138498.67   -41059.648    4008.7738   -45068.422    227.99821   0.99529128 
   19300    294.18493   -207.72851     138109.8   -41035.829    4039.9215    -45075.75    228.89206    0.9980937 
   19400    291.86932    -134.0516    137997.49   -41059.778    4008.1223     -45067.9    230.38184     0.998906 
   19500    291.54938    103.77612    138134.61    -41039.16    4003.7286   -45042.888    231.25016   0.99791442 
   19600     292.9529    79.289193    138187.06   -41011.058    4023.0026   -45034.061    232.48722   0.99753566 
   19700    293.38083    26.966496    138324.39   -41017.542    4028.8792   -45046.422    233.80645   0.99654526 
   19800    290.86357  -0.29235525    138215.24   -41020.641    3994.3107   -45014.952    234.86383   0.99733222 
   19900     295.8335    20.700383    138180.28   -40968.756    4062.5608   -45031.317    235.82558   0.99758455 
   20000    295.51954   -148.63082    138275.68   -40936.306    4058.2493   -44994.555    237.18353   0.99689633 
   20100    297.07758   -10.724893    138131.12   -40938.623    4079.6452   -45018.268    238.56941    0.9979396 
   20200    289.54957    142.97297    138218.45     -40901.2    3976.2661   -44877.466    240.30233   0.99730907 
   20300    300.74162   -49.339303    137823.24   -40838.824    4129.9619   -44968.786    241.65182    1.0001689 
   20400    297.21871   -70.962269    137967.09   -40906.468    4081.5832   -44988.051    243.53624   0.99912606 
   20500    297.01993    152.24796    138082.47   -40874.237    4078.8534   -44953.091    245.31879   0.99829122 
   20600    292.22381   -11.927419    138104.07   -40960.159    4012.9903   -44973.149    246.47659   0.99813505 
   20700    289.02166   -170.68855    138400.56   -41025.125    3969.0164   -44994.141    248.81771   0.99599684 
   20800     292.5491     315.6105    137936.73   -41039.695    4017.4574   -45057.153    249.38191   0.99934595 
   20900    290.08825    60.413548    138184.07   -41027.325    3983.6635   -45010.988    250.49955   0.99755725 
   21000    298.94711    45.764049    138044.15   -40934.176    4105.3187   -45039.494    251.41729   0.99856835 
   21100    289.90033    12.227904    137941.39   -41015.951     3981.083   -44997.034    252.85079   0.99931219 
   21200    288.24143   -43.155104    137895.93    -41095.36     3958.302   -45053.662    254.00427   0.99964166 
   21300    287.16556     18.08774     138136.5   -41103.664    3943.5274   -45047.192    255.71623   0.99790074 
   21400    294.78664    13.265337    138249.36   -41017.503    4048.1846   -45065.687    256.97232   0.99708614 
   21500    298.21213   -147.31143     138348.6   -40964.561    4095.2255   -45059.787      258.361   0.99637091 
   21600    291.95286    78.294193    138410.54   -40998.286    4009.2695   -45007.556    259.61018   0.99592503 
   21700    296.96817   -278.60898    138525.57   -40978.546    4078.1426   -45056.689    261.56787   0.99509797 
   21800    298.71093    -71.58845    138461.63   -40926.258    4102.0753   -45028.333    262.89783   0.99555749 
   21900    292.05777    26.287139    138620.82   -40876.442    4010.7102   -44887.152    264.36927   0.99441422 
   22000    294.25778    102.71544    138687.96   -40972.759     4040.922   -45013.681    264.97931   0.99393281 
   22100    291.23741     98.95838    138568.05   -40907.411    3999.4445   -44906.856    266.00998   0.99479294 
   22200    292.78505    214.63185    138849.72   -40904.955    4020.6977   -44925.652    267.91425   0.99277492 
   22300    291.22949    56.305838    139017.61   -40961.793    3999.3357   -44961.129     269.5301   0.99157595 
   22400    297.19086    438.47792    139244.35   -41011.366    4081.2008   -45092.567    271.44951   0.98996129 
   22500    285.07399   -240.80379    138796.01    -41039.91    3914.8048   -44954.715    272.92574   0.99315911 
   22600    289.33871   -81.153457    138674.28   -41056.701    3973.3704   -45030.071    274.61609   0.99403091 
   22700     289.8405   -282.11791    138206.84   -41027.355    3980.2613   -45007.616    275.59015   0.99739287 
   22800    285.50811   -292.86381    137943.06   -41138.305    3920.7663   -45059.071    276.80462   0.99930013 
   22900    288.30078   -123.88213    138124.05   -41134.404     3959.117   -45093.521     278.1965   0.99799068 
   23000    295.66347   -181.68633    138060.82    -40982.13    4060.2258   -45042.356    279.55933   0.99844773 
   23100    292.98685   -251.69531    138096.93   -41024.493    4023.4688   -45047.962    281.21119   0.99818665 
   23200    295.52862     85.59846    137936.79   -41042.398     4058.374   -45100.772    281.85123   0.99934554 
   23300    285.69099    94.857504     138196.8   -41148.785    3923.2777   -45072.062    283.22542   0.99746535 
   23400    290.22978    137.36822     138049.5   -41082.568    3985.6071   -45068.175    284.49701    0.9985296 
   23500    291.34586    55.641401    137766.87   -41079.857    4000.9338   -45080.791     284.6965    1.0005781 
   23600    292.81419   -71.137365    137644.03    -41141.02    4021.0978   -45162.118    286.10934    1.0014711 
   23700    293.68017   -99.412953    137937.83   -41154.987    4032.9899   -45187.977    288.15051   0.99933799 
   23800    293.61244    41.389878    137949.07   -41117.604    4032.0599   -45149.663    289.05722   0.99925662 
   23900    291.88375   -170.88544    138053.43    -41036.52    4008.3204    -45044.84    290.28221    0.9985012 
   24000    292.66496   -143.67353    137901.64   -40998.828    4019.0484   -45017.876    291.38775   0.99960026 
   24100    293.98534    -24.04218    137638.83   -41014.628    4037.1807   -45051.809    292.28856     1.001509 
   24200    296.05393   -66.118488    137352.57   -40931.331    4065.5878   -44996.918    293.84391    1.0035962 
   24300    293.75873    136.16059     137442.6   -40993.121    4034.0688    -45027.19    294.85744    1.0029388 
   24400    294.20285    261.41317    137950.15   -40957.068    4040.1676   -44997.235    297.16205   0.99924875 
   24500    293.06886   -200.89938    137877.69   -40979.547    4024.5951   -45004.142    297.82688   0.99977389 
   24600    289.05556   -91.554287    137791.36   -40995.194     3969.482   -44964.676    298.70701    1.0004003 
   24700    295.62539    -248.7488     137974.7   -40959.574    4059.7028   -45019.277    300.46202   0.99907094 
   24800    296.16821    153.45096     137796.1   -40984.243    4067.1571     -45051.4     301.7417    1.0003659 
   24900    291.19954    157.59203    137806.42   -41047.905    3998.9244   -45046.829    303.23169    1.0002909 
   25000     293.3151    28.945607    137772.67   -41062.683    4027.9765    -45090.66    304.59109     1.000536 
   25100    288.60993    36.978429    137771.84   -41114.065    3963.3623   -45077.427     306.1285     1.000542 
   25200    289.64638   -71.667981    138060.15   -41126.935    3977.5956    -45104.53    307.88545   0.99845261 
   25300    287.99357   -28.178795    138346.74   -41150.276    3954.8982   -45105.175      310.107   0.99638429 
   25400    289.93071    97.798551    138035.93   -41082.665    3981.5002   -45064.165    310.72332   0.99862781 
   25500    288.63859    171.76191    138271.14   -41123.517     3963.756   -45087.273    312.48731   0.99692909 
   25600    287.19025   -23.973123    138077.18   -41154.903    3943.8665    -45098.77    313.20097   0.99832945 
   25700    293.51262   -135.07865     138103.6   -41129.969     4030.689   -45160.658    314.54861   0.99813848 
   25800    289.43091   -12.616662    137966.28   -41222.243    3974.6366   -45196.879    315.67877   0.99913192 
   25900    286.18647   -77.622374    137883.43   -41290.216    3930.0821   -45220.298    316.80552   0.99973231 
   26000     289.4503    313.01875    138014.95   -41111.698    3974.9029   -45086.601    317.95914   0.99877958 
   26100    289.49057   -162.76639    138128.12   -41105.531    3975.4558   -45080.987    319.35655   0.99796131 
   26200    297.46991    204.24073    137966.15   -40988.062    4085.0328   -45073.095    320.90199   0.99913287 
   26300    292.06159     15.27959     137961.8   -41038.164    4010.7626   -45048.926    322.16916   0.99916438 
   26400    291.54041    294.58661    138152.69   -41036.998    4003.6055   -45040.604     324.2541   0.99778382 
   26500    296.57921    43.059559    138358.05   -40892.242    4072.8012   -44965.043    326.26728    0.9963028 
   26600    291.57148    102.54491    138287.79   -41024.537    4004.0321    -45028.57    326.90345   0.99680903 
   26700    292.89458    88.039712    138115.89    -40978.89    4022.2017   -45001.092    328.06153   0.99804968 
   26800    292.28858   -344.30771    138236.71   -40993.185    4013.8798   -45007.065    329.75755   0.99717735 
   26900    289.23375    41.403715    138226.19   -41135.792    3971.9291   -45107.721     331.0933   0.99725324 
   27000     288.7131   -79.440373    138271.83   -41110.025    3964.7792   -45074.804    332.89945   0.99692405 
   27100    291.02075    211.74209    138258.73    -41059.15    3996.4692   -45055.619    334.37894    0.9970185 
   27200    292.66511   -218.48681    138301.93    -40985.07    4019.0505    -45004.12    335.97349   0.99670707 
   27300    295.40621    336.17188    138174.61   -40968.723    4056.6929   -45025.416    337.75829   0.99762552 
   27400    295.68347    129.42447     138381.4   -40956.711    4060.5004   -45017.212    340.03726   0.99613475 
   27500    290.86134    152.11217    138443.56   -41012.164    3994.2801   -45006.444    341.29646   0.99568748 
   27600    293.86076   -121.46216    138503.56   -40965.669    4035.4698   -45001.139     342.8167   0.99525612 
   27700    292.09329    93.241271    138399.98   -40959.253     4011.198   -44970.451    343.49664   0.99600097 
   27800    292.54121   -71.451454    138269.45   -40960.323     4017.349   -44977.673    344.54131   0.99694123 
   27900    298.15824    71.421804    138343.93   -40951.348    4094.4855   -45045.834    346.33876   0.99640449 
   28000    294.33999   -74.365755    138465.61   -40906.858     4042.051   -44948.909    347.47933   0.99552891 
   28100    293.82757   -96.096364    138021.03   -40933.848    4035.0141   -44968.863    348.09812   0.99873558 
   28200    292.60186   -147.68732    137736.97   -41043.941    4018.1819   -45062.123    349.31149    1.0007954 
   28300     290.6775   -27.564282    137515.83   -41030.414    3991.7555    -45022.17    349.71707    1.0024047 
   28400    293.49834    37.971464    137483.25   -40956.087    4030.4929    -44986.58    350.86832    1.0026422 
   28500    288.07149    132.69505    137088.59   -41037.265    3955.9682   -44993.233    351.71163    1.0055287 
   28600    290.91335    168.88048    137550.21   -41067.342    3994.9943   -45062.337     353.9806    1.0021542 
   28700    287.05093    139.52851    137909.14   -41169.408    3941.9533   -45111.361    355.76102   0.99954587 
   28800    291.41042   -23.023107    138186.71   -41110.043    4001.8203   -45111.863    357.23894   0.99753817 
   28900    294.77673   -238.06647    138089.25   -41100.879    4048.0485   -45148.927    358.09858   0.99824223 
   29000    296.75483   -12.887597    138252.19   -41087.506     4075.213   -45162.719     359.2021   0.99706572 
   29100     291.9554    27.781758    138336.48   -41054.495    4009.3043   -45063.799    360.01453   0.99645819 
   29200    288.09749   -228.91121    138021.72   -41138.874    3956.3252   -45095.199    361.55304   0.99873061 
   29300    293.36597    41.003135    137991.55   -41116.319    4028.6751   -45144.994    363.37712   0.99894897 
   29400    286.76814    193.83972    138107.56   -41155.345    3938.0699   -45093.415    364.10038   0.99810989 
   29500    295.39941    -229.4247    138002.69   -41112.892    4056.5996   -45169.491    365.34826   0.99886834 
   29600    288.25772   -35.505185    138020.59   -41102.809    3958.5257   -45061.335    366.83125   0.99873877 
   29700    291.10307    218.37487    138026.75   -41048.445    3997.5997   -45046.044    367.99784   0.99869421 
   29800    293.75023   -86.225216    138128.81   -40956.068     4033.952    -44990.02     369.7991   0.99795629 
   29900    293.68324    64.758218    137992.07   -41009.833     4033.032   -45042.865    370.13732   0.99894518 
   30000    289.57791    -42.59624    137992.88   -41009.141    3976.6553   -44985.796    370.48125   0.99893933 
   30100    295.67063   -138.48371    138079.53   -40988.661    4060.3242   -45048.985    371.69133   0.99831246 
   30200    292.55783     34.50452    138134.38   -40980.435    4017.5773   -44998.013    373.10764   0.99791609 
   30300     291.3212    61.416364    138266.04   -40952.221    4000.5951   -44952.816    374.77536   0.99696586 
   30400    290.87143   -166.95749    138274.06   -41132.505    3994.4187   -45126.924    375.98647   0.99690803 
   30500    291.82038   -171.20656    138173.68   -41112.765    4007.4502   -45120.215     376.6849    0.9976322 
   30600    289.60826    112.59869    138584.55   -41165.836    3977.0721   -45142.909    378.81461   0.99467452 
   30700    290.68784    27.187056    138792.32   -41119.961    3991.8975   -45111.858    380.74108   0.99318549 
   30800    289.09692   -82.278704    138713.34    -41068.64    3970.0501    -45038.69    381.68305   0.99375094 
   30900    297.54954    -225.1107    138484.21   -41095.788    4086.1264   -45181.914    383.41997   0.99539522 
   31000    288.27873    47.648615    138733.82   -41130.894    3958.8141   -45089.708    384.98005   0.99360429 
   31100    280.46879   -185.74316     138391.2   -41277.576    3851.5634   -45129.139    385.15749   0.99606419 
   31200    290.48963    18.536208    138061.15   -41210.274    3989.1755   -45199.449    385.21861   0.99844537 
   31300    290.16849   -76.592687    137999.91   -41148.958    3984.7654   -45133.724    385.50315   0.99888842 
   31400    292.67145   -109.57732    137878.29   -41169.453    4019.1376    -45188.59    386.27136   0.99976955 
   31500    291.45835    41.322679    137735.46   -41065.757    4002.4786   -45068.236     387.0528    1.0008063 
   31600    293.05096   -124.76416    137800.04   -41063.019    4024.3492   -45087.368    388.27088    1.0003373 
   31700    290.79829     105.4691    137779.34    -41086.45    3993.4143   -45079.864    389.59628    1.0004876 
   31800    289.97896    238.41812    137885.59   -41085.909    3982.1628   -45068.072     391.1327   0.99971662 
   31900    289.72745   -14.241241     137697.2   -41047.516    3978.7089   -45026.225    391.72567    1.0010844 
   32000    295.32447    28.121375    137622.47   -41036.289    4055.5704   -45091.859    392.83781     1.001628 
   32100     291.1504   -9.0644191    137680.99   -41089.881    3998.2496   -45088.131    394.33159    1.0012022 
   32200    298.06574    34.064894    137644.35   -41110.583    4093.2152   -45203.798     395.6605    1.0014687 
   32300    290.84097    54.279713    137670.68     -41096.3    3994.0004   -45090.301    397.65905    1.0012773 
   32400    293.44624   -23.853663    138224.87   -41005.301    4029.7775   -45035.078    400.32672   0.99726277 
   32500    289.36124   -164.96401    138334.14   -41123.234    3973.6798   -45096.914    402.08205   0.99647503 
   32600    292.60574    90.308499    138411.51    -41097.55    4018.2352   -45115.785    404.21091   0.99591802 
   32700    296.72817   -50.859994     138407.5   -41075.814    4074.8469   -45150.661    404.84824   0.99594687 
   32800    287.52962    245.50112    138435.95   -41149.033     3948.527    -45097.56    406.06475   0.99574217 
   32900    291.20472   -124.17428     138014.5   -41223.529    3998.9956   -45222.525    406.81422   0.99878283 
   33000    283.68196   -128.02412    137996.68   -41213.915    3895.6886   -45109.603    407.59002   0.99891186 
   33100    292.88667    10.035129    138185.48   -41163.466    4022.0931   -45185.559    409.52586   0.99754705 
   33200    291.47546   -43.530434    138014.27   -41127.847    4002.7136    -45130.56     410.3665   0.99878453 
   33300     294.3786    6.3306723    137624.24   -41090.835    4042.5811   -45133.416    410.27267    1.0016151 
   33400    287.32242   -42.348896    137989.93   -41139.331    3945.6815   -45085.012    412.40289    0.9989607 
   33500    290.99832    8.7683152    138121.76   -41033.573    3996.1612   -45029.735    414.29977   0.99800722 
   33600    292.77642   -138.55982    138410.47   -41049.049    4020.5791   -45069.628    416.00663   0.99592548 
   33700    293.46342   -110.47432    138402.64   -41039.472    4030.0134   -45069.486    417.70227   0.99598187 
   33800    295.57803   -43.568524    138410.21   -41031.626    4059.0525   -45090.678    418.77843   0.99592738 
   33900    295.41385    145.43269    138520.07   -41032.124    4056.7979   -45088.922    420.34675    0.9951375 
   34000    292.10003   -259.84586    138658.04   -41095.147    4011.2904   -45106.438     422.2947   0.99414734 
   34100    289.41395    95.540875    138469.99   -41161.255    3974.4037   -45135.659    423.29925   0.99549742 
   34200    293.23364    59.155492    138523.42   -41114.482    4026.8579    -45141.34    424.49932   0.99511344 
   34300     289.4857   -183.96373    138551.81   -41082.425     3975.389   -45057.814    426.44644   0.99490952 
   34400    298.89409   -40.928683    138200.07   -40957.731    4104.5905   -45062.321     426.9255   0.99744172 
   34500    292.67484    47.986346    137911.31   -40931.622    4019.1842   -44950.806    427.67433   0.99953016 
   34600    293.01201    174.11279    138136.63   -41006.898    4023.8143   -45030.712    429.21371   0.99789984 
   34700    294.62068    114.95699    138122.01   -41048.022    4045.9056   -45093.928    429.67398   0.99800542 
   34800    296.80499      78.7819    138102.39    -41086.23    4075.9018   -45162.132    430.15416   0.99814719 
   34900    291.96014   -41.953998    138218.24   -41065.592    4009.3695   -45074.962    430.62826    0.9973106 
   35000    288.90429    49.128072    138141.55   -41122.799    3967.4048   -45090.204    430.97662   0.99786425 
   35100    293.04991    121.46601    138315.29   -41042.653    4024.3349   -45066.988    432.33853   0.99661081 
   35200    299.60364   -7.4890501    138342.32   -40871.937    4114.3346   -44986.272     433.0772   0.99641609 
   35300    291.64482   -324.13358    138279.61   -40998.723    4005.0393   -45003.762    433.86551   0.99686798 
   35400    288.61498    238.19616    138403.83   -41075.821    3963.4318   -45039.253    436.07109   0.99597328 
   35500    289.95722    -14.88141    138427.15   -41070.736    3981.8642     -45052.6    436.28938   0.99580546 
   35600    285.33766    -87.96214    138136.28   -41106.512    3918.4257   -45024.938    436.53911   0.99790232 
   35700    289.80128   -47.449242    138291.87   -41007.164    3979.7227   -44986.887    438.58133    0.9967796 
   35800    295.45323   -101.62912    138265.92   -41014.336    4057.3386   -45071.674    440.33028    0.9969667 
   35900    295.43468   -227.66957    138457.94   -40966.448    4057.0839   -45023.532    442.21534   0.99558407 
   36000    296.47968    140.02608    138431.12    -41004.83    4071.4345   -45076.265    443.34795    0.9957769 
   36100    288.64022    109.45258    138381.32   -41063.516    3963.7783   -45027.294    444.60672   0.99613529 
   36200    293.71574   -129.59159    138020.67   -41042.569    4033.4783   -45076.048    445.63251   0.99873821 
   36300    295.44458     289.9376       138430   -41062.067    4057.2199   -45119.287    448.58691   0.99578502 
   36400    294.56965   -49.971441    137975.02   -40918.114    4045.2048   -44963.319    448.41606   0.99906868 
   36500    299.43134   -165.68607    137883.14   -40874.607    4111.9684   -44986.576    449.77735   0.99973439 
   36600    294.49847    90.769603    137703.47   -41007.096    4044.2274   -45051.323    450.91557    1.0010388 
   36700     292.4101    160.68722    137888.62   -41022.992    4015.5486   -45038.541    453.02256   0.99969468 
   36800     297.2469    54.042277    138360.14   -41069.743    4081.9704   -45151.713    455.68178   0.99628777 
   36900    289.19975    54.129091    138499.89   -41163.306    3971.4622   -45134.768    456.92861   0.99528247 
   37000    293.37196   -210.01943    138610.22    -41091.91    4028.7574   -45120.667    458.11833   0.99449026 
   37100     292.4368   -196.56364    138424.54   -41123.678    4015.9152   -45139.593    459.43644   0.99582427 
   37200    291.20201    104.13902    138441.43   -41087.427    3998.9583   -45086.385    460.84809   0.99570276 
   37300    286.82464    75.431667    138287.45   -41073.177    3938.8457   -45012.023    461.99657   0.99681146 
   37400    296.71005    222.87142    138249.83   -41134.783    4074.5981   -45209.381    462.77591   0.99708274 
   37500    288.10576    -46.68897    138184.46   -41165.284    3956.4388   -45121.723    463.60772   0.99755439 
   37600    287.71661    243.72787     138244.3   -41115.821    3951.0948   -45066.916    464.64549   0.99712262 
   37700    289.81739    10.445957    138121.74   -41127.345     3979.944   -45107.289    465.57479   0.99800739 
   37800     287.1683    129.39103    138155.49   -41143.787    3943.5651   -45087.352     466.3518   0.99776359 
   37900    286.06566   -90.825954    138043.89   -41166.421     3928.423   -45094.844    467.57776   0.99857023 
   38000    295.27513    75.851447    138253.77   -41125.195    4054.8928   -45180.088    469.03681   0.99705431 
   38100     292.2535    36.825941    138315.62   -41159.011     4013.398   -45172.409    469.79996   0.99660843 
   38200    287.58454   -90.068857    137987.78   -41168.615    3949.2811   -45117.896    470.77298   0.99897629 
   38300    290.06237    4.5919322    138036.71   -41235.053    3983.3082   -45218.362    471.29999   0.99862213 
   38400     283.5557   -155.01435     138019.1    -41292.09    3893.9547   -45186.044    473.20506   0.99874955 
   38500    283.30551   -142.19993    138128.16   -41254.538    3890.5189   -45145.057     474.5081   0.99796103 
   38600    291.18933    -115.5171    137856.36   -41119.464    3998.7842   -45118.248    475.03041   0.99992858 
   38700     288.9029    478.33902     138053.7   -41127.107    3967.3856   -45094.493    476.08826   0.99849929 
   38800    290.73498   -131.70683    138242.91   -41091.329    3992.5449   -45083.874     477.7715   0.99713266 
   38900    290.15046    227.14626    138312.94   -40981.791    3984.5178   -44966.309    479.17722   0.99662777 
   39000    290.95097   -31.345944    138382.56   -41002.897     3995.511   -44998.408    481.27755   0.99612637 
   39100    295.75998   -113.83078    138074.86   -41123.943    4061.5511   -45185.494    480.96706    0.9983462 
   39200    294.87496   -223.98469     138152.3   -41072.949    4049.3975   -45122.346    482.67484    0.9977866 
   39300     291.2676    44.997598    137935.46   -41032.067    3999.8591   -45031.926    483.07511   0.99935518 
   39400    292.12613   -253.45274    137703.46    -41057.62    4011.6489   -45069.269    483.77387    1.0010389 
   39500    294.02269    136.17729    137614.39   -40978.383    4037.6936   -45016.076    484.75082    1.0016868 
   39600    290.67393   -52.904439    137746.34   -40970.948    3991.7064   -44962.655    485.89926    1.0007272 
   39700    287.43287   -51.513691    137858.04   -41070.114    3947.1983   -45017.313    487.71902   0.99991639 
   39800    294.99784   -64.459143    138074.07   -41045.933    4051.0849   -45097.018    489.84466   0.99835193 
   39900    290.79506   -219.78144    138156.13   -41224.882    3993.3699   -45218.252    491.58799   0.99775898 
   40000    290.17868    97.906753    138098.79   -41094.706    3984.9054   -45079.611     492.9337   0.99817324 
   40100    292.09656   -183.86699    138128.42   -41059.565    4011.2429   -45070.808    493.88302   0.99795914 
   40200    298.75741     160.9025     138093.6    -40995.61    4102.7135   -45098.324    496.08798   0.99821072 
   40300    289.62329   -145.17099    138384.31   -41048.869    3977.2784   -45026.147    498.51478   0.99611375 
   40400    291.97104    99.197373     138129.4   -41084.056    4009.5192   -45093.575    498.77124   0.99795205 
   40500    290.11921    124.26531    138173.05   -41069.635    3984.0887   -45053.724    500.88008   0.99763675 
   40600    295.77589   -305.10509    137955.52   -41055.291    4061.7696   -45117.061    501.92589   0.99920989 
   40700      290.177    160.57956    137633.13   -41095.443    3984.8823   -45080.325    502.88242    1.0015504 
   40800    293.55015     12.39693    137848.36   -41063.341    4031.2044   -45094.545    504.55727   0.99998663 
   40900    286.26926   0.19108509    137963.65   -41102.271    3931.2189    -45033.49    507.02546   0.99915099 
   41000    298.21545    98.675667    138320.52   -41063.615    4095.2711   -45158.886    508.91871   0.99657313 
   41100    296.56837   -148.92366    138045.05   -41089.714    4072.6524   -45162.366    509.94467   0.99856185 
   41200    293.64236      188.956    138156.95   -41007.935    4032.4707   -45040.405    511.92879   0.99775305 
   41300    288.47388    8.8686398    138390.66   -41150.249    3961.4941   -45111.743    513.84813   0.99606807 
   41400    289.35526   -9.5254684    138243.97   -41084.123    3973.5977   -45057.721    515.78181   0.99712497 
   41500    293.21815   -286.90779    137883.84   -41113.715    4026.6452    -45140.36    515.88058   0.99972931 
   41600    293.34265    311.46938    138130.66   -41054.752    4028.3549   -45083.106    516.89408   0.99794291 
   41700    290.77334   -272.03518    137908.31   -41199.318    3993.0716    -45192.39    517.28745   0.99955191 
   41800     293.5861    157.49944    138076.13    -41064.71    4031.6981   -45096.408    519.05971   0.99833706 
   41900    288.06478   -45.361374    138210.64   -41057.186     3955.876   -45013.062    521.02157   0.99736544 
   42000     292.2664   -72.632992    138312.84   -41082.162    4013.5752   -45095.737    522.24407   0.99662847 
   42100    291.56368   -51.643738    138304.95   -41072.868     4003.925   -45076.793    522.76082   0.99668536 
   42200    292.56949    -337.7957    138012.18   -41019.021    4017.7375   -45036.759    523.09202   0.99879966 
   42300    287.47697    98.147355    137867.04    -41128.58    3947.8039   -45076.384    523.42473   0.99985114 
   42400    290.28242   -56.308165     138091.9   -41064.631      3986.33   -45050.961    525.05469   0.99822302 
   42500    293.98719   -183.44732    137734.55   -41127.063    4037.2061    -45164.27    524.28244    1.0008129 
   42600     289.1474    147.33928    137559.72   -41153.002    3970.7432   -45123.746    524.79299    1.0020849 
   42700    287.68604   -138.84908    137622.93   -41221.674     3950.675   -45172.349    526.11036    1.0016246 
   42800    289.60006    226.84448    138007.69   -41184.427    3976.9595   -45161.387    528.09064   0.99883218 
   42900    291.70622    16.274526    138149.12   -41138.993    4005.8825   -45144.876    529.37461   0.99780956 
   43000    290.09185    152.41094    138032.87   -41080.194     3983.713   -45063.907    531.47539    0.9986499 
   43100    294.18158    85.072981    138187.89   -41108.221    4039.8756   -45148.097    532.52335   0.99752961 
   43200    287.57766   -74.701625    138152.91   -41154.328    3949.1867   -45103.515    534.56635   0.99778223 
   43300    287.21307   -74.673611    138141.91   -41157.778    3944.1798   -45101.958    535.62309   0.99786165 
   43400    291.31367   -113.41162    138272.56   -41176.317    4000.4917   -45176.808    537.45346    0.9969188 
   43500    292.85236    149.72858    138320.91   -41108.907    4021.6219   -45130.529    539.05315   0.99657032 
   43600    289.98329   -56.266418    138485.47   -41134.403    3982.2221   -45116.625    540.72077   0.99538614 
   43700    294.87003    -53.52204    138500.69   -41127.419    4049.3298   -45176.749    542.58631   0.99527675 
   43800    291.42538    -71.26119    138484.82   -41044.322    4002.0258   -45046.347    543.26409   0.99539078 
   43900    290.32001   -136.38801     138710.5   -41116.423    3986.8462   -45103.269    545.18266   0.99377134 
   44000    289.99788   -152.15637    138471.98   -41051.329    3982.4225   -45033.752      545.645   0.99548308 
   44100    293.41125    10.842291    138165.93   -40948.079    4029.2969   -44977.376    546.99539   0.99768817 
   44200    287.45009    225.05193    138284.22   -40981.387    3947.4347   -44928.822    549.17233   0.99683479 
   44300    288.98769   -125.15017    138566.17   -41113.556      3968.55   -45082.106    550.73978   0.99480646 
   44400    290.46167    13.790509    138407.58   -41159.446    3988.7916   -45148.238    551.39146   0.99594629 
   44500    289.35473    38.104948    138476.41   -41172.452    3973.5904   -45146.042    552.85544   0.99545123 
   44600    281.67534    3.6889922    138424.58   -41187.941    3868.1325   -45056.074    554.30016   0.99582398 
   44700    294.18721   -61.847884    138177.06   -41204.654    4039.9529   -45244.606    554.68319    0.9976078 
   44800    295.19694   -81.106042    138234.32    -41155.65    4053.8192    -45209.47    556.48204    0.9971946 
   44900    292.58824   -267.79242    138131.34   -41205.894    4017.9948   -45223.889    558.03588   0.99793803 
   45000    285.32183   -31.845021    137901.76   -41182.226    3918.2082   -45100.434    557.32876   0.99959943 
   45100    289.86851    70.191738    138220.52   -41088.925     3980.646   -45069.571    559.07402   0.99729416 
   45200    288.38781    186.35344    138236.97   -41119.041    3960.3121   -45079.353    560.00912    0.9971755 
   45300    289.91177   -34.749592    138334.88   -41170.449      3981.24   -45151.689    561.82939   0.99646973 
   45400    287.92657   -76.599663    138387.92   -41207.668    3953.9781   -45161.646    563.56851   0.99608777 
   45500    292.30104   -22.465294    138296.53   -41109.601    4014.0509   -45123.652    564.19839   0.99674606 
   45600    288.96145   -71.291903    138184.43   -41122.319    3968.1896   -45090.508     565.8178    0.9975546 
   45700    293.55634   -76.843387    137808.38   -41053.738    4031.2894   -45085.028    566.65667    1.0002767 
   45800    291.51868    124.43262    137700.82   -41028.793    4003.3071     -45032.1     567.3536    1.0010581 
   45900    291.41995    43.648353     137846.6   -41024.839    4001.9512   -45026.791    569.14672   0.99999937 
   46000    286.94379    116.95083    137861.27   -41086.956     3940.482   -45027.438    570.24271   0.99989298 
   46100    291.72553    56.893977    138175.82   -41025.365    4006.1476   -45031.512    572.83996   0.99761677 
   46200    292.18711   -54.754707    138077.16   -41047.423    4012.4863   -45059.909    573.23944   0.99832961 
   46300    290.55894   -75.180188    137885.68    -41062.95    3990.1273   -45053.077    574.74741   0.99971599 
   46400    289.34324    107.58012    137845.51   -41065.649    3973.4327   -45039.081    576.07052    1.0000073 
   46500    286.49618    274.19741    138134.42   -40981.287    3934.3351   -44915.622    578.76361   0.99791581 
   46600    292.21064   -35.369547    137903.91   -40906.438    4012.8095   -44919.248    579.15126   0.99958385 
   46700    295.00072   -70.871341    137903.97    -40895.88    4051.1245   -44947.004    580.91922   0.99958335 
   46800    300.28946  -0.14098283    137660.72   -40907.752    4123.7526   -45031.505     581.7238    1.0013497 
   46900     294.7153   -175.57668    137784.76   -40914.193     4047.205   -44961.398    583.50819    1.0004482 
   47000    298.75142    92.678484    137730.19   -40995.364    4102.6313   -45097.995    585.62688    1.0008446 
   47100    290.79819    254.01364    137831.42   -40990.384    3993.4129   -44983.797    587.18441    1.0001095 
   47200    290.47875   -128.23425    137875.45   -41023.355    3989.0261   -45012.381    588.58001   0.99979012 
   47300    292.52666   -8.7460341    137774.59   -40999.906    4017.1492   -45017.056    590.23774    1.0005221 
   47400    291.85488    68.789158    137953.97   -40945.848    4007.9239   -44953.772     591.3333   0.99922109 
   47500    293.20198   -106.79001    137889.52   -41003.624    4026.4231   -45030.047    592.50644   0.99968815 
   47600    291.32392    62.278082    137562.07    -40936.51    4000.6325   -44937.143    593.40662    1.0020677 
   47700    292.05633    202.93934    137556.18   -41039.603    4010.6903   -45050.293    594.98676    1.0021107 
   47800    286.51822    108.62258     137700.2   -41070.353    3934.6378   -45004.991    597.46387    1.0010626 
   47900    286.54075   -37.620145    137878.29   -40984.042    3934.9472   -44918.989    599.77698   0.99976957 
   48000    291.83774    165.45213     137735.7   -41026.398    4007.6886   -45034.086    601.31111    1.0008046 
   48100    294.86142    13.417617     138058.3   -41053.686    4049.2116   -45102.898    603.36285   0.99846599 
   48200    289.12382    47.523884    138046.83   -41044.969    3970.4194   -45015.389    604.18876   0.99854891 
   48300    291.25778   -50.962063    137793.71   -41006.406    3999.7242    -45006.13    605.11284    1.0003832 
   48400    295.03997   -282.71236    137718.71    -40993.79    4051.6635   -45045.453    606.07842     1.000928 
   48500    291.58237    76.694219    137568.27   -41103.998    4004.1817   -45108.179    606.56907    1.0020226 
   48600    289.37711   -3.9715944    137784.76   -41096.897    3973.8978   -45070.795    608.30229    1.0004482 
   48700    291.94472   -3.3094535    137947.06   -41187.761    4009.1577   -45196.919    609.87409   0.99927118 
   48800    294.49389      188.925    138164.16   -41148.242    4044.1644   -45192.407    611.75834   0.99770094 
   48900    288.51758    190.60122    138463.97   -41065.401    3962.0942   -45027.496    613.87716   0.99554067 
   49000    296.43697    -253.7311    138331.84   -41045.338    4070.8479   -45116.185    614.98145   0.99649158 
   49100    292.00153   -141.85879    138220.88    -41105.74    4009.9378   -45115.678    615.21938   0.99729159 
   49200    285.01091    78.133857    138050.75   -41193.226    3913.9385   -45107.165    615.89421   0.99852058 
   49300    287.74404   -200.92934     138055.6    -41155.65    3951.4714   -45107.122    616.67882   0.99848549 
   49400    291.14218   -187.34398    138125.57   -41189.753    3998.1367    -45187.89    617.88761    0.9979797 
   49500    287.65351    130.63635    138466.16   -41152.299    3950.2283   -45102.528     620.0883   0.99552494 
   49600    290.87904   -58.001924    138454.84   -41108.183    3994.5231   -45102.706    619.47083   0.99560637 
   49700     287.6702    146.29797    138330.05   -41056.721    3950.4575   -45007.178    620.44355   0.99650449 
   49800    291.63208    -206.5537    138553.01   -40993.429    4004.8644   -44998.293    621.74214    0.9949009 
   49900     282.9139    93.158932    138050.53   -41059.722    3885.1411   -44944.863     622.8255   0.99852215 
   50000    286.25598    140.48364    138093.31   -41112.725    3931.0365   -45043.762    624.13221   0.99821286 
   50100    289.83624    155.28456    137817.75   -41115.968    3980.2027   -45096.171    624.40399    1.0002088 
   50200    286.65548    165.62096    137714.72   -41107.763    3936.5228   -45044.286    626.29368     1.000957 
   50300    292.43487     45.09169    137904.82   -41058.064    4015.8887   -45073.953    628.40007   0.99957725 
   50400    289.47462   -120.11694    137912.94   -41089.937    3975.2368   -45065.174    629.43457   0.99951839 
   50500    288.32296   -218.38275    137796.23    -41138.38    3959.4215   -45097.802    630.31962     1.000365 
   50600     287.2857    99.846444    137847.29   -41149.643    3945.1773    -45094.82    631.86935   0.99999437 
   50700    292.97277   -17.947155    137692.63   -41029.261    4023.2755   -45052.537    631.73683    1.0011176 
   50800    295.21422   -189.73086    137592.28   -41036.384    4054.0564    -45090.44    633.64195    1.0018477 
   50900     295.2292    19.273106    137797.74   -41078.965    4054.2622   -45133.227    635.56231     1.000354 
   51000     288.6946    78.786342    138174.67   -41118.918    3964.5252   -45083.443    637.52703   0.99762509 
   51100    291.38227    52.681985    138192.11   -41073.148    4001.4338   -45074.582     638.7276   0.99749915 
   51200      298.786   -174.04106    138015.76   -40947.696    4103.1062   -45050.802     639.1316   0.99877376 
   51300    296.69692    266.40733    138447.35   -40967.253    4074.4177   -45041.671    640.63197   0.99566023 
   51400    293.36407    -294.1306    138161.09   -41161.186    4028.6491   -45189.835     640.4386   0.99772314 
   51500    289.93041    182.78192    137962.08   -41209.469     3981.496   -45190.965    641.18868   0.99916235 
   51600    289.75239    221.53265    138224.13   -41133.037    3979.0513   -45112.088    643.69108   0.99726812 
   51700    288.77303    77.106372    138634.16    -41157.84    3965.6022   -45123.443     645.4817   0.99431857 
   51800    288.02883   -106.06532    138429.14    -41170.82    3955.3824   -45126.202    646.32236    0.9957912 
   51900    291.06267    -188.4841    138672.46   -41224.395    3997.0449    -45221.44    647.73627   0.99404395 
   52000    292.29058   -98.574228    138514.15   -41135.345    4013.9073   -45149.253     648.1256   0.99518006 
   52100    288.02122     71.67965    138390.46   -41130.061    3955.2778   -45085.339    649.67838    0.9960695 
   52200    287.26136   -105.06792    138504.02   -41164.548     3944.843   -45109.391    651.08528   0.99525283 
   52300    294.47984   -59.617876    138547.28   -41124.204    4043.9714   -45168.175    653.03601    0.9949421 
   52400    290.45894   -82.746598    138423.75    -41061.15     3988.754   -45049.904    653.80257   0.99582994 
   52500    289.55884    51.803851    138392.55   -41078.058    3976.3933   -45054.452     655.2161   0.99605448 
   52600    291.13783    199.28494    138390.91   -41168.278     3998.077   -45166.355    656.44523   0.99606626 
   52700    291.49526 -0.044386161    138389.31   -41146.405    4002.9855   -45149.391    657.45647   0.99607781 
   52800    287.15724    13.525993    138344.25   -41182.965    3943.4131   -45126.378    658.70615   0.99640218 
   52900    283.83356   -28.195098    138285.84   -41237.147    3897.7705   -45134.917    659.50474    0.9968231 
   53000    283.53453   -121.72408    138322.58   -41267.919    3893.6639   -45161.583    661.21885   0.99655828 
   53100    285.14842   -88.557482    138342.73   -41303.328    3915.8269   -45219.154    661.55085   0.99641315 
   53200    296.75167   -10.470408    138315.04   -41123.399    4075.1696   -45198.569    662.96329   0.99661263 
   53300    288.30162    84.003458    138279.92   -41114.407    3959.1286   -45073.536    664.44978   0.99686576 
   53400    296.07642   -59.607564    138508.46   -41023.641    4065.8967   -45089.538    666.27939   0.99522095 
   53500     291.7377    -269.9759    138420.15   -41058.491    4006.3148   -45064.806    666.63524   0.99585588 
   53600    288.63278    131.81253    138674.26   -41029.246    3963.6762   -44992.922    668.03234   0.99403105 
   53700    292.70071    40.079173    138672.67   -41090.874    4019.5393   -45110.413    669.77348   0.99404245 
   53800    289.13129   -266.92495    138377.77   -41187.436     3970.522   -45157.958     670.4764   0.99616082 
   53900    289.01405    203.41686    137755.68   -41158.619    3968.9121   -45127.532    669.55286    1.0006594 
   54000    287.33939    112.05652    137979.68   -41139.507    3945.9146   -45085.422    671.56073   0.99903493 
   54100    290.14032    174.42631     137967.7   -41099.534    3984.3787   -45083.913    672.33245   0.99912165 
   54200    290.62686   -174.08985    138164.03   -41139.668    3991.0601   -45130.728    673.48893    0.9977019 
   54300    293.60678    108.59448    137987.45   -41068.104    4031.9821   -45100.086    674.10221   0.99897862 
   54400    286.95701    17.104696     137926.1   -41188.278    3940.6635   -45128.942    674.83521   0.99942299 
   54500    291.72238    -100.5377    138149.89   -41128.481    4006.1044   -45134.586    676.73141   0.99780405 
   54600    287.94464   -151.11015    138215.76   -41117.178    3954.2263   -45071.405    678.06826   0.99732847 
   54700    295.05106    171.66064    138340.33    -41055.82    4051.8158   -45107.636    679.39946   0.99643047 
   54800    295.84034   -94.253197     138298.8    -41085.36    4062.6547   -45148.014    680.73966   0.99672963 
   54900    299.48253    89.998182    138103.82   -41013.346    4112.6714   -45126.018    683.18455    0.9981369 
   55000    296.94227   -29.312487    138063.92   -40962.929    4077.7869   -45040.716    683.99092   0.99842532 
   55100    300.75998   -235.66943    138515.76   -40966.025     4130.214   -45096.239     687.5207   0.99516848 
   55200     286.0907   -124.51321    138432.24   -41061.801    3928.7668   -44990.568    688.78212   0.99576886 
   55300    294.89835    114.80167    138247.28   -41023.296    4049.7187   -45073.015     689.3769   0.99710108 
   55400    298.04718   -80.123973    138133.46   -40981.504    4092.9603   -45074.464     690.4489   0.99792268 
   55500     292.0195   -16.378994    138017.49   -41010.161    4010.1846   -45020.346    692.11651   0.99876119 
   55600    291.79655    358.81713    138092.31   -40977.685     4007.123   -44984.808    693.29816    0.9982201 
   55700    290.95712   -117.03049    138132.29   -40981.279    3995.5954   -44976.874     695.2035   0.99793119 
   55800    291.62079   -272.91676     137929.4   -41121.633    4004.7094   -45126.342    696.34407   0.99939906 
   55900    290.13943    49.772284    138089.45   -41227.878    3984.3664   -45212.244    696.89121   0.99824078 
   56000    285.91271    36.542675    138216.02   -41240.676    3926.3226   -45166.999    697.62297   0.99732663 
   56100    288.98083    180.70405    138374.53   -41217.292    3968.4558   -45185.747    698.58813   0.99618414 
   56200    290.26566     89.65575    138328.24    -41162.89    3986.0999    -45148.99    699.76396   0.99651753 
   56300    289.80633   -12.983399    138559.71   -41052.719     3979.792   -45032.511    701.35111   0.99485283 
   56400    293.85035   -6.8063621     138103.7   -40937.654     4035.327   -44972.981    700.72978   0.99813772 
   56500    294.68588    125.15859     138010.2   -41019.751    4046.8009   -45066.552    701.67393   0.99881398 
   56600    296.25132    212.74805    137970.59   -40996.693    4068.2984   -45064.991    701.45373   0.99910075 
   56700    290.85861   -82.028742    137811.28   -41050.801    3994.2426   -45045.044    702.39259    1.0002557 
   56800    297.26211    9.2741393    137726.74   -41011.242    4082.1792   -45093.422    703.02769    1.0008697 
   56900    294.63459   -140.71897    137850.89    -41034.86    4046.0966   -45080.956     704.9755   0.99996826 
   57000    287.36522     30.80545    137878.87   -41100.262    3946.2694   -45046.531    707.16146   0.99976531 
   57100    287.98021    192.29561    137658.17   -41179.002    3954.7147   -45133.717    707.43655    1.0013682 
   57200    284.15652    9.1673283    138052.69    -41210.63    3902.2056   -45112.835    709.80458   0.99850655 
   57300    287.47297   -174.74487     138106.1   -41153.084     3947.749   -45100.833    712.40082   0.99812041 
   57400    287.90106   -164.83358    137918.71   -41175.624    3953.6278   -45129.251    713.42007   0.99947654 
   57500    291.08626    75.055882    138210.81   -41081.193    3997.3688   -45078.562    714.84491   0.99736419 
   57600    286.79131    13.286385    138107.55    -41165.53     3938.388   -45103.918    715.35287    0.9981099 
   57700    291.96874    4.0060779    138072.18   -41108.719    4009.4876   -45118.206    716.30004   0.99836564 
   57800     289.2197   -64.783306    138045.54   -41096.362    3971.7361   -45068.098    717.60452   0.99855831 
   57900    284.18695    17.019121    137891.89   -41153.894    3902.6234   -45056.517    717.96984   0.99967097 
   58000     290.6188     53.19565    138477.85   -41127.257    3990.9494   -45118.207    720.33166   0.99544092 
   58100    301.40937    7.2364901    138164.31   -41062.305    4139.1318   -45201.437    720.06017    0.9976999 
   58200    293.78462    99.252725    138273.32   -41122.597    4034.4242   -45157.022    722.60058   0.99691332 
   58300    291.88939   -145.66194    138153.03   -41115.673    4008.3978   -45124.071    724.05657   0.99778137 
   58400     292.6852    219.06346     138056.6   -41105.868    4019.3264   -45125.194    725.18175   0.99847828 
   58500    300.60332   -48.223547    138093.21   -40967.006    4128.0627   -45095.069    727.41826    0.9982136 
   58600    291.43198    155.69438    138047.94   -41093.858    4002.1164   -45095.974    727.97004    0.9985409 
   58700    292.57809   -218.44928    138304.92   -41051.268    4017.8555   -45069.123    729.73578   0.99668558 
   58800    295.86962    -107.7547    138205.46   -41020.575    4063.0567   -45083.631    729.78142   0.99740285 
   58900    293.98432   -306.28918    138128.75   -40989.369    4037.1667   -45026.536    730.65846   0.99795677 
   59000    290.62539   -34.636658     138524.6   -41039.834    3991.0398   -45030.874    733.38482   0.99510493 
   59100    289.82977   -21.235671    138365.71   -41026.545     3980.114   -45006.659    734.98066   0.99624768 
   59200    290.21021    262.65304    138116.78   -41072.284    3985.3384   -45057.623    734.93358   0.99804324 
   59300     288.2274    102.39639    138195.51   -41082.014    3958.1093   -45040.123    734.92574   0.99747461 
   59400    298.54717    121.01406    138132.74    -41030.71    4099.8264   -45130.537    735.85807   0.99792793 
   59500    286.56485    196.69218    138139.25   -41110.187    3935.2781   -45045.465    736.99559   0.99788089 
   59600    295.33936   -367.02837    137997.03   -40985.234     4055.775   -45041.009    736.82645    0.9989093 
   59700     295.6171    120.12126    138177.84   -40974.926    4059.5889   -45034.515    739.09974   0.99760217 
   59800    294.40519   -49.831507    138114.72   -41036.529    4042.9463   -45079.476    740.43807   0.99805813 
   59900    292.64443    88.397338    138138.76   -41050.405    4018.7666   -45069.172    742.56243   0.99788441 
   60000    284.80657   -93.467964    138070.42   -41058.831    3911.1324   -44969.963    743.72105   0.99837835 
   60100    288.49387   -76.654747    137663.46   -41092.074    3961.7685   -45053.843    743.86712    1.0013297 
   60200    290.08479    66.858974    138018.28   -41164.489     3983.616   -45148.105    746.50759   0.99875551 
   60300    295.87216   -166.26803    138361.84   -41115.667    4063.0916   -45178.759     748.9979   0.99627553 
   60400    293.21011   -300.70799    137963.25   -41124.703    4026.5348   -45151.238    747.49882   0.99915387 
   60500    290.07071    256.84519    137967.75   -41152.129    3983.4227   -45135.551     748.8882   0.99912131 
   60600    295.42969   -42.797087    138302.18   -41113.623    4057.0153   -45170.638    751.76669   0.99670532 
   60700    291.54808    34.291001    138488.49   -41145.962    4003.7108   -45149.672    752.35047   0.99536441 
   60800    289.71294    -79.20646    138508.75   -41131.586    3978.5096   -45110.095    754.12829   0.99521883 
   60900    293.90457   -79.305494    138803.61   -41057.164    4036.0715   -45093.235    756.88546   0.99310469 
   61000    291.17269    78.595932    138619.95   -41026.351    3998.5557   -45024.907    757.04027   0.99442046 
   61100    297.45178   -81.928193    138458.79   -41004.194    4084.7838   -45088.977    757.63752   0.99557795 
   61200    292.44406   -11.627658    138313.55   -41082.621     4016.015   -45098.636    758.69147   0.99662338 
   61300    294.22211   -3.1015797    138298.66   -40999.687    4040.4321   -45040.119    760.35092   0.99673067 
   61400    296.06959    348.11524    138334.44   -40948.066    4065.8029   -45013.869    761.29845   0.99647285 
   61500    292.68637    -80.58478    138628.61   -40920.874    4019.3424   -44940.216    764.06437   0.99435839 
   61600    288.54039   -224.49589    138439.59   -41003.352    3962.4074   -44965.759    765.07048   0.99571604 
   61700    294.13315   -92.091069    138546.44   -40995.009    4039.2105   -45034.219    767.06312   0.99494807 
   61800    294.64251     83.57996    138490.58   -41030.668    4046.2053   -45076.873    768.85355   0.99534942 
   61900    294.91816   -114.92403    138285.76   -40976.228    4049.9908   -45026.218    769.49179   0.99682368 
   62000    290.91253     3.359367    137797.19   -41049.182     3994.983   -45044.165    768.95243    1.0003579 
   62100    289.56578    210.19431    137896.63   -41043.143    3976.4888   -45019.632    770.14924   0.99963659 
   62200    292.79275   -239.84208     138176.4    -41080.01    4020.8033   -45100.814    772.11518    0.9976126 
   62300    289.11608   -34.449008    138103.66   -41091.891    3970.3131   -45062.204    773.02391   0.99813807 
   62400    289.72481    137.39924    138145.12   -41131.005    3978.6726   -45109.677    774.35749   0.99783845 
   62500    291.40097    354.30357    138424.67   -41084.474    4001.6906   -45086.164    777.63626   0.99582335 
   62600    293.08661    29.034283    138779.52   -41050.397    4024.8388   -45075.235    779.51126    0.9932771 
   62700    292.20505    92.802586    138703.45   -41084.639    4012.7327   -45097.371    780.42472   0.99382183 
   62800     294.6639    55.373591     138522.2   -41092.994     4046.499   -45139.493    780.85404   0.99512219 
   62900     289.0161   -152.50368    138223.81   -41070.576    3968.9402   -45039.516    781.61274   0.99727042 
   63000    294.53622    36.312711    138131.62   -41035.895    4044.7457   -45080.641    782.39757   0.99793597 
   63100    287.16994    -142.1138    138372.66    -41047.82    3943.5876   -44991.408    784.75255   0.99619765 
   63200    289.37221    42.692349    138140.01   -41063.489    3973.8305   -45037.319    786.18687   0.99787537 
   63300    292.59558   -19.230573    138181.78   -41164.357    4018.0957   -45182.453    788.09496   0.99757376 
   63400    284.55682    201.83348    137894.74   -41248.634    3907.7027   -45156.337    788.55312   0.99965032 
   63500    291.73053   -33.275042    138341.34   -41130.609    4006.2163   -45136.826    792.74676   0.99642319 
   63600    289.98249   -146.54903    138481.64   -41081.561    3982.2112   -45063.772    793.97822   0.99541363 
   63700    287.88982   -86.030191    138589.04    -41159.72    3953.4734   -45113.193    795.79831   0.99464227 
   63800    288.85326   -149.92643    138423.59   -41153.565    3966.7039   -45120.269    796.64318   0.99583113 
   63900    292.81064   -79.526645    138056.83   -41129.201     4021.049    -45150.25    796.57157   0.99847663 
   64000    289.10922   -285.84667    137672.61   -41214.295    3970.2189   -45184.514    794.97657    1.0012632 
   64100    289.61394    174.99283    137677.81   -41190.474      3977.15   -45167.624    796.16452    1.0012253 
   64200    289.12024    255.71397    138020.56   -41180.529    3970.3702   -45150.899    798.52388   0.99873899 
   64300    284.18318    98.681183       138216   -41230.456    3902.5716   -45133.027    799.80608   0.99732676 
   64400    287.01073   -185.25063    138342.38   -41241.654    3941.4013   -45183.055    801.45975   0.99641571 
   64500    284.75365    139.90919    138280.62   -41284.526    3910.4057   -45194.931    801.65585   0.99686071 
   64600    293.74705   -212.25007    138147.22   -41178.682    4033.9083   -45212.591    802.42086   0.99782332 
   64700    287.70679     235.5124    138091.03    -41137.19      3950.96    -45088.15    802.41129   0.99822937 
   64800    291.67155     232.0763    137985.11   -41028.172    4005.4064   -45033.578    801.56739   0.99899559 
   64900    299.27236    56.348373    138096.79   -41017.667    4109.7851   -45127.452    802.34078   0.99818769 
   65000    291.07693    134.84875     137857.1   -41064.126    3997.2407   -45061.367    803.64855   0.99992321 
   65100    286.26018    68.033637    138077.81   -41141.839    3931.0942   -45072.934    804.57048   0.99832494 
   65200    289.79165    77.975705    138353.15    -41067.99    3979.5905    -45047.58       807.26   0.99633815 
   65300    290.46334   -15.960893    138151.68   -41090.175    3988.8145   -45078.989    808.97173   0.99779108 
   65400     291.5378   -39.738064    138085.61   -41196.758    4003.5697   -45200.328    811.28036   0.99826849 
   65500     296.5925    85.456614    138237.63   -41130.977    4072.9838    -45203.96    814.63539   0.99717075 
   65600    291.28472   -24.645828    138141.02   -41004.842    4000.0943   -45004.937    816.61321    0.9978681 
   65700    298.66605    9.4169868    138299.13   -41008.211     4101.459    -45109.67    818.56843   0.99672726 
   65800    292.35572   -138.80929    138328.71   -41056.817    4014.8018   -45071.619     819.9209   0.99651414 
   65900    294.27936    40.616277    138090.96   -41074.588    4041.2183   -45115.807    819.66939   0.99822984 
   66000    295.53287   -55.140287    138176.23   -41119.774    4058.4323   -45178.206    822.02784   0.99761386 
   66100    286.94875   -53.839862    138073.89   -41094.416    3940.5501   -45034.967    823.04865   0.99835324 
   66200    289.74184    6.6759803    137916.58   -41025.644    3978.9064    -45004.55    823.82813   0.99949197 
[...]
   84600    285.55837   -46.688789    137846.92   -41214.377    3921.4566   -45135.833      1055.71    0.9999971 
   84700     287.3713    68.543527    138113.55   -41209.437    3946.3527    -45155.79    1058.3453   0.99806658 
   84800    291.70254     240.1373    138226.96   -41116.102    4005.8319   -45121.934    1058.0982   0.99724768 
   84900    291.38117    75.749548    138307.41   -41133.835    4001.4186   -45135.254    1061.2012    0.9966676 
   85000    291.93274   -16.194428    138171.57   -41148.283    4008.9931   -45157.276    1062.1368   0.99764747 
   85100    287.04639   -192.18179     138137.7     -41159.8     3941.891   -45101.691    1062.6264   0.99789211 
   85200    291.09874    250.97683    138209.89   -41105.505    3997.5402   -45103.046    1064.0233   0.99737085 
   85300    296.48558   -143.92839    138132.99   -41097.894    4071.5155    -45169.41    1064.4855   0.99792613 
   85400    290.54065    87.021076    138038.44   -41102.057    3989.8762   -45091.933    1064.6893   0.99860967 
   85500    285.45157   -268.04804    137828.17   -41083.197    3919.9899   -45003.187     1064.661    1.0001331 
   85600    292.41078    84.812508    137811.02   -41094.009    4015.5579   -45109.567    1067.0443    1.0002575 
   85700    291.33125     177.3039    138009.09   -41092.719    4000.7331   -45093.452    1069.1566   0.99882203 
   85800    289.06908    65.338079    138652.15   -41015.846    3969.6677   -44985.513    1073.6741   0.99418953 
   85900    287.05545    232.50763    138569.27   -41043.715    3942.0154   -44985.731    1074.7055   0.99478417 
   86000    292.05832   -6.7636906    138616.31   -41086.998    4010.7177   -45097.716    1076.2113   0.99444658 
   86100    294.41031    -87.72473    138423.81    -41046.71    4043.0167   -45089.727    1077.0101    0.9958295 
   86200    292.58443    298.07844    138690.96   -41105.661    4017.9426   -45123.604    1078.3121   0.99391134 
   86300    289.38136    44.881723    138892.59   -41122.227    3973.9561   -45096.183    1080.8803   0.99246848 
   86400    290.05884     63.82734    139098.81   -41104.392    3983.2597   -45087.652    1083.8544   0.99099707 
   86500    292.56062    102.83211    138903.99   -41049.247    4017.6156   -45066.863    1085.5232   0.99238702 
   86600     295.2839   -12.594171    139064.81   -41079.574    4055.0132   -45134.588    1088.5765   0.99123941 
   86700    289.76547    55.817609    139003.14   -41141.664    3979.2309   -45120.895    1088.7399   0.99167913 
   86800    291.64763    143.61672    138991.67   -41099.736    4005.0779   -45104.814    1090.1761   0.99176101 
   86900    291.78656   -86.572398    138857.07   -41111.826    4006.9857   -45118.812    1091.2441   0.99272234 
   87000    290.69244   -202.74828    138994.21   -41129.271    3991.9606   -45121.232    1093.7323   0.99174285 
   87100    290.02411    74.922598    138569.81   -41158.138    3982.7828   -45140.921     1092.205   0.99478032 
   87200    296.26515     33.82423     138281.8    -41124.65    4068.4884   -45193.138    1091.7401   0.99685219 
   87300    292.32082   -105.79033    138217.82   -41048.016    4014.3225   -45062.338    1094.3392   0.99731367 
   87400    290.66317    12.015747    137964.52   -41133.515    3991.5586   -45125.074    1093.6773   0.99914465 
   87500    287.71134   -100.51337    137936.33   -41147.391    3951.0224   -45098.413    1095.4203    0.9993489 
   87600    291.68495   -178.45486    138021.59   -41119.419    4005.5904   -45125.009    1097.2448   0.99873157 
   87700    293.83586    293.02935    137921.92   -41111.715    4035.1279   -45146.843    1097.6507   0.99945327 
   87800    293.83741    179.41897    137981.81   -41036.392    4035.1492   -45071.541    1098.1518   0.99901951 
   87900    292.85562    102.60468    138074.46   -41023.823    4021.6667    -45045.49    1099.1447    0.9983491 
   88000    287.82335   -96.517358    137955.74    -41035.35    3952.5606   -44987.911    1099.4168   0.99920824 
   88100    289.84508    28.354775    137862.95   -41026.833    3980.3242   -45007.158    1099.8349   0.99988077 
   88200    293.35368   -75.834284    137713.98   -40962.917    4028.5063   -44991.423    1101.3503    1.0009624 
   88300    295.22003     115.8959    137768.71   -40980.724    4054.1363    -45034.86    1102.6181    1.0005648 
   88400    293.43548    111.65329    137876.59   -41072.378    4029.6297   -45102.008    1102.8586   0.99978188 
   88500    288.68405   -368.77922    137802.21   -41113.778    3964.3803   -45078.158    1102.9283    1.0003215 
   88600    292.26302    90.312964    137561.58   -41099.489    4013.5288   -45113.017    1102.5347    1.0020713 
   88700    287.57016     142.2436    137698.94   -41084.809    3949.0837   -45033.893    1104.6884    1.0010717 
   88800    293.99671   -316.67989    137646.55   -41089.012    4037.3368   -45126.349    1105.4082    1.0014528 
   88900    291.81453   -216.35089    137753.64   -41156.193    4007.3699   -45163.562    1108.6886    1.0006742 
   89000    294.81208    226.89846    137475.94   -41065.755     4048.534   -45114.289    1107.2999    1.0026956 
   89100    290.49659    78.559013    137730.76   -41015.176    3989.2711   -45004.447    1108.9093    1.0008405 
   89200    284.72754     140.0013     137716.5   -41119.471    3910.0472   -45029.518    1109.3709    1.0009441 
   89300    288.07307    131.31179     137715.6   -41065.375      3955.99   -45021.365    1108.7944    1.0009506 
   89400    292.09088    -29.20562    137496.97   -41035.658    4011.1649   -45046.822    1109.4668    1.0025422 
   89500    286.50308   -1.9133399     137709.6    -41105.31    3934.4299    -45039.74    1112.9452    1.0009943 
   89600    292.85691    25.588838    137798.97   -41035.736    4021.6844    -45057.42      1113.24    1.0003451 
   89700    295.81446    23.136404    137985.34   -41035.294    4062.2992   -45097.594    1114.8946   0.99899391 
   89800    289.62692    93.547539       137958   -41077.683    3977.3284   -45055.012    1114.6023   0.99919194 
   89900    288.53372   -1.3757407    137801.74    -41088.89    3962.3158   -45051.206    1114.6458    1.0003249 
   90000     295.2061    2.9859564    138161.49   -41058.186    4053.9449   -45112.131    1117.9579   0.99772026 
   90100    291.63123   -18.371684    137966.06    -41039.52    4004.8526   -45044.373    1118.1954   0.99913352 
   90200    289.11562    125.40305    138144.56   -41187.218    3970.3068   -45157.525    1120.3219   0.99784254 
   90300    291.26789    33.417309    138149.13   -41178.542    3999.8631   -45178.405    1122.2644   0.99780949 
   90400    295.23561   -216.93953    138166.57   -41101.844    4054.3501   -45156.194     1125.057    0.9976836 
   90500    291.46685    102.51265    138379.12    -41076.05    4002.5953   -45078.645    1126.6829   0.99615116 
   90600    297.84243   -141.29515    138158.09   -41051.177    4090.1485   -45141.325    1127.4721   0.99774477 
   90700     292.3752    142.49296    138334.24   -41071.359    4015.0692   -45086.429    1130.2978   0.99647428 
   90800    293.94318    55.388894    138630.09   -41043.775    4036.6017   -45080.376    1132.1018   0.99434771 
   90900    282.73521    37.084736    138638.59   -41136.461    3882.6872   -45019.148    1133.1949   0.99428677 
   91000    292.09425   -146.28305     138457.9   -41073.644    4011.2112   -45084.855    1133.5012   0.99558432 
   91100    293.54123    120.46222    138641.74   -41055.054    4031.0819   -45086.136    1135.6245   0.99426422 
   91200    289.78226   -317.05552    138742.26   -41066.345    3979.4616   -45045.807    1138.1789   0.99354383 
   91300    289.54739   -60.582113    138551.28   -41102.454    3976.2361    -45078.69    1139.0386   0.99491335 
   91400    287.82806    70.500632    138513.72   -41121.171    3952.6253   -45073.797    1139.4845   0.99518314 
   91500    288.87208   -46.854912    138452.43   -41108.831    3966.9624   -45075.793    1140.6021   0.99562364 
   91600    291.43484     131.3077    138728.92   -41085.115    4002.1558   -45087.271    1143.6945   0.99363938 
   91700    284.52238   -141.52919    138465.61   -41208.423    3907.2297   -45115.653    1144.9954   0.99552887 
   91800    287.29936   -9.9790504    138036.27   -41222.921    3945.3649   -45168.285    1143.9388   0.99862536 
   91900      291.849    102.00339    137695.03   -41185.805    4007.8432   -45193.648    1143.5124    1.0011002 
   92000    289.91149    149.81078    138067.03   -41096.864    3981.2362     -45078.1    1145.7267   0.99840284 
   92100    292.68739    46.462774    138187.09   -41032.497    4019.3565   -45051.854    1148.2965   0.99753545 
   92200    295.66621   -109.91539    138266.09   -40996.611    4060.2634   -45056.874    1150.5658   0.99696547 
   92300    292.63882    96.360813    137955.25   -41057.615    4018.6895   -45076.305    1150.7863    0.9992118 
   92400    287.66506   -45.277138    138127.85   -41048.864    3950.3869    -44999.25    1153.0753   0.99796326 
   92500    293.01892    182.82073    138312.34   -40988.767    4023.9092   -45012.676    1156.4539   0.99663211 
   92600    298.77868    336.80156    138520.83   -40978.374    4103.0056    -45081.38    1158.1695   0.99513207 
   92700    292.44074    -107.2035     138438.6   -41104.579    4015.9694   -45120.548    1159.0786   0.99572314 
   92800    287.29923   -74.701229    138098.36   -41164.513     3945.363   -45109.876    1158.8178   0.99817632 
   92900    286.81319   -160.16569    138447.98   -41088.416    3938.6885   -45027.104    1162.7752   0.99565567 
   93000    291.66099   -171.67262    138099.11   -41050.708    4005.2614   -45055.969    1161.9795   0.99817092 
   93100    287.42185      80.4469    138029.82   -41052.709     3947.047   -44999.756    1163.1242   0.99867201 
   93200    294.82434    131.51375    138259.06   -40959.782    4048.7023   -45008.484    1165.1178   0.99701614 
   93300    294.82171   -42.506883    138175.31   -40928.685    4048.6663   -44977.351    1166.0266   0.99762048 
   93400    291.20324   -68.839085    138463.37   -41071.714    3998.9753   -45070.689    1168.9223     0.995545 
   93500    295.80968   -49.307762    138452.18   -41062.213    4062.2337   -45124.446    1169.0108   0.99562547 
   93600    291.15371   -199.89849    138265.94   -41139.786     3998.295   -45138.081    1168.9391   0.99696653 
   93700    290.44614   -117.20508    138130.76   -41105.502    3988.5783    -45094.08    1169.6124   0.99794219 
   93800    293.45533    121.62509    138163.28   -41014.901    4029.9023   -45044.804    1170.9917   0.99770732 
   93900    293.07068   -34.570928    138183.37   -41104.421      4024.62   -45129.041    1172.5492   0.99756224 
   94000    287.50254    49.136584    138055.76   -41204.141     3948.155   -45152.296    1174.4971   0.99848436 
   94100    291.43143   -152.27918     138372.8   -41188.808    4002.1089   -45190.917    1177.7598   0.99619663 
   94200    286.71069    119.36407    138465.68   -41185.031     3937.281   -45122.312    1180.1053   0.99552842 
   94300    290.85695    329.50368    138441.89   -41133.065    3994.2198   -45127.285    1180.7225   0.99569945 
   94400    285.14154    24.074024    138311.06   -41137.953    3915.7324   -45053.685    1180.3817   0.99664131 
   94500    283.43764   -241.49193    137880.32   -41156.205    3892.3334   -45048.538    1180.0541   0.99975481 
   94600    283.14411    144.38838     138336.7    -41219.86    3888.3025   -45108.162     1184.312   0.99645661 
   94700    290.93709   -117.96499    138343.91   -41048.475    3995.3203   -45043.795    1184.8155   0.99640467 
   94800    292.27584   -120.67669    138232.73   -41031.728    4013.7049   -45045.432    1185.0958   0.99720605 
   94900    286.19187   -18.717274    138302.29   -41043.533    3930.1562   -44973.689    1187.3723   0.99670455 
   95000    292.38128   -36.725817    138073.08   -41040.136    4015.1528   -45055.288    1187.1513   0.99835914 
   95100    294.60662    140.94248    137930.64   -40963.312    4045.7125   -45009.024    1187.7965   0.99939011 
   95200    292.73118   -79.460366    138199.78   -41055.213    4019.9578    -45075.17      1191.51   0.99744384 
   95300    296.41951   -76.694964    137935.99   -41048.073    4070.6081   -45118.681    1191.4773   0.99935137 
   95400    286.99161   -4.6974882    137819.47   -41084.147    3941.1387   -45025.285    1191.2359    1.0001962 
   95500    291.20868   -173.04477    137930.54   -41091.232      3999.05   -45090.282    1192.9809   0.99939082 
   95600     288.2183   -101.64342    138062.02    -41154.64    3957.9843   -45112.625    1194.6226    0.9984391 
   95700    294.22198   -209.05043    137728.48   -41077.951    4040.4303   -45118.382    1193.0974     1.000857 
   95800     293.6684    42.058789    137972.55   -41055.942    4032.8284    -45088.77    1197.1365   0.99908653 
   95900     295.7743   -222.99735    137948.65   -41066.237    4061.7478   -45127.985    1198.5095   0.99925965 
   96000    294.34898    185.02905     138141.4   -41034.067    4042.1744   -45076.241    1199.9252   0.99786539 
   96100    286.78298   -18.451776    138135.14   -41011.322    3938.2736   -44949.596    1201.9876   0.99791055 
   96200    292.33782   -247.16084    137868.47   -41030.978    4014.5559   -45045.534    1202.0104   0.99984078 
   96300    287.13491    65.470768    137735.48   -41052.571    3943.1065   -44995.677    1201.2611    1.0008061 
   96400    289.40574   -106.75957    137919.82   -41043.134    3974.2909   -45017.425    1202.9229   0.99946852 
   96500    295.22446   -157.58515     138065.3   -40984.089     4054.197   -45038.286    1203.8548   0.99841536 
   96600    298.68194     255.6882    138190.35   -40966.462    4101.6772   -45068.139    1205.2483   0.99751187 
   96700    298.72324    173.45213    138219.39   -40940.416    4102.2444    -45042.66    1206.2712   0.99730234 
   96800    299.37783    120.64601    138034.46   -40942.281    4111.2336   -45053.515    1205.9623   0.99863845 
   96900    292.46378   -127.64727    138036.27   -41027.734    4016.2857   -45044.019    1207.1534   0.99862534 
   97000    293.51952    31.806926     138082.9   -41007.528    4030.7837   -45038.312    1208.0952   0.99828807 
   97100    287.53483   -19.572496    138243.14   -41055.556    3948.5985   -45004.154    1210.5262   0.99713095 
   97200    294.32579   -70.513697    138012.24    -41031.71     4041.856   -45073.566    1210.1852    0.9987992 
   97300    292.65405    51.341774    138100.29   -41082.316    4018.8987   -45101.215    1210.1768   0.99816239 
   97400    291.53303   -62.480211    137933.87   -41078.676    4003.5041    -45082.18    1211.4916   0.99936671 
   97500    293.35308    191.94096    137903.68   -41107.206    4028.4981   -45135.704    1212.0905   0.99958545 
   97600    292.79226   -120.27915    138182.38   -41164.094    4020.7966    -45184.89    1215.9813   0.99756945 
   97700    289.77003   -8.8407646    138318.66   -41146.753    3979.2936   -45126.047     1217.417   0.99658659 
   97800    291.35465    60.203488    138412.32   -41115.152    4001.0546   -45116.206    1219.7769   0.99591218 
   97900     294.9006   -12.104134    138660.94   -41034.707    4049.7495   -45084.456    1222.7931    0.9941265 
   98000    298.71642   -95.508152    138538.35   -41014.153    4102.1507   -45116.304    1223.0665   0.99500619 
   98100    288.90804   -55.499963       138213   -41084.064    3967.4562   -45051.521    1221.7289   0.99734843 
   98200    293.83297    -14.00645    138409.03   -41024.877    4035.0883   -45059.965    1223.8904   0.99593584 
   98300    289.90396     90.34388    138358.77   -40970.166    3981.1328   -44951.298    1226.2384   0.99629764 
   98400     292.6482   -292.73306    137943.44   -41047.338    4018.8184   -45066.157     1224.927   0.99929737 
   98500    292.81841    56.488271     138040.7   -41005.568    4021.1557   -45026.723      1225.48   0.99859329 
   98600    292.95072    -58.27625    138121.55   -41073.101    4022.9728   -45096.074     1227.369   0.99800875 
   98700    294.47258   -120.76036     138149.7   -41023.515    4043.8718   -45067.387    1228.7359   0.99780538 
   98800    293.37312    102.51474    138379.84   -41097.299    4028.7734   -45126.073    1230.6055   0.99614594 
   98900    293.52801   -52.810913    138279.84   -41077.111    4030.9004   -45108.011    1230.3001   0.99686634 
   99000    295.67165    -155.7209    138188.63   -41023.442    4060.3381   -45083.781    1230.5137   0.99752428 
   99100     292.5431    166.00998    138140.11   -41004.742    4017.3751   -45022.117    1230.1286   0.99787465 
   99200    290.05077     48.20916    138271.19   -41014.311    3983.1489    -44997.46    1231.2519    0.9969287 
   99300    296.52504    11.170306    138105.93   -41003.758    4072.0573   -45075.815    1231.9835   0.99812166 
   99400    296.97355   -68.809629    138025.66   -40988.024    4078.2166   -45066.241    1232.5948   0.99870212 
   99500    296.40837    49.038628    137757.45   -41030.942    4070.4551   -45101.397    1232.7097    1.0006466 
   99600     292.5788   -89.319095    137959.25    -41143.78    4017.8652   -45161.646    1234.7221   0.99918288 
   99700    288.26506    114.23953    138214.21   -41104.882    3958.6264   -45063.509    1237.5153   0.99733969 
   99800    290.73969   -59.390019    138129.42   -41102.197    3992.6095   -45094.806    1237.4171   0.99795187 
   99900    290.95341    130.19245    138082.85   -41028.031    3995.5445   -45023.575    1238.3206   0.99828843 
  100000    288.33556    16.318976     138209.9   -41052.355    3959.5945    -45011.95    1242.0564   0.99737082 
  100100    290.75445    165.88008    138303.32    -41049.56    3992.8122   -45042.372    1244.9418   0.99669711 
  100200    294.90492    215.76356     138477.3   -41006.947    4049.8089   -45056.756    1247.0604   0.99544487 
  100300    291.52576  -0.31931022    138240.65   -41030.788    4003.4043   -45034.193    1246.4278    0.9971489 
  100400    294.95527    107.92836     138262.7   -41032.386    4050.5003   -45082.886    1247.3472   0.99698991 
  100500    290.70103   -7.1361469    138168.14   -41106.624    3992.0786   -45098.703    1248.3135   0.99767223 
  100600    289.19339   -42.263158       137940   -41106.289    3971.3747   -45077.663    1248.0485   0.99932229 
  100658    292.47366   -119.54922    137852.03   -41048.878    4016.4214     -45065.3    1247.9839   0.99996001 
Loop time of 122.381 on 6 procs for 100000 steps with 4608 atoms

Performance: 352.997 ns/day, 0.068 hours/ns, 817.123 timesteps/s
99.0% CPU use with 6 MPI tasks x no OpenMP threads

MPI task timing breakdown:
Section |  min time  |  avg time  |  max time  |%varavg| %total
---------------------------------------------------------------
Pair    | 102.41     | 103.49     | 105.63     |  10.8 | 84.57
Neigh   | 7.1573     | 7.2313     | 7.3945     |   2.9 |  5.91
Comm    | 6.5824     | 8.822      | 9.9505     |  39.4 |  7.21
Output  | 0.18049    | 0.18171    | 0.18738    |   0.6 |  0.15
Modify  | 1.8899     | 1.9946     | 2.0665     |   4.4 |  1.63
Other   |            | 0.6563     |            |       |  0.54

Nlocal:        768.000 ave         774 max         765 min
Histogram: 1 1 2 0 1 0 0 0 0 1
Nghost:        1570.83 ave        1584 max        1552 min
Histogram: 1 0 1 0 0 0 1 1 0 2
Neighs:        0.00000 ave           0 max           0 min
Histogram: 6 0 0 0 0 0 0 0 0 0
FullNghs:      22215.3 ave       22557 max       21901 min
Histogram: 1 0 0 1 1 1 1 0 0 1

Total # of neighbors = 133292
Ave neighs/atom = 28.926215
Neighbor list builds = 7048
Dangerous builds = 0

undump              1
unfix               2
unfix               3
unfix               4


################################################
#######         Run Simulation         #########
################################################

reset_timestep      0
log                 log.run_${NAME}
log                 log.run_liq_292K_1atm_ML
