
# Set production fixes - Nose/Hoover
#
fix                 2 all nph iso ${PRES} ${PRES} ${PCOUPL}
fix                 2 all nph iso 1 ${PRES} ${PCOUPL}
fix                 2 all nph iso 1 1 ${PCOUPL}
fix                 2 all nph iso 1 1 10000.0
fix                 3 all temp/csvr ${TEMP} ${TEMP} ${TCOUPL} 837492
fix                 3 all temp/csvr 292 ${TEMP} ${TCOUPL} 837492
fix                 3 all temp/csvr 292 292 ${TCOUPL} 837492
fix                 3 all temp/csvr 292 292 5000.0 837492

# Define Order parameter
#
compute             2 all orientorder/atom nnn NULL cutoff 3.5
thermo              200
thermo_style        custom step temp press vol etotal ke pe c_1[4]

# Run 1ns simulation
dump		    1 all custom 400 prod.${NAME}.dump id type x y z vx vy vz c_2[*]
dump		    1 all custom 400 prod.ice_292K_1atm_ML.dump id type x y z vx vy vz c_2[*]
run                 200000
Neighbor list info ...
  update every 1 steps, delay 0 steps, check yes
  max neighbors/atom: 2000, page size: 100000
  master list distance cutoff = 6.0032907
  ghost atom cutoff = 6.0032907
  binsize = 3.0016454, bins = 20 17 17
  2 neighbor lists, perpetual/occasional/extra = 1 1 0
  (1) pair sw, perpetual
      attributes: full, newton on
      pair build: full/bin/atomonly
      stencil: full/bin/3d
      bin: standard
  (2) compute orientorder/atom, occasional, copy from (1)
      attributes: full, newton on
      pair build: copy
      stencil: none
      bin: none
Per MPI rank memory allocation (min/avg/max) = 5.820 | 5.820 | 5.820 Mbytes
Step Temp Press Volume TotEng KinEng PotEng c_1[4] 
       0    289.40439   -13.976114    148568.11   -47547.105    3974.2724   -51521.378   0.14868937 
     200    295.54584   -24.370152    148574.05   -47538.037    4058.6104   -51596.648   0.14926393 
     400    288.16718    2.9196254    148571.45   -47530.321    3957.2822   -51487.603   0.14606567 
     600    293.23455   -7.0663889    148573.48   -47569.441    4026.8704   -51596.311    0.1431491 
     800    288.87092   -16.681201    148550.62   -47584.732    3966.9464   -51551.678     0.148414 
    1000    291.71062    24.853233    148527.82   -47598.688    4005.9429   -51604.631   0.14201915 
    1200    287.69888   -3.0954357    148547.09   -47623.313    3950.8513   -51574.164   0.14450346 
    1400    288.67033   -40.485072     148584.9    -47613.96    3964.1918   -51578.151   0.14482439 
    1600    290.70426    20.451525     148557.4   -47617.827     3992.123    -51609.95   0.14045986 
    1800    288.71323    39.060775    148511.69   -47623.435     3964.781   -51588.216   0.14006626 
    2000    292.36185    5.1015905    148537.51   -47577.746     4014.886   -51592.632   0.14127459 
    2200    291.94943   -36.234206     148597.3    -47545.62    4009.2223   -51554.842   0.15089341 
    2400    289.36795    21.393728    148561.14   -47563.876    3973.7719   -51537.648   0.14342357 
    2600    291.22692    54.076716    148500.74   -47608.797    3999.3004   -51608.097   0.13997918 
    2800    285.84466   -16.082322    148539.19   -47624.522     3925.388    -51549.91   0.14367692 
    3000    290.01502   -65.112411    148563.47   -47637.713    3982.6579   -51620.371   0.14679454 
    3200    289.36507    47.998305    148512.66   -47583.258    3973.7324    -51556.99   0.14707801 
    3400       292.61     31.14621     148523.9    -47622.87    4018.2937   -51641.163   0.14010624 
    3600    290.32875    2.8181012    148558.13   -47652.027    3986.9662   -51638.994   0.14128707 
    3800    289.06968   -25.317045    148534.19   -47577.955    3969.6759   -51547.631   0.14495133 
    4000    290.22397   -49.897657    148546.48    -47572.75    3985.5274   -51558.277   0.14912457 
    4200    290.32604   -1.9373202     148559.1   -47589.026    3986.9291   -51575.955   0.14320175 
    4400    293.55661    37.396194    148536.44   -47576.208    4031.2931   -51607.501    0.1481998 
    4600    291.54102   -29.123177    148537.25   -47555.335    4003.6139   -51558.949    0.1501563 
    4800    291.52215   -2.1714538    148566.28     -47545.1    4003.3547   -51548.454   0.14418356 
    5000    289.13627    15.795764    148571.55   -47523.919    3970.5904   -51494.509   0.14701294 
    5200    290.78315    12.538909    148573.01    -47527.26    3993.2063   -51520.466   0.14980173 
    5400    289.58576   -48.018661    148608.14   -47488.087     3976.763    -51464.85   0.14892701 
    5600     293.7229    8.6853513    148621.54   -47472.109    4033.5767   -51505.686   0.13971587 
    5800    296.03932    27.829632     148557.3   -47461.158    4065.3872   -51526.545    0.1431825 
    6000    292.27945    25.770971    148577.81   -47446.763    4013.7544   -51460.517   0.14780425 
    6200    294.90244   -14.911026    148669.43   -47440.187    4049.7749   -51489.962   0.14694102 
    6400    295.12385    5.5454703    148586.06   -47408.018    4052.8155   -51460.833   0.14874018 
    6600    297.86148    72.567673    148499.74   -47448.908    4090.4101   -51539.318   0.14914104 
    6800    294.02983     7.392841    148623.27   -47488.347    4037.7917   -51526.139   0.14563665 
    7000    294.16372   -65.427783    148687.01   -47492.559    4039.6303   -51532.189   0.14439326 
    7200    295.20889   -9.2319699    148558.43   -47439.734    4053.9832   -51493.717   0.14706973 
    7400    297.50236    78.601603    148512.75   -47424.995    4085.4785   -51510.474   0.14742393 
    7600     293.8776   -35.095711    148638.63   -47459.294    4035.7011   -51494.995   0.14684205 
    7800    288.59719   -61.006512    148640.09   -47485.546    3963.1875   -51448.733   0.14589113 
    8000    291.26077    77.675604    148474.54    -47452.52    3999.7653   -51452.285   0.14854843 
    8200    293.38895    18.226591    148561.79   -47489.222    4028.9908   -51518.212   0.14814256 
    8400     293.2411   -108.57352    148730.98   -47515.152    4026.9604   -51542.112   0.14267761 
    8600    290.41637    -14.14428    148603.05   -47473.438    3988.1695   -51461.608   0.15047898 
    8800    299.17263    128.57971    148470.76   -47404.188    4108.4157   -51512.604   0.14589972 
    9000    297.63764   -14.525796    148662.06   -47383.803    4087.3363   -51471.139   0.14865654 
    9200      294.835   -151.81641    148800.04   -47366.859    4048.8488   -51415.708   0.14445657 
    9400    295.01548    46.025318     148552.7   -47417.243    4051.3272    -51468.57    0.1432994 
    9600    300.15435    179.17016    148462.23   -47408.149    4121.8971   -51530.046   0.14112067 
    9800    295.48362   -140.46177    148749.93   -47424.781     4057.756   -51482.537    0.1462616 
   10000    294.26258   -77.917675    148735.17   -47420.058    4040.9879   -51461.046   0.14645997 
   10200    300.71159    151.61294    148424.36   -47412.893    4129.5496   -51542.442   0.14379232 
   10400    293.94227    78.541382    148510.56   -47399.616    4036.5892   -51436.205   0.14850487 
   10600    296.50657   -170.59214    148845.34   -47381.172    4071.8037   -51452.976   0.14506873 
   10800    295.85684   -76.420636     148687.3   -47413.184    4062.8812   -51476.065   0.14908305 
   11000    294.00071    200.72784    148338.55   -47455.677    4037.3917   -51493.069    0.1494571 
   11200    290.03824    21.767026    148555.18    -47473.07    3982.9768   -51456.047   0.14814579 
   11400    293.76886   -207.27631    148901.05   -47499.627    4034.2078   -51533.835    0.1399871 
   11600    292.81087    7.3631038    148624.76    -47471.71    4021.0521   -51492.762   0.14616576 
   11800    288.16608    199.88435     148308.3   -47545.785    3957.2672   -51503.053   0.14907385 
   12000    291.87486   -16.502865     148618.3   -47547.579    4008.1984   -51555.777   0.14578405 
   12200    288.20379   -203.10959    148884.91   -47524.074     3957.785   -51481.859   0.14614562 
   12400    293.45299    30.434661    148525.28   -47493.384    4029.8702   -51523.254   0.14939586 
   12600    293.50508    191.49607    148323.89   -47503.613    4030.5855   -51534.199   0.14935729 
   12800    291.66395   -107.07805    148708.19   -47514.501     4005.302   -51519.803   0.14419737 
   13000    295.75717    -184.9584    148848.93   -47494.287    4061.5125   -51555.799   0.14580866 
   13200    292.37643     129.7082    148408.39   -47465.942    4015.0861   -51481.028   0.14782249 
   13400    295.41963    213.58147     148362.1   -47485.843    4056.8772    -51542.72   0.13947389 
   13600    293.20397   -229.73479    148823.51    -47476.44    4026.4504   -51502.891   0.14863527 
   13800    295.72801   -121.92369    148772.61   -47469.512    4061.1121   -51530.624   0.14767568 
   14000    297.60895    209.44505    148308.83   -47491.142    4086.9422   -51578.084   0.14984287 
   14200     293.0354    125.55813    148457.34   -47517.476    4024.1355   -51541.612    0.1416945 
   14400    292.98625   -241.86738    148907.54   -47541.871    4023.4606   -51565.332   0.14430601 
   14600    291.57495   -73.523204    148657.78   -47538.125    4004.0798   -51542.205   0.14596267 
   14800    293.94562    255.47867    148200.29   -47520.093    4036.6353   -51556.728   0.14657287 
   15000    292.38091    3.3845619    148508.99   -47573.547    4015.1477   -51588.695   0.14704727 
   15200    290.04672   -286.77137    148891.13   -47626.291    3983.0932   -51609.384    0.1405849 
   15400    292.46706    40.463281    148479.33   -47643.313    4016.3308   -51659.644    0.1402672 
   15600    284.01477    271.78809    148124.41   -47678.595    3900.2589   -51578.854   0.14258332 
   15800    291.46317   -99.389794     148623.3   -47631.296    4002.5448    -51633.84   0.14449138 
   16000    292.25476   -296.35786    148908.55   -47615.233    4013.4153   -51628.649   0.14579648 
   16200     294.0053    172.85808    148324.73   -47563.251    4037.4549   -51600.706   0.14403349 
   16400    291.99723    278.51461    148197.56   -47560.621    4009.8788   -51570.499   0.14939605 
   16600    289.23476   -242.51622    148877.05   -47577.599     3971.943   -51549.542   0.14456633 
   16800    291.64143   -205.31372    148896.24   -47530.973    4004.9927   -51535.966   0.14526076 
   17000    296.32235    272.74718    148243.24   -47556.016    4069.2738    -51625.29   0.14023178 
   17200    290.72912     171.8424    148358.07   -47539.484    3992.4644   -51531.948   0.14309268 
   17400    291.46433   -328.00392    148976.94   -47584.531    4002.5607   -51587.092      0.14282 
   17600    286.87173   -90.591417       148683    -47622.27    3939.4924   -51561.763   0.14156802 
   17800    287.73504     332.5686    148118.79   -47640.496    3951.3479   -51591.844   0.14180642 
   18000    289.16873    62.155393    148510.93   -47676.158    3971.0361   -51647.194   0.13894881 
   18200    282.55099   -298.43548    148978.28   -47699.079    3880.1575   -51579.237   0.14140239 
   18400    284.42014     57.91319    148520.24   -47721.013    3905.8257   -51626.839   0.14236937 
   18600    291.56219    320.20024     148183.4   -47678.313    4003.9046   -51682.218   0.13972584 
   18800    290.07321    -81.61287    148670.75   -47613.501     3983.457   -51596.958   0.14278309 
   19000    287.75756   -264.69939    148894.45   -47641.545    3951.6571   -51593.202   0.14247142 
   19200    292.44289    120.43643    148445.22   -47616.035    4015.9988   -51632.034   0.13854753 
   19400    288.11042    191.48861    148338.67   -47605.837    3956.5028    -51562.34   0.13869091 
   19600    290.94209   -93.080181    148718.65   -47635.398     3995.389   -51630.787   0.13805934 
   19800    286.75701   -122.58804     148725.3   -47630.778    3937.9169   -51568.695   0.14152463 
   20000    289.90364     125.9148    148396.52   -47621.282    3981.1283    -51602.41   0.14171949 
   20200    289.97258    66.966601     148475.3   -47648.421    3982.0751   -51630.496   0.13883776 
   20400    291.14853   -151.70471    148742.21   -47626.693    3998.2239   -51624.917   0.14861547 
   20600    289.38613   -3.2171249    148611.59   -47622.241    3974.0217   -51596.262   0.14047078 
   20800    291.79693     150.4535    148390.07   -47624.895    4007.1282   -51632.023   0.13976743 
   21000    292.38016   -13.994867    148548.66   -47619.993    4015.1374   -51635.131   0.14221334 
   21200    294.17236   -81.162995    148703.59   -47609.751     4039.749     -51649.5   0.14143457 
   21400    289.10017    3.9506893    148516.63    -47605.03    3970.0946   -51575.124   0.14209232 
   21600     291.0247    153.44179    148377.96   -47560.401    3996.5235   -51556.925   0.13783579 
   21800    292.31733   -12.764762    148612.94   -47510.521    4014.2746   -51524.795   0.14182764 
   22000    291.68237   -116.51654    148722.35   -47516.633    4005.5549   -51522.187   0.14624936 
   22200    294.58186    59.670835    148493.54   -47474.868    4045.3725   -51520.241   0.14674459 
   22400    293.58235    105.71489    148464.63   -47452.165    4031.6465   -51483.811   0.14444109 
   22600    290.77547   -72.736035    148750.59   -47458.586    3993.1009   -51451.687   0.14551066 
   22800    292.20208   -44.530011    148743.43   -47496.226    4012.6919   -51508.918   0.14141187 
   23000     293.0419     106.7844    148466.64   -47514.687    4024.2248   -51538.912   0.14124983 
   23200    293.64191     91.28419    148525.87   -47508.633    4032.4645   -51541.098   0.13970487 
   23400    295.41102   -123.93395    148771.81   -47517.689     4056.759   -51574.448    0.1399309 
   23600    290.94769   -34.734935    148649.08   -47534.326    3995.4659   -51529.792   0.14290935 
   23800    294.83682    128.34445    148452.48   -47473.725    4048.8738   -51522.599   0.14064121 
   24000    295.19649   -3.8256769     148648.8   -47512.424    4053.8129   -51566.237   0.13902476 
   24200    292.51899   -135.07582    148808.48   -47494.684    4017.0439   -51511.728   0.14544801 
   24400    289.11399    15.241357    148582.45   -47499.152    3970.2844   -51469.436   0.14823502 
   24600    289.78191    118.48701    148477.67   -47498.046    3979.4566   -51477.502   0.14594817 
   24800    298.80123   -72.148168    148750.81   -47421.621    4103.3154   -51524.936   0.14246219 
   25000    293.23685   -171.22488    148819.77    -47419.54     4026.902   -51446.442   0.14946069 
   25200    299.96377    140.34206    148479.25   -47444.271      4119.28   -51563.551    0.1395525 
   25400    296.34004    161.28039    148449.39   -47508.263    4069.5169    -51577.78   0.13757921 
   25600    297.11752   -121.55788    148808.57   -47530.879    4080.1937   -51611.073   0.14172878 
   25800    288.96122   -108.91287     148753.5   -47507.451    3968.1865   -51475.637   0.14485999 
   26000    296.98137    166.87074    148348.89   -47486.736     4078.324    -51565.06    0.1460885 
   26200    289.19858    67.633311    148481.27   -47533.591     3971.446   -51505.037   0.14598943 
   26400    292.33671   -226.79005    148908.88   -47557.325    4014.5408   -51571.866   0.14521262 
   26600    292.67617   -67.882036    148692.51   -47565.924    4019.2023   -51585.126   0.13981016 
   26800     289.5915    279.19613    148226.68   -47570.008    3976.8419   -51546.849   0.14282028 
   27000    287.09276   -22.283181    148600.51    -47573.09    3942.5277   -51515.618   0.14748914 
   27200     289.5475   -355.23758    149087.35   -47565.322    3976.2377    -51541.56   0.14388274 
   27400      295.003    78.605257    148485.03   -47530.759    4051.1558   -51581.915   0.13839665 
   27600     291.3403    394.69329     148054.6   -47534.136    4000.8574   -51534.994   0.14435535 
   27800    295.71186   -197.90809    148876.73   -47532.699    4060.8903   -51593.589    0.1424076 
   28000    292.26277   -469.47831     149161.5   -47518.726    4013.5254   -51532.251   0.15032176 
   28200    288.19275    290.50932    148184.65   -47536.741    3957.6334   -51494.375   0.14760795 
   28400    290.56279    345.40088     148071.4   -47533.207    3990.1803   -51523.388    0.1515933 
   28600    294.75368   -334.85338    149072.26   -47554.426    4047.7319   -51602.158   0.13979768 
   28800    289.74818    -304.4938    149020.43   -47564.613    3978.9935   -51543.606    0.1420305 
   29000     289.7457    398.42289    148090.31   -47601.455    3978.9594   -51580.415   0.14187075 
   29200    287.54368    210.23489    148290.17   -47639.019    3948.7201   -51587.739   0.14220136 
   29400    286.39197   -348.12749    149033.63   -47638.216     3932.904    -51571.12   0.14136214 
   29600    291.92931   -130.18125    148754.44   -47600.125    4008.9461   -51609.071   0.13575852 
   29800     295.7732    313.77544    148204.58   -47521.214    4061.7326   -51582.946   0.13627356 
   30000    290.55806    25.869153    148522.15   -47512.457    3990.1152   -51502.572   0.14979612 
   30200    290.97492   -283.65018    148944.57   -47520.639    3995.8398   -51516.478   0.14672112 
   30400    291.79247    -42.93295    148580.89   -47573.406    4007.0669   -51580.473   0.14150158 
   30600    290.59182    275.80001    148217.56   -47519.385    3990.5789   -51509.964   0.14113729 
   30800    291.14629    8.8940708    148627.36    -47487.27    3998.1932   -51485.463   0.14230093 
   31000    291.17047   -238.08095    148931.34   -47472.734    3998.5252   -51471.259   0.14656228 
   31200    294.85058    76.579808    148520.93   -47476.599    4049.0626   -51525.662   0.14180959 
   31400    292.16097    223.19526    148325.82   -47474.078    4012.1274   -51486.205   0.14604583 
   31600    290.94318   -88.727595    148711.71   -47537.588     3995.404   -51532.992   0.14431889 
   31800    292.15192   -160.84678    148820.28   -47508.047    4012.0031    -51520.05   0.13942464 
   32000    296.13933    129.98601    148469.19   -47478.476    4066.7606   -51545.236   0.14132817 
   32200    293.37315    139.83808    148423.69   -47513.616    4028.7737   -51542.389   0.14531424 
   32400     294.7845   -127.31649    148754.51   -47508.563    4048.1553   -51556.719   0.14435059 
   32600    292.30688   -123.69749     148741.6   -47493.999    4014.1311   -51508.131   0.14315202 
   32800    294.71061    115.85675    148432.12   -47490.269    4047.1405   -51537.409     0.143901 
   33000    293.46505    79.868991    148492.02   -47480.668    4030.0357   -51510.704   0.14816675 
   33200    293.52567   -168.25609     148780.9   -47474.217    4030.8682   -51505.085   0.14684257 
   33400    291.04469   -75.319895    148677.84   -47433.972     3996.798    -51430.77   0.15248583 
   33600    298.27841    143.65117    148414.66   -47367.469    4096.1357   -51463.604   0.14796362 
   33800    295.70327    4.1941126    148578.37   -47403.648    4060.7723   -51464.421    0.1445149 
   34000    294.66032   -120.41475    148807.55   -47423.318      4046.45   -51469.768    0.1400114 
   34200    290.61202   -10.842733    148588.02    -47454.06    3990.8562   -51444.916   0.14717671 
   34400    292.92726    157.27183    148372.65   -47520.621    4022.6505   -51543.272   0.14728318 
   34600    296.60875   -62.352231    148647.63   -47494.975     4073.207   -51568.182   0.14711415 
   34800    288.76622   -198.17843    148807.57   -47533.584    3965.5087   -51499.093    0.1470195 
   35000    292.26056    141.17414    148460.15   -47558.652     4013.495   -51572.147   0.14069177 
   35200    292.31939    182.46807    148409.57   -47547.169    4014.3029   -51561.472   0.14032882 
   35400    294.90346   -135.81877    148795.22   -47509.476    4049.7889   -51559.265   0.14443838 
   35600    296.39693   -141.87512    148742.04   -47502.881    4070.2981   -51573.179   0.14599246 
   35800    291.36005    203.27535    148297.25   -47502.727    4001.1286   -51503.856   0.14432103 
   36000    291.87363    67.170706    148462.35   -47504.782    4008.1814   -51512.964   0.14574446 
   36200    292.01992   -243.66275    148893.11   -47518.933    4010.1903   -51529.123   0.14035652 
   36400    291.66773   -19.421496    148592.15   -47545.547    4005.3539   -51550.901   0.14226568 
   36600    291.55042    267.87473    148180.78   -47520.304    4003.7429   -51524.047   0.15318104 
   36800    287.19187   -47.194911    148592.24   -47565.388    3943.8888   -51509.277   0.15027929 
   37000    288.06796   -293.05601    148945.38   -47553.557    3955.9198   -51509.477   0.14524675 
   37200    296.27778    91.318046    148419.37   -47515.187    4068.6618   -51583.849   0.14205915 
   37400    296.22598    365.19563    148122.33   -47506.219    4067.9505   -51574.169   0.14526784 
   37600    291.77107   -193.32631    148771.14   -47534.098    4006.7731   -51540.871   0.14801591 
   37800    294.95606   -300.78357       148963   -47497.675    4050.5111   -51548.186   0.14647717 
   38000     295.7889    233.58796    148269.97   -47552.164    4061.9482   -51614.112   0.14371641 
   38200    289.78813    282.41039     148224.4   -47545.697    3979.5421    -51525.24   0.14147823 
   38400    291.95617   -267.41801    149001.04   -47510.194     4009.315   -51519.508   0.14101555 
   38600     292.7055   -267.44606    148930.85   -47507.368    4019.6052   -51526.974   0.14975896 
   38800    289.02957    391.84043    148098.19   -47556.111    3969.1251   -51525.236   0.14974317 
   39000     290.4416    194.05611    148305.41   -47584.284    3988.5159     -51572.8   0.14420974 
   39200    289.87651   -434.70007       149130   -47601.054    3980.7558   -51581.809   0.14052111 
   39400    291.67005   -131.38127    148706.83   -47592.215    4005.3858   -51597.601   0.14101177 
   39600    286.01699    493.90888    147894.88   -47660.892    3927.7546   -51588.646    0.1420197 
   39800    285.15179    60.024293    148441.29     -47653.7    3915.8732   -51569.573   0.13996293 
   40000    289.52484   -487.30197     149146.3   -47663.196    3975.9265   -51639.122   0.14276345 
   40200     287.5471    48.053229    148465.03   -47639.569    3948.7669   -51588.336   0.14201458 
   40400    290.25888    462.52461    147944.37   -47633.634    3986.0068   -51619.641   0.14003001 
   40600    286.45327    -125.9762    148659.65   -47664.637    3933.7459   -51598.382   0.14362819 
   40800    285.27168   -353.45183    148967.18   -47680.934    3917.5196   -51598.454   0.14220603 
   41000     288.3878     153.3828    148308.47   -47637.213     3960.312   -51597.525   0.14444176 
   41200     283.9245    240.32014    148180.82   -47670.712    3899.0193   -51569.731   0.14251637 
   41400    285.43023   -152.48181    148739.64   -47635.588    3919.6968   -51555.285   0.14022161 
   41600    291.55669   -166.50004    148757.81   -47630.701     4003.829    -51634.53   0.13770699 
   41800    288.24796    187.70748    148298.61   -47628.828    3958.3915    -51587.22    0.1400294 
   42000    287.79928    124.44363    148348.47   -47602.341    3952.2301   -51554.571   0.14439329 
   42200    286.32382   -185.47745    148729.63   -47628.555    3931.9682   -51560.523    0.1461052 
   42400    286.19977   -93.180959    148626.11   -47679.589    3930.2646   -51609.853   0.14158875 
   42600    287.24853    154.96505    148294.36   -47706.609    3944.6668   -51651.276   0.14041377 
   42800    289.02115    87.409439    148434.26   -47707.492    3969.0094   -51676.501   0.13715478 
   43000    287.12434   -115.25021    148700.62   -47660.609    3942.9614   -51603.571   0.14174886 
   43200    293.91471   -5.0428375    148536.57   -47665.092    4036.2108   -51701.303   0.14204516 
   43400    290.39714     169.3472    148334.94   -47655.445    3987.9055   -51643.351   0.14136826 
   43600    291.58154   -16.507725    148543.68   -47652.054    4004.1703   -51656.225   0.13990909 
   43800    288.36069   -147.12508    148694.77   -47624.336    3959.9397   -51584.275   0.14248764 
   44000    287.14791    35.249368    148507.44   -47643.331    3943.2851   -51586.616    0.1410702 
   44200    290.13026     112.5976     148409.4   -47687.754    3984.2404   -51671.995   0.14040573 
   44400    287.14918   -25.270335    148592.22   -47661.598    3943.3024   -51604.901   0.14175547 
   44600    290.06633   -78.419234     148646.3   -47598.733    3983.3626   -51582.095   0.14549091 
   44800    286.49585    24.566329    148444.72   -47562.801    3934.3306   -51497.132   0.14607882 
   45000    287.34305    79.547834    148415.92    -47599.46    3945.9649   -51545.425   0.14280819 
   45200    289.89445   -48.137441    148621.88   -47619.816    3981.0022   -51600.818   0.14075279 
   45400    283.80581   -71.611493    148591.51   -47668.481    3897.3893    -51565.87   0.14583695 
   45600    283.06684    76.167312    148390.98   -47655.726    3887.2414   -51542.968   0.14445825 
   45800    291.49828    86.873929    148442.27   -47630.611     4003.027   -51633.638   0.14177723 
   46000    289.56036   -85.479648     148642.2   -47628.181    3976.4143   -51604.595   0.14146396 
   46200    290.84772    4.3504918    148559.96   -47661.255    3994.0931   -51655.348   0.13443554 
   46400    287.92704    117.55626    148397.62   -47643.717    3953.9845   -51597.702   0.14018405 
   46600    288.04516   -35.790412    148537.99   -47642.472    3955.6067   -51598.078    0.1456451 
   46800    288.86389   -132.00259    148692.53   -47606.269    3966.8498   -51573.119   0.14400161 
   47000    286.26693   -16.322538    148542.65   -47585.249    3931.1869   -51516.436   0.14421772 
   47200    290.01979     76.75727    148442.44   -47555.233    3982.7234   -51537.956   0.14280517 
   47400    292.88069   -43.952532    148640.99   -47485.471     4022.011   -51507.482   0.14727498 
   47600    295.26196   -117.68067    148733.02   -47459.555    4054.7121   -51514.267   0.14733202 
   47800    290.91237    48.174612    148506.41   -47427.861    3994.9809   -51422.842    0.1494092 
   48000    295.75387    94.057914    148455.34   -47433.335    4061.4672   -51494.802   0.14534293 
   48200    297.50575   -84.012407    148742.84   -47434.407     4085.525   -51519.932   0.14119432 
   48400    299.88458   -124.03367    148741.57   -47414.483    4118.1925   -51532.675   0.14570326 
   48600    296.89756     193.9196    148360.67   -47479.084    4077.1731   -51556.257   0.14310549 
   48800      302.831    128.75057    148451.77    -47422.45    4158.6545   -51581.105   0.14743513 
   49000    292.32943   -299.94526    148918.43   -47398.392    4014.4408   -51412.832   0.15178996 
   49200    297.57807   -61.063128    148696.16   -47433.925    4086.5182   -51520.444   0.14482539 
   49400    294.03636    292.04265    148225.79   -47443.411    4037.8813   -51481.292   0.14342284 
   49600    300.67787    39.235658     148589.5   -47463.853    4129.0865   -51592.939   0.14342166 
   49800    295.85556   -314.43139    149018.95   -47441.727    4062.8636    -51504.59   0.14684869 
   50000    295.75718    24.634059    148562.32   -47443.568    4061.5127   -51505.081   0.14537472 
   50200    291.95552    286.64484    148200.66    -47480.93     4009.306   -51490.236   0.14503273 
   50400    294.03727   -75.239475    148719.47   -47486.417    4037.8939   -51524.311   0.14556154 
   50600    289.68674   -307.13673    149002.38    -47505.76    3978.1497   -51483.909   0.14422559 
   50800    293.78109    130.50021    148431.69   -47517.589    4034.3758   -51551.965   0.13831048 
   51000    294.78167    288.43853    148270.51   -47453.757    4048.1164   -51501.873   0.14617108 
   51200    294.50565   -227.60965    148904.18   -47485.143    4044.3259   -51529.469    0.1453212 
   51400     294.4748    -234.5135    148920.74   -47447.622    4043.9022   -51491.525   0.14616263 
   51600    294.19486    196.12734    148305.49   -47448.946    4040.0579   -51489.004   0.14600824 
   51800    300.79734     188.4942    148420.56   -47447.024    4130.7271   -51577.752   0.13620952 
   52000    294.60991   -226.99975    149015.83   -47407.095    4045.7576   -51452.853   0.14188915 
   52200    296.58774   -152.31716    148844.25   -47379.677    4072.9184   -51452.595   0.14601734 
   52400    294.20681    248.70899     148291.6   -47359.698     4040.222    -51399.92   0.14893617 
   52600    301.50897    80.105304    148521.74   -47399.928    4140.4997   -51540.427   0.14146066 
   52800    297.94831   -271.83968    148982.08   -47418.402    4091.6026   -51510.005   0.14280674 
   53000    295.06825   -12.312681    148677.49   -47422.881    4052.0519   -51474.933   0.14160471 
   53200    296.71054    262.89764    148296.12   -47431.682    4074.6048   -51506.287   0.14220765 
   53400    295.71869    2.5475407    148638.56   -47462.404    4060.9841   -51523.388   0.14197661 
   53600    299.17868   -229.78256    148913.54   -47487.602    4108.4987   -51596.101   0.14048436 
   53800    292.60768    55.492503    148537.17   -47463.563    4018.2619   -51481.825   0.14091855 
   54000    295.89128    202.98669    148370.89    -47454.23    4063.3542   -51517.584   0.13879105 
   54200    291.00833   -103.88848    148747.66   -47462.526    3996.2986   -51458.824   0.14451462 
   54400    296.21855   -128.70891    148819.56   -47489.852    4067.8485   -51557.701   0.14098528 
   54600    295.45702    141.40876    148453.21   -47484.011    4057.3906   -51541.402   0.14231466 
   54800    298.06933    128.00781    148463.81   -47428.299    4093.2645   -51521.563   0.14184391 
   55000    292.65944   -167.05849    148839.15   -47430.326    4018.9727   -51449.299   0.14364586 
   55200      296.157   -98.423017    148783.61   -47460.376    4067.0032   -51527.379   0.14292247 
   55400    292.52679    155.41044    148424.66   -47484.855     4017.151   -51502.006   0.14207679 
   55600    289.51244    69.213967    148521.41    -47522.01    3975.7562   -51497.766   0.14243842 
   55800    298.31773   -147.06182    148800.22    -47494.36    4096.6756   -51591.035   0.14100038 
   56000    295.67351   -28.943927    148644.77   -47479.165    4060.3636   -51539.529   0.14252892 
   56200    291.29472    136.26869    148425.72   -47513.145    4000.2315   -51513.377   0.14488833 
   56400    290.20499  -0.78801284    148613.95   -47516.508    3985.2667   -51501.775   0.14343107 
   56600    296.36749   -167.49542    148767.07   -47520.311    4069.8937   -51590.205   0.14198069 
   56800    293.02637    0.4615806    148553.45   -47469.989    4024.0115   -51494.001   0.14629604 
   57000     295.2841    101.74854    148447.33   -47476.893    4055.0161    -51531.91   0.14560236 
   57200    294.17828   -21.845564    148640.01   -47506.859    4039.8303   -51546.689   0.14045058 
   57400    289.88844   -108.87717    148691.39   -47525.208    3980.9196   -51506.128   0.14540206 
   57600    292.12199    62.661531    148500.56   -47514.699    4011.5921   -51526.291   0.14236037 
   57800    293.22901    46.487775    148493.27   -47527.738    4026.7944   -51554.532   0.14607392 
   58000    291.63606   -48.638018    148653.72   -47540.878     4004.919   -51545.797   0.14307733 
   58200    283.17973   -107.04097    148631.49   -47580.065    3888.7916   -51468.856   0.14863144 
   58400    289.15335    90.261535    148468.11    -47572.25     3970.825   -51543.075   0.14409764 
   58600    293.04852    18.065357    148507.43    -47551.86    4024.3157   -51576.176   0.14423615 
   58800    287.21572   -97.789461    148632.13   -47583.538    3944.2163   -51527.754   0.14575358 
   59000    290.46676  -0.52930539    148541.77    -47607.17    3988.8615   -51596.032   0.14332782 
   59200    285.15547    73.675218    148433.96   -47606.095    3915.9237   -51522.019   0.14326769 
   59400    295.87714    15.972732    148557.41   -47549.156      4063.16   -51612.316   0.14275799 
   59600    288.14626   -113.88968    148696.75   -47544.304     3956.995   -51501.299   0.14787901 
   59800    291.21638    46.827589    148533.13   -47529.064    3999.1557   -51528.219   0.14793529 
   60000    292.71402     121.7661    148414.47   -47516.641    4019.7222   -51536.363   0.15001994 
   60200    296.53747    7.7399255    148638.81   -47490.142    4072.2281    -51562.37   0.14211387 
   60400    292.66598   -160.79278    148738.77   -47457.617    4019.0624   -51476.679   0.14932572 
   60600    295.84343    68.530695    148503.35   -47497.934    4062.6971   -51560.631   0.14273101 
   60800    297.17895    122.24372    148465.43   -47437.218    4081.0372   -51518.255   0.14520125 
   61000    297.06327   -138.93888    148727.84   -47478.152    4079.4487   -51557.601   0.14804496 
   61200    291.28101    -21.40548    148661.07   -47480.637    4000.0432    -51480.68   0.14419287 
   61400    294.66174    135.93039    148399.48   -47478.806    4046.4694   -51525.275   0.14314643 
   61600    297.91116    75.327129    148524.78   -47470.912    4091.0923   -51562.005   0.14380125 
   61800    291.11984   -165.93269    148779.52   -47469.694    3997.8299   -51467.524   0.14888555 
   62000    291.02905   -17.507103     148573.1   -47493.966    3996.5831   -51490.549    0.1523491 
   62200    291.87945    163.79601    148334.54   -47505.427    4008.2614   -51513.689   0.14917043 
   62400    297.01674   -24.160254    148594.92   -47465.952    4078.8097   -51544.762   0.14274538 
   62600    292.20425   -174.48946    148780.93   -47485.498    4012.7217    -51498.22   0.14996077 
   62800    291.41936    93.720137    148471.53   -47462.095    4001.9431   -51464.038   0.14902372 
   63000    292.95217      179.798    148369.52   -47429.892    4022.9926   -51452.885   0.15038932 
   63200    298.89409   -73.326552    148723.45   -47435.322    4104.5906   -51539.912   0.14392627 
   63400    300.33363   -137.75868    148778.85   -47391.103    4124.3591   -51515.463   0.14562882 
   63600    293.53871    73.529012    148410.89   -47371.222    4031.0473   -51402.269   0.15230739 
   63800    296.12315    115.85475    148407.69    -47399.96    4066.5383   -51466.498   0.14945878 
   64000    292.66408   -189.53894    148767.77   -47392.965    4019.0363   -51412.001   0.15544018 
   64200    296.66637   -87.069385     148701.4   -47394.384    4073.9981   -51468.383   0.15150474 
   64400     296.3576    193.38248    148343.89   -47380.194     4069.758   -51449.952   0.14820845 
   64600    297.90281    73.710491    148461.87    -47437.42    4090.9777   -51528.398   0.14854563 
   64800    290.97478   -125.13544    148767.67   -47447.376    3995.8379   -51443.214   0.14859598 
   65000    294.81297   -17.832285    148638.56    -47436.85    4048.5461   -51485.396   0.14395098 
   65200    298.54058    153.07338    148401.32   -47463.586     4099.736   -51563.322   0.14530046 
   65400    295.29444    34.590145    148574.77    -47489.98    4055.1581   -51545.138   0.14473856 
   65600    292.10995   -127.92149    148759.78   -47513.963    4011.4267    -51525.39   0.14359091 
   65800    294.09062    61.422124    148575.72   -47488.516    4038.6264   -51527.142   0.14270691 
   66000    291.86259    97.264483    148477.24   -47489.014    4008.0298   -51497.044   0.14829669 
   66200      294.866   -28.111373    148690.19   -47514.785    4049.2744    -51564.06   0.14329532 
   66400    296.15595   -55.817122    148734.68   -47510.849    4066.9889   -51577.838   0.14359693 
   66600    296.59311    95.683202    148506.77   -47524.447    4072.9921   -51597.439    0.1390197 
   66800    288.83744    95.052879    148481.46   -47506.172    3966.4867   -51472.658   0.14779144 
   67000    293.33518   -97.427475    148709.44   -47536.961    4028.2524   -51565.213   0.14196601 
   67200    292.74022   -98.712496    148666.79   -47557.272     4020.082   -51577.354   0.14300937 
   67400    291.02791    161.85635    148391.53   -47590.988    3996.5675   -51587.556   0.13964057 
   67600    288.33949    64.460633    148467.13    -47546.65    3959.6486   -51506.298    0.1446505 
   67800    293.44822   -129.58844    148783.06   -47492.966    4029.8047   -51522.771   0.14597148 
   68000    297.70451   -42.423464    148662.19    -47488.66    4088.2545   -51576.914   0.14215125 
   68200     294.1352    186.79873    148354.32   -47561.806    4039.2387   -51601.044   0.14132062 
   68400    295.68976    66.680961     148536.5   -47505.165    4060.5868   -51565.752   0.14511214 
   68600    292.75081   -199.35808    148846.69   -47490.137    4020.2274   -51510.364   0.14462207 
   68800    291.16304   -6.5125784    148593.04   -47456.492    3998.4232   -51454.915   0.14703708 
   69000     295.8348    196.38583     148346.7   -47503.185    4062.5786   -51565.764   0.14395904 
   69200    296.58115   -18.759839    148651.89   -47509.355    4072.8278   -51582.183   0.13829906 
   69400    286.70964   -206.33838    148814.15   -47547.355    3937.2665   -51484.621   0.14360102 
   69600    290.34679    107.10811    148432.47   -47560.317     3987.214   -51547.531   0.14296846 
   69800    290.78671    189.26499    148303.72   -47527.134    3993.2553    -51520.39   0.14917294 
   70000    293.02162   -138.67842    148767.15   -47487.742    4023.9463   -51511.688   0.14713215 
   70200    291.30663   -187.24239    148846.07    -47469.39    4000.3951   -51469.785   0.14526643 
   70400    294.63257    211.06594     148303.6    -47483.83    4046.0688   -51529.899   0.14498523 
   70600    295.83275    173.71177    148264.68   -47457.511    4062.5504   -51520.061   0.15353192 
   70800    293.29639   -206.88192    148820.42    -47481.13    4027.7197    -51508.85   0.15078191 
   71000    293.48907   -185.53523    148778.59   -47525.964    4030.3656   -51556.329   0.14519771 
   71200    295.67817    254.97608    148220.82   -47534.575    4060.4277   -51595.003    0.1465891 
   71400    296.95887    107.31793     148371.4   -47502.492    4078.0149   -51580.507   0.14920215 
   71600    292.00289   -271.65394    148892.34   -47478.569    4009.9565   -51488.526   0.15185923 
   71800    294.31146   -77.369209    148671.94   -47498.586    4041.6592   -51540.245   0.14833491 
   72000     290.7381    262.28385    148227.16   -47523.638    3992.5877   -51516.225   0.15276038 
   72200    286.72305   -13.993007    148520.51   -47559.125    3937.4507   -51496.576   0.15165878 
   72400     296.0365   -258.95161    148850.41   -47540.838    4065.3485   -51606.187   0.14500454 
   72600    294.29803    59.066165    148478.61   -47506.283    4041.4748   -51547.758   0.14610372 
   72800    288.88183    232.53826     148219.7   -47582.543    3967.0963   -51549.639   0.14964405 
   73000    288.15748   -55.420924    148643.22   -47580.715     3957.149   -51537.864   0.14623629 
   73200    286.66016   -253.34158    148851.65   -47593.116     3936.587   -51529.703   0.14962287 
   73400    292.36695     157.0998    148362.81   -47588.677     4014.956   -51603.633   0.14348243 
   73600     293.5484     272.6101    148241.19   -47571.665    4031.1803   -51602.845      0.14408 
   73800    288.72936   -174.47228    148763.11   -47566.332    3965.0025   -51531.334   0.14694596 
   74000    289.55078   -203.03196    148770.46   -47612.576    3976.2827   -51588.859   0.14586699 
   74200    288.25298    269.53099    148233.47   -47608.532    3958.4605   -51566.993   0.14645467 
   74400    287.52323    168.95621    148379.19   -47571.257    3948.4391   -51519.697   0.14626599 
   74600    289.76213   -280.22876    148894.64   -47594.912     3979.185   -51574.097   0.14506685 
   74800    285.46504   -134.81791    148650.78   -47604.159    3920.1749   -51524.334   0.15168747 
   75000    289.58622    273.65254    148180.64   -47567.568    3976.7694   -51544.338     0.150044 
   75200    289.73716    35.076985    148497.39   -47555.551    3978.8422   -51534.393    0.1474297 
   75400    291.95938   -263.16924    148917.53   -47542.144    4009.3591   -51551.503   0.15158283 
   75600    292.85807    18.785001    148575.48   -47521.088    4021.7003   -51542.789   0.14759997 
   75800    292.55794    268.07371    148253.55   -47498.644    4017.5788   -51516.223   0.14657701 
   76000    295.86252   -34.554631    148623.84   -47485.539    4062.9592   -51548.498    0.1457815 
   76200    291.60377   -274.79323    148867.48   -47510.274    4004.4756    -51514.75   0.15426558 
   76400    292.21137    102.89935    148449.14   -47480.059    4012.8194   -51492.878    0.1531598 
   76600    296.57728    201.39435    148294.17   -47467.542    4072.7748   -51540.317   0.14887397 
   76800    291.91233   -152.25525    148711.22   -47466.942     4008.713   -51475.655   0.15231446 
   77000    289.66837   -197.04006    148750.82   -47468.466    3977.8975   -51446.363   0.15765176 
   77200    296.83569    170.62187    148336.85   -47516.431    4076.3234   -51592.754   0.14598357 
   77400    291.97781    126.53631     148379.2   -47505.261    4009.6121   -51514.873   0.14957157 
   77600    290.50065   -145.28734    148725.41   -47521.099    3989.3268   -51510.426   0.15263201 
   77800    293.89603   -69.476477    148644.62    -47532.75    4035.9542   -51568.704   0.14915976 
   78000    289.56771    90.425261    148364.17   -47533.665    3976.5152    -51510.18   0.15150664 
   78200    290.95252    41.093375    148499.73    -47527.67    3995.5323   -51523.203   0.14574019 
   78400    292.17655   -99.342479    148727.84   -47547.863    4012.3414   -51560.204   0.14930906 
   78600    292.81278    18.573848    148596.84   -47566.853    4021.0784   -51587.931   0.14872844 
   78800    292.52942    86.241943    148442.47   -47552.871    4017.1871   -51570.058   0.14659629 
   79000    292.21635    11.509888    148585.77   -47536.295    4012.8879   -51549.183    0.1498224 
   79200    292.88038     -51.2493    148699.14   -47546.273    4022.0068   -51568.279   0.14561284 
   79400    289.74872    7.7650081    148554.08   -47499.377     3979.001   -51478.378   0.15233871 
   79600    293.89122    71.106783    148472.03   -47490.425    4035.8881   -51526.313   0.14788167 
   79800    295.70451    22.792716    148613.22   -47517.104    4060.7893   -51577.894    0.1458905 
   80000    293.84304   -57.717088    148626.41   -47487.929    4035.2266   -51523.155   0.15887967 
   80200    297.22296    57.052325     148467.8     -47453.4    4081.6416   -51535.041   0.15429295 
   80400    294.64216    24.633289    148532.22   -47422.575    4046.2005   -51468.776   0.15158792 
   80600    292.24927   -105.87668    148700.43   -47442.125      4013.34   -51455.465   0.15277071 
   80800    295.24243   -27.392378    148638.38   -47385.286    4054.4438    -51439.73   0.15359765 
   81000    294.54568    18.993018    148508.19   -47439.208    4044.8756   -51484.084   0.15433697 
   81200    291.36993    46.853698    148561.17   -47417.925    4001.2643    -51419.19   0.15030925 
   81400    301.14547   -36.631391     148668.5    -47395.74    4135.5079   -51531.248   0.15484141 
   81600     292.7669   -35.726733    148596.37   -47416.734    4020.4483   -51437.183   0.15873927 
   81800    299.59485    27.843795    148519.32   -47421.721    4114.2138   -51535.935   0.15431799 
   82000    293.77825     8.634858    148565.56   -47386.816    4034.3369   -51421.153   0.15788594 
   82200    295.21223   -30.866736    148617.94   -47431.763    4054.0291   -51485.792   0.15833872 
   82400     295.6943   -20.074753    148564.15   -47434.073    4060.6491   -51494.722   0.15957093 
   82600     292.2147    61.432183     148519.4   -47477.885    4012.8652   -51490.751    0.1501409 
   82800    291.11562   -13.990109    148606.56   -47517.985     3997.772   -51515.757   0.15132344 
   83000     294.7408   -81.786508    148641.47   -47501.924    4047.5551   -51549.479   0.15281193 
   83200    290.31913    10.310442     148539.3   -47522.769    3986.8341   -51509.604    0.1532066 
   83400    290.72392    67.980197    148493.64   -47542.975    3992.3929   -51535.367    0.1526266 
   83600    296.09338   -32.275934    148593.95   -47559.513    4066.1295   -51625.643   0.15195273 
   83800    292.68095   -31.484064    148617.28   -47508.955    4019.2681   -51528.223   0.15557954 
   84000    295.35057    55.505019    148519.91   -47539.785    4055.9289   -51595.714   0.15135161 
   84200    291.16207    14.130466    148516.48   -47527.427    3998.4099   -51525.837    0.1578417 
   84400    294.07901   -59.311418    148644.27   -47531.515     4038.467   -51569.982   0.15446423 
   84600    290.05833   -39.775846    148635.43    -47527.33    3983.2527   -51510.582   0.14972857 
   84800    292.09698    93.184729     148497.9   -47537.775    4011.2487   -51549.024   0.14459786 
   85000    292.31407    61.226422    148521.37    -47500.72    4014.2298    -51514.95   0.15377404 
   85200    290.73484   -81.947764    148688.59   -47471.447    3992.5428    -51463.99   0.15912223 
   85400     295.3532   -53.257408    148673.87   -47457.953     4055.965   -51513.918   0.14984906 
   85600    294.63084     108.2908    148478.69   -47455.606    4046.0451   -51501.651   0.15468332 
   85800    294.13814    66.659566    148521.35   -47470.053     4039.279   -51509.332   0.16032813 
   86000    298.48372   -90.946784    148693.94   -47424.453    4098.9551   -51523.408   0.16111316 
   86200     292.3582   -34.918769    148628.21   -47433.723    4014.8358   -51448.559   0.15701556 
   86400    295.96446    104.46238    148445.21   -47428.444    4064.3592   -51492.803   0.16149977 
   86600    297.93441    27.532279    148566.25   -47427.057    4091.4117   -51518.469   0.15870159 
   86800    293.28909   -133.78082     148757.1   -47457.353    4027.6193   -51484.973   0.15059972 
   87000    294.99409    11.338343    148610.12   -47479.131    4051.0335   -51530.165   0.14538131 
   87200    295.77981    117.78749    148435.81   -47449.791    4061.8234   -51511.614   0.15613593 
   87400    293.41457   -1.5327552    148647.04   -47412.663    4029.3425   -51442.006   0.15354027 
   87600    293.54466   -128.76715    148794.34   -47478.864     4031.129   -51509.993   0.14918522 
   87800    293.62221  -0.65463871    148521.35   -47486.156     4032.194    -51518.35   0.15497028 
   88000    293.52187     90.26678    148378.34   -47437.262    4030.8161   -51468.078   0.16480219 
   88200     296.1885   -55.027525    148675.86   -47448.981    4067.4357   -51516.417    0.1540289 
   88400    297.26213   -103.56884    148778.92   -47433.588    4082.1795   -51515.767    0.1471375 
   88600    295.54013    97.746851    148436.28   -47449.206     4058.532   -51507.738   0.15750753 
   88800    295.26482     107.0584    148397.04    -47439.71    4054.7513   -51494.461   0.15963156 
   89000    292.87735   -159.02524    148784.19   -47461.272    4021.9651   -51483.237   0.15142005 
   89200    296.42853   -130.90508    148753.31   -47433.493     4070.732   -51504.225   0.15261898 
   89400    294.19997    175.72612    148318.76   -47405.383    4040.1281   -51445.511   0.15888841 
   89600    295.34528    135.71669     148430.7   -47428.458    4055.8562   -51484.314   0.15593678 
   89800    297.05715   -215.00058    148894.65    -47464.16    4079.3646   -51543.524   0.15136676 
   90000    297.77666   -42.946029     148703.3   -47481.305    4089.2454   -51570.551   0.14987897 
   90200    293.27015    287.96292    148252.24   -47526.239    4027.3592   -51553.598   0.15965706 
   90400    294.31867    26.724752    148536.37   -47548.113    4041.7581   -51589.871   0.15217911 
   90600     296.5149   -284.25369    148945.04   -47540.056    4071.9181   -51611.974   0.14942875 
   90800    290.49051   -2.6751096    148550.21   -47562.673    3989.1876    -51551.86   0.15289039 
   91000    295.66506    340.33201    148173.17    -47561.78    4060.2476   -51622.027   0.14921516 
   91200      289.199   -74.896442    148683.34    -47576.57    3971.4518   -51548.022   0.14541353 
   91400     293.5036   -297.87888    149022.06   -47565.468    4030.5652   -51596.033   0.14482714 
   91600    295.16244    135.24616    148420.06   -47571.424    4053.3454    -51624.77   0.14940238 
   91800    293.36387    327.15899    148140.92   -47547.238    4028.6463   -51575.884   0.15313873 
   92000    292.66407   -181.36398    148853.66   -47564.218    4019.0362   -51583.254   0.14673419 
   92200    286.98757   -292.06784    149004.83   -47584.834    3941.0831   -51525.917   0.14937149 
   92400    292.39913    333.16546    148239.64   -47564.678    4015.3979   -51580.075   0.15239796 
   92600    289.98891    233.18991       148268    -47623.27    3982.2994   -51605.569   0.14612764 
   92800    288.61415    -307.4739    148974.41   -47591.063    3963.4204   -51554.483   0.14813534 
   93000    292.01638   -153.96969    148800.73    -47519.01    4010.1418   -51529.152   0.15715124 
   93200    290.08345     289.1817    148172.39   -47517.468    3983.5976   -51501.066   0.15401841 
   93400    293.10498    135.38963    148441.25   -47521.714    4025.0911   -51546.805    0.1458552 
   93600    286.55118   -332.69187    148968.92   -47502.083    3935.0905   -51437.174     0.158796 
   93800    294.43559   -58.260044    148601.84   -47492.044    4043.3639   -51535.408   0.16289073 
   94000    293.04893    286.82126    148186.59   -47491.712    4024.3214   -51516.033   0.15923019 
   94200    290.15254    0.7116815     148527.9   -47575.613    3984.5464   -51560.159   0.15015571 
   94400    287.20136   -218.82907    148784.79    -47558.74    3944.0191   -51502.759   0.15847194 
   94600    290.98777    36.021675    148480.52   -47556.801    3996.0163   -51552.817    0.1571982 
   94800    288.50128    150.18839    148325.81   -47609.368    3961.8703   -51571.239   0.15157572 
   95000    286.62545   -34.420245    148580.23   -47615.715    3936.1103   -51551.826   0.15283458 
   95200    291.07442   -113.54701    148655.39   -47622.273    3997.2062    -51619.48   0.15223536 
   95400    283.30502     48.50153    148452.19   -47632.816    3890.5122   -51523.328   0.14899003 
   95600    294.98507    83.009224    148457.84   -47597.151    4050.9095    -51648.06   0.14275872 
   95800    288.41997   -72.077231    148665.82   -47559.863    3960.7538   -51520.617    0.1505543 
   96000    285.19303   -54.293527    148622.96   -47550.422    3916.4394   -51466.861   0.15617597 
   96200    292.31253    109.87001    148446.45   -47594.118    4014.2087   -51608.327   0.14861126 
   96400     285.6961    35.044233    148504.13   -47587.146     3923.348   -51510.494   0.14714513 
   96600    293.81068   -85.927193    148683.95   -47599.342    4034.7821   -51634.124   0.14841716 
   96800    286.05971   -51.416993    148576.81   -47651.452    3928.3412   -51579.793   0.15079969 
   97000    292.37716    156.60321    148392.41   -47635.474    4015.0962    -51650.57   0.14455289 
   97200    286.34643    38.948766    148536.28   -47622.447    3932.2786   -51554.726   0.14909459 
   97400    285.73604    -127.3208    148699.82   -47576.663    3923.8964    -51500.56   0.15041673 
   97600    291.75632   -19.297573    148556.78   -47549.431    4006.5704   -51556.001   0.14909449 
   97800    295.63786    104.36428    148423.79   -47543.948    4059.8741   -51603.822   0.14474915 
   98000    289.59247   -21.950852       148564   -47513.896    3976.8552   -51490.751   0.15345194 
   98200    290.55332   -132.26752     148654.6   -47525.471    3990.0502   -51515.521   0.16618351 
   98400    299.66782    93.477603    148512.86   -47454.815    4115.2159   -51570.031   0.14968257 
   98600    290.24807    39.949177    148483.03   -47501.909    3985.8583   -51487.768   0.15148373 
   98800    296.92933    -36.85309    148669.64   -47462.894    4077.6093   -51540.503   0.14947118 
   99000    295.94204   -105.54623     148707.9   -47465.841    4064.0513   -51529.892   0.15243504 
   99200    291.50359    55.311282    148492.81   -47531.088    4003.0998   -51534.188   0.14930399 
   99400    289.40867    69.859506    148479.08   -47625.209    3974.3311    -51599.54   0.14431524 
   99600    286.89466   -127.28217    148689.15   -47649.146    3939.8073   -51588.953    0.1507693 
   99800    287.72013   -29.125397    148648.48   -47619.162    3951.1432   -51570.305   0.14521033 
  100000    292.01421    109.43432       148450   -47619.482     4010.112   -51629.594    0.1399521 
  100200    285.60222    18.864528    148532.34   -47576.528    3922.0587   -51498.587   0.15472523 
  100400     292.6366   -100.62869    148746.15   -47575.596     4018.659   -51594.255   0.15319805 
  100600    293.01069   0.22802852       148601   -47524.858    4023.7962   -51548.654   0.14964595 
  100800    291.15596    113.41537    148421.32   -47555.144     3998.326    -51553.47   0.14620648 
  101000    294.06732    12.155587    148606.65   -47538.013    4038.3066   -51576.319   0.14665143 
  101200    294.09999   -152.98492    148801.26   -47517.437    4038.7551   -51556.192   0.14877908 
  101400    289.12261     15.55756    148568.21     -47524.1    3970.4028   -51494.503    0.1464161 
  101600    291.04866    204.62772    148376.16   -47541.042    3996.8524   -51537.895   0.14572652 
  101800    294.32522   -36.156604     148721.5   -47508.338    4041.8481   -51550.186    0.1438904 
  102000    293.20385   -215.66413    148919.34   -47509.494    4026.4488   -51535.943   0.14767226 
  102200    293.19969    142.70316    148487.93   -47501.865    4026.3917   -51528.256   0.14355626 
  102400    296.21022    169.25455     148347.8   -47445.214    4067.7341   -51512.948    0.1594007 
  102600    294.26657   -137.80084    148821.79   -47457.597    4041.0427    -51498.64   0.16216966 
  102800     297.2085   -192.96275    148854.74    -47468.48    4081.4431   -51549.923   0.14746785 
  103000    296.71168    230.01694    148329.17    -47462.91    4074.6204    -51537.53   0.14651054 
  103200    296.29055    172.59299    148398.46    -47443.89    4068.8373   -51512.727   0.15005788 
  103400    294.25198   -265.03673    148936.27   -47472.042    4040.8423   -51512.884   0.15220003 
  103600     299.2534   -126.19748     148769.5    -47476.35    4109.5248   -51585.874   0.14640349 
  103800     292.3103    332.35511    148224.52   -47478.631    4014.1781   -51492.809   0.14438681 
  104000    294.59415    63.639559    148465.69   -47489.406    4045.5413   -51534.947   0.15425737 
  104200    298.32343   -280.44129    148934.54   -47501.318    4096.7539   -51598.072   0.14272333 
  104400    292.23883   -25.300841    148579.29   -47518.152    4013.1966   -51531.349   0.14618289 
  104600    294.62773    284.96591    148221.67   -47513.428    4046.0023    -51559.43   0.15531853 
  104800       293.98   -18.946345    148636.67   -47504.605    4037.1074   -51541.713   0.15278971 
  105000    291.53086    -311.7399    148965.37    -47533.49    4003.4744   -51536.965   0.14979886 
  105200    295.45104    114.88514    148493.19   -47535.436    4057.3086   -51592.745   0.14087352 
  105400    293.98591    297.12291    148212.42   -47525.878    4037.1885   -51563.067   0.14801425 
  105600    291.93574   -155.10417     148719.9   -47524.641    4009.0344   -51533.675   0.15079677 
  105800     292.7619   -229.46357    148903.83   -47539.424    4020.3797   -51559.804   0.14455347 
  106000    292.59507    143.94173    148355.61   -47520.509    4018.0887   -51538.597   0.14989534 
  106200    292.18354     230.4327    148269.05   -47496.545    4012.4373   -51508.982   0.15043004 
  106400    296.88267   -156.09745    148834.19   -47509.919    4076.9685   -51586.888   0.14431637 
  106600     291.6828   -191.39595    148841.66   -47509.695    4005.5609   -51515.256   0.15100065 
  106800    292.64628     220.7799    148301.03   -47504.049    4018.7919   -51522.841    0.1550523 
  107000    294.20684    116.24009    148420.05   -47462.958    4040.2225    -51503.18    0.1571832 
  107200    301.36162   -204.51466    148950.68   -47451.059    4138.4762   -51589.535   0.14295782 
  107400    295.95678   -84.101462    148726.21   -47456.747    4064.2537   -51521.001   0.14322266 
  107600    291.89448    267.11597    148265.63   -47434.118    4008.4677   -51442.586   0.15314039 
  107800    294.48008    60.808445     148569.9    -47457.82    4043.9747   -51501.795   0.14628202 
  108000    293.33402    -222.1778     148935.3   -47432.326    4028.2364   -51460.562   0.14692232 
  108200    292.90788    7.3918271    148550.61   -47467.374    4022.3843   -51489.758    0.1491727 
  108400    295.76377    246.57489    148292.03   -47464.088    4061.6031   -51525.692    0.1493021 
  108600    296.76732   -73.576054    148706.11   -47436.535    4075.3845    -51511.92     0.150191 
  108800    294.55618   -207.47539    148860.63   -47457.683    4045.0198   -51502.703   0.15682421 
  109000    295.34352    97.492117    148441.97   -47496.586     4055.832   -51552.418   0.15632873 
  109200     294.0979    214.50511    148364.27   -47498.032    4038.7265   -51536.758   0.14920423 
  109400    295.09539    -127.1962    148754.18   -47483.167    4052.4245   -51535.591   0.14822468 
  109600    295.48438   -134.10994    148761.14   -47443.966    4057.7664   -51501.732   0.14812647 
  109800    295.20556    132.18067     148414.6   -47495.364    4053.9375   -51549.302   0.14704689 
  110000    296.10278    93.350162    148460.24   -47433.291    4066.2587    -51499.55   0.15152856 
  110200    294.31326   -163.50281    148798.03   -47419.665    4041.6839   -51461.349   0.14871383 
  110400    289.07161   -100.15803    148661.02   -47471.228    3969.7025   -51440.931   0.15414979 
  110600    289.12304    163.62383    148320.73   -47543.351    3970.4087    -51513.76   0.15182816 
  110800    291.54059    26.587484    148488.84   -47540.236    4003.6079   -51543.843   0.15214415 
  111000     290.2769   -183.01406    148763.18   -47541.087    3986.2542   -51527.341   0.15352957 
  111200    290.92757   -11.637753    148576.62   -47530.154    3995.1896   -51525.344   0.15476046 
  111400    290.17071    130.27949    148376.89   -47584.311     3984.796   -51569.107   0.14784939 
  111600    291.15365    -14.97848    148539.41   -47638.177    3998.2943   -51636.471   0.14224514 
  111800    285.90597   -80.978324    148660.29   -47668.928      3926.23   -51595.158   0.14071744 
  112000    279.90183    10.685192    148507.57   -47659.932    3843.7776   -51503.709   0.14741626 
  112200    288.62958     64.35433    148414.86   -47618.871    3963.6322   -51582.503   0.14616512 
  112400    290.35195   -32.869025     148606.2   -47587.372    3987.2848   -51574.657   0.14574062 
  112600    292.38514   -92.003851    148666.54   -47561.737    4015.2059   -51576.943    0.1538594 
  112800    292.08475    101.00903    148462.45   -47578.454    4011.0807   -51589.535   0.15096747 
  113000    288.17089    49.411597    148454.21   -47556.069    3957.3332   -51513.403   0.14728096 
  113200    289.65809   -92.322283    148647.82   -47591.771    3977.7563   -51569.527    0.1472606 
  113400    290.41166   -57.700464    148610.62   -47571.827    3988.1048   -51559.932   0.15307078 
  113600    286.50205    66.334608    148443.01   -47576.223    3934.4157   -51510.638   0.15199167 
  113800    289.79504    54.322234    148514.21   -47559.158     3979.637   -51538.795   0.14382586 
  114000    294.65987   -61.986382    148690.07   -47544.821    4046.4437   -51591.265   0.14094724 
  114200    295.03492   -21.371238    148585.59   -47556.526    4051.5941   -51608.121   0.14673719 
  114400    294.04819     128.0356    148417.64    -47497.67    4038.0437   -51535.714   0.15171409 
  114600    292.49837   -16.794014    148626.68   -47470.936    4016.7608   -51487.697   0.15566143 
  114800    296.92535   -125.36136    148797.48   -47456.838    4077.5547   -51534.393   0.15430774 
  115000    293.64704    26.046479    148564.25   -47485.913     4032.535   -51518.448   0.15035241 
  115200    291.05871    142.85331    148444.13   -47501.251    3996.9905   -51498.242   0.14409814 
  115400     292.7174   -59.819195    148718.37   -47514.739    4019.7686   -51534.507   0.14646056 
  115600    292.78093   -182.04912    148807.99   -47497.617     4020.641   -51518.258   0.15237755 
  115800    297.17712    92.190561     148457.1   -47514.433    4081.0121   -51595.445   0.14718827 
  116000    288.47219    130.92997    148385.74   -47498.672    3961.4709   -51460.143   0.14561058 
  116200    293.45838   -139.60408    148820.04   -47517.079    4029.9441   -51547.023   0.14106341 
  116400    294.75385   -195.47459    148820.78   -47558.188    4047.7343   -51605.923   0.14474344 
  116600    289.52212     264.3006    148205.23   -47568.792    3975.8891   -51544.681   0.14913253 
  116800    293.07037    196.75219    148313.51   -47526.739    4024.6158   -51551.355   0.14756449 
  117000    294.16425   -411.82727    149109.89   -47532.476    4039.6375   -51572.113   0.15141961 
  117200    292.70236   -193.56554    148846.03   -47523.087     4019.562   -51542.649   0.14703164 
  117400    293.55524    503.42009    147990.04   -47548.414    4031.2743   -51579.688       0.1406 
  117600    290.36589    122.69986    148479.37   -47531.752    3987.4763   -51519.228   0.14466151 
  117800    293.22523   -534.70569    149328.47   -47489.071    4026.7424   -51515.814    0.1474915 
  118000    294.41565   -28.073002    148640.85   -47483.002    4043.0899   -51526.092   0.14965895 
  118200    296.21794    524.44788    147893.86   -47515.811      4067.84   -51583.651   0.15007873 
  118400    289.81252   -53.605548    148658.32   -47569.129     3979.877   -51549.006   0.14321589 
  118600     288.2525   -472.14109    149207.95   -47593.307    3958.4539   -51551.761   0.14624287 
  118800    292.28141    121.33898    148382.03   -47645.119    4013.7813     -51658.9   0.14447974 
  119000    291.93511    416.34065    148005.31   -47643.096    4009.0257   -51652.122   0.14816486 
  119200    291.93779   -201.40163    148786.24   -47646.484    4009.0625   -51655.547   0.14897972 
  119400    283.31817   -297.54512    148971.62     -47669.6    3890.6929   -51560.293   0.14319011 
  119600    286.10162    236.72874    148289.89   -47608.842    3928.9168   -51537.759   0.14055656 
  119800    286.21747    233.86879    148278.79   -47606.948    3930.5077   -51537.455   0.14119815 
  120000    287.34824   -221.99282    148855.33   -47625.068    3946.0361   -51571.104   0.14232066 
  120200     290.9064   -161.69052    148764.99   -47598.379    3994.8989   -51593.278   0.14574949 
  120400    288.38972    185.23357    148299.07   -47643.738    3960.3383   -51604.076   0.13988792 
  120600     286.5236    70.322451    148447.36   -47637.591    3934.7117   -51572.303   0.14183517 
  120800    293.22809   -201.93486     148825.1    -47628.39    4026.7816   -51655.172   0.13919455 
  121000    290.07521   -42.684168    148602.07   -47612.266    3983.4845    -51595.75   0.14559871 
  121200    292.42689    206.20651    148288.84   -47610.606    4015.7791   -51626.385   0.14664723 
  121400    288.77486   -22.501884    148525.33   -47610.897    3965.6273   -51576.525   0.15047279 
  121600     286.5305   -163.97798    148777.51   -47599.677    3934.8065   -51534.484   0.14409155 
  121800     290.8092   -5.4997476     148557.5   -47598.611     3993.564   -51592.175   0.14180579 
  122000    286.98925    132.63188    148387.38   -47574.673    3941.1062   -51515.779   0.14487197 
  122200    288.09224   -41.944357    148591.05   -47542.726    3956.2532   -51498.979   0.14852876 
  122400    294.12501   -131.50739     148699.3   -47497.656    4039.0987   -51536.755   0.14993543 
  122600    297.58597    36.488539    148512.41    -47417.95    4086.6267   -51504.577   0.14896937 
  122800    290.55073    49.968286    148470.59   -47417.477    3990.0146   -51407.491     0.150921 
  123000    295.54905    -41.99542    148667.96   -47465.547    4058.6545   -51524.201   0.14800756 
  123200    294.50699   -78.294778    148656.89   -47488.752    4044.3443   -51533.096   0.15231345 
  123400    293.65301    103.91368    148443.34   -47571.001     4032.617   -51603.618   0.14731799 
  123600     293.3092    41.011691    148465.64   -47516.456    4027.8955   -51544.351   0.15300891 
  123800    289.47833   -68.250339    148655.48   -47537.462    3975.2878   -51512.749   0.14525948 
  124000    294.18762   -26.513186    148630.01   -47518.662    4039.9586    -51558.62   0.14303557 
  124200    295.87986    69.580423    148484.08   -47502.555    4063.1973   -51565.752   0.14586825 
  124400    289.90946    10.652679    148552.74   -47517.478    3981.2083   -51498.686   0.15038074 
  124600    291.48724   -64.205591    148694.89   -47535.215    4002.8753   -51538.091   0.14280439 
  124800     288.8857     6.621522    148592.65    -47539.74    3967.1494   -51506.889   0.14715627 
  125000    291.35872    76.207795    148459.78   -47550.259    4001.1104   -51551.369   0.14972417 
  125200    295.47189    54.755661    148586.44   -47539.892    4057.5949   -51597.487   0.14487834 
  125400    289.75044   -89.011249    148691.03   -47608.508    3979.0245   -51587.532   0.14293131 
  125600    288.17393    25.131197    148497.53   -47602.681     3957.375   -51560.056   0.14929699 
  125800    291.83747    113.11944    148426.84   -47594.343    4007.6849   -51602.028   0.14568068 
  126000    287.36623   -56.367736     148702.7   -47560.456    3946.2832   -51506.739   0.14682236 
  126200    296.85912   -93.283214    148740.51   -47542.044    4076.6452   -51618.689   0.14044173 
  126400    287.38105     98.92826    148411.31   -47571.312    3946.4867   -51517.798   0.14767874 
  126600     288.4642    153.16988    148407.52   -47597.465    3961.3612   -51558.826   0.14553448 
  126800    291.88593   -190.35878    148833.78   -47568.618    4008.3503   -51576.968   0.15044255 
  127000    290.38202   -133.74376    148760.76   -47584.888    3987.6978   -51572.586   0.14781058 
  127200    292.02553     279.1661    148231.14   -47618.591    4010.2674   -51628.858   0.14456173 
  127400    289.75051    79.412298    148385.12   -47618.675    3979.0255   -51597.701   0.14755798 
  127600    291.28404   -285.46835    148925.33   -47612.867    4000.0849   -51612.952   0.14308496 
  127800    289.31765   -42.887997    148646.14   -47601.727    3973.0812   -51574.808   0.14223921 
  128000    295.02755    277.77647    148176.11   -47599.601    4051.4929   -51651.093   0.14020647 
  128200    291.67613    6.4949664    148545.05   -47565.975    4005.4692   -51571.445   0.14218324 
  128400    291.58417    -291.5027       148974   -47592.155    4004.2064   -51596.362   0.14090222 
  128600    294.88321    99.567178    148500.81   -47624.723    4049.5108   -51674.234   0.13619309 
  128800    286.38834    314.71904    148122.71   -47660.393    3932.8543   -51593.247   0.14675736 
  129000    288.09171   -93.036941    148648.26   -47695.636    3956.2459   -51651.882   0.14393564 
  129200    290.04407    -273.5047    148912.02   -47651.519    3983.0569   -51634.576   0.14278866 
  129400    286.69563    136.40577    148352.33    -47650.31     3937.074   -51587.384   0.14383885 
  129600    291.29756    285.67778    148182.07   -47651.046    4000.2705   -51651.316   0.14371015 
  129800      288.513   -149.30299    148761.53   -47663.264    3962.0313   -51625.295   0.14265387 
  130000    290.55435   -221.04979    148795.49   -47672.792    3990.0643   -51662.856   0.14164827 
  130200    290.07944    212.68036    148224.27   -47690.801    3983.5426   -51674.344   0.14309678 
  130400    288.54135    131.35919    148312.39   -47675.728    3962.4206   -51638.149    0.1474933 
  130600    291.58711   -227.80703    148871.55    -47631.05    4004.2468   -51635.297   0.14112732 
  130800    291.88049   -114.02103     148718.1   -47652.756    4008.2756   -51661.032   0.14252047 
  131000    289.48751    240.13327    148208.25   -47672.198    3975.4138   -51647.612   0.14617017 
  131200    289.08698    92.219109    148461.33   -47646.996    3969.9135   -51616.909   0.14339131 
  131400    287.42779   -271.03431     148919.2   -47647.327    3947.1286   -51594.455   0.14459333 
  131600    287.91861    11.067602    148588.06    -47640.13    3953.8688   -51593.999   0.14408136 
  131800    290.68764    244.59628    148228.96   -47612.706    3991.8947   -51604.601   0.14677808 
  132000    293.99115     11.50659    148599.28   -47558.588    4037.2604   -51595.848   0.13844338 
  132200    292.23039   -218.20332    148870.35    -47564.17    4013.0807   -51577.251   0.14211903 
  132400    293.89329    84.410374    148500.08   -47567.993    4035.9166    -51603.91   0.14285077 
  132600    292.67348    206.29038    148347.23   -47543.992    4019.1655   -51563.157   0.14190851 
  132800    289.13068   -158.86472    148708.19   -47514.258    3970.5136   -51484.772   0.14900266 
  133000    297.92113   -147.52354     148767.2   -47508.432    4091.2292   -51599.662   0.14190847 
  133200     293.7732    100.98808    148453.83   -47455.901    4034.2674   -51490.168   0.15149855 
  133400    298.61824    108.61023    148481.82   -47443.597    4100.8025     -51544.4   0.15212263 
  133600    294.67951   -154.86374    148785.54    -47455.46    4046.7134   -51502.174   0.15314121 
  133800    291.61962   -66.418701    148694.95   -47475.478    4004.6932   -51480.171   0.15108915 
  134000    295.29062    147.24536    148436.78   -47424.916    4055.1056   -51480.021   0.14973365 
  134200    292.81178    25.222504    148568.87   -47439.179    4021.0647   -51460.244   0.14837752 
  134400     295.1432   -124.07335    148743.15   -47438.351    4053.0812   -51491.432   0.15098825 
  134600    301.75932     26.54245    148607.09   -47455.183    4143.9376    -51599.12   0.14639195 
  134800    291.23538    117.62543    148465.92   -47496.831    3999.4166   -51496.248   0.15047136 
  135000    294.67591    39.737155    148588.29   -47553.487    4046.6641   -51600.152   0.14304168 
  135200     288.2465   -80.559782    148673.41   -47562.374    3958.3716   -51520.745    0.1509468 
  135400    286.75867    32.214662    148525.05    -47583.13    3937.9398    -51521.07   0.15396778 
  135600    295.08737    90.263262    148448.42   -47547.452    4052.3144   -51599.766   0.14680618 
  135800    288.48528   -62.453071    148577.78   -47618.775    3961.6506   -51580.425    0.1488747 
  136000    281.97553   -35.244479    148561.98   -47649.671    3872.2549   -51521.926   0.14850772 
  136200    290.32334   -4.3114119     148440.9   -47661.269     3986.892   -51648.161   0.14877959 
  136400    292.41607    60.399869    148470.59   -47614.704    4015.6306   -51630.334   0.14289298 
  136600    288.34664    -87.40551    148599.98   -47556.344    3959.7468   -51516.091   0.14633097 
  136800    291.00124   -51.830064    148565.07   -47566.213    3996.2013   -51562.414   0.14864938 
  137000    289.41249    74.041797    148474.27   -47570.624    3974.3836   -51545.008   0.14583045 
  137200    288.06101    -26.80041    148531.29   -47602.251    3955.8243   -51558.075   0.14913858 
  137400    294.11788   -12.068721    148568.61   -47559.448    4039.0008   -51598.449   0.15408916 
  137600    290.18999    -21.24091    148519.99   -47551.686    3985.0607   -51536.747   0.15407806 
  137800    293.28891    44.776822    148532.58   -47525.155    4027.6168   -51552.771   0.14657757 
  138000    291.61768   -29.950733    148596.94   -47522.982    4004.6666   -51527.649   0.15022513 
  138200    291.34419   -28.638566    148542.44    -47572.61    4000.9109   -51573.521   0.15245813 
  138400     289.1282    27.517477    148442.17   -47557.797    3970.4795   -51528.277   0.15641245 
  138600    289.41102    15.970507    148515.43   -47570.951    3974.3635   -51545.315   0.14646507 
  138800    295.60619   -49.971452    148612.63   -47521.181    4059.4392   -51580.621   0.14616182 
  139000    297.50007    33.557012    148547.17   -47509.399    4085.4471   -51594.846    0.1475277 
  139200    292.42305     26.42388    148448.62   -47510.264    4015.7265    -51525.99   0.15621553 
  139400     290.2493   -1.5242007    148519.75   -47537.253    3985.8752   -51523.128   0.15878174 
  139600    296.37051   -35.219722    148609.76   -47519.478    4069.9352   -51589.413   0.15265352 
  139800    293.52435    30.065939    148523.06   -47478.723    4030.8501   -51509.573    0.1569071 
  140000    298.83178    73.655527    148475.66   -47446.429    4103.7349   -51550.164   0.15121511 
  140200    291.15786   -22.210577    148571.83   -47487.811    3998.3521   -51486.163   0.15054315 
  140400    292.08353   -67.977748    148598.08   -47513.589    4011.0639   -51524.653   0.15373268 
  140600    293.25112    95.402122    148451.51   -47512.521    4027.0979   -51539.619    0.1491005 
  140800    290.54951    57.611515    148436.88   -47504.719    3989.9978   -51494.717   0.14766694 
  141000    291.37101   -56.583881    148611.82   -47541.836    4001.2792   -51543.115   0.15011112 
  141200    295.92611   -3.8510043    148570.61   -47493.343    4063.8324   -51557.175   0.15018674 
  141400    290.15592    49.620448    148419.19   -47498.232    3984.5929   -51482.825   0.15773532 
  141600    293.17622    54.387846    148497.98   -47481.945    4026.0694   -51508.014   0.15702203 
  141800    290.29402   -83.619612       148637   -47534.754    3986.4893   -51521.244   0.15739682 
  142000    289.97741    19.634996    148489.61   -47550.397    3982.1414   -51532.538   0.15476797 
  142200    291.41434    130.66706    148380.15   -47546.858    4001.8742   -51548.732   0.14585626 
  142400    292.63403    -14.54272    148553.89   -47551.107    4018.6238   -51569.731   0.14314202 
  142600    293.11154   -144.18047    148683.18   -47542.285    4025.1811   -51567.466   0.15416621 
  142800    291.40773    53.683571    148490.85   -47545.253    4001.7835   -51547.036   0.14865651 
  143000    290.07887    125.96792    148398.91   -47608.731    3983.5348   -51592.265    0.1472983 
  143200    286.26211   -84.386072    148633.51    -47575.78    3931.1207     -51506.9   0.15296986 
  143400    290.35489    -127.7457    148677.12   -47541.203    3987.3251   -51528.528   0.15381248 
  143600    289.77878    55.200906    148419.72   -47530.066    3979.4137   -51509.479   0.15493874 
  143800    295.19339    97.932194    148428.73   -47543.264    4053.7704   -51597.034   0.15021374 
  144000     292.0138   -140.16362    148702.83   -47531.582    4010.1063   -51541.688   0.15671018 
  144200    293.63912    -73.02803    148649.28   -47504.631    4032.4263   -51537.057   0.15020296 
  144400    297.97548    123.57155    148407.05   -47507.692    4091.9756   -51599.668   0.14343311 
  144600    292.36914    45.282549    148513.59   -47482.338    4014.9861   -51497.324    0.1454856 
  144800    294.55168   -171.13734    148806.68   -47452.246     4044.958   -51497.204   0.15030086 
  145000    288.16139   -81.480341     148662.9    -47495.52    3957.2027   -51452.722   0.15173479 
  145200    292.23254     173.5891     148328.1   -47526.621    4013.1103   -51539.731    0.1507384 
  145400    293.24686    55.004975    148513.57   -47531.834    4027.0395   -51558.873   0.14855562 
  145600    291.03672   -199.76373    148811.99   -47550.104    3996.6885   -51546.792    0.1520783 
  145800    288.31764    34.977418    148531.84    -47564.36    3959.3485   -51523.709    0.1485435 
  146000    292.85489    209.93965    148279.67   -47552.974    4021.6566   -51574.631   0.14718857 
  146200    291.38604   -81.506696    148649.54   -47584.569    4001.4856   -51586.055   0.15039297 
  146400     296.5142   -211.61455    148837.29    -47535.57    4071.9085   -51607.478   0.14609198 
  146600    293.86039    125.33838    148386.91   -47499.322    4035.4648   -51534.786   0.14631696 
  146800    296.25716    216.86346     148276.8   -47455.658    4068.3787   -51524.036   0.15273809 
  147000    293.33158   -199.11467    148817.16   -47468.523    4028.2029   -51496.726   0.15196247 
  147200    297.05978   -159.96178    148822.41   -47436.278    4079.4007   -51515.679   0.15074387 
  147400    293.20165     190.3775    148281.96   -47502.205    4026.4186   -51528.623   0.15034755 
  147600    286.72582     136.2744    148386.21   -47515.769    3937.4886   -51453.258   0.15329742 
  147800    295.56337   -264.82961    148948.68    -47558.14    4058.8511   -51616.991   0.14841153 
  148000    294.35316   -77.571184    148713.66   -47522.569    4042.2318   -51564.801   0.14595239 
  148200    294.72076    324.41999    148136.71   -47564.051    4047.2799   -51611.331   0.14264271 
  148400    291.03904    25.812131    148444.22   -47615.792    3996.7203   -51612.512   0.14755262 
  148600    289.53423   -332.62918    148969.03   -47583.251    3976.0554   -51559.307   0.14764735 
  148800    286.52055   -14.143079    148525.95   -47586.222    3934.6698   -51520.892   0.14821789 
  149000    286.08495    357.20663    148042.45    -47592.25    3928.6879   -51520.938   0.15321889 
  149200    294.10543   -34.338773    148602.65   -47600.548    4038.8298   -51639.378   0.14734232 
  149400    287.94261   -335.24825    149025.07   -47619.368    3954.1983   -51573.566   0.14594036 
  149600    284.92002    128.73706    148396.74   -47620.505    3912.6904   -51533.195   0.14714726 
  149800    288.59481    346.77139    148077.73   -47605.966    3963.1547    -51569.12   0.15270131 
  150000    286.67679   -198.04058    148759.25   -47566.866    3936.8153   -51503.681   0.15673264 
  150200    293.17672   -280.78898    148976.88   -47510.528    4026.0762   -51536.604   0.14375486 
  150400    292.02508    185.05965    148331.56   -47481.392    4010.2612   -51491.653   0.14595111 
  150600    290.27681    231.53876    148253.88   -47533.935    3986.2529   -51520.188   0.15181844 
  150800    291.57456   -252.39485    148869.68   -47496.295    4004.0744   -51500.369   0.15651976 
  151000    292.66269   -167.24353    148822.14   -47536.018    4019.0173   -51555.035   0.14472233 
  151200    289.99257    195.89858    148265.78   -47523.369    3982.3496   -51505.719   0.15022526 
  151400    288.45002    134.60136    148406.18   -47436.047    3961.1664   -51397.214   0.15702243 
  151600    292.60298   -217.92291    148887.93   -47421.677    4018.1973   -51439.875   0.15341069 
  151800    295.96906   -89.814987    148706.35   -47434.364    4064.4223   -51498.786   0.15007831 
  152000    296.15387    228.72477    148331.46   -47435.715    4066.9603   -51502.675   0.15001035 
  152200    294.65413    38.919652    148549.16   -47457.576    4046.3649   -51503.941   0.15022716 
  152400    293.83539   -141.46371    148787.25   -47506.014    4035.1215   -51541.135   0.14253657 
  152600    296.10255    51.597179    148559.94   -47475.042    4066.2555   -51541.297   0.14386563 
  152800    291.34857    112.90392    148426.45   -47406.646     4000.971   -51407.617   0.15298073 
  153000    293.25133   -100.77705    148657.06   -47477.121    4027.1008   -51504.222   0.15321693 
  153200    292.76757   -87.923615    148684.15   -47417.141    4020.4575   -51437.599   0.14894995 
  153400    291.16611    52.174881    148500.01     -47471.4    3998.4653   -51469.866   0.15150575 
  153600    290.39928    36.616581    148500.86   -47498.916    3987.9348   -51486.851     0.154466 
  153800    293.05797   -41.434805    148635.32   -47527.399    4024.4455   -51551.844   0.14938274 
  154000    291.01685   -45.839545    148578.37   -47542.234    3996.4156    -51538.65   0.15072342 
  154200    292.96433    78.929025    148447.57    -47487.39    4023.1595    -51510.55   0.14901125 
  154400    290.53916    17.997702    148548.46   -47481.524    3989.8557    -51471.38   0.14634697 
  154600    294.28937    -103.9492    148688.36   -47503.575    4041.3558   -51544.931   0.14501459 
  154800    290.60168    36.686178    148585.03   -47518.432    3990.7143   -51509.146   0.14341932 
  155000    292.15852    81.312975    148498.88   -47507.686    4012.0937   -51519.779   0.14880893 
[...]
  163200    290.88346    141.54328    148362.49     -47576.9    3994.5838   -51571.484    0.1470475 
  163400    285.89307    100.21535    148403.86    -47610.86    3926.0528   -51536.913   0.15055762 
  163600    286.20947   -114.24097    148660.55    -47558.82    3930.3979   -51489.218   0.15254846 
  163800    287.74159   -44.378269    148561.42   -47619.091    3951.4378   -51570.529   0.15276223 
  164000    285.22683    118.59294    148285.66   -47634.841    3916.9037   -51551.745   0.15484029 
  164200     292.5605    52.239207    148409.34   -47632.797    4017.6139   -51650.411   0.14630161 
  164400    292.78848   -137.96082     148702.6   -47574.268    4020.7447   -51595.013   0.14987156 
  164600    296.10232   -15.271825    148577.56   -47553.282    4066.2524   -51619.534   0.14890688 
  164800    291.17855    168.76454    148331.77   -47590.979    3998.6363   -51589.615   0.14444379 
  165000    294.75845    28.623795    148492.75   -47567.112    4047.7975    -51614.91   0.14735982 
  165200    291.97743    -151.7964    148718.11   -47563.097    4009.6069   -51572.704   0.15088152 
  165400     290.3329  -0.42930608    148500.11   -47591.894    3987.0232   -51578.917   0.15271175 
  165600    291.04375    128.45833    148285.85    -47530.69    3996.7851   -51527.475   0.15525277 
  165800    287.52232   -42.746711    148560.09   -47554.966    3948.4267   -51503.393    0.1550645 
  166000    292.42566   -183.19442    148749.28   -47513.327    4015.7623   -51529.089   0.16216653 
  166200    291.12329     70.18364    148443.75   -47543.584    3997.8774   -51541.462   0.15290011 
  166400    295.62489    196.11914    148280.83   -47539.906     4059.696   -51599.602   0.14795417 
  166600    293.38715   -72.855238    148630.84   -47534.739     4028.966   -51563.705   0.15523715 
  166800    290.87187   -176.43057    148771.05   -47594.165    3994.4247    -51588.59   0.15064402 
  167000    292.97972    123.27399    148377.17   -47595.505    4023.3709   -51618.876   0.14722575 
  167200     292.4387      196.817    148304.09   -47543.802    4015.9413   -51559.743   0.14785675 
  167400    289.16969   -181.01633    148762.55   -47590.975    3971.0493   -51562.024   0.15442751 
  167600    289.07375   -164.33658    148766.35   -47571.976    3969.7318   -51541.708   0.15382811 
  167800    292.50861    184.83612     148265.8    -47641.73    4016.9014   -51658.631   0.14786927 
  168000    291.49286     161.6598    148315.04   -47630.253    4002.9525   -51633.206   0.15193062 
  168200    285.91215   -206.23229    148812.24   -47626.308    3926.3148   -51552.623   0.15390431 
  168400    290.07614   -124.46882    148660.78   -47583.158    3983.4972   -51566.655   0.14895402 
  168600    288.18315    269.70822    148143.89   -47593.435    3957.5016   -51550.937   0.14921994 
  168800    284.86592    65.637021    148417.98   -47635.427    3911.9474   -51547.374   0.15291333 
  169000    287.84301   -296.24103    148943.97   -47619.659    3952.8306    -51572.49   0.14936529 
  169200     289.0253   -18.203676    148555.32   -47589.304    3969.0665    -51558.37   0.15004895 
  169400    292.39238    322.56506    148070.77   -47615.368    4015.3052   -51630.673   0.14927696 
  169600    284.87958   -59.107138    148581.39   -47626.002     3912.135   -51538.137     0.154202 
  169800    292.43966   -328.16467    148982.31   -47630.918    4015.9546   -51646.872   0.15236249 
  170000    286.65368     135.4503    148359.94   -47669.774     3936.498   -51606.272   0.14876041 
  170200     285.3776    354.97488    148062.74   -47679.876    3918.9742    -51598.85   0.15137535 
  170400      287.879   -214.26038    148768.64   -47651.599    3953.3248   -51604.924   0.15192803 
  170600    292.40309   -291.95086    148911.84   -47630.561    4015.4523   -51646.014   0.14747056 
  170800    285.89679    261.45892    148175.39   -47654.269    3926.1039   -51580.373   0.14649292 
  171000    286.39035    241.96344    148171.45   -47654.858    3932.8817   -51587.739   0.14936224 
  171200    281.48124    -273.7239     148886.9   -47681.137     3865.467   -51546.604   0.15053463 
  171400    286.74248    -218.8552     148762.8   -47676.879    3937.7175   -51614.597   0.15179482 
  171600    288.05163    343.33871    148112.41   -47639.723    3955.6955   -51595.418   0.14670947 
  171800    290.53856    102.97889    148379.21   -47620.426    3989.8474   -51610.273   0.15327743 
  172000    285.74451   -284.90673    148916.39   -47623.968    3924.0127   -51547.981   0.15290635 
  172200    290.36422   -3.6258389    148555.62   -47631.553    3987.4533   -51619.006   0.14791049 
  172400    289.32758    241.56023    148171.46   -47598.999    3973.2176   -51572.217   0.15277998 
  172600    292.72616   -25.346113    148538.53   -47584.757    4019.8889   -51604.646   0.15023671 
  172800    286.93805   -217.05396    148788.86   -47591.351    3940.4031   -51531.754   0.14850231 
  173000    290.44933    31.651018    148443.18   -47610.493    3988.6222   -51599.115   0.14579508 
  173200    289.77909    185.36856     148289.4    -47647.31     3979.418   -51626.728   0.14699414 
  173400    287.86141   -77.029839    148589.43   -47634.185    3953.0833   -51587.269   0.15345266 
  173600    294.44269    -104.9234    148680.51   -47583.875    4043.4613   -51627.337    0.1497669 
  173800    292.07994    62.364788    148451.82   -47584.164    4011.0147   -51595.178   0.15328406 
  174000    296.27446    83.494091    148440.22   -47548.712    4068.6162   -51617.329   0.15665586 
  174200     288.3435   -82.278932    148649.39    -47541.95    3959.7036   -51501.653   0.15750966 
  174400    295.55547   -66.809775    148600.17   -47524.924    4058.7426   -51583.667   0.15332431 
  174600     293.6265    63.297079    148421.96   -47536.431    4032.2529   -51568.684   0.15234922 
  174800     295.8734    69.248642    148495.27   -47500.126    4063.1087   -51563.235   0.15158428 
  175000    290.35914   -86.079622    148664.42   -47547.704    3987.3836   -51535.088   0.15084214 
  175200    289.79006   -16.274493    148560.87   -47543.737    3979.5686   -51523.305   0.14917838 
  175400    290.26395    84.754557    148421.43   -47554.293    3986.0764   -51540.369    0.1536059 
  175600    287.91187   -58.431232    148548.69    -47565.75    3953.7762   -51519.526   0.15896407 
  175800    290.23561   -69.228779    148639.25    -47548.68    3985.6872   -51534.368    0.1542114 
  176000    290.61493    54.264648    148494.73   -47536.223    3990.8962   -51527.119   0.15353599 
  176200    292.07529    7.7865922    148467.46   -47486.617    4010.9507   -51497.567   0.15996625 
  176400    290.64566   -79.476285    148613.74   -47526.342    3991.3183    -51517.66   0.15617472 
  176600    293.75945   -4.4809937    148583.29   -47506.032    4034.0786    -51540.11   0.14614552 
  176800    293.27591    56.174244    148476.72   -47513.213    4027.4383   -51540.651   0.14920863 
  177000    291.86915    6.4187706    148521.83   -47529.075      4008.12   -51537.195   0.15361184 
  177200    295.15394    -25.34343    148623.18   -47543.344    4053.2286   -51596.573     0.146222 
  177400    283.77976    -20.19109     148540.1   -47631.877    3897.0317   -51528.909   0.14583432 
  177600    288.65015    87.267509    148420.91   -47598.225    3963.9147   -51562.139   0.15367364 
  177800     292.6461   -24.509571    148580.65    -47577.23    4018.7894   -51596.019   0.15518127 
  178000    291.76876   -90.660082    148704.61   -47535.072    4006.7413   -51541.813   0.15216374 
  178200     291.1828    12.420975    148547.48   -47571.902    3998.6945   -51570.596    0.1509643 
  178400    292.95827    54.969612     148465.1   -47547.796    4023.0763   -51570.873   0.14990237 
  178600    291.91286   -28.640306    148655.07   -47564.288    4008.7201   -51573.008   0.14890056 
  178800    290.52253   -132.11443    148753.68   -47533.661    3989.6274   -51523.288   0.14767942 
  179000      295.361    81.113545     148522.3   -47508.163     4056.072   -51564.235   0.14964593 
  179200    296.67855     106.0328    148424.35   -47532.545    4074.1654    -51606.71   0.15044136 
  179400    288.81258   -73.605182    148641.12   -47504.817    3966.1453   -51470.962    0.1527446 
  179600    291.06571   -108.02212    148725.12   -47511.995    3997.0866   -51509.081   0.15544866 
  179800    297.56958    47.700828    148522.63   -47540.153    4086.4016   -51626.554   0.15647371 
  180000    295.96759    112.00184    148424.01   -47507.215    4064.4022   -51571.617   0.15586312 
  180200    297.14726   -49.875529    148659.44   -47468.963     4080.602   -51549.565   0.15306654 
  180400    296.09053   -100.70588    148740.34    -47423.98    4066.0903    -51490.07   0.15041898 
  180600    294.45017    50.541277    148493.69   -47513.387    4043.5641   -51556.951   0.14898584 
  180800    294.97922    130.82001    148421.12   -47478.612    4050.8293   -51529.441   0.14895535 
  181000    291.43736   -95.614549    148709.99   -47519.353    4002.1903   -51521.543   0.14809402 
  181200    292.55737   -98.557675    148740.45   -47502.957     4017.571   -51520.528   0.14942432 
  181400    292.44933    129.15102     148423.6   -47542.303    4016.0873    -51558.39   0.14849076 
  181600    292.48844     136.2046    148401.23   -47564.065    4016.6244    -51580.69   0.14745238 
  181800    292.74711   -96.399293    148710.29   -47534.913    4020.1765   -51555.089   0.14954809 
  182000    292.41155   -76.356032    148671.15   -47543.127    4015.5685   -51558.695   0.15287427 
  182200    292.27112     141.1927    148413.03   -47559.052    4013.6401   -51572.692   0.15268744 
  182400     293.1851    69.702339    148508.43   -47561.125    4026.1913   -51587.316   0.14660387 
  182600    290.89618   -135.30768    148744.24    -47523.61    3994.7586   -51518.368   0.14947537 
  182800    294.30544   -26.048698    148577.14   -47487.971    4041.5765   -51529.548   0.15364767 
  183000    291.18978    140.24851    148348.87   -47487.964    3998.7904   -51486.754   0.15289462 
  183200    291.56509   -19.241177    148547.62   -47470.248    4003.9443   -51474.192   0.15341326 
  183400    288.63212   -166.48064    148766.37   -47476.953    3963.6672    -51440.62   0.15454781 
  183600    291.01913    18.377435    148539.07   -47507.073    3996.4469    -51503.52   0.15697775 
  183800     297.4861    157.90932    148351.24   -47540.706    4085.2552   -51625.962    0.1482455 
  184000    288.47645   -61.752475    148610.66   -47553.109    3961.5294   -51514.639   0.15456202 
  184200     284.8962   -165.42469    148760.15   -47593.743    3912.3633   -51506.107   0.15523786 
  184400    291.75344    138.95317     148402.7   -47604.123    4006.5309   -51610.654   0.14520855 
  184600    290.85105    180.30106    148291.66   -47612.279    3994.1387   -51606.418    0.1455572 
  184800    290.09672   -117.35461    148701.69   -47600.232    3983.7799   -51584.012   0.14174606 
  185000    290.03497   -185.64276    148764.09   -47590.142    3982.9319   -51573.074   0.15065613 
  185200    287.88125    188.67309    148299.65   -47646.732    3953.3557   -51600.087   0.14670474 
  185400    289.68084    186.36677    148319.31   -47625.684    3978.0687   -51603.753   0.14551011 
  185600    291.95421   -243.46059    148870.92   -47630.023     4009.288   -51639.311     0.148054 
  185800    292.02209   -160.63086    148774.11    -47574.32    4010.2202   -51584.541   0.14934276 
  186000    291.28134    250.16739    148206.67   -47561.507    4000.0478   -51561.555   0.15763394 
  186200    294.54538    90.375839    148413.68   -47554.589    4044.8716   -51599.461   0.15478452 
  186400    291.29067   -316.57954    148983.65   -47501.388    4000.1759   -51501.564   0.15528699 
  186600    291.45668   -64.331351    148665.14   -47535.771    4002.4557   -51538.226   0.14819072 
  186800    291.49287    341.60734    148080.28   -47561.262    4002.9527   -51564.215   0.14812877 
  187000    292.96581     2.352559     148547.8   -47534.635      4023.18   -51557.815   0.14967958 
  187200     293.1127   -396.58826    149071.12   -47551.394     4025.197   -51576.591   0.15318455 
  187400    294.43224    73.287266     148472.3   -47538.295    4043.3177   -51581.612   0.15446546 
  187600      290.411    389.55568    148046.88   -47578.479    3988.0957   -51566.574    0.1533568 
  187800    290.64811   -133.93192    148736.36    -47568.48    3991.3518   -51559.832   0.15213014 
  188000    294.10425   -307.50153     149023.7   -47540.015    4038.8136   -51578.828    0.1510304 
  188200    291.46268    206.34261    148293.21   -47531.999     4002.538   -51534.537   0.15554484 
  188400    293.21283    280.87553    148171.98   -47521.053    4026.5722   -51547.625    0.1565577 
  188600    293.37164   -294.87444    148898.51   -47527.206     4028.753   -51555.959     0.156748 
  188800    291.89394   -212.59304    148814.28    -47538.45    4008.4603    -51546.91   0.15005777 
  189000    291.66513    302.36613    148112.07   -47530.727    4005.3182   -51536.045   0.14845925 
  189200    295.55726    186.11106     148306.8   -47535.263    4058.7673    -51594.03   0.14636442 
  189400    292.48175   -289.65011    148885.98   -47496.462    4016.5325   -51512.995   0.15554418 
  189600    294.68432    -92.08077    148678.54   -47510.352    4046.7794   -51557.131   0.14866445 
  189800    290.32187    230.90811    148271.63   -47548.882    3986.8718   -51535.754   0.15010193 
  190000    291.03473     59.10628    148492.79   -47582.192    3996.6612   -51578.854   0.15117952 
  190200    295.71024   -165.40905    148777.03   -47556.009     4060.868   -51616.877   0.15291304 
  190400      292.629    5.1983762    148567.86   -47553.793    4018.5546   -51572.348   0.15212541 
  190600    291.38078    126.52169    148383.61   -47497.107    4001.4133   -51498.521   0.15519506 
  190800    294.19278   -31.408441    148602.93   -47531.006    4040.0294   -51571.035   0.15297919 
  191000    296.02509    -65.63483    148686.97   -47543.972    4065.1917   -51609.164   0.14519258 
  191200    293.20702    63.002439    148469.96   -47537.832    4026.4923   -51564.325   0.14683609 
  191400    293.47972    37.912383    148450.46   -47563.287    4030.2373   -51593.524   0.15301983 
  191600    290.11151    -44.48548    148685.01   -47517.378    3983.9829   -51501.361   0.15147799 
  191800    293.26548   -122.72085    148677.85   -47552.473    4027.2951   -51579.768    0.1563575 
  192000    288.49923    98.376654    148411.22   -47551.625    3961.8422   -51513.468   0.15577747 
  192200    292.13406    69.419996    148444.82   -47522.223    4011.7578   -51533.981   0.15958114 
  192400    292.32893   -105.84178    148718.59   -47528.511    4014.4339   -51542.945   0.15372425 
  192600    296.68346   -67.513586     148623.6   -47560.047    4074.2329    -51634.28   0.14786359 
  192800      291.052    185.02486    148342.83   -47534.397    3996.8983   -51531.296    0.1503586 
  193000    292.68557    47.510463    148504.96   -47525.047    4019.3315   -51544.379   0.14567834 
  193200    296.86394   -131.91801    148772.39    -47478.45    4076.7114   -51555.161   0.14606646 
  193400    291.22592   -20.457718    148565.64   -47479.625    3999.2867   -51478.912   0.14462216 
  193600    296.32704    173.70108    148320.73   -47493.042    4069.3383    -51562.38   0.14956029 
  193800    295.95199    2.3577503    148582.68   -47542.375     4064.188   -51606.563   0.15255041 
  194000    289.83787   -168.48785    148767.11   -47568.079    3980.2252   -51548.305   0.15088314 
  194200    290.67578    77.529125    148444.11   -47553.273    3991.7318   -51545.005   0.15721696 
  194400     294.3567      163.827    148302.26   -47534.266    4042.2804   -51576.546   0.15306874 
  194600    289.62543   -106.87509    148666.05   -47559.023    3977.3078   -51536.331   0.15667126 
  194800    293.76002   -139.40869    148750.19   -47544.296    4034.0864   -51578.382   0.14849266 
  195000    290.10109    138.58251    148359.29   -47526.623    3983.8399   -51510.463   0.14898104 
  195200    294.35556    156.82644    148374.01   -47512.413    4042.2648   -51554.678   0.14893356 
  195400    292.01271   -192.01186    148811.45   -47514.532    4010.0914   -51524.624   0.14878687 
  195600    293.66324   -143.87896    148720.36   -47519.568    4032.7575   -51552.325   0.15125257 
  195800    292.20049     251.5654    148270.22   -47564.504    4012.6701   -51577.174   0.15150538 
  196000     292.7677    104.59268    148452.31   -47536.643    4020.4594   -51557.102   0.15714045 
  196200    293.64385   -294.87097    148944.21   -47523.252    4032.4912   -51555.744   0.15500528 
  196400    290.89536   -47.845682    148689.96   -47522.498    3994.7473   -51517.246   0.14948192 
  196600    290.69889    297.09608    148194.88    -47589.16    3992.0493   -51581.209   0.14999191 
  196800    287.63196    53.040545    148504.83   -47580.454    3949.9323   -51530.387   0.14972314 
  197000    289.40561   -338.67604    148978.81   -47589.536    3974.2891   -51563.826   0.14640643 
  197200     286.0097    14.194015    148526.97   -47645.345    3927.6545       -51573   0.14427464 
  197400    291.28477    425.33591    148058.84   -47602.729    4000.0949   -51602.824   0.14224676 
  197600    288.52062   -89.654239    148711.34   -47517.551    3962.1359   -51479.687   0.14895823 
  197800    294.74139   -447.32898    149173.95   -47503.016    4047.5632   -51550.579   0.15083332 
  198000    291.32371    165.91914    148339.19   -47533.316    4000.6296   -51533.946   0.15296646 
  198200    288.64052    451.52822    147961.79   -47558.259    3963.7825   -51522.041   0.15475756 
  198400    293.63305   -268.60816    148942.98   -47487.874    4032.3428   -51520.217    0.1545981 
  198600    293.74804   -452.28586    149145.57   -47475.025     4033.922   -51508.947   0.15936806 
  198800    294.18048     389.7598    148061.41   -47508.482    4039.8605   -51548.342   0.15316905 
  199000     294.0718    339.05096    148077.55   -47516.708     4038.368   -51555.076   0.15317879 
  199200    293.70919    -433.0977    149112.09   -47509.569    4033.3885   -51542.958    0.1526041 
  199400    291.55353    -242.9271    148889.84   -47520.125    4003.7856    -51523.91   0.14904281 
  199600    291.82572    399.00326    148065.78    -47542.74    4007.5235   -51550.264   0.15368548 
  199800     295.0293    129.48933     148404.8   -47524.105    4051.5169   -51575.622   0.14449154 
  200000    291.03622   -324.99121    149011.69   -47542.296    3996.6816   -51538.977   0.15098778 
Loop time of 111.963 on 6 procs for 200000 steps with 4608 atoms

Performance: 771.686 ns/day, 0.031 hours/ns, 1786.311 timesteps/s
97.9% CPU use with 6 MPI tasks x no OpenMP threads

MPI task timing breakdown:
Section |  min time  |  avg time  |  max time  |%varavg| %total
---------------------------------------------------------------
Pair    | 78.33      | 78.793     | 79.518     |   4.9 | 70.37
Neigh   | 12.587     | 12.78      | 13.197     |   6.7 | 11.41
Comm    | 9.6887     | 10.191     | 10.853     |  13.4 |  9.10
Output  | 3.0806     | 3.082      | 3.0879     |   0.2 |  2.75
Modify  | 5.745      | 5.8366     | 5.9124     |   2.9 |  5.21
Other   |            | 1.279      |            |       |  1.14

Nlocal:        768.000 ave         785 max         754 min
Histogram: 2 0 0 0 2 0 0 1 0 1
Nghost:        1396.33 ave        1410 max        1379 min
Histogram: 1 0 0 0 2 0 0 2 0 1
Neighs:        0.00000 ave           0 max           0 min
Histogram: 6 0 0 0 0 0 0 0 0 0
FullNghs:      21875.7 ave       22414 max       21433 min
Histogram: 2 0 0 0 2 0 0 1 0 1

Total # of neighbors = 131254
Ave neighs/atom = 28.483941
Neighbor list builds = 12619
Dangerous builds = 0
write_data		data.${NAME}
write_data		data.ice_292K_1atm_ML
System init for write_data ...
Total wall time: 0:02:45
