LAMMPS data file via write_data, version 29 Oct 2020, timestep = 200000

4608 atoms
1 atom types

-0.08795876026029603 53.48795876026257 xlo xhi
-0.12329649925282382 51.030416499250464 ylo yhi
-0.12329649925282382 51.030416499250464 zlo zhi

Masses

1 18.015

Atoms # atomic

2188 1 10.261342824840305 47.00761389545589 2.702157874062094 1 0 0
4161 1 0.6169364379668664 49.259289361462024 3.9380096463593457 0 -1 0
1904 1 6.902649156597216 7.864649934913824 1.4306661236510312 1 0 1
904 1 1.6251165093446922 28.18447425677839 23.925960855581437 0 0 1
1928 1 1.9611643895444235 10.658254708318475 23.516489815598277 0 -1 0
4402 1 5.075954585013229 17.16106564910953 25.39742334570633 1 -1 0
4565 1 2.475578030992563 1.2060821927194143 1.937331386732076 0 1 1
4245 1 2.5272720631130703 4.579663590390962 1.4749994438155738 1 1 -1
2401 1 0.003543173049377915 19.95346107581417 5.683412363707411 1 1 1
3252 1 13.751923383064687 3.855568647613563 3.826721744816346 0 1 1
4186 1 14.18386611009199 9.863117209947017 8.799376920401391 2 0 1
3532 1 1.321760267100389 40.1051149322995 23.173331118940297 1 0 -1
2626 1 9.789758454525709 13.415225529810535 0.16845188339850137 -1 0 0
2863 1 13.205453325501036 34.2343805419318 24.970055292568986 1 -1 -1
3372 1 12.633563188337174 7.52669502030544 2.1099142635498125 1 1 0
2494 1 -0.07408040870209641 44.894012138498255 15.229517882592987 0 0 0
320 1 12.390182352614623 26.482873171709947 21.36965238507243 0 0 0
3877 1 2.4468324202058205 7.324213038964946 2.5393922335444827 1 0 1
3340 1 4.026046980771947 10.81323277490195 1.6327487632420512 0 0 0
3054 1 5.823181478066303 11.045923284899194 4.266274481278716 1 0 0
3281 1 0.19142431777886398 30.540919787322075 22.684602507875613 1 0 0
4078 1 2.6231605350283758 16.727866368433993 3.10607172411705 1 0 1
2012 1 2.3762983053922753 24.00516105858695 23.177490212878084 0 1 0
2230 1 2.344056136354003 17.481447204145933 5.69152356437124 0 1 -1
2160 1 5.087676195595111 46.439060255103726 23.695219897806147 1 0 0
3916 1 4.87040649968628 13.681782240597974 3.7097390470774596 1 0 1
4235 1 6.519940096388681 15.235959710653676 2.1223747455248843 1 1 1
1976 1 0.24175155060473708 23.89346002963103 17.75473535591035 0 -1 0
3737 1 15.330774312384872 27.200736914229275 22.08226619805178 1 1 0
3665 1 1.5315348915621283 18.462864374649936 1.56947390778118 1 0 1
3107 1 -0.0842436184737636 47.41709364951303 18.947600787320233 0 -1 -1
2967 1 1.1138088717092152 20.733992302321635 3.2078160607674326 0 -1 1
772 1 6.18867013442894 17.482739429981496 3.9908573270830257 0 1 0
2269 1 17.215722708308814 8.691431257983513 24.840461729639305 0 0 1
1850 1 16.87189555494115 16.723098479958978 1.1745497844218915 0 0 0
1506 1 12.599927925948666 13.968129653051772 0.4853289821525437 -1 -1 2
2222 1 15.784650850577544 16.67083557713386 4.0701458920540405 1 0 0
896 1 3.4485064134862617 22.684824007981703 2.4295542464552216 0 1 1
2069 1 12.544101816956774 16.631275860586456 1.615855832411284 1 0 0
2442 1 0.8948926444155025 41.95979053176071 2.504720528237411 1 -1 1
3360 1 2.190156481330177 24.759179949032852 3.1381694587981737 0 1 1
4518 1 10.738856642103158 49.776637353331296 1.7769484892197764 1 0 1
3177 1 9.158051966874176 24.659356433197797 0.522398605352464 0 1 0
3738 1 12.002302280357874 23.66672812244902 1.4559409452036411 0 0 0
2799 1 12.648640321559233 23.081520452218513 4.178002276620585 0 -1 -1
590 1 6.646510710568436 7.281761224220238 25.018168851792336 0 0 1
3705 1 13.19814193217838 26.899076578814704 1.1939229274414824 0 0 1
4237 1 0.3914077870193614 26.415026620835828 1.4275538185284082 1 -1 0
860 1 2.8705335743573546 36.077546772294674 24.19987268744404 1 0 2
2251 1 2.3922222220789555 26.707065068715977 21.945424156253168 0 0 0
3307 1 17.270448715403013 26.63712267776565 2.4990558515605676 2 0 0
2029 1 12.860366731896047 28.14263524107694 23.790156355241965 0 0 0
3135 1 0.7042929618706777 47.524423383685274 16.227931948350946 1 0 0
2100 1 2.0273297035645808 28.89241550508046 2.70847459984051 1 1 0
3171 1 5.650637169106206 27.40676838983431 2.96948233331506 1 0 1
3521 1 9.65840311728529 27.30388200178907 1.2113099234525215 2 0 0
237 1 0.8523841439569708 37.18975837635148 9.870528949238196 0 0 0
3903 1 0.31538834955140616 47.67799698266555 12.32373003641362 1 -1 1
2234 1 14.926536353522046 31.60755688306565 2.2096441642314484 0 -1 0
788 1 0.8492117914929863 41.62223003432298 13.424926845020002 0 2 0
622 1 14.517801124952275 0.08761198058384259 0.3648576831439321 0 0 0
1973 1 4.41017058019176 44.81137520704604 0.7198041659484175 1 0 0
839 1 17.215626623422327 28.21608635561225 15.638603935701601 0 -2 1
1291 1 0.8095672758362591 13.372832631546968 4.104680072557067 0 1 0
4408 1 5.710436054441569 2.4469592485723077 24.91406949234674 1 0 0
323 1 4.76354972848074 37.56522256938479 1.422229264211698 1 0 0
1420 1 1.0255305181591015 27.531949134567828 17.95639201708772 2 0 0
1602 1 1.8115987883092053 40.897514168075205 19.513446828877317 1 1 0
3242 1 14.889790174838204 35.53642562777408 3.1691585821822126 0 -1 0
1115 1 17.40323765775888 12.502315724153537 11.198673964954608 0 -1 1
131 1 10.987888024952518 49.610360075697294 25.23130906567935 1 -1 0
969 1 13.588985860201376 6.6074566146055504 24.236091076681948 0 0 1
3675 1 -0.003486018450601591 48.80313535691308 7.801931381238708 1 -2 0
3227 1 0.9606927873940263 25.89125697467885 15.428953946067443 1 0 1
3205 1 8.707149834864 11.559695980878454 24.01082016222124 1 1 0
2551 1 11.717075333374488 38.35535644710376 0.7520343175610738 1 -1 1
433 1 10.023006404136092 21.15066607822204 2.583046091333834 0 -1 1
2952 1 2.8219854685457464 48.53816122975295 5.919450705612599 0 -1 1
3940 1 13.506836674036194 42.66446249500495 3.991454133361257 0 0 0
2088 1 0.4087126129006939 46.9315266318512 22.98659345309161 0 -1 0
3920 1 1.6601263464216431 16.991961694109165 9.637480525980106 1 2 0
4300 1 16.23086415874181 42.97728128923814 0.46360999882813314 1 0 -1
3062 1 0.25064183852162064 37.258441043355944 23.490775781956785 1 -1 -1
4208 1 13.141331174848029 24.160093261075755 25.112775931870093 1 1 0
253 1 5.863511917894353 47.146152011088404 2.4674402091896708 -1 0 0
1877 1 2.859000147243271 3.116937209132623 25.16338147778604 1 1 0
1925 1 8.101191851379705 0.09905038763413906 1.588645848811211 -1 1 0
2710 1 2.5444259745720017 40.881064368500866 0.43525384113848753 0 -1 1
1746 1 0.5458673279921238 37.61725709529892 7.1198406756600425 0 -1 0
2700 1 0.8301356491567707 27.73306972882104 5.03696403417309 1 1 0
1045 1 6.8625722656488435 27.289862353246065 0.548481826958011 2 0 0
3642 1 1.7136932787620442 47.17535267655053 0.9980786596497944 2 -2 -1
204 1 8.019460907322992 42.888993393035555 1.275473412819778 1 -1 0
64 1 11.828197942351416 1.0897116179707957 0.32737678447062624 0 1 1
804 1 9.101254455666218 50.42864974369072 4.662346290622684 0 0 1
176 1 12.722080873164781 50.29849544933728 3.7595965259337096 -1 -1 0
1849 1 15.361115492305913 50.29692447433839 3.0670656272171124 1 -1 1
365 1 6.6493593490864855 50.88633469490449 24.458250136842913 -1 -1 -1
4139 1 16.480066695998556 33.61539787865117 19.481562096341108 1 0 1
461 1 4.779236766704235 50.97639890572873 1.2449363429117783 0 0 0
3120 1 6.351264919517481 0.15790570149340083 3.9810015936812038 1 0 1
3441 1 7.7789872302225165 5.625938429889274 3.7604362737463948 1 0 0
750 1 12.030405488938678 1.5050311616473488 8.60320948316554 -1 1 0
1251 1 15.298047388613947 4.253118843483573 10.612975870340815 0 0 1
1568 1 5.260642150726992 4.834588757890372 1.3006440070341787 1 0 -1
705 1 0.919143967105047 35.8381754875431 2.963434789886863 0 0 0
1171 1 9.408486395583093 4.761473940100606 1.5750257306416413 0 0 2
9 1 8.926333009749376 4.73607355186589 6.094475637654468 1 0 2
556 1 14.67902015388636 5.959965655756265 5.642256648216391 1 1 0
755 1 6.301180957572324 19.625207245681363 -0.0716208065493629 0 -1 0
1600 1 2.6585985449478557 6.70838768901239 6.414138571557433 0 0 0
1333 1 6.962394770620168 9.002729223948878 7.990265969275452 0 0 1
1814 1 7.367162433996861 8.49415311891538 3.9619543830278765 1 0 -1
1712 1 4.791433937283045 4.981607335173145 4.451156274834814 0 1 0
673 1 11.238548986653946 5.669404262853947 3.682490750480557 0 0 -1
2030 1 9.971271596498397 9.464146321573612 4.443779369873731 0 1 0
1834 1 11.46990857945637 10.107198791217435 2.1570591581351857 0 0 0
3730 1 1.4618462090209816 8.939546831030082 5.291623551058801 1 0 0
3772 1 12.041340316744835 31.648564761402568 25.040292970676667 0 -1 0
3734 1 5.231099461096791 7.7714228753042764 9.671468818312551 0 0 0
3390 1 8.999454744441758 13.88794652264372 3.0219250876059247 0 0 -1
221 1 5.153365691388699 15.31906278283629 6.199162777637563 0 0 0
3883 1 0.3696883409718339 12.446424672317137 12.37278377995308 1 0 1
635 1 12.793407969702612 11.69398236943109 10.546501182400688 1 1 0
2062 1 13.630091490568018 11.958951444047452 1.9642061994086748 0 1 1
3328 1 0.6764540467835347 45.70045486250192 9.86085370159978 1 -1 -1
3323 1 1.417687140906378 10.673400121353733 3.129731712923034 1 0 0
1384 1 8.50293426514784 11.902395385022153 4.827670380598325 0 0 0
2049 1 9.140745201070283 13.960136780547582 7.733798196141625 0 1 1
301 1 10.601186342831955 11.11990881008007 6.975876114661246 0 0 1
1463 1 0.004834014610040072 30.37514181597756 0.021709567915065536 0 0 1
2874 1 11.776390592340773 13.9309228171338 5.885298942057991 0 -1 1
1026 1 -0.033272525372038474 29.434748911751566 10.592014001236771 -1 0 0
4135 1 5.144592350513214 11.142803218972563 7.00996352571278 1 0 0
1670 1 4.8296487894573525 18.81294837954872 6.212233695369593 0 0 0
929 1 11.368542033301729 15.842210392649642 3.8616100773790594 1 0 0
893 1 2.842730579986861 13.308874898209046 6.076757704668528 0 0 0
2330 1 2.2769213755686106 19.44573016243181 8.090963173624807 1 0 1
547 1 7.357579404983397 19.947726892734842 2.4601607860655768 0 0 1
77 1 9.513599310841357 18.111197122211895 4.420781644778089 0 1 1
2682 1 12.012222864706771 20.21374525519925 3.997895786945361 1 1 1
4463 1 15.533271837845902 21.50798815929294 1.1351809240651045 -1 1 -1
220 1 3.9859439200703255 25.658373304332045 4.723179953441573 0 1 0
3113 1 5.944582474922879 22.23746070585081 3.550688571359054 1 0 0
3410 1 12.918335356837316 25.091061451467354 6.82909460333292 1 0 1
1922 1 12.57769434355059 27.39504666612283 5.740906653598837 0 0 1
1778 1 6.544885406376462 29.570687304620275 4.304916119924689 0 0 0
1616 1 2.1938961459655095 26.241335670549457 7.238882769089487 1 0 1
3548 1 7.795225866117957 27.68167660356213 5.91236186102478 1 2 1
1099 1 9.886109513375535 27.03279303669621 4.393709805191411 1 0 0
33 1 13.098191289799638 30.989985281970487 8.851124761912487 0 0 1
4087 1 0.15194307686073502 21.16667940665957 17.302816264647547 1 0 1
2914 1 10.12568423647073 20.609483999331722 24.68533158565211 0 -1 0
3568 1 5.38803521907466 30.946805050700736 6.612019067402679 1 0 0
2759 1 8.802359349035406 29.699208899844738 2.657176182263081 0 0 1
4448 1 11.624778271318224 29.719222531004586 6.893142163286631 1 0 1
2965 1 15.131935921404523 29.00367460810348 8.359267753074889 0 0 1
3527 1 2.03035901066908 13.895641540219678 23.618260993725315 1 1 0
819 1 14.289861194114474 16.128649092294363 24.22988270645133 0 0 1
514 1 2.515810442415341 31.700551947329583 2.3974051917365387 0 0 0
1589 1 7.109085861150602 30.991745162754373 0.5698561158534111 1 0 2
2767 1 9.198991653210376 33.472679060007735 5.987379164912795 1 0 1
4246 1 10.268268312661808 31.1615183949321 4.640495518913737 2 0 0
2276 1 14.231715200797922 28.499759034785278 3.7349270687056917 0 -1 0
842 1 15.772041755338108 30.043920727083783 5.708944668689995 0 -1 1
1323 1 12.753664737726067 20.43938510923819 23.38739159383586 -1 1 0
2718 1 0.6521600920768127 33.58132780723222 1.4882851683369955 1 -1 1
718 1 3.2325729674367922 37.33496432521082 3.6476015215920414 0 0 -1
15 1 8.465832370577566 34.08816715360809 1.2072291480819353 1 0 0
2932 1 5.184980969377194 34.9704555091656 3.0767046206661908 1 0 0
502 1 9.716308960347245 37.19779015678695 2.9930357105586576 0 -1 0
2770 1 12.828707660921944 35.05626682250708 4.877777517834739 1 0 1
1465 1 0.13500011000290915 42.609961755058116 22.08157441044438 0 -1 0
840 1 6.329367029401271 28.721293405598065 25.0819796257073 1 0 0
2886 1 1.7792039806028008 47.797839302699344 20.537551567765277 1 0 0
2898 1 7.738216370400552 37.12140375025766 5.014977452639148 -1 0 1
70 1 16.849301193432012 39.97557425741522 1.8419445745888943 0 1 0
1666 1 15.139283501120538 38.62416452069314 3.7107673423782037 -1 -1 -1
1243 1 1.439791939088547 38.299613334021544 1.0036875791261348 2 0 1
2271 1 1.7927077981646349 42.40910568163277 6.6534235139585265 1 0 -1
2379 1 5.312292058325118 40.19539720194253 0.8518174058470278 -1 0 0
3102 1 8.87254072614527 39.84621218187771 1.4762093364574285 2 -1 0
1434 1 16.301709779827323 43.29583160501708 3.3677708435816376 0 -1 2
1815 1 10.948732348288539 41.386652471191226 8.184613235886358 0 0 1
3932 1 0.5739890248339343 38.140310328908896 13.359292546887731 1 0 0
2798 1 12.078056270627808 31.750045366811044 2.512762022539321 1 0 0
3223 1 8.030872424434914 45.30997890550359 2.827256704715971 0 -1 0
1574 1 6.05607973747104 41.62991638237249 3.2330538426012376 0 0 0
1566 1 12.04245542507757 44.64124973576821 2.294774978479488 0 0 0
83 1 15.38076398759726 43.14199544486457 8.130725053788824 -1 -1 -1
616 1 17.328600705360806 49.06631223105834 5.328042557560469 1 0 0
2634 1 1.053218523284784 10.767882867671785 20.65904499946432 0 0 0
4575 1 0.05897658460650951 45.70311643492189 5.2034492468311235 1 -1 1
3024 1 2.444773995863812 46.677693011744914 3.5564140312759593 0 -1 2
3817 1 7.567429644771794 48.14229618408277 4.633050005890292 1 -1 0
3228 1 14.906658296807967 45.332588256438164 9.527708997004524 1 -1 1
2418 1 0.8488033570758543 44.7313145286726 12.68232747514519 0 0 0
4536 1 17.467654095988433 28.676517235427262 0.4952926636430234 0 0 1
2113 1 9.891025940350984 1.8759977540599904 2.5330720063991525 0 1 0
214 1 13.570585450921117 46.63033870497353 3.529601872789491 0 0 0
3305 1 11.876723819031026 1.5882921078933943 4.6775544433537934 2 0 0
2166 1 16.02470271827803 48.23746098955297 9.361865306761036 -1 -3 0
1055 1 16.570180302561177 6.4773829463078085 10.428841846288393 -1 1 2
746 1 10.187826459735165 2.030090181200239 6.860284628671196 0 -1 1
3352 1 10.39718944723531 3.6315535208276266 10.524213170921835 0 1 0
669 1 10.886685433369863 34.2358861412103 2.511013187286581 0 0 1
2361 1 3.547324462246286 2.4094347679839987 5.925909092441469 1 1 0
626 1 2.2744173283853706 3.690972795276761 9.601199465776764 0 1 1
4022 1 5.722334730439699 7.242970433587654 5.831424930897121 1 1 0
2950 1 6.662762939898562 5.036921837557076 7.594255474637769 0 0 1
1635 1 7.743455336689896 9.106421978427553 12.32302196561449 0 1 0
3828 1 9.59711445746044 50.09404629947255 7.8382771049003 1 -2 0
4283 1 13.953612433153863 4.058427935246472 8.239875646405288 1 0 1
1325 1 1.7012581305294616 6.767226942913869 9.044812300288836 0 2 0
3042 1 7.424924383000597 5.896706990374038 10.45962761107332 1 -1 2
285 1 12.744037663700901 7.793757758714146 10.352197017138263 1 0 -1
3038 1 10.735693102045015 7.128148534800194 5.9527543978025586 1 0 1
1414 1 13.022322781819804 6.873823862015667 7.6710003577968395 0 0 0
4404 1 2.529590248148161 8.303931524403238 11.576240314336106 1 0 1
340 1 7.221897056968573 11.722770249766448 10.793499177966513 1 1 0
658 1 14.149129086840796 10.02205562386749 5.861885529193526 0 0 -1
392 1 0.653579025838056 2.1710810817010016 16.94093562943451 0 1 -1
4271 1 3.1494703191254176 9.778594347160997 8.257591597613368 1 0 0
94 1 8.97974562679194 15.313696210554843 10.23826033701409 -1 0 0
917 1 8.18887219388782 16.37711928278188 6.295045920080867 1 2 1
3776 1 12.175296817247526 15.603509816670831 7.973076476285904 -1 1 1
3150 1 16.19984969567686 14.049484291380208 5.196349542082219 0 0 0
465 1 6.586072877250199 17.85453144067895 8.257778395351435 -1 -1 0
3610 1 5.593821412339328 16.484188484418368 10.556722340490552 1 1 0
531 1 4.971929891810276 20.54228537089799 10.719220105292987 0 1 -1
2407 1 10.290522373626116 17.489436994489576 8.18981821564398 0 1 1
314 1 12.554970250438396 19.462496593283515 8.753876783810165 1 1 0
948 1 14.355514096317972 17.861682240600462 7.577667614913088 0 0 1
3648 1 15.814055147556378 34.66073052604603 23.99741154010392 0 -1 0
3721 1 2.995447274440497 21.73635763547052 8.96629556111537 0 0 -1
4451 1 7.676770957709552 20.52183764931028 7.566704593763423 0 1 0
3751 1 5.538798154068827 21.690159651731378 6.197481501400637 0 0 2
2007 1 9.230201101332385 23.973654244200674 3.669130294119497 0 2 0
3133 1 13.467905537841666 17.79752353845193 4.748343668609918 -1 0 0
513 1 1.916950079463914 33.67836950734764 23.194171459262247 1 2 0
1521 1 0.9763369463822005 23.444040314440667 5.661334676289352 1 -1 0
1542 1 6.64139636985857 24.68305203979454 4.411299511663518 1 0 0
1722 1 10.495920118162456 22.867790468824996 6.446486740559149 0 0 1
3491 1 10.485301116239363 19.99540319994278 6.587003351692772 1 0 0
1471 1 14.663592324921602 24.816339928407267 3.298097888882468 0 0 0
2135 1 17.13677513643442 41.56899496916658 13.203388864775297 1 -1 -2
1020 1 3.543712625545377 27.669561757175398 9.064855977968847 -1 0 0
3924 1 5.175046908056353 25.242387553722207 9.394821991274366 1 1 1
2730 1 14.849923710301317 20.716726798160007 3.607304562305653 0 -1 1
3822 1 14.432892859386788 50.9166816698473 9.175277569258762 1 0 0
1458 1 7.413009719578245 32.62584361433971 7.611511404819555 1 -2 1
1473 1 9.796717829722592 28.368177494426718 8.512275428950785 0 0 0
1348 1 16.287275087219555 26.98167867271995 5.317208991968267 0 0 1
3483 1 14.625513557285714 41.09126124859271 19.38618067201435 1 0 0
3943 1 2.9570593103698495 37.83916654298459 11.753644159904795 0 0 0
4449 1 16.67749347853857 12.5080341184048 7.772306989394315 1 0 1
311 1 7.2319497713826175 29.70235681521096 8.775863481514936 0 1 -1
1622 1 13.781260519995149 26.566176098368604 9.189165723852186 1 -1 -1
731 1 14.968030111506943 32.6859233463211 7.8623757627012125 0 0 0
1219 1 17.206054039572614 30.734497148128273 9.327567613097324 0 0 1
2516 1 9.62729151194137 28.533839788841483 24.91196380650048 0 0 0
4365 1 15.587730742537078 13.448102302045523 20.174484417310406 0 0 1
4522 1 3.64407844107702 39.72185591243815 4.687326918754067 0 1 0
106 1 7.7326398491773185 34.50510010610275 3.874704267913568 0 0 0
1785 1 11.144064214408463 34.37103792987585 8.323958166277004 1 -2 0
4192 1 13.574490432268018 31.964156736528018 5.2239715455305324 2 -1 0
1043 1 13.730224077953988 35.2489905721692 7.355202415154989 0 -1 1
1703 1 0.18208411489880633 42.868165837976456 17.53332907417135 0 -2 0
1167 1 6.704932247009361 39.85651946138112 5.220101081370359 0 -1 1
3322 1 11.222151408788804 38.52369024820451 6.915978493215411 0 0 -1
1328 1 11.947606726602007 38.104212493386854 4.519620748945497 0 0 0
2935 1 3.0702277638375053 42.554878167083984 3.777674879937126 1 0 1
1418 1 5.815160415226473 40.00774277804137 12.268827638866465 -1 1 1
1503 1 6.969005700463727 40.32945847169356 9.395016495613522 0 0 0
738 1 12.295348686731819 40.081046757748574 10.425930607104451 0 -2 0
3186 1 15.249255986069482 41.137441765041714 9.859865000133288 -1 -1 1
890 1 4.376084050472095 44.94075803707005 3.773642854923386 0 -1 0
3047 1 8.25482061751898 46.4315792558793 6.8399335811235105 1 -1 0
955 1 12.584375909246695 45.26754805432329 6.522946068817864 -1 0 0
2649 1 6.6861738472102425 44.139810368083 5.208221549643066 0 0 0
2473 1 13.06529793163602 42.53110013372951 6.694102326699438 1 0 1
207 1 2.4320148105006236 13.964465979410145 2.076311501685757 1 1 0
3251 1 1.762068732439173 46.328176443788585 7.388575238235715 0 -1 -1
1082 1 3.4379573480640846 0.2018326875215164 4.641025565645459 0 1 1
2558 1 10.812715534308749 47.03714490402267 5.445884184729748 0 -2 1
3991 1 15.73497975902047 23.225122444816556 18.410424833133646 0 0 1
2960 1 16.13408426737212 39.233235395286144 23.759047321050872 1 -2 0
1194 1 5.589947083510781 2.4064724056261286 7.63705792084467 0 -1 0
3485 1 5.7316001839884985 49.39995759377341 6.40354185082565 1 0 0
3239 1 7.386214629084576 0.7706361164540244 6.939248685597088 1 1 0
209 1 11.983573277881643 49.43664363774516 6.6764420326564835 -1 -1 -1
817 1 15.463367368847857 46.651963965040146 6.158661698564364 0 -1 2
961 1 17.139079989359193 36.84907316831162 11.503264795019478 0 -1 0
2785 1 0.03473005895519013 12.529714815259156 0.24697933723789733 1 1 2
3118 1 4.513542778463278 2.41423324493576 10.163147055746151 0 0 0
3219 1 3.0935307233610496 50.62031235172315 10.304809694174248 0 0 0
2309 1 7.136350562683562 48.98408966152583 11.588359059829799 1 -1 0
4012 1 9.02095898864689 3.28792242902705 12.786086404898402 1 1 -1
2031 1 12.755187411705368 5.167453660169641 11.412482158614408 0 0 0
3031 1 15.706501595951103 34.10319529386135 0.7341375308654233 0 0 1
523 1 0.11243622063288067 20.42283512806277 14.451887656295312 0 0 1
3838 1 6.392909604244381 1.4160475303431925 13.277412809744177 1 1 0
1875 1 8.720450262003382 6.3170867480307615 13.058868654806924 1 1 1
963 1 9.749053953580098 5.599547646718395 8.826305586853712 0 0 0
3824 1 13.736045259958436 3.7239309532424527 14.444269749747425 0 1 0
1563 1 15.692641876626533 6.239552298460563 14.737538494835132 0 0 0
4229 1 4.953867697311259 8.618410438101646 13.025870472764035 1 0 0
4038 1 6.060493110442124 3.690659309322112 11.85203581116876 1 1 -1
2233 1 11.535414478541309 9.860324741558687 14.078821622064241 1 0 0
4220 1 13.54189502907858 11.930515486357164 14.604541734440744 1 0 1
136 1 15.099041228840989 8.242643586496019 11.922862460270672 0 0 0
4429 1 17.67575611886583 11.723182500774271 14.30596363193612 1 2 0
4403 1 4.272434076573764 10.979522511195121 10.607289924243247 1 0 0
1995 1 8.908467103750398 10.259204339148452 9.273895675268095 1 1 -1
1128 1 8.83927060067549 10.77172131419438 14.587803820179206 -1 0 0
3492 1 10.76324149814326 9.33571889846193 11.207024283504703 0 0 -1
141 1 15.015384663721548 11.247081770463613 12.195800159861037 0 0 1
1801 1 6.287376432125734 13.283137538564459 8.531582120013987 1 0 -2
4154 1 2.743382429214713 11.398220597978515 13.134642450263945 3 0 1
1406 1 4.597199573011902 13.210530179209574 13.384154268115736 0 1 0
4172 1 7.266963500908839 14.358362655728698 12.321356757267054 1 0 0
1246 1 12.459231356014346 19.317822084016885 11.602609544781897 0 0 0
1106 1 11.75325232575366 14.420139573865427 10.801284232028468 1 -1 1
3170 1 15.039444682552658 14.33012866782568 11.065578339262732 0 1 0
1057 1 3.8608003675822467 46.29919356844733 19.130139936585206 -1 0 0
1033 1 3.817026923226671 18.269975986246475 11.236046711229486 1 1 0
1543 1 9.234861345720857 16.876640596061407 13.197961966299994 0 1 1
2825 1 10.472898738609217 20.755298391937476 13.231947269265405 0 0 1
2983 1 14.37206768974747 9.369746791249693 24.030858354790716 0 0 0
2336 1 15.961499903679684 21.08120813036841 23.025124165675855 0 -1 0
1939 1 7.983706115187202 20.514981724214785 10.281487357438944 1 0 0
1686 1 11.170153383814153 24.02479743419432 10.651730462092173 0 1 0
4492 1 7.640054323341598 31.908697991556757 24.523929581568865 2 -1 0
2270 1 4.623492566465287 20.87638205789683 13.369060456930331 2 -1 0
294 1 1.0427071636871794 24.83759674776437 12.269117677393515 0 0 0
146 1 7.1706299686410855 25.414302208595906 7.494066893468234 1 0 0
14 1 11.034265857376232 26.813064707485527 10.56369478109549 -1 1 0
2656 1 16.36520855872339 25.2336823653749 9.108819832566093 1 0 1
4501 1 3.810483067670144 40.37565939135164 21.555278567569864 0 -1 0
3869 1 3.613684468525195 23.589091759652515 7.219863734154274 1 0 1
1117 1 5.89440261554472 25.178764618448593 11.921694598097227 1 0 1
2949 1 7.127734898085943 23.02561607267924 13.246724243587327 1 0 1
2228 1 9.628601807118445 24.954001176481945 7.977330681443988 0 0 -1
1342 1 12.714026311570889 22.663696688247082 8.685686814817185 1 1 2
2090 1 17.42793164492078 49.21314444125314 0.06454223073811866 1 0 1
3792 1 1.9567317639475634 30.16085176665336 8.679918529376323 1 1 0
25 1 1.5627317906364915 34.684383048630025 9.295963330000268 0 -1 1
3336 1 1.6742231855372656 34.57200627689762 6.437969832737493 0 0 0
4606 1 5.624698466768255 32.04671930004206 10.96479446863458 2 0 1
698 1 10.073177844101478 31.278426419684585 12.694280932925318 0 0 -2
350 1 16.051797738786643 31.7741526618224 12.196459120625091 0 -1 0
919 1 3.5099867987793294 32.53047868102354 8.526143395703338 0 0 0
3361 1 9.306311075199252 31.908499566903387 9.728733830604238 1 0 1
318 1 11.311544062901898 34.11414823480504 13.164325769018909 1 0 0
1743 1 14.171566887232917 34.02047353053223 13.324509678414117 0 -1 1
829 1 15.99762954543419 27.231084139443954 11.610895470788275 0 0 1
3329 1 2.802580138418225 31.93347473215487 5.412375328800919 2 -2 0
792 1 5.7478159666153825 34.557666396918336 8.536587238286002 0 1 0
4417 1 2.8359921167821427 39.5063062247447 7.332065489887769 1 -1 -1
1433 1 7.386020435476164 37.416982693619914 8.724474644180939 0 -1 -1
2162 1 10.891583285986325 35.86080110410978 10.783746165904391 0 0 0
4082 1 15.010256389763711 34.90646985075362 10.601134679091988 1 0 0
1160 1 5.323833469580206 37.61582082733507 6.964215789472985 1 1 2
2368 1 14.869214409611926 14.74072485953691 8.353284724319009 0 0 1
2118 1 9.609092582295714 36.39542697779113 7.085875303594289 1 -1 -1
4263 1 6.706551952168236 35.68753506002542 11.014165905128571 0 0 1
3159 1 16.13643700854919 36.42162893387004 7.4783482538705615 0 -1 1
3937 1 10.956691443867156 37.05520584531996 16.8634304149495 0 1 1
1085 1 14.642739901172968 37.81171382437879 12.588349153740955 -1 0 0
3862 1 17.681374984574134 9.0678292872668 20.25623813789729 1 0 1
1858 1 2.529755862843959 41.853138199325855 11.127574945861358 -1 0 0
3058 1 1.0718196207426225 42.94020342191552 9.22181058005766 1 0 0
3842 1 4.862965475700879 44.45958190039468 7.551799442349189 1 0 1
2254 1 9.246561869464221 40.99733825817585 11.79004483510159 0 0 0
555 1 11.113007031604175 42.89751081967999 10.93151399878369 0 0 0
1598 1 1.440474422596459 31.01038354813957 16.1344020542585 0 -1 0
2423 1 14.628522522366628 40.88562909010104 12.656168011440613 0 0 2
2924 1 7.793223568417168 41.986977842170056 7.122010283172464 0 0 0
4500 1 4.587975583756187 47.26871010057561 8.346714812061624 1 -1 0
2719 1 4.475139968516205 43.73514536956475 11.281832010362253 1 0 0
3346 1 7.617029598607713 44.22836303366919 9.047491543411546 0 0 0
4520 1 10.247172643816896 46.88771058023315 10.47328799059573 0 0 1
455 1 17.121610750085956 45.42058772144725 11.191960053699454 0 -1 0
1756 1 10.110743911348417 18.15621980522268 1.1544063766409756 0 -1 1
1302 1 7.834287066004896 48.356064535303 8.86248225434425 0 -1 1
3106 1 10.595649008371954 44.78431907346519 8.523149344005644 1 1 1
3505 1 13.192295616590902 47.55488883026012 8.20229492329673 0 0 0
284 1 9.115916041832223 21.0958520258928 21.71332618842309 0 1 0
4285 1 5.7383822647250495 36.141886325879604 25.00786917404891 0 0 1
2783 1 1.1786356756167577 3.9417241934304554 12.230635626612685 0 1 0
1807 1 0.6106864262219105 -0.004699717577107618 9.19528724860341 1 0 0
3967 1 12.230533498703272 48.853561798615445 10.461250075924328 1 -1 1
49 1 15.58741877571756 1.3042806967580656 11.588529263302668 0 -1 0
2036 1 3.281237432959939 2.0657777002823283 18.43840052475518 2 0 1
2032 1 4.444718219821583 0.17738757534023664 16.85817130096502 -1 -1 0
164 1 8.34504281945588 51.00049687995583 17.309010187065187 -1 -1 0
3552 1 6.269122869750509 1.7344970133664455 15.815522793088046 0 1 1
567 1 9.872994339844306 1.7775428529405979 15.39346877538976 -1 1 -1
4284 1 12.54028916275693 0.5575411858140706 15.525211613088802 0 -1 1
4277 1 6.908245464667588 10.666655969183248 0.13101357125063762 1 0 1
3256 1 1.3964897914642787 49.16232919594427 24.44934434985492 1 -1 0
4407 1 15.764430560066163 47.254619723942305 2.001277580319416 1 0 0
2005 1 2.5273247156587395 3.187427748891523 15.009402785464284 1 1 0
617 1 4.766374965155007 3.9455109174703233 16.1718132433443 0 0 -1
1659 1 17.464859257440725 1.3359071626769778 15.163604961830783 -1 1 0
905 1 2.249415135081569 6.355776226859263 13.355589337665366 1 1 0
1185 1 0.6209130600020112 5.694407835836476 15.888462901586777 0 0 0
2267 1 4.983229653384309 5.63948952558695 13.929976608227175 0 0 -1
3035 1 7.612943025590972 6.151086852922873 15.78325209030401 0 1 0
1039 1 10.574991148454433 7.51407120676731 15.259847055255824 0 0 0
3575 1 13.045983092558599 6.8540926825745 13.666181379027405 1 0 0
3875 1 2.34775867372252 10.123237741660267 15.735459828274236 1 0 0
2690 1 5.228711019576146 9.396145141369193 15.914058108396986 1 1 1
1711 1 5.349760183719496 6.943156780750504 17.498489897223912 0 0 0
2033 1 12.105517031464299 16.426461566234792 12.569060187629095 0 -1 0
1120 1 11.072906406826204 12.80958976648515 15.606188468453281 1 2 0
477 1 12.626158759607277 35.64165916354088 0.6891422030549915 0 -1 0
2265 1 16.007829498897525 13.98749478883226 15.141182184959339 1 0 0
4324 1 5.250093622307697 43.53952938789263 24.799612233169494 1 0 0
3789 1 1.0657719093266083 14.184301160048161 16.05199507898355 1 0 0
3274 1 5.804487443857825 12.275080615603501 15.66421141378888 0 1 1
931 1 8.174314343579045 13.686291490991621 14.868567122670402 -1 0 1
2061 1 14.765298382219575 16.002476545865196 13.289946178815853 0 1 0
2668 1 4.161227621170572 13.968409099492574 10.673293616001626 0 1 1
219 1 10.905071822263544 15.5686181719101 15.433909807927371 1 0 0
3749 1 9.565931781569619 16.545242790385362 17.467596648481038 0 0 -1
3013 1 16.85921438089752 18.158162332235012 12.269028999084824 -1 0 2
2969 1 14.826388228376638 29.217184259380293 0.4128246233822257 0 0 0
1001 1 2.7831656495501598 19.36900630921739 14.886845572931344 0 0 1
3142 1 6.6787493912202445 20.211553381021485 15.154318480931478 1 1 0
902 1 2.87428436870315 17.13869037783697 13.550617123566354 0 0 0
964 1 9.612709005488368 18.308511773544893 10.888307052727825 0 0 1
1023 1 6.0924404304843875 16.454914703053806 13.705627732691777 0 -1 1