LAMMPS data file via write_data, version 29 Oct 2020, timestep = 200000

4608 atoms
1 atom types

-0.06119230493874994 57.33170230493867 xlo xhi
-0.054393159945711034 50.961513159944275 ylo yhi
-0.054393159945711034 50.961513159944275 zlo zhi

Masses

1 18.015

Atoms # atomic

5 1 1.788993621134983 1.4550763825535524 1.7250610210267618 0 0 0
3 1 3.2419341440005094 50.71861005378912 3.168666106977753 0 -1 0
13 1 8.2364574685573 1.6230103852536126 1.7606440012586804 0 0 0
945 1 6.257466462300914 44.88036350490322 25.390421516482117 0 0 0
21 1 13.956107423904724 1.0805851304468799 1.7443625473604865 0 0 0
313 1 -0.044932751713204766 31.92010642357096 6.494692881457338 0 0 0
1633 1 18.968881973196908 25.33657802768664 0.3649823008422774 0 0 0
8 1 4.758150157432488 4.960570598025982 1.5210054217589803 0 0 0
1609 1 18.912309696998694 18.755095823273816 0.12431706920118446 0 0 0
16 1 10.960004371843885 4.501996445626262 2.187904322400554 0 0 0
43 1 16.0079782726945 6.333122887910677 3.5404174565764204 0 0 0
24 1 17.40791489968364 4.868626891347117 1.6011864636133348 0 0 0
29 1 1.6910899994239401 7.710992882443414 1.9548678503525312 0 0 0
37 1 8.093198563354711 7.571198869535439 1.264690974906831 0 0 0
35 1 9.572300099264803 6.490503450774381 3.24552932972139 0 0 0
45 1 14.498249373866257 7.77893347111708 2.0398443084338287 0 0 0
122 1 0.10894327338454846 34.86811905810753 3.122969150943761 0 0 0
41 1 12.619209975743939 6.27151695628128 0.4317242253492776 0 0 0
32 1 4.8454765708939025 10.953030661646308 1.471133871285188 0 0 0
51 1 3.229126072658641 12.700497761428975 3.2302813451745718 0 0 0
40 1 10.895875319692866 11.002025548634633 1.7994149564531112 0 0 0
828 1 9.357240359725079 15.713111618570453 25.143514191700394 0 0 0
48 1 16.937747352420708 11.054580132799034 1.6406940249913289 0 0 0
53 1 1.6485085509655264 14.192079840857476 1.2805378490457469 0 0 0
61 1 8.154917785594419 14.133831866999644 1.398323348966396 0 0 0
69 1 14.1216854717236 14.245849205678093 1.8089797135426748 0 0 0
929 1 12.20924696479844 37.88436915804831 25.34680763999032 0 0 0
554 1 -0.011534869122689577 47.887269095107406 15.738132069055661 0 0 0
595 1 16.232171004579033 0.33925963171763873 22.31792817256192 0 0 0
56 1 4.398340294735139 17.139757951300286 1.6859439156139497 0 0 0
75 1 2.8775021668729193 18.739601744022487 3.181782868335659 0 0 0
64 1 10.915547939895712 17.1005457322285 1.7519147342117654 0 0 0
169 1 -0.0008670565217004378 44.83318796722061 -0.01491312035433831 0 0 0
72 1 17.16750943849534 17.0622641814732 1.8157663024062403 0 0 0
77 1 1.7010007567195522 20.865810236616426 1.6219777184799842 0 0 0
82 1 5.883134753976092 22.304911871639018 3.0046920541286997 0 0 0
85 1 7.685546347029882 20.541847997004933 1.6360063394948148 0 0 0
674 1 0.22005434450212202 28.747593966629463 22.170187406366882 0 0 0
93 1 13.956448072081736 20.456945112634497 2.023600611641072 0 0 0
506 1 0.14661141246286802 35.42394251380006 15.805295939687742 0 0 0
91 1 15.79190645636996 19.07132592775458 3.22299825876705 0 0 0
80 1 4.735161306618813 23.73691376447704 1.1497219707233381 0 0 0
88 1 10.86234472307893 23.73547387836427 1.4053886801681106 0 0 0
193 1 0.2635371855230262 50.86151084391587 6.284460363906909 0 -1 0
96 1 17.480753566969298 23.69037454330214 1.8597113944555483 0 0 0
101 1 1.5594538369481363 26.555503246610947 1.5368423280100647 0 0 0
109 1 8.008662113592651 26.974890042042674 0.9481855402065418 0 0 0
106 1 6.426954015295413 28.352715286497425 2.894060884963666 0 0 0
107 1 9.521430293577591 25.528743146042515 2.576423332910647 0 0 0
117 1 14.18420160690201 26.718468006642585 1.633976749465641 0 0 0
766 1 14.32074677220815 49.60966612276604 23.600562974791472 0 0 0
115 1 15.952871909757146 25.402275973142217 3.5683314046427705 0 0 0
104 1 4.4718032256980145 29.976965147350604 1.6673225996671677 0 0 0
112 1 11.232681188739992 30.029700606977634 1.223086471395579 0 0 0
785 1 12.625587329412717 0.07239778623361143 25.411957200730704 0 0 0
114 1 12.78275068114216 28.443141272682286 3.042107437940073 0 0 0
120 1 17.822735445889045 30.139595656302347 1.4390559125021287 0 0 0
123 1 3.06474352210638 31.796739313332665 3.206387033715992 0 0 0
125 1 1.3121113397062534 32.91768075971036 1.5774493444934872 0 0 0
130 1 6.5683626657716445 35.01443675004737 3.204304450018223 0 0 0
133 1 7.812034043249721 33.54138858022675 1.4461320022574897 0 0 0
12 1 9.641376064129675 3.2464881450255376 -0.04035969774349935 0 0 0
131 1 9.965060810731172 31.910237132807072 2.9505554395202176 0 0 0
98 1 -0.02426438997339396 28.468093396204225 3.08781585762617 0 0 0
141 1 14.446271415065997 33.40537571384202 1.2544825717675623 0 0 0
147 1 3.3555305774362236 37.924932212400265 2.972340787368385 0 0 0
128 1 4.783673949601269 36.316318983560606 1.271880470209237 0 0 0
155 1 9.799253362062528 38.20488304391376 2.523931242957204 0 0 0
136 1 11.446172168531582 36.58083005203583 1.2214333805274065 0 0 0
144 1 17.570569555093112 36.47107006905687 1.2385741577761145 0 0 0
217 1 0.06269626554756588 6.686382494117046 6.1869906449434895 0 0 0
149 1 1.7106040265322757 39.64539380388453 1.5422170187126767 0 0 0
157 1 7.564970970313811 39.451419619081896 1.4518314854810546 0 0 0
457 1 0.1967782022474256 19.531453791192114 12.540811001869907 0 0 0
163 1 15.7699533518591 38.05309256057368 2.9994324113902184 0 0 0
165 1 14.21475756178271 39.85944344957814 1.2394212013163415 0 0 0
745 1 0.2890179132299015 44.896627620376776 19.034673859033457 0 0 0
152 1 4.630187684845954 42.658990223008274 1.924306622556744 0 0 0
171 1 3.0968766832233765 44.587416215246584 2.894339521048808 0 0 0
154 1 6.187460536169181 41.149812507448246 3.3756167406556172 0 0 0
179 1 9.852776310285043 44.497793421274956 3.1275673900523357 0 0 0
162 1 12.937561653849048 41.65277823991007 2.476937641524366 0 0 0
160 1 11.039025043161363 43.11356459476746 1.2819103120992112 0 0 0
168 1 17.377279127172496 42.998335392740344 1.542248775380533 0 0 0
173 1 1.8051510788449399 46.495522080624745 1.3980910152927701 0 0 0
194 1 0.027143904052297205 3.3151928858878144 9.581154329885994 0 0 0
181 1 8.350183424880125 45.98562867020141 1.59216053164458 0 0 0
189 1 14.576606606945177 46.5429428317507 1.3978857565782183 0 0 0
187 1 15.912668887499173 44.7678536802324 3.013283336771169 0 0 0
481 1 0.23574778356034193 25.51111346668413 12.365316361409675 0 0 0
289 1 0.2538812035403811 25.53101576644186 6.401875754104355 0 0 0
176 1 4.953554556334697 49.48774246561264 1.1378919517475252 0 0 0
184 1 10.881872490789318 49.3087961852117 1.6258492944720655 0 0 0
192 1 17.529177208090474 49.55887265149792 1.0875478576139117 0 0 0
7 1 5.122327745020226 1.728080215286767 4.5083779204947865 0 0 0
10 1 6.609280151147631 3.2377206979361057 2.8545354803232565 0 0 0
15 1 11.193655316733985 1.504701472801419 5.191628375611293 0 0 0
204 1 9.50903510083637 2.997679411485104 6.671618642393215 0 0 0
18 1 12.87288785512786 2.920433681815096 3.5268528148474383 0 0 0
23 1 17.469661917512482 1.353590591935878 4.441921976588969 0 0 0
844 1 3.1677772910865287 22.145164025819653 25.336982788870497 0 0 0
6 1 1.7845541961243327 4.991476683552793 4.728584850428395 0 0 0
14 1 8.115852165545022 4.652296387297739 4.969344641055204 0 0 0
225 1 6.3237178550064845 6.013262425022758 6.583608023822366 0 0 0
233 1 12.595543524606935 6.4547899902741825 6.566655920973312 0 0 0
22 1 14.534281112088967 4.649854890018418 5.208725265743091 0 0 0
27 1 3.713472220392787 6.516972930974567 3.3679268038908368 0 0 0
31 1 5.127354144642303 8.005493293843253 5.011888021393325 0 0 0
34 1 6.728290974692857 9.463883695018838 3.076754889359924 0 0 0
39 1 11.193427515702497 7.9408351850420535 4.908556677255877 0 0 0
42 1 12.689957834313052 9.549488881217075 3.293418454705417 0 0 0
236 1 15.791124812594942 9.384999717169839 6.243261345097745 0 0 0
47 1 17.585836085522278 8.193013840458429 4.838516433032877 0 0 0
758 1 8.402775236128758 49.13471337715129 23.774769569458705 0 0 0
754 1 6.507198558390265 47.82501819111236 22.12126726447022 0 0 0
30 1 1.6086489254146938 11.125809218375567 4.815312732952294 0 0 0
38 1 8.421557535381018 11.043008729355842 5.004853565663159 0 0 0
67 1 15.708210082852267 12.612006418643729 3.5727745006978746 0 0 0
46 1 14.040634806653806 11.050490651443534 4.946110489167518 0 0 0
180 1 9.435332566501796 47.66601141201427 0.042393817977620485 0 0 0
55 1 4.8337331233910605 14.018230088726797 4.982379367569533 0 0 0
59 1 9.77141923739054 12.701662344570938 3.287038839274413 0 0 0
63 1 11.212462103740709 14.424840477041736 4.947196155118715 0 0 0
66 1 12.766110485434636 16.002835691137598 3.53328022589346 0 0 0
71 1 17.82900229130878 14.16042401882866 4.816000895409048 0 0 0
54 1 1.1798691853402108 16.91215662200722 4.552954720428294 0 0 0
244 1 2.998207374158806 15.790446626920078 6.409592986240889 0 0 0
58 1 6.31260728797535 15.511051911681262 3.1097694098866238 0 0 0
62 1 7.812772629490038 17.09022464337499 4.724148782489583 0 0 0
273 1 6.204722026933647 18.87490969416536 6.165876392329908 0 0 0
83 1 9.472971866683885 18.93993689264489 3.178359193778012 0 0 0
70 1 14.421468826713841 17.669498382987793 4.987725807918414 0 0 0
281 1 12.762439358142162 19.13552363353572 6.390122031979401 0 0 0
79 1 4.650176800733221 20.525768648028986 4.9741753588008 0 0 0
268 1 3.3326603233862646 22.13552759218771 6.603923694062144 0 0 0
87 1 10.69898914195151 20.87050625975599 4.940029157641717 0 0 0
276 1 9.508713102682318 22.317911623369582 6.750754504703658 0 0 0
90 1 12.41355202239088 22.410354750864574 3.1222221429178276 0 0 0
95 1 17.224222353219574 20.71115514683776 4.634542378132541 0 0 0
78 1 1.6730281844109225 23.72449156554802 4.74086087411458 0 0 0
20 1 15.71189746995797 2.961479929386348 0.11837581070404346 0 0 0
86 1 8.026096854068056 23.37100622767 4.256068042132765 0 0 0
94 1 14.10300344064082 23.75111300879659 4.743586960096899 0 0 0
99 1 3.201521264304767 25.29996447780929 2.9797146966659223 0 0 0
103 1 4.823748317190266 26.833043860763446 4.674923123651647 0 0 0
297 1 6.421490403379838 25.44027393897626 6.156877202726863 0 0 0
300 1 9.187221549533064 28.90463391612356 6.190740142275092 0 0 0
111 1 10.730764495632044 27.054684155106006 4.666432414551818 0 0 0
305 1 12.642043590749928 25.735570651307505 6.4987304752350274 0 0 0
119 1 17.83758847297989 27.10943328053779 4.462107717674026 0 0 0
89 1 12.316445011942116 19.005831181185965 0.4051674608928637 0 0 0
102 1 1.1852800294905783 30.0603536777974 4.715237684360924 0 0 0
292 1 3.2731708762876517 28.6569216379256 6.052028497358303 0 0 0
321 1 6.524202576161708 31.702409704518672 6.129536047113305 0 0 0
110 1 7.9833228329524655 30.434940711945465 4.2288704626384925 0 0 0
118 1 14.460994108115571 30.33371841111125 4.390361586251538 0 0 0
308 1 16.155971660323402 28.84372089287973 6.113590804442922 0 0 0
956 1 15.762303491305376 48.134226925413955 25.403696440981495 0 0 0
127 1 4.963739058358757 33.49028686011707 4.82054419388453 0 0 0
324 1 9.716666844515714 35.141660538272845 5.9951917128665295 0 0 0
135 1 11.340999777970708 33.46282375960444 4.529326002024602 0 0 0
139 1 16.297131947658244 31.846820928861874 2.9230720432739714 0 0 0
143 1 17.75946395438248 33.164855690059106 4.532007572302246 0 0 0
126 1 1.565494270150475 36.56897998667936 4.615832740811708 0 0 0
345 1 6.361159477405444 38.23615672203084 6.389511798080473 0 0 0
134 1 7.987232231131401 36.9902810868023 4.620021734123754 0 0 0
138 1 12.811287013798886 35.07842577257226 3.040781949784163 0 0 0
142 1 14.236529586254354 36.4535397998284 4.7250526630650365 0 0 0
151 1 4.458593551959155 39.63094191394913 4.8818814391547525 0 0 0
353 1 12.557235435550947 38.19940057901605 5.972792916455808 0 0 0
159 1 11.341475683078091 39.98132152791276 4.09347541328995 0 0 0
167 1 17.14826124539544 39.30303706957224 4.662024776622521 0 0 0
150 1 1.4679281761001841 43.08941920171335 4.705197774945539 0 0 0
340 1 2.942768235332001 41.47387840879992 6.301241059971126 0 0 0
158 1 7.707218937028024 43.03150775933811 4.327852569324249 0 0 0
166 1 14.059447362851731 43.199156098453656 4.419169733647501 0 0 0
377 1 12.60237408205345 44.40542170098803 6.150979085478501 0 0 0
175 1 4.615107037037138 46.240676434617285 4.690877500451783 0 0 0
364 1 3.1391635197705594 47.557494522476304 6.162564924571643 0 0 0
178 1 6.504327759679189 47.74357152478702 3.2002731621376 0 0 0
183 1 11.264836608442256 46.334237218844834 4.414577407002837 0 0 0
372 1 9.758175232015121 47.70799032053499 6.314787075727443 0 0 0
380 1 16.278230411491553 47.87193440159651 6.422024394964452 0 0 0
191 1 17.705011621311385 46.23057913680909 4.60382152613718 0 0 0
750 1 1.095600673198124 49.65300922539276 23.91500226171082 0 0 0
174 1 1.7361655837882846 49.162775158148996 4.664126190139846 0 0 0
201 1 6.60936801659852 50.85435598853861 6.195936084736625 0 -1 0
182 1 8.16355843815748 49.11617518781252 4.854957610472766 0 0 0
11 1 9.58370698076402 50.90508763494471 3.817438190385069 0 -1 0
186 1 12.811724903168836 47.90416314971947 2.962879911065239 0 0 0
190 1 14.305126566704446 49.26658471488096 4.745819537314764 0 0 0
19 1 15.935743229737913 50.926577980793894 2.867085775822307 0 -1 0
197 1 1.6683385828648678 1.5920237194956635 8.040461361032586 0 0 0
205 1 8.009521039837121 1.316489613562464 7.9870218763901555 0 0 0
202 1 6.2142011640143435 2.7041469538261054 9.580525304855685 0 0 0
213 1 14.650737648391983 1.3489644544352555 8.309757988226425 0 0 0
212 1 16.22798831059262 2.839889363360125 6.653544337110508 0 0 0
410 1 0.05518625206992456 9.221536155486742 16.029970064166807 0 0 0
196 1 3.2364148409605384 2.8381377160330836 6.273567586798588 0 0 0
200 1 4.765363806839321 4.519266314696798 8.145987130579618 0 0 0
219 1 3.3142640837098214 6.2034283948448365 9.707417722889343 0 0 0
208 1 11.230889313169548 4.557913843080805 8.109871007016038 0 0 0
235 1 15.974746365873422 6.304178638252681 9.639037114227452 0 0 0
216 1 17.512218553411333 4.950337514099526 7.9112372027546 0 0 0
897 1 5.808238991051941 31.646377795357573 25.14307116740429 0 0 0
221 1 1.714464971340881 7.849523850467302 7.996823427237958 0 0 0
220 1 3.3819622865973327 9.619641616393992 6.592291625919966 0 0 0
229 1 8.091732896772564 7.83711600084624 8.035045886486207 0 0 0
228 1 9.772226316046844 9.351162841397073 6.689599565813429 0 0 0
237 1 14.32861553663022 7.7692902018025585 8.152359462472734 0 0 0
234 1 12.766101092353912 9.558688760296036 9.894465436366342 0 0 0
224 1 5.06045269373124 11.389244921188626 8.164414945350691 0 0 0
249 1 6.92846343929415 12.824618045140344 6.5661159186229785 0 0 0
232 1 11.164696153778486 11.115141908851085 8.063072836395198 0 0 0
257 1 12.689104821191535 12.655890793585181 6.334893828695898 0 0 0
240 1 17.441060335139145 10.6412076067837 8.003407019586756 0 0 0
26 1 0.227142505970791 9.543470685234832 3.324163799651623 0 0 0
245 1 1.3135228629599718 14.051282357338277 7.590684410144749 0 0 0
250 1 6.455775648652657 15.930089731763701 9.444973282962767 0 0 0
253 1 8.272872396511515 14.44178769559988 8.29822270736498 0 0 0
252 1 9.821090968076772 16.067348359644978 6.555755760180002 0 0 0
261 1 14.309195655247049 13.907503506828707 8.172060556864333 0 0 0
260 1 15.909997772024813 15.696635713759921 6.512600123899065 0 0 0
248 1 4.538053702174004 17.54367250908897 7.916066042942052 0 0 0
256 1 11.547917262504873 17.47211272478456 8.200524424841557 0 0 0
275 1 9.683232496452472 18.913547743448653 9.873478925958343 0 0 0
264 1 17.315665733227508 17.6031128865572 8.068549057526724 0 0 0
269 1 1.361600904785672 20.44187682644641 7.710654720356895 0 0 0
277 1 8.010880526771272 20.28970915564218 7.893238964625545 0 0 0
274 1 6.355350945822939 22.165793017649367 9.374184097278416 0 0 0
285 1 14.163370160229675 20.525797084601148 8.293981205318154 0 0 0
284 1 15.570142953404492 22.09077020973125 6.466925206938876 0 0 0
283 1 16.066994809706667 19.245306570449632 9.615196496653905 0 0 0
272 1 4.889240346612355 23.892936603087932 7.725611303412553 0 0 0
291 1 3.4055198202022847 25.531062673715034 9.507822994323583 0 0 0
280 1 11.068079496066751 23.964959269622003 8.028144546718735 0 0 0
299 1 9.315636915174531 25.59661732431046 9.417101535590946 0 0 0
282 1 12.43031345842375 22.104136697944618 9.507190876927302 0 0 0
288 1 17.124497280169717 23.64518194773142 7.986924010011556 0 0 0
2089 1 19.001213655699708 44.54468189494105 12.689673675336463 0 0 0
293 1 1.9359982218166876 27.288252359087956 7.943452341282677 0 0 0
301 1 7.819291775836091 27.026732015817863 7.9408602858516675 0 0 0
298 1 6.325399062042574 28.48862487856956 9.356565291464005 0 0 0
309 1 14.457748152229358 27.31113575425796 7.8896661339517165 0 0 0
307 1 15.905756786844416 25.75304008022296 9.688734588444808 0 0 0
315 1 3.318898750337081 31.625712841102782 9.51267001909804 0 0 0
296 1 4.857272341424258 30.200508353675232 7.754703952208787 0 0 0
323 1 9.547704937175464 32.13563479704595 9.590726601673595 0 0 0
304 1 10.873323756112871 30.574144673009293 7.653222813772408 0 0 0
312 1 17.630200001306832 30.064456872602232 8.064892537174783 0 0 0
317 1 1.5631722026657642 33.318402867006505 8.023135271139147 0 0 0
316 1 3.0562753467327544 34.949907419731275 6.434778374007476 0 0 0
322 1 6.557433945249017 34.94863729612288 9.423899403062267 0 0 0
325 1 8.20011929830083 33.520693976148685 7.464615202858278 0 0 0
329 1 12.941240751649751 31.649444237426376 6.191334320925418 0 0 0
333 1 14.292424689951773 33.56116496566943 7.406933728908098 0 0 0
331 1 16.062958865585674 31.965365800904678 9.233040234578663 0 0 0
530 1 0.005847433407475594 41.76978174518857 15.89114120946011 0 0 0
320 1 4.848372205206392 36.72347823725935 7.893007715453592 0 0 0
339 1 3.2273732631782512 38.53096215697021 9.240182901633057 0 0 0
328 1 10.934055853945722 36.79632393124282 7.57593430111341 0 0 0
347 1 9.452424403355197 38.40229552895492 9.20317078617266 0 0 0
332 1 15.950530180202922 35.05184071373405 6.129723658405376 0 0 0
336 1 17.842508828298683 36.70700591115313 7.912948933219182 0 0 0
433 1 0.16939030646300768 12.532665263159208 12.476464804369954 0 0 0
341 1 1.338358044275548 39.82989022927265 7.674514095591449 0 0 0
346 1 6.285626543537169 41.52723014790593 9.362658515983872 0 0 0
349 1 7.711797816427955 40.00784782594133 7.667488147675004 0 0 0
348 1 9.258006524051774 41.29489583947294 5.76507427280354 0 0 0
357 1 14.259066901049204 39.73788818354285 7.735815542489214 0 0 0
356 1 15.631261246471 41.352854224053736 5.924773956178573 0 0 0
354 1 12.724496020790495 41.2494925750449 9.238350338282672 0 0 0
290 1 0.2528123789622065 28.79414046770257 9.25261497170191 0 0 0
344 1 4.951750914215426 43.04086535942208 7.898735178275963 0 0 0
369 1 6.544640449763218 44.704471465653995 6.274040453854115 0 0 0
352 1 11.132529526490544 42.57743026191245 7.544357495509661 0 0 0
360 1 17.25650966477573 43.008091069191025 7.5204025470646085 0 0 0
379 1 15.568740359978861 44.222849484093516 9.170907369570406 0 0 0
365 1 1.3878657301088986 46.22347165925979 7.819607900403625 0 0 0
370 1 6.0935139228124 47.7067135120486 9.741498465205469 0 0 0
373 1 8.013878937061945 46.01397050872037 8.290533712232657 0 0 0
378 1 12.772622015570077 47.65786542826487 9.765875623891699 0 0 0
381 1 14.219602118823088 46.07686999298255 7.795334461118375 0 0 0
195 1 3.186142108764205 50.57143013087538 9.273217675486162 0 -1 0
368 1 5.02546076722962 49.11117037526857 7.655383346382682 0 0 0
203 1 9.72716954793599 0.05631089367749659 9.483955848233595 0 0 0
376 1 11.367489954756758 49.26330820305553 7.8608245768731075 0 0 0
209 1 13.027290609760964 -0.040962831225591856 6.5231365677159046 0 0 0
384 1 17.632319463030093 49.583286693563345 7.9162046457283965 0 0 0
199 1 4.453806498929935 1.3084244173063078 11.234315916608223 0 0 0
388 1 3.542457456218867 3.0074811801670034 12.999335698866926 0 0 0
393 1 6.710157947317343 -0.011594387080002377 12.97267339321987 0 0 0
210 1 12.986622632139783 3.3542965291199147 9.902502543917587 0 0 0
207 1 11.32736747290288 1.470666614872577 11.335675483929606 0 0 0
404 1 16.140524879777786 2.9295093272121457 13.126819411303964 0 0 0
215 1 17.768643421267722 1.5350541804541045 11.366701467163434 0 0 0
198 1 1.9339055641968252 4.268525952875721 11.15672067749272 0 0 0
227 1 9.640947380239277 6.287853044755155 9.586146872848587 0 0 0
206 1 8.017329525664891 4.409392537305979 11.258067762546542 0 0 0
214 1 14.538680140614126 4.6792313264526095 11.58721849007874 0 0 0
92 1 15.697120787331968 21.92551480017253 0.2256822847528812 0 0 0
223 1 5.218728000141815 7.8153838288631094 11.437514803153265 0 0 0
226 1 6.69128191183315 9.548830699081657 9.772832154375 0 0 0
231 1 11.13981562735056 7.931195360907126 11.221379102963803 0 0 0
420 1 9.647470892188707 9.595046926693705 12.870216489580217 0 0 0
239 1 17.75007896488232 7.923362375174461 11.58501549571225 0 0 0
1994 1 18.763487862774674 22.392838516808098 16.014778992341004 0 0 0
222 1 1.7104966372233028 10.884630111443455 11.064491336465759 0 0 0
230 1 8.240750041883311 11.378949913526988 11.256742973966421 0 0 0
251 1 9.815466007965242 12.95459322276955 9.699193455484282 0 0 0
238 1 14.409151920091306 11.204623481431492 11.400367196839156 0 0 0
767 1 17.390695570951785 46.25755992534197 24.012458717464202 0 0 0
243 1 3.00404867137097 12.777618948137484 9.32420129649395 0 0 0
247 1 4.713158438309121 14.36660428504922 10.864493273349312 0 0 0
258 1 13.105746979404124 15.754102001655134 9.544594262805656 0 0 0
255 1 11.65641430744178 14.523407573060446 11.418346151913859 0 0 0
259 1 15.995129534668585 12.498614230924138 9.596682835844986 0 0 0
263 1 17.35460322884766 14.399607239655303 11.003632827095215 0 0 0
721 1 0.05269799624665694 38.70046243975633 19.30928953269004 0 0 0
246 1 1.1847749146011157 17.358000919819006 11.249579930615774 0 0 0
436 1 3.245300820627125 15.99913898276807 12.623471774297807 0 0 0
267 1 2.5542153872091484 18.748467013251133 9.435961460728615 0 0 0
254 1 7.747241197511198 17.399231710198453 11.181880050798558 0 0 0
262 1 14.803411702736437 17.552967202132617 11.362892736926174 0 0 0
473 1 13.128505967064967 18.855551266866364 12.911520447696025 0 0 0
452 1 16.155016578161117 15.91335011540849 13.07594409206763 0 0 0
271 1 4.414279626412169 20.604039486632434 10.826977919455013 0 0 0
460 1 3.1323377848420146 22.238563328761987 12.708012100441884 0 0 0
279 1 11.308805169310544 20.479727610000026 11.325814487004333 0 0 0
287 1 17.51018076301607 21.09252812628901 11.33011452348235 0 0 0
270 1 1.7189118904489236 23.952984647788536 10.61647957345209 0 0 0
278 1 7.724478552966373 23.758363820360167 10.970399529167064 0 0 0
489 1 6.146728772253992 25.27741926175091 12.760018363842292 0 0 0
497 1 12.533568116020367 25.69511478868768 12.6283837253986 0 0 0
286 1 14.184191630739955 23.951343662457933 11.092769634708661 0 0 0
484 1 3.107564345450315 28.603435017204497 12.811348826871162 0 0 0
295 1 4.834385844973003 26.94453394339043 11.041576591378918 0 0 0
303 1 11.06518644932858 27.26260498062999 10.562338465646102 0 0 0
492 1 9.621310126680314 28.758057822932766 12.531584443263712 0 0 0
306 1 12.834114250778969 28.928713998208345 9.290311170215446 0 0 0
500 1 16.017963979490304 28.374926234431115 12.552002464292359 0 0 0
311 1 17.821146797304404 26.75197174491674 11.22627602514664 0 0 0
294 1 1.5127976348596368 30.39540090123528 11.201814043416324 0 0 0
302 1 7.961199604619651 30.068051337365105 10.827971320433871 0 0 0
310 1 14.641812899269766 30.156714328845187 10.911951467803434 0 0 0
521 1 12.925921430841214 31.969456295533135 12.453882616533434 0 0 0
508 1 2.8847423193279242 34.991486162719895 12.226092298780591 0 0 0
319 1 4.765973916160312 33.32342976529106 10.937489224346761 0 0 0
327 1 11.035924918506726 33.681053962940446 11.02941934814494 0 0 0
516 1 9.56004402743839 35.56651919243622 12.720448775025094 0 0 0
335 1 17.60030645692404 33.50870845686539 10.952763720204395 0 0 0
759 1 11.025038842412497 46.01652696101824 23.727410900735027 0 0 0
318 1 1.3061925095974263 36.9900100752373 10.953468182925034 0 0 0
326 1 7.896912002261442 36.9538929110539 11.209693738596009 0 0 0
545 1 12.814573093750742 37.98581340725092 12.294770443615297 0 0 0
330 1 12.704047204723123 35.18751035260133 9.006346040543871 0 0 0
334 1 14.39204339639662 36.52935359693323 10.662721949792001 0 0 0
355 1 16.081501925523412 38.1381535407347 9.296435800506048 0 0 0
116 1 16.073757122603 28.347761642706715 0.10860846294170906 0 0 0
343 1 4.571291376907043 39.99961723466438 11.057856603315917 0 0 0
537 1 6.041400095178441 38.18682687957507 12.669173539411812 0 0 0
351 1 11.310456298111543 39.66504294560322 11.057576084041868 0 0 0
359 1 17.401513662822925 39.797582054650114 11.083520750574708 0 0 0
548 1 15.582231583841281 41.12208436478584 12.72913086267162 0 0 0
342 1 1.578169909224955 43.15728872107254 11.013596343097701 0 0 0
532 1 3.243121045067252 41.63034193412238 12.844940879542246 0 0 0
350 1 8.045961001572547 42.81877572489084 11.411780583390524 0 0 0
561 1 6.640807296887133 44.62000512536379 12.928774487302675 0 0 0
371 1 9.75113817981001 44.10285391534283 9.55960884402561 0 0 0
540 1 9.828784304358754 41.067124378086085 12.698127885081856 0 0 0
358 1 14.08220739952335 42.818546571465994 10.796657991119236 0 0 0
218 1 0.18543124597278496 9.204138619760974 9.497486969405216 0 0 0
363 1 3.352178038227842 44.8179763313709 9.486489122646878 0 0 0
556 1 2.8433259108226276 47.67100613926289 12.592902459303573 0 0 0
367 1 4.820466433015623 46.14159315443711 11.33145357809404 0 0 0
375 1 11.191844506221527 46.052923974004365 11.21070616466314 0 0 0
569 1 12.49671104858175 44.30783835886729 12.562854200836068 0 0 0
383 1 17.27290537991933 45.97950617848768 10.808127152132666 0 0 0
366 1 1.2222138455914913 49.14642781805928 10.867577609071327 0 0 0
374 1 7.976205568662349 49.47469327041812 11.083928891738868 0 0 0
382 1 14.369070132506438 49.314437863869166 11.111518868600477 0 0 0
211 1 16.137461005109667 50.89280723277338 9.859615870191917 0 -1 0
572 1 15.890489026423472 47.79271810140501 12.51662778979828 0 0 0
389 1 1.2801811534843663 1.6745770864257072 14.238337435748644 0 0 0
396 1 9.742693146239434 3.1100321829856825 12.859320560445372 0 0 0
397 1 8.2107249164426 1.6122139178378034 14.624120476667066 0 0 0
405 1 14.543638702470773 1.241992994741497 14.589323614469388 0 0 0
820 1 2.989488687069035 15.723307720224742 25.403209148772838 0 0 0
747 1 3.2429542072689173 44.65406121839121 22.1590101195926 0 0 0
751 1 4.74193846181609 46.414189482976425 23.777647293739562 0 0 0
392 1 5.130534532035943 4.483402954308083 14.630778409335093 0 0 0
417 1 6.685737548276938 6.255566312484671 13.065351713183196 0 0 0
425 1 12.695289530679311 6.392677056795254 13.105283494089422 0 0 0
400 1 11.004836941796254 4.657772941928887 14.60732409945192 0 0 0
419 1 9.536998090947785 6.322953724840344 16.269531560444506 0 0 0
408 1 17.493831739942333 4.762222260617023 14.541910778106143 0 0 0
413 1 1.7719261884552964 7.6336618038410355 14.78842274224723 0 0 0
412 1 3.2448908040559634 9.160304831504247 12.827859931273297 0 0 0
421 1 7.9915804501160626 8.09542411281177 14.54535661015167 0 0 0
428 1 16.089333382189178 9.779164309568378 13.203953716918921 0 0 0
427 1 15.908570425634421 6.475342724235335 16.21367481928539 0 0 0
429 1 14.41495598828504 7.876709014652776 14.502709193106975 0 0 0
2185 1 18.925077422029826 19.22230622673085 19.1752480461642 0 0 0
416 1 4.634188015372632 11.056054972397664 14.198764106186845 0 0 0
441 1 6.230790500595982 12.770837281254218 12.67545688841953 0 0 0
424 1 11.3722435599794 11.147286638983363 14.69476006769904 0 0 0
449 1 12.894848624485316 12.763582980684154 13.041568039879534 0 0 0
432 1 17.864876828393868 11.356812071713014 14.525980177031679 0 0 0
437 1 1.6426438302473088 14.201066988109783 14.116781286920926 0 0 0
445 1 8.232070077075461 14.196035851768062 14.302784067012443 0 0 0
453 1 14.21049693429076 14.298117962486382 14.596087648368702 0 0 0
451 1 16.16183389712357 12.673530905664135 16.07062768330071 0 0 0
1874 1 18.709679521958368 41.463949588758005 9.352205579827265 0 0 0
440 1 4.743210681026299 17.56397437947922 14.362821110485532 0 0 0
465 1 5.794205299003584 19.045082934670063 12.438615969830472 0 0 0
444 1 9.736669640517514 16.02863426576141 12.701176582886005 0 0 0
448 1 11.238717740745455 17.732578296407915 14.508805782933678 0 0 0
456 1 17.467646805197536 17.941714172688073 14.46846375152939 0 0 0
461 1 1.710213180687856 20.835080422661125 14.290518825222682 0 0 0
469 1 7.495404668897693 20.740802431131858 14.141825767809687 0 0 0
468 1 9.238706264449279 22.226358116333635 12.502989528368614 0 0 0
477 1 14.274198857779865 20.71279028865018 14.353276073210088 0 0 0
476 1 15.676405474345673 22.6079042676814 12.714105132173245 0 0 0
409 1 0.5116565982051355 5.990425285932781 12.63226407473785 0 0 0
483 1 2.7858351803810666 25.40703782691144 15.845307762534269 0 0 0
464 1 4.6319090258710895 23.94023491367526 14.556476353571062 0 0 0
474 1 12.318416243860009 22.380114473645826 15.909060904639322 0 0 0
472 1 10.793172406635263 23.846198451343287 14.315939058908388 0 0 0
480 1 17.406508815362628 24.104059833883653 14.293552681691494 0 0 0
485 1 1.300769379851722 27.07620503399199 14.400501502344262 0 0 0
493 1 7.870530500840411 27.170632815081678 14.148009571053576 0 0 0
491 1 9.500072134944366 25.705659989878505 15.86650528634624 0 0 0
501 1 14.196545709224909 27.074027464412072 14.40974660907668 0 0 0
742 1 14.137757507368901 43.21709143086418 23.75083281302372 0 0 0
488 1 4.910635264654093 30.260243520494186 14.05429146131234 0 0 0
507 1 3.528386424468116 31.79296645733005 15.671519724726467 0 0 0
513 1 6.421345061900112 32.01329545672429 12.538620152002652 0 0 0
496 1 10.874455511220104 30.682820845992957 14.228650822097503 0 0 0
515 1 9.566147786622446 32.10926249458101 15.866379096679003 0 0 0
504 1 17.41497122670542 30.159287082331534 14.203606545249833 0 0 0
509 1 1.5341917934980387 33.58393774224382 14.357813583170806 0 0 0
517 1 8.129291241082228 33.53353768118511 14.190466326338672 0 0 0