LAMMPS data file via write_data, version 29 Oct 2020, timestep = 100000

8531 atoms
1 atom types

-0.2812147266514202 104.66949434192063 xlo xhi
-0.17659535233724455 51.192501672226165 ylo yhi
-0.17659535233724455 51.192501672226165 zlo zhi

Masses

1 18.015

Atoms # atomic

1580 1 0.8175846846484252 2.6934194254766 1.877832212859356 0 1 1
2062 1 5.973498170866289 0.8552003300062943 0.2534245833354073 0 1 1
1572 1 7.524090487677393 2.4901299531974557 1.8271470588773764 0 1 1
2064 1 12.33087922542917 1.0212977453596321 0.23210555216666628 0 1 1
1488 1 13.653781891080598 2.5657766361746845 1.8796150584462046 0 1 1
2430 1 20.316108250202852 2.583984235719349 1.9135845705788652 0 1 1
2389 1 26.97140254252443 2.770410586835728 2.1993132320307107 0 1 1
2705 1 25.58091240411052 0.9212924607212216 0.4049577164372711 0 1 1
2304 1 33.19058220306479 2.4309815966308594 2.2415934434866003 0 1 1
2707 1 31.551408716678424 0.8218895937751021 0.3512490670689957 0 1 1
2073 1 2.4515316308325006 4.043577266993765 0.11530857687417678 0 0 1
2074 1 4.293577841723204 6.04371858944385 1.7584573602272353 0 0 1
2076 1 10.496231924841831 5.8364431860256145 1.5988007382308758 0 0 1
2071 1 15.404461979468442 4.201742925307294 0.2646184387740661 0 0 1
2077 1 17.054890550661906 5.638906119334326 1.9012062109570116 0 0 1
2713 1 23.75316642756088 6.245447880972227 1.888882377263902 0 0 1
2709 1 22.23210078750329 4.404942335087907 0.3583600494908149 0 0 1
2337 1 28.75449777818025 4.275954489507821 0.5380554845533506 0 0 1
2714 1 30.021963675666168 5.704403831587601 2.4021796280696535 0 0 1
2078 1 1.2705907978323718 8.82654211776909 2.0114896592026943 0 0 1
2081 1 7.475860628524554 8.861078794256422 1.7266821971984003 0 0 1
1975 1 12.42924360210215 7.387550074398931 0.5781839780470593 0 0 1
2083 1 13.923883090119851 8.91304625674123 2.1185567569238155 0 0 1
2712 1 18.81915001219229 7.297452471762856 0.4374801933099034 0 0 1
2717 1 20.303743846787867 9.06546887639469 2.0535320606981466 0 0 1
2719 1 27.076030393581302 9.033007170274196 2.053309088567632 0 0 1
2636 1 25.580438513315226 7.460210390826382 0.143756842980865 0 0 1
2639 1 31.61270142620879 7.1690364336036465 0.44548434542402726 0 0 1
2720 1 33.00419204038684 8.876904648205636 2.1510381114297727 0 0 1
2080 1 2.524705945452684 10.634272252584077 0.15285305886086192 0 0 1
1411 1 5.593416761367083 10.530316940521296 3.0232345396942595 0 0 0
2085 1 4.170053856040606 12.13361092367227 1.6129264651813213 0 0 1
2086 1 9.195113411513363 10.779146701348864 0.4555633427551431 0 0 1
2087 1 11.052025744659156 12.06736062342935 2.4174621852404536 0 0 1
1988 1 15.578196630998727 10.526815106761877 0.5875378773991564 0 0 1
2089 1 17.153229468042444 12.207438708517927 2.1348929350109396 0 0 1
2723 1 23.363356857872798 12.217204469102894 2.002886316970143 0 0 1
2640 1 22.18245052221407 10.497892905087275 0.30751020239487087 0 0 1
2725 1 30.04156946044702 12.214641802735603 2.0260240236824965 0 0 1
2642 1 28.478867178577428 10.520205858746856 0.28467194435132737 0 0 1
2090 1 1.211832478727874 15.543105611312052 1.9383578191268311 0 0 1
1312 1 31.69764477858608 48.815450815235536 23.059080833846696 0 0 0
2092 1 5.849487050044056 13.604647713727612 0.17889139489338707 0 0 1
2093 1 7.251711848714733 15.192701033023887 2.2673510894631064 0 0 1
2088 1 12.270159524319658 13.7082947525517 0.736310619048948 0 0 1
2095 1 13.77919733081126 15.466373194924968 2.109005664475354 0 0 1
2188 1 18.977088266052945 13.416071892291596 0.6781669012757126 0 0 1
2724 1 25.015690996999258 13.872787779762836 0.8211309227670123 0 0 1
2729 1 33.59548227787689 15.326732870206373 1.8095099979654468 0 0 1
2728 1 31.766256797036668 13.906806652968063 0.42587967568578744 0 0 1
1997 1 2.6917472760281638 17.148605301446374 0.2962208360075847 0 0 1
2094 1 8.984675545169102 16.688196326136225 0.32289446972327046 0 0 1
2101 1 10.782613160444273 18.513037392425396 2.2135575857854306 0 0 1
2096 1 15.793140785436592 16.813999606864975 0.6098148889608289 0 0 1
2726 1 20.34091477241775 15.557199214881805 1.938919609333766 0 0 1
2730 1 23.64753375427984 18.484663363649908 1.7253698431376632 0 0 1
2649 1 22.00951020315972 17.069410570580025 0.2775950047568279 0 0 1
2727 1 26.939632373665475 15.567984600435633 2.226271529044486 0 0 1
2734 1 29.67093239015396 18.479326316875344 1.8773325840624548 0 0 1
2653 1 28.403630776674387 16.883197334591614 -0.009455479552846369 0 0 1
2747 1 31.950237701548282 17.120965584205816 3.1559008084426474 0 0 0
2100 1 4.064144000848281 18.758980545734545 1.8379762583536907 0 0 1
2099 1 6.076333982313644 20.546151512754623 0.09513639275422348 0 0 1
2105 1 12.403835514906945 20.305613224507233 0.8404583125087486 0 0 1
2102 1 17.166549469953303 18.733448295306957 2.1354739489163483 0 0 1
2163 1 18.96265971485203 20.02082874719588 0.4392101585149899 0 0 1
2661 1 31.24004085346947 19.960989246714284 0.3694788211970327 0 0 1
2103 1 0.9591454633279781 21.906308878993876 2.0457924651619885 0 0 1
2010 1 2.6772369586612705 23.16043595147262 0.49390461475400915 0 0 1
2104 1 7.57220025944386 21.909650521074827 2.0662367138636792 0 0 1
2005 1 9.140601185455314 23.543618118964694 0.6102884265169694 0 0 1
2106 1 13.865143858352118 22.020984602469365 2.2628180991023616 0 0 1
2107 1 15.577749189756943 23.269335950406177 0.37322617639233013 0 0 1
2736 1 20.356081894849698 21.93738363315201 1.8499256553470924 0 0 1
2737 1 21.536291625086594 23.57591896228641 0.30064174537245597 0 0 1
2739 1 26.70102792662403 21.882663006716292 1.5106405687926043 0 0 1
2466 1 28.65848052440662 23.49728957176055 0.5329929855666538 0 0 1
2740 1 33.02603323791554 21.660111704397373 1.4450518368269394 0 0 1
1448 1 2.7819686322459645 26.330282218795226 3.151641129992464 0 0 0
1470 1 -0.23218711875053424 26.50017010894697 0.3495148714850167 0 0 1
2109 1 4.558631667734327 24.67238493155156 1.9722602472234612 0 0 1
2017 1 5.8443206806890915 26.19961658369678 0.38956886862676 0 0 1
2111 1 10.654563487220418 24.91833397275597 2.327739121079886 0 0 1
2013 1 12.56599711896845 26.33596460000953 0.5726863561602339 0 0 1
2112 1 17.188946741614046 24.86665428904387 2.39501095429708 0 0 1
2126 1 18.484530411759923 26.37336570051712 0.644748418747426 0 0 1
2525 1 23.531155611885538 25.134869829980875 1.8955657710165785 0 0 1
2552 1 25.40915452656312 26.613534203692065 0.715986127121981 0 0 1
2722 1 30.119124882281493 25.350600598338968 1.9114632413888502 0 0 1
2718 1 31.721273939750226 26.56696813742059 0.30060824268135095 0 0 1
2114 1 1.3183718993619786 28.163293609560426 1.983474769142901 0 0 1
2022 1 2.9012104041329683 29.648455493084725 0.3369777878647936 0 0 1
2116 1 7.369444659352315 27.666192255285914 1.9075369383647511 0 0 1
2117 1 8.956987132277987 29.271722801369588 0.4345124183155068 0 0 1
2118 1 14.42097715760095 27.775186520463315 2.0204784371210756 0 0 1
2120 1 15.439663231915617 29.96432951588869 0.5294518042222295 0 0 1
2715 1 20.374808372576325 28.192649975515497 1.9505454372970927 0 0 1
2735 1 21.851028048707896 30.187860675919705 0.6651476940160919 0 0 1
2731 1 26.948066037299785 28.442727284153523 2.1459291598462964 0 0 1
2605 1 28.901096028639994 29.910750952887533 0.5762605117712477 0 0 1
2565 1 33.19288919577891 28.536754509246993 2.0355452248916386 0 0 1
2121 1 4.363587381740658 31.18781270434294 1.735594866489244 0 0 1
2029 1 5.752916526980201 33.06275302320575 0.28787387710827234 0 0 1
2145 1 9.25374338268001 33.100638487541204 3.130331092475738 0 0 0
2123 1 10.5397877723916 31.19719898279265 1.5675956564349072 0 0 1
2025 1 12.091815720634644 33.17585332980504 0.4337727206789954 0 0 1
2124 1 17.436369868033307 31.12330595281079 2.3262081837351083 0 0 1
2202 1 18.901067906414227 32.61428254797094 0.656179732490486 0 0 1
2658 1 23.70416974292895 31.52517100711296 2.3077846035618137 0 0 1
2632 1 25.586726560549693 32.81193498486591 0.44289318294138813 0 0 1
2595 1 30.591993968786277 31.77102144289638 1.7239041151691106 0 0 1
2682 1 32.0225894314336 33.18201059985336 0.26522839216750016 0 0 1
2113 1 0.9767947903597594 34.57685783776644 2.064395102255007 0 0 1
1990 1 2.4794002676615365 36.201919868483884 0.49008526310148137 0 0 1
1859 1 7.215487412231433 34.8595721714286 2.0642063504980723 0 0 1
2028 1 9.08290258033539 36.392155047372405 0.6607743793666352 0 0 1
2079 1 14.391904630709089 34.335220419547014 1.988261783649453 0 0 1
2110 1 15.593958080453291 36.115168467952834 0.35046714647338284 0 0 1
2541 1 20.54477006924563 34.428475198100145 1.9954809530290376 0 0 1
2676 1 22.015813331921436 36.580460449544404 0.8117190981123984 0 0 1
2514 1 27.45646875986175 34.46182908382199 1.893147713114916 0 0 1
2481 1 28.8466261951641 36.31398947524185 0.3300131279432905 0 0 1
2424 1 33.44910244500986 34.774323241756115 2.1087675374053507 0 0 1
6497 1 -0.07108236272034582 15.884047858065486 4.57224819237034 1 1 2
2098 1 4.083111915199541 37.665108078049 2.1236080832716575 0 0 1
2036 1 5.610862638371279 39.616864829948845 0.5653887183607175 0 0 1
2122 1 10.948535902168402 37.86574513444104 2.1033120795915923 0 0 1
2097 1 12.24966435618369 39.58113899323003 0.5187385734219766 0 0 1
2091 1 17.578118903196184 37.78231455705072 1.6110420423560838 0 0 1
2166 1 18.92589728583909 39.69120413705426 0.17621404662110746 0 0 1
2395 1 24.08976179222745 37.629667927823334 1.9853758512837194 0 0 1
2690 1 25.37361369016554 39.719988231939205 0.09629368495225399 0 0 1
2381 1 30.30101710224505 38.045046043806686 2.0970472453525484 0 0 1
2115 1 0.8394727658558916 41.08031241807438 2.38964358462845 0 0 1
2042 1 2.2313914011672513 42.65196160514731 0.5360694129546503 0 0 1
2082 1 7.750750399717655 40.8537248783011 1.8631898321465443 0 0 1
2038 1 14.117558685093265 40.855905807495816 1.6196860975780303 0 0 1
2405 1 20.71104608770991 41.41954562196544 1.9282942160585566 0 0 1
2721 1 26.57102810911675 41.164752460066964 2.0571825678756324 0 0 1
2686 1 31.91201215456949 39.82415158572712 0.6006848996474989 0 0 1
2500 1 33.41397279638441 41.81397975730181 2.319740190425863 0 0 1
1900 1 4.069733759061428 44.40198272034133 1.8095497236720604 0 0 1
2043 1 8.981883485619292 43.063479144020484 0.5685320952858278 0 0 1
2068 1 10.757269790257096 44.4448180316836 2.0516253318695536 0 0 1
2002 1 17.335947677936847 44.204863037587614 1.9617541819967341 0 0 1
2054 1 15.666743280009152 42.764345781791945 0.1220049911210273 0 0 1
2733 1 21.998574437105106 42.798793442228146 0.4349703813045491 0 0 1
2738 1 23.563634492800528 44.37982803511443 2.076215792001939 0 0 1
2696 1 28.451314479374055 42.786931884141254 0.47449624126525736 0 0 1
2564 1 30.09397388430756 44.34094726628516 1.896027762253067 0 0 1
1949 1 0.9551617783965383 47.580171201137006 2.0187439978156787 0 0 1
2050 1 5.83919154045873 46.128046012891176 0.6349230237021756 0 0 1
1925 1 7.715543548226976 47.495220407544124 2.3318721961124487 0 0 1
2052 1 11.846805150088844 46.09551566167993 0.012180430026599909 0 0 1
1873 1 13.590906548478424 47.70206554105864 1.822629576407472 0 0 1
2128 1 18.785440776326723 45.83268588096478 0.18201534088877802 0 0 1
2716 1 20.142322285710065 47.55583405808968 2.1209858637459025 0 0 1
2741 1 25.164620784650342 45.77383059473625 0.3812281905651391 0 0 1
2693 1 26.44927874741538 47.71393469471991 2.0111533009787834 0 0 1
2697 1 31.517687261606753 46.126771765042726 0.27286187353921926 0 0 1
2644 1 33.04186365948622 47.58452490998144 1.9713863750282612 0 0 1
2059 1 2.8797833599565563 49.018011098471554 0.4310292223496287 0 0 1
1720 1 4.475879406051461 50.50503162651015 2.0013898417135794 0 0 1
2061 1 9.278371147901096 49.04177760052191 0.5426062562540898 0 0 1
1719 1 10.829982630939123 50.99606079594977 2.0621729797414163 0 0 1
2065 1 15.347225549381035 49.3284755966396 0.49005056978033823 0 0 1
1658 1 17.13396975245591 50.87619533026016 1.7030872941708006 0 0 1
2700 1 21.8956457798501 48.900249597698775 0.4127216774510105 0 0 1
2594 1 23.353904944780393 50.86371550957854 1.659756618890052 0 0 1
2702 1 28.241889565585286 49.22896761828776 0.2526854550716812 0 0 1
2513 1 30.05303746085702 50.629419319086445 1.675539041877767 0 0 1
1886 1 2.8452741571101083 0.9808200658472959 3.258509338886527 0 1 0
92 1 4.640572743816347 2.565269842634599 4.9214709314444125 0 1 0
120 1 9.141221395724887 0.7358683435149044 3.8213601745683903 0 1 0
93 1 10.593852013619719 2.38557010431092 5.411482831129245 0 1 0
1961 1 15.698129990371088 1.171349206876783 3.2602960760332045 0 1 0
94 1 17.26914537863643 2.636699524002031 4.870914862205536 0 1 0
2744 1 22.068936342704262 1.0752548507531228 3.282212823881221 0 1 0
849 1 23.61622019506256 2.6285016346670735 5.113225969480483 0 1 0
852 1 30.065248481696315 2.3548454529532843 5.348913449452926 0 1 0
1319 1 28.487681379269873 0.8225102688971547 3.732706165679829 0 1 0
2075 1 8.749227962581074 4.035948982910503 -0.15344563112257054 0 0 1
757 1 -0.20159725186972352 4.5901390119349825 3.75111882297773 0 0 0
1 1 1.4626873432949472 5.699458006500128 5.511112291212484 0 0 0
1519 1 6.106017105639449 4.61454227893267 3.5509677692880266 0 0 0
3 1 7.937298403302982 5.868099099643532 5.5468450945007985 0 0 0
1456 1 12.200112674682488 4.479805923290053 3.3994211476449596 0 0 0
5 1 13.681031092098824 5.323389949331278 5.530495087119424 0 0 0
2357 1 18.895676136628076 4.312817805810805 3.265070817448825 0 0 0
771 1 20.438156802352804 6.061748450859188 5.166847110215879 0 0 0
2312 1 25.10445849468396 4.36452692149989 3.4988660475060622 0 0 0
773 1 26.75651362082191 5.644598222893153 5.339693599494472 0 0 0
1188 1 31.600563024021145 3.9227002141944025 4.001225966536742 0 0 0
776 1 33.24530075238804 5.913463562678813 5.394668472976578 0 0 0
741 1 2.994819971422043 7.317344164909439 3.93359236110292 0 0 0
8 1 4.444345589659966 9.219712195651612 5.306197510587381 0 0 0
62 1 9.348132444806511 7.49841255433597 3.7382582230382035 0 0 0
10 1 10.672312870972132 8.759207204972906 5.975904406228848 0 0 0
141 1 15.444213937362047 7.212204304264427 3.8976620914320756 0 0 0
12 1 17.147372492157835 9.127381357627995 5.3867161567841935 0 0 0
1377 1 22.159432838722754 7.592419100955548 3.893418792607628 0 0 0
778 1 23.83569908001484 9.186320918504212 5.772398332022406 0 0 0
1383 1 28.528888208813292 7.412161166065745 4.128572542913518 0 0 0
13 1 1.3643714958631368 11.981715203935938 5.741886728111759 0 0 0
14 1 7.793436302790754 11.841332584735696 5.048803845158514 0 0 0
18 1 12.33850460280054 10.536178327312635 4.2123298676487275 0 0 0
16 1 14.225455744703329 12.04994185820777 5.82722098175843 0 0 0
633 1 18.778117108311235 10.626342036179741 4.081245146688529 0 0 0
780 1 20.30308691167678 12.387562016151755 5.32725670461909 0 0 0
2183 1 25.186544624205176 10.693168277439865 3.5094214079556227 0 0 0
779 1 29.65770817787508 9.530521159086542 5.587026793688715 0 0 0
1375 1 31.424612373545923 10.609204726313505 3.8958631606720973 0 0 0
786 1 33.10716711721628 11.991968194182718 5.61844149670081 0 0 0
1435 1 2.7864742876429487 13.62877068405936 3.3737132521031135 0 0 0
19 1 4.532039693234465 15.237403666708207 5.256115974668007 0 0 0
1424 1 9.120567637429899 13.709070310112148 3.4796631380216354 0 0 0
21 1 10.607913801795393 15.286604847929645 5.585779295799402 0 0 0
758 1 15.362913092630837 13.682515893412539 3.725798145569582 0 0 0
23 1 16.67522529232671 15.33938071452445 5.426390065766347 0 0 0
2375 1 21.941703321561707 13.932421835443284 3.499100094341834 0 0 0
789 1 23.41345682596626 15.505566588567781 5.452251629267367 0 0 0
782 1 26.599057527633402 12.654958135815177 5.310969840037034 0 0 0
1384 1 28.659815541361663 13.941852883658273 3.994997585093893 0 0 0
889 1 34.51525664235081 13.548473153052923 4.162819046305063 0 0 0
24 1 1.321610757119332 18.490090945910787 5.064717442967541 0 0 0
763 1 5.80241644196111 17.211154199678894 3.7858677682950503 0 0 0
25 1 7.8554153954048385 18.43159771745928 5.182998881769066 0 0 0
746 1 12.46132692257338 16.879798469584077 4.051763974573681 0 0 0
26 1 13.847306310552163 18.54408670802658 5.595384325544906 0 0 0
647 1 18.542207978104276 16.878715284090866 3.779194147508286 0 0 0
1390 1 25.127046467905476 16.961816088335006 3.7600926559689785 0 0 0
795 1 26.86728182016789 18.39300745770411 5.256982060866862 0 0 0
791 1 30.486782574112166 15.714133662440247 5.36158530048278 0 0 0
797 1 33.4640038800129 18.458291541258365 5.17899978315297 0 0 0
762 1 2.643931104245544 20.152387944230956 3.8227393483948107 0 0 0
30 1 4.083020738269124 21.450180330955973 5.47183048222033 0 0 0
2134 1 9.472409272636263 20.139512894779553 3.5437417204687507 0 0 0
32 1 10.627669254071822 21.41080300782532 5.538079072648589 0 0 0
695 1 15.347859266653861 20.18457651228428 3.925648256477105 0 0 0
34 1 16.905954797582993 21.372360271614994 5.602199489515424 0 0 0
794 1 20.500699270013104 18.603972338146285 5.2762947481067135 0 0 0
1392 1 21.890373286151597 20.313296027676806 3.7619606232557516 0 0 0
2751 1 28.104750579012748 20.12214266951628 3.2295077491001765 0 0 0
749 1 5.774861307504952 23.130161150979756 4.0028010627700485 0 0 0
151 1 12.034464839320329 23.3241107102386 4.185661285250558 0 0 0
9 1 18.658101582512472 23.072319624642276 3.9036283657514845 0 0 0
2745 1 24.994044215840322 23.32913771360284 3.2567330301279624 0 0 0
798 1 23.583817056312228 21.792786369447434 5.28394310491817 0 0 0
800 1 29.993442458316206 21.613941219239553 5.039095180371833 0 0 0
2267 1 31.435895473370085 23.29725295287284 3.4154772503618522 0 0 0
35 1 1.3743239826576157 25.191921255385818 5.407594953764503 0 0 0
37 1 7.384067656309594 24.866594964419107 5.42168264264998 0 0 0
561 1 9.059569797077053 26.497884817805765 3.78960177927815 0 0 0
39 1 13.681373174584298 24.78133459426779 5.810908890462446 0 0 0
301 1 15.429375037133582 26.256087732298642 4.005420382153923 0 0 0
802 1 20.376599839303626 24.716260980267922 5.221429025557046 0 0 0
2753 1 21.936503152881297 26.79041894825716 3.5676488549479357 0 0 0
803 1 26.74748927504189 24.65695848192066 4.935894979511079 0 0 0
1328 1 28.41789560251702 26.865455212111193 3.938108439649686 0 0 0
807 1 33.09422008937025 24.87165812394 5.164077040602224 0 0 0
765 1 -0.23131967363200406 29.433143476664494 3.8572837435988623 0 0 0
1409 1 5.7772159183050436 29.833589156219507 3.268226503030151 0 0 0
42 1 4.4212599436979705 28.075113638595468 4.9333507610196765 0 0 0
49 1 9.227681639497225 29.874487563921452 6.366059286037971 0 0 0
43 1 10.574242023740227 28.073667689806566 5.19009396172983 0 0 0
1460 1 12.478216976627879 29.6188803734747 3.3209470327456305 0 0 0
45 1 17.220517848526857 28.028378462831395 5.646329613507211 0 0 0
7 1 18.714912057737294 29.681513329385705 4.145306924547818 0 0 0
809 1 23.633722893923313 27.660138983476724 5.463117344934078 0 0 0
801 1 25.20825386247306 29.69828529186852 4.176814194829746 0 0 0
811 1 30.19240844419881 28.41849775866884 5.162645399545925 0 0 0
1116 1 31.962779672060293 30.062106654911904 3.867789011009309 0 0 0
46 1 1.2321810759348915 30.905570864336717 5.322101098542142 0 0 0
2119 1 2.6087296108690543 32.61058701084468 3.379685919804313 0 0 0
47 1 7.708543910129451 31.326723498677314 4.730965756171791 0 0 0
50 1 13.910085671528268 31.069221791691838 5.419644506980551 0 0 0
359 1 15.80759720939366 32.70537561057003 3.8878536180009915 0 0 0
813 1 20.517747579472097 31.603076725850777 5.376293811112981 0 0 0
793 1 22.09326249998694 33.3891007102527 3.9532821471904214 0 0 0
814 1 27.262302263485783 31.38189065804965 5.304050753344992 0 0 0
808 1 29.128271571431995 33.09651553316622 3.788970782744613 0 0 0
815 1 33.804804921255986 31.515247957888622 5.47761575806757 0 0 0
53 1 4.156792986794557 34.34143891853215 5.453130760743268 0 0 0
487 1 5.730469478612753 36.16303321769047 4.129036830308556 0 0 0
54 1 10.946137800628327 34.39439642216834 5.007024164812418 0 0 0
2133 1 12.661398264322322 36.34808941707313 3.331524652327861 0 0 0
57 1 17.563939650955525 34.50475418742865 5.223902950812049 0 0 0
1389 1 19.084870496650122 36.25506726757771 3.789313805186491 0 0 0
817 1 24.000533287260673 34.62640418144654 5.192340605312813 0 0 0
2749 1 25.650889699359663 36.062713368899985 3.408851684680626 0 0 0
819 1 29.997966006863095 34.506648365929195 5.5493942667986165 0 0 0
1388 1 31.705437365661634 36.186181896051394 3.766055814134772 0 0 0
59 1 0.9837971367379839 37.29453648971562 5.362879091914178 0 0 0
751 1 2.493737599858604 39.21491992256605 3.880451271456148 0 0 0
61 1 7.511087932232187 37.92087044807334 5.231008834626327 0 0 0
743 1 9.51875305743134 39.62970173165831 3.7912010088470938 0 0 0
65 1 14.173258931369244 37.78428489601323 5.038552459272916 0 0 0
2144 1 15.792148536364913 39.237093209645316 3.323201427232245 0 0 0
822 1 20.78995686125286 37.67635352693082 5.152241665866074 0 0 0
1391 1 22.501698864464032 39.482210357920614 3.7625100222661114 0 0 0
823 1 27.219568031551628 37.83129653207388 5.116986595046171 0 0 0
2596 1 28.632554212473476 39.42797117181598 3.4259499628072043 0 0 0
825 1 33.0419867963406 37.84840768988271 5.4433815350023815 0 0 0
2146 1 5.774435297956083 42.40228385824639 3.2055424211970127 0 0 0
67 1 4.469976850413218 40.707484767341576 5.056023612013227 0 0 0
69 1 11.160527689688625 40.973109566483565 5.0053641135626155 0 0 0
68 1 9.506674489168201 42.60400067530977 6.313346176787606 0 0 0
70 1 17.310712009182144 40.862887436268956 5.022577062495539 0 0 0
2756 1 18.902941267343373 42.51859915206927 3.552633227603411 0 0 0
828 1 23.824537654818503 41.43122697565935 5.477109613020473 0 0 0
830 1 30.110436732754962 40.9216863961288 5.274938236210569 0 0 0
1374 1 34.56738984008905 39.76049941117072 4.089268860930096 0 0 0
72 1 1.3839676872852018 44.05057674293595 5.327498419518278 0 0 0
748 1 8.96339257935573 45.53091205301897 3.7974481402901885 0 0 0
73 1 7.2629845938644335 43.85578582483633 5.2367323156695615 0 0 0
1826 1 12.585267882493579 42.79836533172142 3.208514990729418 0 0 0
76 1 13.94077028304475 44.2655276501778 5.023427672533855 0 0 0
832 1 20.281269155906585 44.28937956098719 5.284820222369815 0 0 0
2332 1 25.120780625256003 42.84846484211032 3.479275634455023 0 0 0
835 1 26.925515193899496 44.14067797590301 5.1358031640516035 0 0 0
1376 1 31.478913302386434 42.78111479002314 3.821612755445702 0 0 0
1378 1 34.45688720597457 45.64505362195763 3.79839993212623 0 0 0
838 1 32.97067767929898 44.07406511344133 5.640028376482023 0 0 0
764 1 2.7038341755809028 46.05914943833336 3.7635227159395708 0 0 0
78 1 4.31584432778697 47.07686198739938 5.711196821478516 0 0 0
83 1 10.751666260860647 47.5333503562606 5.066095684812827 0 0 0
1480 1 15.277342939951094 46.01985554714825 3.26022442348379 0 0 0
82 1 12.658196708845798 46.066413322831664 6.266154707585117 0 0 0
84 1 17.116607726936333 47.417635978709846 5.327530309899389 0 0 0
1023 1 21.83210897967289 45.96167801317594 3.7589075934594174 0 0 0
841 1 23.755161010811257 47.372417326065126 5.48715558975235 0 0 0
2755 1 28.311810421490236 45.834403363535145 3.553024283023972 0 0 0
842 1 29.8974068895052 47.575353209085755 5.398758974414868 0 0 0
85 1 1.4789128323967455 50.929547661213306 5.182765569847832 0 0 0
745 1 6.178761026979718 49.046069043897184 3.904515477063244 0 0 0
87 1 8.051503205694178 50.41750733145115 5.3776522208973745 0 0 0
750 1 12.500889730761205 49.42111207803063 4.005199064696192 0 0 0
88 1 14.304142902931314 50.97716807863117 5.18255944688638 0 0 0
766 1 18.637644103844245 49.36941210638693 3.770805248865408 0 0 0
843 1 20.577919830487176 51.049965396602694 5.053163584650624 0 0 0
839 1 24.967643745713033 49.46161732459339 3.8944390119464742 0 0 0
844 1 26.675431039388517 50.6767467319183 5.449760598767507 0 0 0
2750 1 31.32203998849299 48.98092955062552 3.4874192811279494 0 0 0
846 1 33.01725277397784 50.329618241174025 5.266340827536554 0 0 0
186 1 1.409636872136466 2.238934251953603 8.46255246991652 0 1 0
188 1 7.864092429658145 2.192138071241993 8.654187390859677 0 1 0
180 1 6.19787551767435 0.8137550251396254 6.992535851037848 0 1 0
191 1 14.03151978898891 2.3431809014971168 8.544589789033672 0 1 0
190 1 12.531830119286203 0.9750228252452069 6.7541430495669985 0 1 0
708 1 18.69791480077914 0.9913375629093326 6.508473110693399 0 1 0
921 1 20.497781505555654 2.6897173768929505 8.22711119096228 0 1 0
848 1 24.72038494474244 1.1255432252949507 6.789372418287605 0 1 0
924 1 26.47344916536 2.467745860088374 8.428912569297923 0 1 0
926 1 33.16693449397889 2.265762036412029 8.458002303134839 0 1 0
851 1 31.625555157354096 0.6169425651037235 6.971874642385467 0 1 0
2 1 2.92174550965296 3.801320030492793 6.960795713558937 0 0 0
95 1 4.8100565563600135 5.973611328901946 8.306148418170713 0 0 0
189 1 9.290220544279817 3.988582780306632 7.612299468532479 0 0 0
97 1 10.906947609182849 5.749292044468252 8.992275716925466 0 0 0
192 1 15.669002205478542 4.010163611810026 6.657945570650494 0 0 0
100 1 17.209379497394593 5.597544907347421 8.239412659801463 0 0 0
772 1 22.028250870474295 4.606395689658461 6.554668352604488 0 0 0
854 1 23.792970226203742 5.975966376197899 8.358679273507978 0 0 0
850 1 28.438970023674283 3.8888382490449036 7.126647579321324 0 0 0
856 1 30.103971831808984 5.797244932409852 8.763674444837035 0 0 0
683 1 -0.005575684107602119 7.458765245279622 6.996282499531214 0 0 0
102 1 1.458229225970961 9.250748412047413 8.527282535054422 0 0 0
96 1 6.303269813889997 7.4896081916849315 6.645342431810522 0 0 0
103 1 7.8161852885566585 8.910139988419301 8.769056050980366 0 0 0
99 1 12.593250599429172 7.170985230410767 7.320490575786132 0 0 0
106 1 14.261639195489291 8.90768821115294 9.009444593953937 0 0 0
831 1 18.90027241156522 7.2500677827886 6.769679184599863 0 0 0
857 1 20.39700938266774 8.940884163701083 8.18468037357491 0 0 0
774 1 25.54758224356048 7.669594957710448 7.038288686427688 0 0 0
859 1 27.00931881715565 9.172249283075757 8.809522076446381 0 0 0
775 1 31.38044809457975 7.600898655645066 6.7565598450711555 0 0 0
861 1 33.06047750729235 9.018381834052844 8.406050516383003 0 0 0
107 1 3.3952690092605575 10.782667800708932 7.160895402767895 0 0 0
108 1 4.81510411976694 12.277455616902978 8.811778561316954 0 0 0
15 1 9.278765633812148 10.756086870080557 7.0379825708817165 0 0 0
110 1 10.90671884898948 12.212525263469317 8.708012137893704 0 0 0
11 1 15.74154139594501 10.59804365230395 7.334112331789048 0 0 0
113 1 17.326042819731956 12.465765723609321 8.637676987418674 0 0 0
781 1 22.252662155648157 10.809392340929726 7.174217591835363 0 0 0
863 1 23.92159893533433 12.296750890816437 8.721216945454998 0 0 0
858 1 28.04927434246664 11.350611213875583 7.376803414313344 0 0 0
865 1 30.020331282823832 12.26229302592428 9.070028398836925 0 0 0
217 1 -0.10573998621558689 13.821908701712154 7.116948133271758 0 0 0
116 1 1.2815833015884706 15.41090971200021 8.61437558756133 0 0 0
109 1 6.422781735572718 13.74198660842362 6.868497501391325 0 0 0
117 1 8.123177838726106 15.327760589389216 8.804714486829763 0 0 0
111 1 12.409550347050612 13.82795223746339 7.086073334258975 0 0 0
119 1 13.765914379570571 15.335274014302609 8.745724071097754 0 0 0
738 1 18.55927952217863 14.093058159292188 6.8225200966907265 0 0 0
783 1 25.218060497727322 13.982905593257387 7.0539960781525 0 0 0
868 1 26.910717150599524 15.351878236860307 8.757570600851535 0 0 0
792 1 31.607837589079164 13.84868434535155 7.054017909546413 0 0 0
869 1 33.45824343139289 15.307629710529797 8.916017273425684 0 0 0
20 1 2.9088835095968713 16.992228521721483 7.022670384301493 0 0 0
121 1 4.520246799643405 18.31550919492082 8.78214566054632 0 0 0
122 1 9.478723168197707 16.993398008370658 7.079666857293162 0 0 0
118 1 15.440511024418317 16.903364583857343 7.3666056160784095 0 0 0
125 1 17.570232883089663 18.458301836228983 8.615066647544028 0 0 0
867 1 20.223407544458826 15.665787897242227 8.6427251087573 0 0 0
866 1 21.984767776432623 17.046019065907707 6.9410817093537975 0 0 0
872 1 23.822638567770362 18.413593526556333 8.50144599617356 0 0 0
790 1 28.5355414724433 16.932674559014057 7.0082716908958265 0 0 0
126 1 0.8509981733750949 21.22162068040501 8.350912909868228 0 0 0
128 1 6.0053478019867885 19.814616582609528 6.9016510304077885 0 0 0
129 1 7.511829628309113 21.40043846176202 8.522827788937064 0 0 0
123 1 10.925833582650672 18.723831626748566 8.746814308273224 0 0 0
124 1 12.486023640870819 20.308471030335006 7.326945049611717 0 0 0
1077 1 18.956108697001945 20.08745740615331 6.792853778392572 0 0 0
876 1 20.289175283792474 21.48973315405103 8.486334643435157 0 0 0
871 1 25.171020359903814 20.09111254959359 6.817551661857742 0 0 0
875 1 29.925667660680315 18.59749381997432 8.20216397874549 0 0 0
799 1 31.76551326956075 20.199120814238487 6.69794557336865 0 0 0
881 1 33.46767469541906 21.491874056004352 8.249340649220116 0 0 0
31 1 2.5557790822996744 23.056760307172357 6.973967703377942 0 0 0
131 1 9.179019177150273 23.257938972096554 6.970529613349842 0 0 0
132 1 14.148351911080375 21.98215124837525 8.787514612219919 0 0 0
41 1 15.524559803671377 23.389881224123105 7.015356632271844 0 0 0
877 1 21.77561052013053 23.249240333610217 6.978539180832948 0 0 0
878 1 26.57779413872673 21.77883375493246 8.457264902167248 0 0 0
879 1 28.49757879379471 23.217569075198536 6.757595603511293 0 0 0
134 1 4.335917608361664 24.85044791293242 8.773907108587306 0 0 0
36 1 5.574066962821613 26.6370822649065 6.796131243735725 0 0 0
136 1 10.41019862973112 25.19663705125175 8.739617133968947 0 0 0
138 1 12.131980721338044 26.742969114090005 6.914156195990388 0 0 0
139 1 16.96290650349552 25.03661498636746 8.432844094506537 0 0 0
691 1 18.714311880149456 26.398242545983802 6.951960375368908 0 0 0
883 1 23.750620848970193 24.745942889267766 8.665583305900412 0 0 0
804 1 25.42386497376708 26.186887943641377 6.923963329999772 0 0 0
884 1 30.247746309058453 24.7425444932062 8.230087104627527 0 0 0
806 1 31.494364275023027 26.642104373788616 6.769280299097761 0 0 0
140 1 1.3462336311128138 28.062639135678708 8.539610247254245 0 0 0
144 1 2.8811624704864034 29.64474561721381 6.771048718466838 0 0 0
142 1 7.726052060029058 27.70766543868134 8.052776182567243 0 0 0