
# Set production fixes - Nose/Hoover
#
fix                 2 all nph iso ${PRES} ${PRES} ${PCOUPL}
fix                 2 all nph iso -500 ${PRES} ${PCOUPL}
fix                 2 all nph iso -500 -500 ${PCOUPL}
fix                 2 all nph iso -500 -500 10000.0
fix                 3 all temp/csvr ${TEMP} ${TEMP} ${TCOUPL} 837492
fix                 3 all temp/csvr 292 ${TEMP} ${TCOUPL} 837492
fix                 3 all temp/csvr 292 292 ${TCOUPL} 837492
fix                 3 all temp/csvr 292 292 5000.0 837492

# Define Order parameter
#
compute             2 all orientorder/atom nnn NULL cutoff 3.5
thermo              200
thermo_style        custom step temp press vol etotal ke pe c_1[4]

# Run 1ns simulation
dump		    1 all custom 400 prod.${NAME}.dump id type x y z vx vy vz c_2[*]
dump		    1 all custom 400 prod.ice_292K_-500atm_ML.dump id type x y z vx vy vz c_2[*]
run                 200000
Neighbor list info ...
  update every 1 steps, delay 0 steps, check yes
  max neighbors/atom: 2000, page size: 100000
  master list distance cutoff = 6.0032907
  ghost atom cutoff = 6.0032907
  binsize = 3.0016454, bins = 20 17 17
  2 neighbor lists, perpetual/occasional/extra = 1 1 0
  (1) pair sw, perpetual
      attributes: full, newton on
      pair build: full/bin/atomonly
      stencil: full/bin/3d
      bin: standard
  (2) compute orientorder/atom, occasional, copy from (1)
      attributes: full, newton on
      pair build: copy
      stencil: none
      bin: none
Per MPI rank memory allocation (min/avg/max) = 5.819 | 5.819 | 5.819 Mbytes
Step Temp Press Volume TotEng KinEng PotEng c_1[4] 
       0    288.26615   -498.29734       149223   -47520.485    3958.6414   -51479.127   0.15214019 
     200    291.14917   -474.80697    149214.56   -47511.729    3998.2327   -51509.962   0.14687706 
     400     290.8858   -515.65818    149208.41   -47506.216    3994.6159   -51500.832   0.14976199 
     600    290.20866    -508.0031    149236.15   -47544.247     3985.317   -51529.564    0.1457383 
     800    292.67629   -500.24864    149230.55   -47560.335    4019.2041   -51579.539    0.1465383 
    1000    289.35146   -482.64505    149159.78   -47573.847    3973.5455   -51547.392   0.15004426 
    1200    289.07292   -499.15446    149151.13   -47599.496    3969.7205   -51569.216   0.14864912 
    1400    291.03848   -507.07426     149230.5   -47589.615    3996.7127   -51586.328   0.14045962 
    1600    289.42749   -543.11413    149242.03   -47593.111    3974.5896     -51567.7   0.14270276 
    1800    288.79786     -488.033     149140.2   -47599.239    3965.9431   -51565.182    0.1495581 
    2000    296.30656   -465.60078     149154.6   -47554.471     4069.057   -51623.528   0.14724839 
    2200    290.38065   -543.64009    149304.82   -47520.575     3987.679   -51508.254   0.14977608 
    2400    289.49907    -567.5111    149299.12   -47539.779    3975.5726   -51515.352   0.14708727 
    2600    291.87102   -422.05431    149110.02   -47586.712    4008.1456   -51594.857   0.14715611 
    2800    291.25499    -407.4342     149090.6   -47603.354     3999.686    -51603.04   0.14373539 
    3000    294.46597   -622.33476    149346.52   -47613.813     4043.781   -51657.594    0.1420963 
    3200    295.67984   -566.12883    149316.13   -47559.874    4060.4506   -51620.324    0.1447678 
    3400    285.63359   -352.44981    149062.09   -47600.626    3922.4896   -51523.116   0.14598677 
    3600    287.11423   -443.68677    149184.43   -47630.366    3942.8225   -51573.189   0.14311551 
    3800    291.80818   -611.09413     149443.6    -47554.22    4007.2827   -51561.502   0.14498858 
    4000    289.05297    -491.3721    149275.75   -47549.323    3969.4464    -51518.77   0.14891154 
    4200    289.62246   -292.31442    148991.14    -47568.51     3977.267   -51545.777   0.14551479 
    4400    288.49091   -464.70675    149218.54   -47554.731    3961.7279   -51516.459   0.14830795 
    4600    294.08652   -675.28361    149497.07   -47532.095    4038.5702   -51570.665   0.15104269 
    4800    293.52061   -505.30775    149212.61   -47524.655    4030.7987   -51555.454   0.15090073 
    5000     292.7761   -341.22309    148966.44   -47505.988    4020.5747   -51526.562   0.15013731 
    5200     293.5147   -527.55985    149326.03   -47506.574    4030.7176   -51537.292   0.14454788 
    5400    288.97241   -742.59435    149549.17   -47464.066    3968.3402   -51432.406   0.15523788 
    5600    298.03226   -404.85552    149169.47    -47452.28    4092.7555   -51545.035   0.14867345 
    5800    290.90415   -334.40061    149017.68   -47442.143     3994.868   -51437.011   0.14918346 
    6000    294.74088   -620.36766    149426.83   -47425.719    4047.5562   -51473.275   0.14586741 
    6200    293.80002   -675.04718    149527.96   -47416.839    4034.6358   -51451.474   0.15128724 
    6400    294.48981   -368.20028    149083.73    -47388.54    4044.1083   -51432.649   0.15122441 
    6600     295.6757   -355.40084    149069.17   -47429.311    4060.3937   -51489.704   0.14920748 
    6800    294.91722   -696.23025    149515.78    -47465.95    4049.9778   -51515.928   0.15036248 
    7000    293.99175   -601.08624    149409.98   -47470.102    4037.2687    -51507.37   0.14714969 
    7200    293.55628   -276.80034    148945.99   -47420.389    4031.2886   -51451.677   0.14979875 
    7400    296.12736   -404.60276    149166.98   -47403.865    4066.5961   -51470.461   0.14925744 
    7600    292.59691    -786.5742    149598.26   -47433.971     4018.114   -51452.085   0.15999552 
    7800    299.37071   -473.34797    149241.39   -47465.971    4111.1358   -51577.107   0.14847939 
    8000    294.56174   -218.61624    148870.15   -47434.838    4045.0961   -51479.934   0.15051122 
    8200    294.71481   -568.15319    149313.69   -47468.686    4047.1982   -51515.884   0.15174483 
    8400     295.6555   -713.16897    149575.28   -47490.982    4060.1163   -51551.098   0.15223566 
    8600    292.90695    -398.0561    149073.08   -47452.581    4022.3716   -51474.953   0.15334054 
    8800    298.09035   -257.16277    148942.73    -47385.35    4093.5531   -51478.903   0.15120814 
    9000    298.25798   -700.07802    149543.32   -47360.942    4095.8551   -51456.798   0.14966208 
    9200    298.88942   -718.82326    149579.54   -47343.846    4104.5264   -51448.373   0.15596285 
    9400    299.12051   -254.79042    148960.04   -47399.655    4107.6999   -51507.355   0.14999961 
    9600    294.87697   -300.19564    149012.54   -47388.437    4049.4251   -51437.862   0.15058382 
    9800    291.76876   -805.21547    149638.21   -47401.234    4006.7413   -51407.976   0.15679184 
   10000    292.73257   -648.63793    149493.22   -47397.577    4019.9769   -51417.554   0.15211151 
   10200    301.11555   -188.68238    148908.39   -47394.666    4135.0969   -51529.763   0.14600325 
   10400     294.6598   -409.60737    149164.06   -47380.908    4046.4427   -51427.351   0.15088792 
   10600      296.418   -823.12206     149713.6   -47357.966    4070.5874   -51428.553   0.15673635 
   10800    295.72534   -535.79191    149375.63   -47392.959    4061.0755   -51454.035      0.15092 
   11000    298.49411   -177.38421    148891.72   -47439.056    4099.0978   -51538.154   0.14504319 
   11200    293.64454   -515.53706    149263.69   -47454.972    4032.5006   -51487.472   0.15032605 
   11400    291.61431   -742.73222     149604.8   -47477.671    4004.6203   -51482.292   0.15845164 
   11600     290.6785   -453.64722    149203.55    -47451.61    3991.7693   -51443.379   0.15264588 
   11800    288.10682   -295.96995    148989.07   -47527.991    3956.4534   -51484.445   0.14916886 
   12000    291.23767   -577.32084    149373.94   -47526.821     3999.448   -51526.269   0.15199419 
   12200    292.24521    -675.7957    149454.35   -47503.336    4013.2842   -51516.621    0.1551287 
   12400    294.57971   -368.63551    149092.69   -47474.107    4045.3429    -51519.45   0.14921855 
   12600     294.2604   -368.62817    149107.86   -47486.118     4040.958   -51527.076   0.15208152 
   12800    290.92788   -625.19267    149390.11   -47493.666    3995.1939    -51488.86   0.15623582 
   13000    292.93238    -539.5276    149295.54   -47473.488    4022.7209   -51496.209   0.15347142 
   13200    296.31428     -340.203    149081.71    -47447.23    4069.1631   -51516.393   0.15027012 
   13400     295.9941   -485.50899    149233.07   -47466.801    4064.7662   -51531.567   0.15022151 
   13600    289.16311   -614.45806    149393.65   -47455.197     3970.959   -51426.156   0.15493739 
   13800    296.28487   -524.47598    149243.23   -47451.671    4068.7593    -51520.43   0.15397707 
   14000    291.34061   -400.42816    149107.76   -47472.132    4000.8617   -51472.994   0.15654893 
   14200    300.73784   -536.59479    149240.63   -47498.903      4129.91   -51628.813   0.15488781 
   14400    292.89475   -578.60594       149298   -47521.882     4022.204   -51544.086   0.15166441 
   14600    295.19323   -405.91799    149162.27   -47517.853    4053.7682   -51571.622   0.14689677 
   14800    295.46225   -481.07464    149187.53   -47501.285    4057.4625   -51558.748    0.1534003 
   15000    293.15607   -594.20252    149337.72   -47552.673    4025.7927   -51578.465   0.15721244 
   15200    285.73737   -551.74906    149229.55    -47607.11    3923.9146   -51531.024   0.15845365 
   15400    290.51239   -413.56343    149061.83   -47624.814    3989.4881   -51614.302   0.14648439 
   15600     289.4351   -465.14493    149146.12   -47661.085    3974.6941   -51635.779   0.14217743 
   15800     284.5921   -593.32331    149279.84   -47610.467    3908.1872   -51518.655   0.15433632 
   16000    287.22061   -475.27383     149164.7   -47597.302    3944.2834   -51541.585   0.15605525 
   16200    295.83915   -374.86953    149071.15    -47545.75    4062.6383   -51608.388   0.14962607 
   16400    288.32762   -555.12046    149232.61   -47540.594    3959.4856   -51500.079   0.15807912 
   16600    289.73105   -576.30225    149307.68   -47557.256    3978.7583   -51536.015    0.1542469 
   16800    292.80246   -450.81469    149130.95   -47512.561    4020.9366   -51533.498   0.15400469 
   17000    290.52546   -414.88789    149097.22   -47535.994    3989.6675   -51525.661    0.1514306 
   17200    288.45365   -570.10773    149284.97   -47516.534    3961.2162    -51477.75   0.15823956 
   17400    287.95337   -571.83348     149318.8   -47561.752    3954.3461   -51516.098   0.15329562 
   17600    290.43584   -400.14277    149103.55   -47602.266    3988.4368   -51590.703   0.14359104 
   17800     290.5286   -359.45385    149097.85   -47620.372    3989.7107   -51610.082   0.13989429 
   18000    286.37547   -575.98031    149333.48   -47651.311    3932.6775   -51583.989   0.14626249 
   18200     286.1314   -557.84358     149260.5   -47678.212    3929.3258   -51607.538   0.14891586 
   18400    290.52017   -363.02726    149022.92   -47701.996    3989.5949   -51691.591   0.14191319 
   18600    284.56984   -455.80893    149180.72   -47656.437    3907.8815   -51564.319   0.14797648 
   18800    291.21919   -681.42738    149479.05   -47588.643    3999.1943   -51587.837   0.15338622 
   19000    289.72219   -521.05885    149242.24   -47619.378    3978.6366   -51598.014   0.14869382 
   19200    290.37747   -246.36126    148914.55   -47595.213    3987.6353   -51582.848    0.1417768 
   19400    288.58872   -521.92042    149289.97    -47583.31    3963.0711   -51546.381   0.14848209 
   19600    286.17649   -800.55827    149626.88   -47608.456     3929.945   -51538.401   0.15309739 
   19800    286.36215   -378.14192    149099.22    -47609.81    3932.4945   -51542.305   0.14684953 
   20000    288.21346   -194.77222    148838.01   -47602.626    3957.9178   -51560.543   0.14424862 
   20200    291.14675   -706.41818    149515.33   -47625.212    3998.1996   -51623.411   0.14584736 
   20400    291.29765   -777.95839    149660.25    -47600.86    4000.2717   -51601.132   0.14781395 
   20600    287.79425   -288.31403    148920.77   -47603.163     3952.161   -51555.324   0.15217498 
   20800    288.39025   -254.62242    148890.53   -47606.488    3960.3456   -51566.834    0.1567758 
   21000    286.89695   -786.14267    149660.05   -47594.727    3939.8387   -51534.566   0.15456324 
   21200    285.87612   -727.93237    149536.45    -47585.13    3925.8201    -51510.95   0.14956717 
   21400    285.62269   -140.65877    148774.61    -47584.83    3922.3398    -51507.17   0.14479532 
   21600     291.8587   -339.14974    149049.78   -47541.739    4007.9764   -51549.715   0.14558246 
   21800    292.90683   -838.29604    149761.85   -47485.832    4022.3699   -51508.202   0.15137529 
   22000    297.81184   -607.84738    149408.38   -47495.874    4089.7284   -51585.603   0.14504176 
   22200    300.46249   -153.49532    148834.35   -47459.166    4126.1287   -51585.295   0.14374326 
   22400    297.76394   -475.71113    149291.22   -47433.911    4089.0707   -51522.982   0.14528203 
   22600    293.84433   -854.84272    149734.33   -47436.163    4035.2443   -51471.407   0.16111292 
   22800    290.36573   -445.16374    149190.68   -47477.244     3987.474   -51464.718   0.15421527 
   23000    294.70622   -238.10435     148839.1    -47498.51    4047.0802   -51545.591   0.15320891 
   23200    297.54516   -603.08565    149351.55   -47488.954    4086.0663    -51575.02   0.15248045 
   23400    291.37076   -728.35894    149552.02   -47494.281    4001.2758   -51495.557   0.14853712 
   23600    292.65728   -363.42044    149071.96   -47514.987    4018.9429    -51533.93    0.1457405 
   23800    293.75683   -312.71953    148985.24   -47454.909    4034.0426   -51488.952   0.15337001 
   24000    295.95452   -665.75205    149442.09    -47489.55    4064.2227   -51553.773   0.15559045 
   24200    290.21641    -645.0661    149447.64   -47471.224    3985.4235   -51456.647   0.15527276 
   24400    291.38123   -309.33122    149052.61   -47479.858    4001.4195   -51481.277   0.14812841 
   24600    293.79248   -416.46096    149111.13   -47479.898    4034.5322    -51514.43   0.15486288 
   24800    294.84036   -673.19383    149457.66   -47399.568    4048.9223    -51448.49   0.16053152 
   25000    295.19112   -571.62117    149398.99   -47398.206    4053.7391   -51451.945   0.15048947 
   25200    287.50684   -386.33154    149096.79   -47424.462     3948.214   -51372.676   0.15613536 
   25400    293.26572   -519.55142    149178.96   -47488.422    4027.2985    -51515.72   0.15465254 
   25600    292.66046   -625.23262    149412.94   -47509.068    4018.9866   -51528.055   0.15129051 
   25800     289.9765   -557.30352    149294.61   -47486.845    3982.1289   -51468.974   0.15300341 
   26000    293.98099   -386.35231    149104.98   -47466.397    4037.1209   -51503.518   0.14869728 
   26200    294.28687   -502.48987    149248.23   -47513.554    4041.3215   -51554.875   0.15341679 
   26400    287.49734    -624.3404    149420.86   -47534.431    3948.0836   -51482.515   0.15263076 
   26600    292.11197   -446.63364    149250.94   -47545.667    4011.4545   -51557.121   0.14411995 
   26800    291.43482   -384.16636    149123.48   -47551.376    4002.1555   -51553.532   0.14668706 
   27000    286.57582   -538.76184       149305   -47550.834    3935.4288   -51486.263   0.14760476 
   27200     289.0813   -596.51593    149383.91   -47543.881    3969.8355   -51513.717    0.1496806 
   27400    293.20352    -428.8806    149165.53   -47510.904    4026.4442   -51537.348   0.14880428 
   27600    291.08578   -405.98363     149108.3   -47515.732    3997.3623   -51513.095   0.15065922 
   27800    292.83502   -592.81499    149320.48   -47509.979    4021.3839   -51531.363   0.15185675 
   28000    293.21901    -560.1619    149331.52   -47497.529     4026.657   -51524.186   0.14932553 
   28200    294.50378   -436.36938    149107.15   -47518.725    4044.3002   -51563.025   0.15227236 
   28400    290.05874   -418.43465    149121.65   -47512.963    3983.2583   -51496.222   0.15540149 
   28600    292.49479   -594.44895    149328.13   -47531.249    4016.7116    -51547.96   0.15341254 
   28800    294.46733    -531.7846    149281.43   -47542.391    4043.7997    -51586.19   0.14430281 
   29000    288.24738   -386.32629    149042.67   -47580.168    3958.3837   -51538.551   0.14571571 
   29200    287.82601   -461.13878    149123.58   -47616.173    3952.5972    -51568.77   0.14918664 
   29400    284.77722   -707.08217    149404.42   -47614.455    3910.7293   -51525.184   0.15730469 
   29600    293.23456   -554.46441    149268.81    -47575.94    4026.8705    -51602.81   0.15205059 
   29800    289.75054   -291.63819    148953.27   -47499.383    3979.0259   -51478.409   0.15321375 
   30000    294.80988   -494.33126    149244.57   -47489.624    4048.5037   -51538.128   0.15100134 
   30200    294.00681   -804.60734    149645.76   -47494.582    4037.4755   -51532.058   0.15012138 
   30400    292.95589   -469.91962    149171.61   -47551.124    4023.0437   -51574.167   0.15148534 
   30600    294.66928   -130.63073    148740.74   -47500.727    4046.5729   -51547.299   0.14923126 
   30800     291.9817   -582.55692    149343.89   -47464.351    4009.6655   -51474.016   0.15069723 
   31000    292.27074   -862.37658    149732.19   -47446.961    4013.6348   -51460.596   0.15051753 
   31200    290.97431   -369.33346    149035.53   -47455.437    3995.8314   -51451.268   0.15461127 
   31400    293.66582   -139.83043    148756.11    -47456.15    4032.7928   -51488.942   0.15666468 
   31600    288.13623   -717.80054    149519.75   -47512.637    3956.8572   -51469.495   0.15522571 
   31800    291.36063   -780.11888    149646.01   -47481.571    4001.1366   -51482.707   0.14894498 
   32000    293.56128   -214.73889    148860.62   -47457.074    4031.3572   -51488.432   0.15029377 
   32200    296.46327   -283.08691    148859.36    -47493.23    4071.2091   -51564.439   0.15206228 
   32400    294.74133   -782.19013     149577.6   -47481.492    4047.5624   -51529.054   0.15674832 
   32600    294.14779   -656.45471    149464.87   -47466.543    4039.4116   -51505.954   0.15086249 
   32800     297.8858   -130.96913     148822.5    -47468.45    4090.7442   -51559.195   0.14868641 
   33000    294.92685   -382.63811    149108.32   -47457.653    4050.1101   -51507.763   0.15182061 
   33200    288.45811   -843.76617    149674.16   -47445.389    3961.2775   -51406.666   0.16330955 
   33400    293.85302   -515.09415    149340.18   -47407.813    4035.3636   -51443.177   0.15667682 
   33600    301.01539   -251.39358    148917.79   -47344.183    4133.7214   -51477.905   0.15616609 
   33800    295.81223   -532.68128    149286.21   -47378.072    4062.2687   -51440.341   0.15479777 
   34000    296.08826   -736.72638    149571.37   -47396.944    4066.0592   -51463.004   0.15404205 
   34200     296.8837   -491.24863    149218.64    -47431.75    4076.9828   -51508.733   0.15509169 
   34400    296.32461   -326.61612     148994.3   -47500.859     4069.305   -51570.164    0.1503499 
   34600    293.85449   -553.04177    149290.24    -47471.37    4035.3838   -51506.754   0.14898466 
   34800    290.60298   -643.47466    149394.99   -47511.246    3990.7322   -51501.978   0.14950717 
   35000    294.16937   -406.16203    149073.31   -47538.555     4039.708   -51578.263    0.1514543 
   35200    288.60623   -388.68212    149008.37   -47527.112    3963.3116   -51490.424   0.15819959 
   35400    288.33815   -614.90938     149322.8   -47484.729    3959.6302   -51444.359   0.15461326 
   35600    292.27301   -605.22448    149313.63   -47478.412     4013.666   -51492.078   0.15689691 
   35800    294.84631   -375.50455    149020.16   -47481.119    4049.0041   -51530.123   0.15378409 
   36000    294.03432   -450.81613     149104.3   -47482.248    4037.8533   -51520.101    0.1530858 
   36200     292.3564   -687.90909    149366.33   -47495.314    4014.8111   -51510.125   0.15565722 
   36400    293.23348   -471.96195     149224.6   -47522.568    4026.8557   -51549.423    0.1474374 
   36600    290.01033   -384.05547    148994.14   -47498.931    3982.5935   -51481.525   0.15251325 
   36800    286.70538   -447.83113    149186.94   -47540.629     3937.208   -51477.837   0.14695342 
   37000    292.05427   -593.35165    149344.23   -47528.649     4010.662   -51539.311   0.15516092 
   37200    292.14304   -479.63417    149134.49   -47491.554    4011.8811   -51503.435   0.15479471 
   37400    298.23845   -392.32675    149012.24   -47485.041     4095.587   -51580.628   0.14969329 
   37600    290.73785   -533.89232    149205.77   -47510.127    3992.5842   -51502.711   0.15231143 
   37800    294.59891   -571.58283     149313.2   -47474.237    4045.6066   -51519.844   0.15430645 
   38000    289.85166   -477.98453    149164.49   -47528.785    3980.4145     -51509.2   0.15786507 
   38200    292.19162   -392.56822    149074.38   -47523.651    4012.5482   -51536.199   0.15064705 
   38400    295.36863   -538.49882    149251.65   -47488.626    4056.1768   -51544.803   0.14938499 
   38600    289.11968   -579.12446    149326.05   -47484.973    3970.3626   -51455.335   0.15098474 
   38800    292.54648   -405.67252    149153.95   -47538.167    4017.4214   -51555.589   0.14591827 
   39000    287.24325   -458.45127    149095.61   -47565.577    3944.5943   -51510.172   0.15422744 
   39200    290.63064   -552.53831     149252.7   -47585.529     3991.112   -51576.641   0.14732898 
   39400    297.45829   -539.45264    149289.82   -47576.023    4084.8733   -51660.896    0.1458977 
   39600    290.59847   -448.66593    149099.25   -47647.956    3990.6703   -51638.626   0.14732972 
   39800    283.34152   -475.96425    149045.17   -47636.619    3891.0134   -51527.633   0.15463294 
   40000    283.81612   -569.08598    149240.48   -47646.984    3897.5309   -51544.515   0.15385735 
   40200    292.60353   -541.27614    149251.84   -47622.085    4018.2048    -51640.29   0.14801658 
   40400    290.33009    -397.6164    149038.08   -47618.124    3986.9846   -51605.109   0.14814312 
   40600    284.49474   -417.89942    149086.03   -47646.295    3906.8501   -51553.145   0.14680372 
   40800    287.04123   -610.48412    149319.82   -47663.406    3941.8201   -51605.226   0.14874166 
   41000    289.10251   -550.57625    149229.39   -47620.269    3970.1267   -51590.396   0.15273176 
   41200    285.35712   -354.76405    148959.82   -47654.579    3918.6929   -51573.271   0.15104196 
   41400    292.75377   -468.62043    149139.94   -47618.709    4020.2681   -51638.977   0.14718732 
   41600    288.92725   -719.37681    149453.03   -47610.733      3967.72   -51578.453   0.15659155 
   41800    288.84436   -461.14705    149168.06   -47611.739    3966.5817   -51578.321   0.15225312 
   42000    292.83453   -259.22805    148851.45   -47586.551    4021.3771   -51607.928   0.14698731 
   42200    291.62975    -549.2584    149281.62   -47610.855    4004.8324   -51615.688   0.14469352 
   42400    284.22353   -780.03864     149565.1   -47657.929    3903.1258   -51561.054   0.15008963 
   42600    284.70785   -404.43954    149022.76   -47689.106    3909.7767   -51598.883   0.14828929 
   42800    286.70339   -215.61596    148814.75   -47692.069    3937.1807    -51629.25   0.14231793 
   43000    288.84898   -696.15996    149457.77   -47642.562    3966.6452   -51609.207    0.1469768 
   43200    287.35384   -832.03831    149570.58   -47644.534     3946.113   -51590.647    0.1510686 
   43400    281.48546   -240.06484    148834.07   -47639.927    3865.5249   -51505.452   0.14400644 
   43600    288.92831   -249.23965     148870.4   -47636.362    3967.7346   -51604.097    0.1448456 
   43800    287.93687   -802.60155    149635.44   -47603.636    3954.1196   -51557.755   0.15518782 
   44000    283.00948   -721.04573    149475.67   -47622.626    3886.4537    -51509.08    0.1548082 
   44200    288.03763   -131.52783    148716.32   -47671.405    3955.5033   -51626.908   0.14301222 
   44400    290.22443   -349.38843    148984.09   -47645.744    3985.5337   -51631.277   0.14772235 
   44600    292.25591   -846.77166    149666.85    -47575.67    4013.4311   -51589.101   0.15630128 
   44800    291.94765   -596.00409    149319.57   -47542.334    4009.1979   -51551.532   0.15049886 
   45000    294.84861    -157.2047     148772.9   -47582.771    4049.0356   -51631.807   0.14213333 
   45200    288.88928   -521.63508       149185   -47601.388    3967.1986   -51568.587   0.14888302 
   45400    287.18446   -828.93836     149593.1   -47646.635     3943.787   -51590.422   0.15306261 
   45600    287.04165   -458.67332    149155.92   -47639.272    3941.8258   -51581.098   0.14970004 
   45800    291.42662   -222.40065    148866.42   -47616.002    4002.0428   -51618.044   0.14134554 
   46000    286.25562   -597.18443    149315.65   -47608.961    3931.0317   -51539.993    0.1503985 
   46200    290.68238   -726.31385    149515.78   -47640.922    3991.8224   -51632.745   0.14735545 
   46400     283.7635   -378.34867    149087.86   -47626.713    3896.8083   -51523.522   0.14720397 
   46600    290.48067   -328.01939     149010.3   -47626.519    3989.0525   -51615.571   0.14583035 
   46800    289.06064   -664.25815    149424.61   -47588.052    3969.5518   -51557.604   0.14492615 
   47000    288.46433   -584.82431    149426.51   -47565.632     3961.363   -51526.995   0.14150332 
   47200    296.37101   -338.41421    149085.91   -47539.913    4069.9421   -51609.855   0.14121548 
   47400    293.61474   -433.51826    149193.04   -47470.101    4032.0915   -51502.192   0.14723125 
   47600     294.4281   -656.37237       149504   -47442.028     4043.261   -51485.289   0.15026784 
   47800     297.2269   -513.71945    149324.95   -47412.799    4081.6958   -51494.495   0.14679586 
   48000    294.15134   -319.26667    149075.63   -47418.761    4039.4603   -51458.221   0.14584381 
   48200    292.28441   -509.41154    149297.27   -47417.362    4013.8225   -51431.184   0.15300214 
   48400    295.12901   -626.82771    149486.72    -47396.35    4052.8862   -51449.237   0.15365691 
   48600    295.05462   -499.33703    149234.62    -47462.47    4051.8647   -51514.335   0.15028719 
   48800    287.46786   -354.58442    149049.49   -47404.735    3947.6788   -51352.414   0.15007346 
   49000    295.94936   -556.40784       149344   -47381.215    4064.1518   -51445.367   0.14790005 
   49200     296.7039   -620.60146    149457.33   -47414.064    4074.5135   -51488.578   0.15183475 
   49400    290.90179   -381.29567    149160.87   -47426.362    3994.8356   -51421.198   0.15068444 
   49600    296.36138   -397.90718    149146.16    -47445.96    4069.8099    -51515.77   0.15010656 
   49800    296.67363   -621.98318    149446.94   -47422.942    4074.0979    -51497.04    0.1536309 
   50000    297.00351   -579.77348    149380.09   -47423.475     4078.628   -51502.103   0.15048565 
   50200    294.79183   -344.85112    149032.16   -47463.101    4048.2559   -51511.356    0.1500581 
   50400    291.66212   -459.26822    149138.58   -47467.327    4005.2768   -51472.604   0.15564359 
   50600    292.77353   -683.37105    149464.69   -47485.254    4020.5394   -51505.794   0.15447615 
   50800    296.53386   -532.74397    149276.65   -47497.481    4072.1785   -51569.659   0.14642852 
   51000     294.3906     -309.928    149000.77   -47434.747     4042.746   -51477.493   0.15178545 
   51200    290.84377   -523.73832    149299.83   -47462.802    3994.0388   -51456.841      0.15096 
   51400    296.04785   -676.75084    149544.77   -47424.591    4065.5043   -51490.096   0.15280666 
   51600    299.16941    -462.5394     149239.8   -47428.446    4108.3715   -51536.817   0.14870791 
   51800    293.79476   -356.86795    149034.67   -47426.299    4034.5636   -51460.862   0.15751623 
   52000    297.09778   -592.97999    149372.75   -47386.176    4079.9225   -51466.099   0.15446628 
   52200    300.91538   -656.39325    149562.36   -47355.917    4132.3481   -51488.265   0.14767461 
   52400    296.25671   -481.87862    149196.49   -47339.621    4068.3725   -51407.993   0.15716599 
   52600    297.33282   -320.69814    149026.04   -47380.392    4083.1503   -51463.542   0.15393278 
   52800    299.56609     -597.707    149421.75   -47396.445    4113.8188   -51510.264   0.15134211 
   53000    294.62091   -668.89665    149524.43   -47400.206    4045.9088   -51446.115    0.1559998 
   53200    299.42366    -343.6306    149065.71   -47413.194     4111.863   -51525.057   0.15018812 
   53400    295.22944   -298.57467    149028.89   -47442.395    4054.2654    -51496.66   0.14568504 
   53600    290.01772   -731.43241    149537.26   -47465.737     3982.695   -51448.432   0.15405395 
   53800    293.16979    -671.3784    149497.72   -47442.203    4025.9811   -51468.184    0.1534357 
   54000    291.69537   -274.23116    148991.44   -47436.216    4005.7335   -51441.949   0.15175743 
   54200    293.52634   -405.36265     149127.9   -47445.293    4030.8775    -51476.17   0.15253911 
   54400    293.45608   -792.08804    149614.17    -47467.21    4029.9125   -51497.123   0.14841526 
   54600    295.90771   -565.91798     149343.6   -47464.174    4063.5799   -51527.754   0.14824092 
   54800    294.47115   -184.76893    148866.76   -47410.544    4043.8522   -51454.396   0.14826044 
   55000    291.16707   -529.82285    149277.47   -47410.506    3998.4785   -51408.985   0.15527838 
   55200    293.40205   -798.28496    149695.01   -47435.675    4029.1706   -51464.846    0.1516951 
   55400    291.37333   -444.09552    149177.63    -47462.76    4001.3111   -51464.071   0.14566619 
   55600    287.77809   -222.65469    148835.92   -47502.049     3951.939   -51453.988   0.14822763 
   55800    290.22703   -620.00626    149411.53   -47471.245    3985.5693   -51456.815   0.14566269 
   56000    292.18584   -771.25492    149677.45   -47452.001     4012.469    -51464.47   0.14818712 
   56200    295.38702   -321.36883    149014.46   -47492.436    4056.4294   -51548.865   0.14562105 
   56400    296.43753   -203.61342    148834.38   -47496.309    4070.8556   -51567.165   0.14418877 
   56600    294.61091   -714.93683     149532.8   -47495.207    4045.7713   -51540.979   0.14490931 
   56800    294.23075   -743.99519    149576.94    -47442.91    4040.5508   -51483.461   0.14873404 
   57000    296.35126   -245.60989     148896.5   -47455.219    4069.6709    -51524.89   0.14890129 
   57200    291.35228   -258.60465    148978.33    -47485.84     4001.022   -51486.862   0.14843595 
   57400    293.74068   -796.62225    149630.27   -47500.018    4033.8208   -51533.839   0.14945288 
   57600     296.1549   -631.26022    149420.06   -47491.201    4066.9743   -51558.175   0.14378445 
   57800    291.99546   -185.01396    148842.38   -47506.824    4009.8545   -51516.678   0.14398166 
   58000    296.28064   -416.19883    149151.87   -47519.762    4068.7011   -51588.463   0.14426673 
   58200    288.87948     -848.015    149619.53     -47554.8     3967.064   -51521.865   0.15238533 
   58400    288.89631   -490.20834    149205.26   -47549.974    3967.2951   -51517.269   0.14626635 
   58600    293.37213   -227.68674    148850.19   -47531.888    4028.7598   -51560.647   0.14467621 
   58800    289.87026   -548.74182    149294.91   -47561.422    3980.6699   -51542.092   0.14717421 
   59000    289.36672   -746.68903    149526.45   -47582.971     3973.755   -51556.726   0.14814316 
   59200       292.25    -411.9491    149068.92   -47586.548      4013.35   -51599.898   0.14594357 
   59400    290.92588   -345.94359    148960.32   -47530.001    3995.1664   -51525.167   0.14780711 
   59600    296.43166   -587.81833    149433.72    -47522.44     4070.775   -51593.215   0.14044156 
   59800    291.75867   -649.03359    149453.25    -47506.89    4006.6027   -51513.493   0.14470207 
   60000    289.12079   -346.88801    149055.45   -47497.324    3970.3779   -51467.702    0.1416501 
   60200    294.41169   -401.82791    149105.95   -47470.351    4043.0356   -51513.386   0.14436579 
   60400    296.12647   -654.70828    149451.79   -47434.826    4066.5839    -51501.41   0.15046123 
   60600    296.91408     -597.716    149362.19   -47475.415    4077.3998   -51552.815   0.15049782 
   60800    294.63244   -302.15923    149064.26   -47415.354    4046.0671   -51461.421   0.14592304 
   61000    295.30893   -466.65213    149240.28   -47454.855     4055.357   -51510.212    0.1433886 
   61200     293.8821   -630.37682    149439.05   -47457.848     4035.763   -51493.611   0.14847064 
   61400     293.7522   -485.34761     149209.5   -47456.741     4033.979    -51490.72   0.14812739 
   61600    289.44539   -370.80396    149063.45   -47448.514    3974.8355   -51423.349   0.15345361 
   61800    295.14611   -531.48383    149305.32   -47447.439    4053.1211    -51500.56   0.14922265 
   62000    291.54227   -613.21235    149379.42   -47471.504     4003.631   -51475.135   0.14621736 
   62200    292.75918   -401.51111    149132.89   -47485.704    4020.3423   -51506.046   0.14550208 
   62400    292.35139   -404.37388    149132.47   -47446.276    4014.7423   -51461.018   0.14997569 
   62600    294.00931   -601.26254    149419.06   -47465.453    4037.5099   -51502.963   0.15320275 
   62800     295.8171   -595.06271    149369.93   -47442.794    4062.3356   -51505.129   0.15115477 
   63000    292.14931    -347.8879    149102.45   -47411.446    4011.9672   -51423.413   0.14592643 
   63200    295.68836   -447.25043    149211.42   -47416.808    4060.5676   -51477.376   0.14504433 
   63400    296.90786   -620.11974    149441.85   -47371.678    4077.3145   -51448.992   0.14855608 
   63600    294.05465    -572.4954    149339.29   -47352.406    4038.1325   -51390.539   0.15322824 
   63800     298.5493   -391.80045    149151.72   -47384.275    4099.8557   -51484.131   0.14616197 
   64000    297.90946    -484.1327    149291.76   -47376.542     4091.069   -51467.611   0.14729881 
   64200    298.66319   -603.07452    149446.22   -47377.877    4101.4196   -51479.297    0.1459817 
   64400    296.60247   -505.53001    149295.26   -47365.059    4073.1207    -51438.18   0.14734534 
   64600    291.91235   -411.27603    149174.99   -47422.335    4008.7132   -51431.048   0.15021435 
   64800    289.58916   -530.49261    149305.61   -47432.203    3976.8098   -51409.012   0.15007601 
   65000    295.45174    -584.7494     149357.3   -47422.021    4057.3182   -51479.339   0.14701409 
   65200    298.58197   -457.93663    149225.24   -47450.286    4100.3044    -51550.59   0.14660714 
   65400    295.81319   -456.94306    149215.32   -47476.124    4062.2819   -51538.406   0.14474728 
   65600    287.78403   -597.66443    149316.38    -47499.71    3952.0207   -51451.731   0.14971713 
   65800    297.57151   -543.46328    149310.57   -47474.929    4086.4281   -51561.357   0.14559807 
   66000    295.57518   -468.69825    149246.32   -47474.819    4059.0133   -51533.833   0.14841525 
   66200    295.65615   -481.64983    149258.11   -47500.337    4060.1253   -51560.463   0.14488293 
   66400    293.28598   -558.37164    149269.92    -47495.31    4027.5767   -51522.887   0.14775046 
   66600    293.01065   -489.62609    149242.92   -47508.114    4023.7957    -51531.91   0.14583676 
   66800    293.17211   -482.12368    149249.53   -47490.415    4026.0129   -51516.428   0.14285731 
   67000    291.46249   -520.22883    149304.08   -47519.675    4002.5354   -51522.211   0.14488509 
   67200     292.1096   -535.61728    149296.11   -47540.305    4011.4219   -51551.727   0.14361789 
   67400    290.99588   -480.58219    149200.52   -47575.494    3996.1277   -51571.622   0.14613183 
   67600    293.96642   -466.92914    149227.07   -47530.974    4036.9209   -51567.895   0.13943215 
   67800    294.87493   -576.07022    149337.41   -47477.528     4049.397   -51526.925    0.1448481 
   68000    297.50209   -496.95748    149285.66    -47472.59    4085.4748   -51558.065   0.14484972 
   68200     287.6529    -477.1532    149175.54    -47545.27    3950.2199    -51495.49   0.14735484 
   68400    294.27161    -425.5578    149206.76   -47488.222     4041.112   -51529.334   0.14368179 
   68600    292.45319   -533.39789    149331.78   -47472.306    4016.1403   -51488.446    0.1444364 
   68800    299.13999    -518.0521    149309.75   -47440.624    4107.9674   -51548.591   0.14035607 
   69000    293.52856    -449.9204    149189.07   -47487.098    4030.9079   -51518.006   0.14523823 
   69200    290.10973    -465.2946    149198.16   -47491.376    3983.9585   -51475.335   0.14993653 
   69400     296.7428   -547.51214    149283.12   -47530.883    4075.0477   -51605.931   0.14841823 
   69600    290.65082   -523.53618    149265.65   -47542.957    3991.3891   -51534.346   0.14648575 
   69800    292.21041   -449.84472    149173.73   -47509.604    4012.8063    -51522.41   0.14293661 
   70000     294.8278   -456.76041    149235.28   -47469.361    4048.7499   -51518.111   0.14848672 
   70200    292.03702   -563.10661    149340.47    -47451.13    4010.4252   -51461.556   0.15183905 
   70400    292.71205   -455.34156    149248.86   -47465.046    4019.6951   -51484.741   0.14480964 
   70600    296.44261   -420.02624    149164.59   -47438.717    4070.9254   -51509.643   0.14526973 
   70800     295.5703   -516.44952     149302.1   -47462.727    4058.9463   -51521.673   0.14395755 
   71000    291.44026   -594.41238    149380.76   -47506.436    4002.2302   -51508.667   0.14562441 
   71200    291.13509   -491.90212    149188.92   -47516.494    3998.0394   -51514.534   0.15194003 
   71400    292.12354   -384.13095    149122.53    -47484.05    4011.6133   -51495.663   0.14931132 
   71600    294.94788   -558.45554    149427.77   -47460.156    4050.3988   -51510.554   0.14657176 
   71800    292.89102   -649.81252    149488.55   -47480.494    4022.1529   -51502.647   0.14753657 
   72000    292.76724   -380.23404    149092.35   -47509.527     4020.453    -51529.98   0.14577483 
   72200    289.30283   -373.59871    149087.73   -47544.876    3972.8777   -51517.754    0.1445341 
   72400    293.71069   -696.08971    149558.34   -47524.284    4033.4091   -51557.693   0.14022397 
   72600    291.77697   -653.12532    149451.74   -47490.303     4006.854   -51497.157   0.14826481 
   72800    286.13832   -242.91156    148913.38   -47570.585    3929.4207   -51500.005   0.14606789 
   73000    296.34312   -370.35421    149119.64   -47568.006    4069.5591   -51637.565   0.13547764 
   73200    286.41762   -857.06333    149648.43   -47576.067    3933.2563   -51509.323   0.15127037 
   73400    288.35619   -553.46256    149252.89   -47574.147    3959.8779   -51534.025   0.15006877 
   73600    292.77683   -126.01117    148750.62   -47560.262    4020.5848   -51580.847   0.14409358 
   73800    285.91903     -538.311    149299.69   -47552.157    3926.4094   -51478.567   0.15065885 
   74000    289.06911   -852.67016    149735.66   -47595.011    3969.6681   -51564.679   0.14787386 
   74200    290.68327   -365.64859     149078.1     -47596.2    3991.8347   -51588.035   0.14174179 
   74400     291.2709   -113.49178    148780.96   -47559.914    3999.9044   -51559.818   0.13873063 
   74600    288.93988   -659.09082    149455.27   -47579.382    3967.8934   -51547.275   0.14328733 
   74800    292.96969   -802.36993    149606.19   -47587.502    4023.2332   -51610.735    0.1524064 
   75000    292.72949   -261.43439    148933.68   -47554.475    4019.9346    -51574.41   0.14546048 
   75200    287.06282   -318.21498    148952.39   -47541.963    3942.1165   -51484.079   0.14662321 
   75400     288.2776   -796.17792     149614.9   -47525.152    3958.7987    -51483.95   0.15178773 
   75600      290.112    -671.9012    149506.75    -47503.45    3983.9896    -51487.44   0.14472742 
   75800    290.83972   -202.30956    148893.67   -47485.031    3993.9832   -51479.015   0.14700158 
   76000    293.26837   -386.24113    149090.46   -47470.826    4027.3348   -51498.161   0.14923773 
   76200    289.42227   -755.59453    149597.73   -47492.236    3974.5179   -51466.754   0.14823691 
   76400    295.13733   -567.57313    149303.73    -47463.97    4053.0005    -51516.97   0.14515964 
   76600    294.38263   -227.43966    148901.07   -47452.738    4042.6365   -51495.374   0.14329035 
   76800    295.60792    -489.7029    149245.86   -47450.998    4059.4629   -51510.461    0.1473302 
   77000    292.11841   -709.60954    149554.79   -47449.229    4011.5429   -51460.771   0.15003438 
   77200    290.10525     -466.306    149195.89   -47498.763     3983.897    -51482.66   0.14918892 
   77400    291.97539   -265.96898     148964.9   -47490.229    4009.5789   -51499.807   0.14310937 
   77600    288.01781   -616.75548    149367.45   -47504.342     3955.231   -51459.573   0.14971185 
   77800    288.86198   -686.08141    149492.07   -47514.484    3966.8237   -51481.307   0.14949525 
   78000    293.45458   -353.93555    149107.89   -47518.352     4029.892   -51548.244   0.14255889 
   78200    292.70901   -380.71492     149106.6   -47512.869    4019.6534   -51532.523   0.14170149 
   78400    292.67162   -659.76548    149455.92   -47531.054      4019.14   -51550.193   0.14519145 
   78600    292.38668   -581.15851    149383.01   -47549.507    4015.2269   -51564.734   0.14347418 
   78800    288.91395   -391.84236    149070.29   -47537.974    3967.5374   -51505.511   0.15155676 
   79000    288.51674   -432.65766    149218.36   -47519.334    3962.0827   -51481.417   0.14171751 
   79200    291.46128   -657.65064    149511.52   -47528.743    4002.5188   -51531.262   0.14496527 
   79400    290.57505   -519.23632     149317.2   -47483.432    3990.3486    -51473.78   0.14928055 
   79600    296.49792   -325.51494    149092.47   -47475.846    4071.6849   -51547.531   0.14322738 
   79800    296.02548   -527.21677    149291.44   -47501.797    4065.1972   -51566.994   0.14589869 
   80000    296.04029   -613.90916    149437.72   -47471.462    4065.4005   -51536.863   0.14458905 
   80200    298.51272   -463.86974    149277.46   -47438.172    4099.3533   -51537.525   0.14362668 
   80400    295.65724    -457.5657    149240.52   -47408.361    4060.1402   -51468.502   0.14627907 
   80600    295.76875   -576.29175    149372.36   -47427.592    4061.6716   -51489.264   0.14850297 
   80800    297.19431   -483.68335    149330.76   -47371.015    4081.2482   -51452.263   0.14920841 
   81000    290.83303   -467.31366    149276.59   -47423.997    3993.8913   -51417.888   0.14332985 
   81200    289.52794   -492.20533     149306.8    -47403.82    3975.9691   -51379.789   0.14822388 
   81400    294.71825   -514.27898    149324.46   -47380.521    4047.2455   -51427.766   0.15170789 
   81600    297.21907   -493.98071    149305.03   -47402.689    4081.5881   -51484.277    0.1477801 
   81800    294.16406   -494.39625    149339.12   -47405.815    4039.6349    -51445.45   0.14625391 
   82000     293.6383   -508.78759    149358.01    -47372.51    4032.4149   -51404.925   0.14577693 
   82200    295.85706    -508.6568    149325.65   -47418.651    4062.8842   -51481.535    0.1506872 
   82400    298.74443   -497.90902     149276.4    -47421.88    4102.5353   -51524.415   0.14661109 
   82600    293.46511    -535.8011    149277.12   -47464.055    4030.0366   -51494.091   0.14958074 
   82800    293.69995   -508.50901    149228.32    -47503.94    4033.2615   -51537.202   0.14841389 
   83000    295.30068   -443.42814    149181.93   -47487.361    4055.2438   -51542.605    0.1457093 
   83200    290.43954   -570.53921    149242.32   -47506.511    3988.4877   -51494.998   0.15214475 
   83400    292.49797    -531.5848    149271.12   -47525.853    4016.7553   -51542.608   0.14784525 
   83600    295.23073   -447.10854    149197.46    -47542.96    4054.2831   -51597.243   0.14298287 
   83800     292.6192   -478.91277    149210.49   -47492.202      4018.42   -51510.622   0.14627082 
   84000    294.59146   -522.07681    149274.95    -47522.05    4045.5043   -51567.554   0.14491924 
   84200    290.41922   -475.22865    149189.28   -47509.138    3988.2087   -51497.347    0.1479565 
   84400    293.24079    -418.6419    149128.83   -47513.632    4026.9561   -51540.588   0.15002486 
   84600    291.14246   -554.87331    149271.73   -47508.859    3998.1406       -51507   0.14872371 
   84800    291.25544   -565.48069    149317.13   -47517.569    3999.6921   -51517.261   0.14750348 
   85000    293.28852   -406.38002    149154.83   -47482.397    4027.6116   -51510.009   0.14427723 
   85200    292.39939   -419.97595    149192.48   -47452.307    4015.4015   -51467.708   0.14912378 
   85400    293.61147   -595.80358    149417.72   -47437.388    4032.0465   -51469.434   0.15250702 
   85600    291.90344   -555.83909    149351.82   -47435.359    4008.5908    -51443.95    0.1458353 
   85800    295.57925   -451.57011    149148.25   -47451.884    4059.0692   -51510.953   0.14443515 
   86000     295.5003   -440.47029    149218.34   -47404.266    4057.9851   -51462.251   0.14497767 
   86200    293.16351    -621.6229    149413.92   -47413.555    4025.8948   -51439.449   0.14869059 
   86400    296.95806   -492.08787    149281.45   -47408.454    4078.0038   -51486.457   0.15359224 
   86600    293.42721    -407.9787    149072.74   -47408.482    4029.5162   -51437.998   0.15546035 
   86800    293.76625   -486.51045    149283.86   -47436.963     4034.172   -51471.135   0.14879045 
   87000    295.47858   -691.26996    149500.99   -47457.846    4057.6868   -51515.533   0.14544045 
   87200    293.55365   -473.39138    149196.16   -47428.808    4031.2524    -51460.06   0.15038012 
   87400      298.031   -291.79934    149005.05   -47393.977    4092.7382   -51486.715   0.15009996 
   87600    295.63463   -616.17788    149409.06   -47458.409    4059.8297   -51518.239   0.14944714 
   87800    294.04883   -680.63754    149554.23   -47463.539    4038.0526   -51501.591   0.14542119 
   88000    292.25309   -329.52054     149070.4   -47417.716    4013.3924   -51431.109   0.14785642 
   88200    296.20128   -305.82728    149052.62   -47431.156    4067.6112   -51498.767   0.14522505 
   88400    296.76908   -711.65803    149596.48   -47412.917    4075.4087   -51488.326   0.14652782 
   88600    291.34087   -650.41524    149478.57   -47427.416    4000.8653   -51428.281   0.15208774 
   88800    295.31861    -200.8132    148893.84   -47422.401    4055.4899   -51477.891   0.15249972 
   89000    295.52885   -401.71519    149139.66   -47444.186     4058.377   -51502.563   0.14941158 
   89200    292.37652    -823.5465    149728.78   -47412.046    4015.0874   -51427.134   0.15169691 
   89400    297.37412    -547.5751    149375.32   -47387.325    4083.7174   -51471.043   0.14715069 
   89600    295.57548   -181.59151    148840.76   -47413.683    4059.0175     -51472.7   0.15038428 
   89800    292.68404   -520.38274    149276.43   -47447.776    4019.3104   -51467.087   0.15103442 
   90000    291.84621   -856.30757    149705.96   -47459.479    4007.8049   -51467.284   0.15368945 
   90200    292.90466    -414.4808     149185.3   -47510.369    4022.3401   -51532.709   0.14732785 
   90400    292.33864   -169.80717    148863.86   -47532.826    4014.5673   -51547.394   0.14131328 
   90600    295.49455    -583.0783    149437.09    -47522.74     4057.906   -51580.646   0.14644467 
   90800      288.996   -779.95876    149636.74   -47542.969    3968.6641   -51511.633   0.15059788 
   91000    291.46975   -353.15626    149009.25   -47548.713    4002.6352   -51551.348   0.15198444 
   91200    290.38858   -259.96917    148919.13   -47563.563    3987.7879   -51551.351   0.14570409 
   91400    292.10071   -702.92487    149511.45   -47549.516    4011.2999   -51560.816    0.1451671 
   91600    290.20614   -668.75407    149452.79   -47553.501    3985.2824   -51538.783   0.14670166 
   91800    293.99432   -240.88625    148908.81   -47533.254     4037.304   -51570.558   0.14790861 
   92000    289.04068   -392.37344    149070.82   -47548.452    3969.2777   -51517.729   0.15239814 
   92200    288.15705   -759.64711    149567.29   -47566.116    3957.1432   -51523.259    0.1535046 
   92400    285.19145   -567.56867    149329.85   -47546.359    3916.4178   -51462.777   0.14722126 
   92600    287.20911   -255.74204    148904.04   -47606.485    3944.1255    -51550.61   0.14161395 
   92800    293.33438    -509.3281    149191.04   -47575.634    4028.2413   -51603.875   0.15185405 
   93000     293.9421   -738.36323    149553.78   -47499.037    4036.5869   -51535.624   0.15342248 
   93200    292.94031   -529.78526    149266.34   -47499.562    4022.8298   -51522.392   0.15260045 
   93400      294.198   -252.38978    148946.89   -47504.939     4040.101    -51545.04    0.1447826 
   93600    291.64204   -522.86529     149269.6   -47487.125    4005.0012   -51492.126   0.14844709 
   93800     295.9475   -740.36022    149525.17   -47474.138    4064.1262   -51538.264   0.15102474 
   94000     292.2384   -429.11798    149164.77   -47478.189    4013.1906    -51491.38    0.1490494 
   94200    293.74436   -325.93086    148976.83    -47561.85    4033.8714   -51595.721   0.14780988 
   94400    291.13643   -556.76078    149317.25   -47544.169    3998.0578   -51542.227   0.14869993 
   94600    291.03181   -652.91146    149433.51   -47540.246    3996.6211   -51536.867    0.1462721 
   94800    288.30124    -424.6638     149085.4   -47594.061    3959.1233   -51553.184   0.14552749 
   95000    291.30105   -323.22716    148985.45   -47601.255    4000.3184   -51601.573   0.14400876 
   95200    296.32349   -558.42604    149300.06   -47605.747    4069.2896   -51675.037    0.1447615 
   95400    287.76539   -632.33974    149334.47   -47616.159    3951.7646   -51567.924   0.15331878 
   95600    288.90806   -393.29961    149007.18   -47580.442    3967.4565   -51547.899   0.15100203 
   95800    292.58717   -335.57711       149050   -47543.811    4017.9803   -51561.791   0.14471986 
   96000    290.94969   -666.94879    149392.88   -47532.601    3995.4933   -51528.094   0.15035612 
   96200    286.53898   -599.58342    149254.47   -47575.512    3934.9228   -51510.434   0.15187965 
   96400    290.34633   -322.83654    148984.96   -47570.164    3987.2077   -51557.372   0.14673305 
   96600    290.30553   -511.52904    149188.44   -47581.961    3986.6474   -51568.609   0.15113162 
   96800    287.44896   -609.86208    149352.79    -47632.07    3947.4193    -51579.49   0.14804027 
   97000    289.01709   -444.51018    149108.37   -47617.757    3968.9538    -51586.71   0.15105336 
   97200     289.5666    -369.7177    149040.36   -47604.334    3976.4999   -51580.834   0.14604715 
   97400      293.406    -513.8842    149257.99     -47557.2    4029.2248   -51586.424   0.14889128 
   97600    289.97783   -551.28391    149306.62   -47528.892    3982.1472   -51511.039   0.15587193 
   97800    287.10353   -422.74084    149142.47   -47523.681    3942.6756   -51466.356   0.15661535 
   98000    291.86335    -440.7117    149111.62   -47494.871    4008.0402   -51502.911   0.15085088 
   98200    293.67789   -525.76598    149239.86   -47503.985    4032.9586   -51536.944     0.153696 
   98400    292.81041   -555.23582    149256.59   -47431.589    4021.0458   -51452.634   0.15881246 
   98600    292.05297    -511.7754    149172.13   -47478.901    4010.6442   -51489.545   0.16020249 
   98800    294.66613   -447.01566    149162.02   -47440.459    4046.5297   -51486.989   0.15732316 
   99000    292.79085   -525.96712    149266.28    -47442.27    4020.7772   -51463.047    0.1577977 
   99200    292.41184   -569.58159    149286.57   -47508.084    4015.5725   -51523.656   0.15641956 
   99400    291.18414   -446.24648    149152.37   -47601.421    3998.7129   -51600.134   0.14855939 
   99600    293.75318   -442.06982    149102.89   -47625.617    4033.9926   -51659.609    0.1498755 
   99800    282.60112    -540.2591    149230.81   -47595.967    3880.8458   -51476.812    0.1518979 
  100000    292.97394   -580.76684    149270.24   -47597.635    4023.2916   -51620.927   0.14911463 
  100200    290.89114   -472.50449    149156.13   -47555.266    3994.6893   -51549.956   0.15326866 
  100400    295.01266   -432.85495    149143.34   -47553.492    4051.2884   -51604.781   0.14713836 
  100600      295.101   -531.40102    149280.35   -47500.967    4052.5016   -51553.469   0.15334577 
  100800    290.17047   -521.82832    149295.78   -47531.229    3984.7926   -51516.021   0.15273468 
  101000    291.24896   -432.59054     149182.5   -47514.277    3999.6031    -51513.88   0.15431272 
  101200    291.52636    -476.8663    149186.37    -47493.76    4003.4126   -51497.173   0.15380069 
  101400    290.13375   -531.85239    149308.99   -47499.589    3984.2883   -51483.877   0.15410736 
  101600    288.23557   -549.81302    149272.01   -47516.619    3958.2214   -51474.841    0.1571348 
  101800    293.69832   -398.15598    149143.95   -47483.783    4033.2392   -51517.022   0.15137444 
  102000    293.09328   -455.10092    149223.85   -47484.547    4024.9303   -51509.478    0.1466255 
  102200    295.72234   -600.20824    149324.01   -47476.314    4061.0342   -51537.348   0.15465619 
  102400    294.22535   -453.54021    149202.58   -47419.205    4040.4767   -51459.682   0.15582172 
  102600    289.68209   -457.20202    149149.67   -47431.175    3978.0859   -51409.261   0.15419769 
  102800    294.51488   -549.87044    149323.33   -47441.415    4044.4527   -51485.868   0.15261999 
  103000    292.11984   -620.30961    149393.83    -47434.86    4011.5626   -51446.423   0.16030409 
  103200    297.64188   -485.26165    149210.27   -47417.036    4087.3945   -51504.431   0.15574375 
  103400    293.33707   -425.36719    149129.86   -47446.973    4028.2782   -51475.251   0.15394719 
  103600    289.69041   -578.82956    149342.25   -47448.571    3978.2002   -51426.772   0.15429198 
  103800    290.69312   -608.86407    149379.65   -47453.112    3991.9699   -51445.082   0.15261614 
  104000    292.78343   -386.37072    149052.43   -47464.442    4020.6754   -51485.118   0.15081359 
  104200    290.72957   -368.72321    149069.44   -47478.662    3992.4706   -51471.132    0.1521464 
  104400    286.51073   -708.96383    149500.76   -47492.388     3934.535   -51426.923   0.15725866 
  104600    295.00851   -651.48257    149436.72   -47489.195    4051.2315   -51540.427   0.14805303 
  104800    294.46604   -264.07936    148939.28   -47483.664     4043.782   -51527.446   0.14686278 
  105000    290.49804   -434.57316    149127.24   -47512.823    3989.2911   -51502.114   0.15257681 
  105200    295.29849   -724.93192    149619.74   -47508.664    4055.2136   -51563.877   0.14733557 
  105400    290.71498   -542.36866    149306.57   -47502.595    3992.2701   -51494.865   0.15198351 
  105600    291.26076   -183.61351     148845.2   -47504.781    3999.7651   -51504.546   0.14906803 
  105800    287.42867   -530.91095    149238.66   -47519.697    3947.1406   -51466.838   0.15180285 
  106000    293.08022   -790.96624    149597.28   -47496.509    4024.7511    -51521.26   0.15376853 
  106200    288.43172   -399.61036    149100.26   -47475.598    3960.9151   -51436.513   0.15320106 
  106400    294.74336   -215.66514    148856.59   -47490.216    4047.5903   -51537.806   0.15120428 
  106600    290.62961   -654.74342    149434.09   -47487.669    3991.0978   -51478.766   0.15138099 
  106800    293.96424   -704.65377    149541.56   -47479.212     4036.891   -51516.103   0.14878112 
  107000    299.58685   -272.23774    148935.04   -47440.417    4114.1039   -51554.521   0.14873339 
  107200    294.90451   -276.84096    148955.39   -47429.045    4049.8033   -51478.849    0.1524721 
  107400    296.30519   -749.36219    149573.87   -47431.099    4069.0382   -51500.137    0.1556103 
  107600    291.99372   -658.38303    149464.95   -47408.234    4009.8306   -51418.065   0.15715635 
  107800    296.03114   -241.60668     148914.3   -47433.892    4065.2749   -51499.167    0.1479634 
  108000    294.99452   -392.63738     149096.4   -47409.669    4051.0393   -51460.709   0.15385264 
  108200    290.48578   -779.96769    149602.84   -47437.923    3989.1227   -51427.046   0.15736726 
  108400    290.12788   -609.43644    149335.74   -47436.401    3984.2078   -51420.609   0.15142937 
  108600    301.23746   -227.71628    148896.89   -47411.387    4136.7711   -51548.158   0.14761302 
  108800    293.24834    -477.6189    149240.21   -47432.357    4027.0597   -51459.417   0.14826122 
  109000    291.99977   -752.48345     149580.6   -47467.955    4009.9137   -51477.869   0.15173018 
  109200    291.96303   -427.89778    149190.12   -47473.234    4009.4091   -51482.643   0.14659392 
  109400    296.43158   -277.31807    148973.48   -47461.238    4070.7739   -51532.012   0.14660585 
  109600    296.03703   -593.36305     149392.3   -47419.622    4065.3557   -51484.977   0.15298267 
  109800    292.91138   -735.42935    149499.29   -47469.203    4022.4324   -51491.636   0.15325601 
  110000    296.78725   -326.04232       149035   -47411.735    4075.6582   -51487.394   0.15163225 
  110200    296.31159   -326.14409    149061.58   -47398.343    4069.1261   -51467.469   0.15023901 
  110400    293.17986   -701.55317    149489.99   -47447.134    4026.1194   -51473.253    0.1502489 
  110600    293.72745   -593.78077    149359.44   -47520.804    4033.6392   -51554.443   0.14590026 
  110800    290.18089   -353.49401    148974.24   -47519.273    3984.9357   -51504.209   0.15028235 
  111000    292.72106    -417.6373    149104.79   -47520.455    4019.8188   -51540.274   0.14729331 
  111200    289.04358   -655.64738    149413.62   -47505.298    3969.3176   -51474.615   0.15184183 
  111400    287.74446   -541.44701    149284.24   -47560.091    3951.4772   -51511.568   0.14707799 
  111600     289.2705   -374.94731    149043.03   -47616.489    3972.4337   -51588.922   0.14671992 
  111800    286.07471   -464.29157    149184.67   -47647.156    3928.5473   -51575.704   0.14599555 
  112000    292.82938   -595.15252     149344.3   -47638.785    4021.3064   -51660.091   0.14506432 
  112200    286.80024   -488.59436    149213.64   -47597.402    3938.5106   -51535.913   0.14342363 
  112400     295.2412   -423.62563    149150.86   -47566.985     4054.427   -51621.412   0.13944485 
  112600    292.70345   -576.81268    149299.06   -47540.834    4019.5771   -51560.411   0.14673233 
  112800    291.99474   -542.71336    149313.44    -47556.83    4009.8446   -51566.675   0.14842125 
  113000     291.7764     -477.684    149199.76   -47535.967    4006.8462   -51542.813    0.1477018 
  113200    295.08195   -464.57598    149222.49   -47572.225      4052.24   -51624.465   0.14052476 
  113400    295.69046   -521.84625    149290.52    -47551.79    4060.5965   -51612.386   0.14260613 
  113600    287.84152   -490.15842    149237.37   -47556.396    3952.8101   -51509.207   0.14839288 
  113800    291.65903   -435.77062    149211.65   -47539.137    4005.2344   -51544.371   0.14761038 
  114000    290.23823   -530.58009    149298.79   -47525.043    3985.7231   -51510.767   0.14848565 
  114200     293.6518   -549.48742    149320.89   -47538.101    4032.6003   -51570.702    0.1440729 
  114400    295.09059   -498.85343    149212.49   -47479.939    4052.3587   -51532.298   0.14695619 
  114600    298.48283   -440.69719    149198.13   -47452.864    4098.9429   -51551.807   0.14310753 
  114800    297.77993   -529.66427    149306.93   -47438.102    4089.2902   -51527.392    0.1481628 
  115000     298.7731   -506.83248    149296.15   -47467.866    4102.9291   -51570.795   0.14161673 
  115200    294.68151   -474.87252    149178.42   -47483.555    4046.7409   -51530.296   0.14555324 
  115400    295.07448   -437.40399    149187.87   -47495.334    4052.1374   -51547.471   0.14940752 
  115600    291.60633   -530.89652    149290.14    -47476.55    4004.5108   -51481.061   0.15205226 
  115800    290.48349   -554.31417    149246.73   -47493.076    3989.0912   -51482.167   0.15393488 
  116000    292.93918   -436.34861     149128.3   -47478.496    4022.8142    -51501.31   0.14783508 
  116200     290.6824   -487.89611    149191.54   -47496.232    3991.8228   -51488.054   0.15082948 
  116400    293.50418   -574.12956    149284.53   -47537.471    4030.5731   -51568.044   0.14649795 
  116600    292.01823   -523.30712    149211.46   -47548.984    4010.1672   -51559.151   0.14354441 
  116800    289.38766   -477.54504    149112.36   -47505.303    3974.0427   -51479.346   0.14901581 
  117000    287.55578   -488.05409    149207.86   -47511.169    3948.8861   -51460.055   0.14747617 
  117200    289.87091   -528.92281    149307.52   -47500.167    3980.6789   -51480.846   0.14979174 
  117400    289.85323   -494.38709    149213.37   -47527.218    3980.4361   -51507.654   0.14730191 
  117600    295.17912   -411.15903    149107.07   -47508.217    4053.5744   -51561.792   0.14809066 
  117800     287.0913   -530.02838    149243.06    -47467.23    3942.5077   -51409.738   0.15380225 
  118000    296.12933   -574.07949    149317.29   -47458.117    4066.6232    -51524.74   0.15021951 
  118200    287.67631   -430.72288    149118.67   -47493.474    3950.5413   -51444.016   0.15133416 
  118400    291.79282   -399.44184     149052.8   -47544.972    4007.0717   -51552.044   0.15103781 
  118600    290.23515    -612.8092    149270.92    -47570.65    3985.6808   -51556.331   0.14972462 
  118800    293.71454   -555.75768    149301.39   -47619.666     4033.462   -51653.128   0.13665327 
  119000    287.84582   -418.10749    149057.63   -47619.628    3952.8691   -51572.497   0.14440399 
  119200    284.65974   -446.28359    149072.56   -47621.497    3909.1161   -51530.613   0.14797846 
  119400    288.46486   -630.65531    149338.65   -47645.466    3961.3703   -51606.836   0.15191382 
  119600     290.6388    -590.3001    149259.86   -47585.641    3991.2241   -51576.865   0.14964132 
  119800    293.41628   -344.71665    148985.44   -47583.538     4029.366   -51612.904   0.14812176 
  120000    290.79089   -451.17544    149134.87   -47600.958    3993.3126   -51594.271   0.14952561 
  120200     289.0574   -701.09274    149426.71   -47571.155    3969.5073   -51540.662   0.15085997 
  120400    284.48393   -528.44408    149207.53   -47619.136    3906.7017   -51525.838   0.15232154 
  120600    288.12324   -317.10845    148951.35   -47615.026    3956.6789   -51571.705   0.14581114 
  120800    285.13776   -573.34872    149293.88   -47604.306    3915.6805   -51519.986   0.14804672 
  121000    289.17879   -691.17055    149500.16   -47586.849    3971.1743   -51558.023   0.14344504 
  121200    288.94797    -409.0234    149105.63   -47588.107    3968.0046   -51556.112   0.14626283 
  121400    293.13746   -308.93641     148973.3   -47589.783    4025.5371    -51615.32   0.14750647 
  121600    288.09064   -654.37196    149395.73   -47576.937    3956.2312   -51533.168   0.15373563 
  121800     290.2559   -632.33795    149461.32   -47573.738    3985.9658   -51559.704   0.14751526 
  122000    290.50718   -344.03169    149026.88    -47554.72    3989.4165   -51544.136   0.14551002 
  122200    291.70383   -349.85662    149045.28   -47523.075    4005.8497   -51528.925   0.14755041 
  122400    294.47085   -687.60105    149523.73   -47473.801    4043.8481   -51517.649   0.14968687 
  122600    290.89348   -632.61164    149422.24   -47394.732    3994.7214   -51389.454   0.15408048 
  122800    293.99233    -311.4421    148986.76   -47398.412    4037.2767   -51435.688   0.15206655 
  123000    294.70222   -383.87229    149180.72   -47445.293    4047.0253   -51492.318     0.145248 
  123200    298.13594   -708.27388    149565.19   -47465.654    4094.1792   -51559.833   0.14967705 
  123400    288.54826   -576.06154     149260.8   -47551.567    3962.5155   -51514.082   0.15354293 
  123600    293.26484   -215.69878    148865.98   -47501.747    4027.2864   -51529.034   0.14816175 
  123800    297.97903   -510.70762    149284.35   -47522.937    4092.0244   -51614.961   0.14638704 
  124000    287.53748   -796.60159    149642.87   -47500.179    3948.6348   -51448.814   0.15205398 
  124200    292.59157   -441.92614    149153.79   -47488.978    4018.0406   -51507.019   0.15040924 
  124400    293.00746   -241.42628    148897.39   -47505.175    4023.7519   -51528.927   0.14923114 
  124600    289.16467   -656.08666    149482.61   -47518.934    3970.9804   -51489.914   0.14449133 
  124800     295.4457   -781.72675    149659.18   -47522.302    4057.2352   -51579.537   0.14563721 
  125000    288.89022   -309.92203    149024.17   -47535.548    3967.2115    -51502.76   0.14831528 
  125200    291.16605   -250.08756    148957.51   -47527.415    3998.4645   -51525.879   0.14960111 
  125400    287.47132   -749.68125    149590.28   -47590.974    3947.7263     -51538.7   0.14829052 
  125600     288.3514   -653.48522    149495.04   -47584.951    3959.8121   -51544.763   0.14918081 
  125800    286.34885   -277.07713     148895.8   -47580.645    3932.3119   -51512.957   0.15366072 
  126000    287.69285   -394.99447    149092.67   -47547.914    3950.7686   -51498.683   0.15201664 
  126200    294.05254    -749.0625     149613.7    -47523.82    4038.1035   -51561.924   0.14683374 
  126400     286.3734   -562.23205    149314.27   -47553.987    3932.6491   -51486.636   0.14631887 
  126600    288.51035   -250.52227    148867.01   -47583.393    3961.9949   -51545.388   0.14742771 
  126800    294.72463   -482.78141    149244.41   -47553.717    4047.3331    -51601.05   0.14458548 
  127000    292.58807   -764.85476    149587.09   -47566.487    4017.9926    -51584.48   0.15168772 
  127200    285.49203   -449.09188    149132.49   -47604.042    3920.5455   -51524.587   0.14685648 
  127400    290.88531   -261.81472    148925.68   -47604.984    3994.6093   -51599.593   0.14488089 
  127600    288.19305   -630.78713    149367.58   -47596.942    3957.6375    -51554.58   0.14845137 
  127800    290.20708   -662.19752    149437.16   -47584.589    3985.2954   -51569.885   0.15257041 
  128000    288.00873   -378.76218    149027.84   -47583.655    3955.1063   -51538.761   0.14886741 
  128200    290.16373    -380.7312    149018.26   -47550.026       3984.7   -51534.726   0.14860281 
  128400    286.96229   -671.11774    149367.13   -47573.236     3940.736   -51513.972   0.15090846 
  128600    290.51921   -599.61211    149335.65   -47605.216    3989.5817   -51594.798   0.14652259 
  128800     287.3772   -370.74809    149039.47   -47643.685    3946.4338   -51590.119   0.14618796 
  129000    284.58072   -416.58345    149096.42   -47676.936    3908.0309   -51584.967   0.14449657 
  129200    289.96483   -584.99014    149360.72   -47633.209    3981.9686   -51615.178   0.14203472 
  129400     286.7705   -532.28345    149290.66   -47631.963    3938.1022   -51570.065   0.14336378 
  129600    286.36983   -382.90314    149065.11   -47633.854       3932.6   -51566.454   0.14814111 
  129800    288.36946   -506.81614    149184.89   -47645.722    3960.0601   -51605.782   0.15353978 
  130000    287.89543   -647.10101    149382.99   -47653.684    3953.5505   -51607.235   0.14775351 
  130200    291.40302   -514.26908    149229.12   -47673.462    4001.7188   -51675.181   0.14690378 
  130400     287.3774   -368.88891    149074.42   -47657.976    3946.4366   -51604.413   0.14643886 
  130600    289.66671   -522.23227    149270.25   -47613.575    3977.8748   -51591.449   0.14563247 
  130800    291.40325   -621.39484    149401.46   -47634.524    4001.7219   -51636.246   0.14194126 
  131000    285.74953   -462.17727    149152.95   -47654.814    3924.0817   -51578.895   0.14036699 
  131200    287.30574   -376.70222    149060.07   -47628.614    3945.4525   -51574.066   0.14483281 
  131400    289.02995   -574.00482    149342.56   -47628.577    3969.1303   -51597.707    0.1425929 
  131600    286.87752   -613.90397    149376.64   -47621.734    3939.5719   -51561.306   0.14878144 
  131800    289.58134   -432.24427     149118.7   -47595.812    3976.7023   -51572.514   0.15032402 
  132000    292.84276    -382.0345    149143.19   -47540.507    4021.4902   -51561.998    0.1449789 
  132200    295.24069    -628.8321    149414.69   -47546.284    4054.4198   -51600.704   0.14823688 
  132400    291.60662   -588.01388    149362.42   -47549.416    4004.5147   -51553.931   0.15115563 
  132600    291.55642   -368.54907    149074.59   -47527.003    4003.8253   -51530.828   0.14911104 
  132800    293.56723   -434.82988    149168.51   -47497.241     4031.439    -51528.68   0.14468359 
  133000    297.06135   -641.42602     149464.1    -47489.32    4079.4223   -51568.743   0.14293015 
  133200    292.06574   -529.65012    149289.42   -47435.754    4010.8196   -51446.574   0.15417927 
  133400    294.27267    -330.0479    149045.25   -47423.312    4041.1265   -51464.438   0.15171793 
  133600    291.59896   -543.89739    149300.43   -47433.998    4004.4096   -51438.408   0.15501363 
  133800    293.29135   -687.32286    149501.87   -47452.052    4027.6504   -51479.702   0.15526532 
  134000    296.45474   -424.07968    149158.25   -47403.659    4071.0919   -51474.751   0.15094573 
  134200     292.8415   -302.18364    149002.89    -47419.09    4021.4728   -51440.562   0.15064453 
  134400    295.54584   -644.87369    149460.38   -47414.595    4058.6104   -51473.206   0.15076571 
  134600    294.07621   -721.06628    149581.05   -47428.631    4038.4286   -51467.059   0.14911023 
  134800     288.0496   -312.25828    148957.35   -47475.779    3955.6675   -51431.446   0.14731662 
  135000    293.26551   -237.19407    148872.22   -47533.355    4027.2956   -51560.651   0.14099723 
  135200    288.30427   -796.51988    149627.95   -47536.572    3959.1649   -51495.736   0.14855112 
  135400    288.53191   -789.04906    149579.18   -47556.645    3962.2909   -51518.935   0.14959403 
  135600    291.88525   -53.604332    148670.09   -47526.917    4008.3411   -51535.258   0.14455029 
  135800    289.53937   -300.01261    148915.69   -47599.217     3976.126   -51575.343   0.14661222 
  136000    287.31178   -933.68723    149835.18   -47621.987    3945.5355   -51567.522   0.14701035 
  136200    288.73057   -639.15512    149387.84     -47637.7    3965.0191   -51602.719   0.14611108 
  136400    293.90026    38.645842    148555.09   -47595.602    4036.0123   -51631.615   0.14181476 
  136600    290.65579   -475.94247    149195.57   -47537.639    3991.4573   -51529.097   0.14635212 
  136800    287.50663   -1035.3926    149911.98   -47538.996    3948.2113   -51487.207   0.14947617 
  137000    291.17443   -444.48175    149162.98   -47550.428    3998.5796   -51549.008    0.1461904 
  137200    293.35317   -43.166941    148640.98   -47586.551    4028.4994    -51615.05   0.13968833 
  137400    292.80004   -597.40255    149422.01   -47541.222    4020.9034   -51562.126   0.14479317 
  137600    295.68692   -888.06463    149776.21   -47529.285    4060.5478   -51589.832   0.15058222 
  137800    293.60724   -351.61543    149035.98   -47508.327    4031.9885   -51540.315   0.15358898 
  138000    294.51716   -198.22904    148860.98    -47508.17     4044.484   -51552.654   0.14877221 
  138200    287.86367   -701.74249     149535.7   -47553.879    3953.1143   -51506.993   0.15488056 
  138400    284.54655   -731.82977    149559.12   -47537.645    3907.5616   -51445.207   0.15677297 
  138600     291.3361   -269.53735    148962.73   -47556.191    4000.7997   -51556.991   0.14335378 
  138800    291.70924   -293.93078    149022.73   -47505.211    4005.9239   -51511.135     0.143087 
  139000     290.6125   -781.39491    149524.55   -47490.146    3990.8629   -51481.009   0.15588672 
  139200    295.39002   -609.08076    149364.85   -47492.397    4056.4706   -51548.867   0.15129734 
  139400    288.45965    -279.2597     148951.2   -47521.158    3961.2987   -51482.457    0.1431543 
  139600      291.745   -465.36328    149194.23   -47502.438     4006.415   -51508.853   0.14756173 
  139800    291.53755   -696.71442     149526.2   -47459.364    4003.5662    -51462.93   0.15251286 
  140000    298.08072   -461.86578    149241.54   -47428.594    4093.4209   -51522.015    0.1504089 
  140200    283.88774    -337.0943    148979.97   -47471.072    3898.5145   -51369.586   0.15744326 
  140400    294.05055   -543.19416    149289.82   -47495.975    4038.0761   -51534.051   0.14954737 
  140600    290.54791   -657.82938    149473.11   -47493.171    3989.9758   -51483.147   0.14935318 
  140800    293.04809    -386.9389    149134.04    -47488.43    4024.3099    -51512.74   0.14323038 
  141000    293.24077   -347.52558    149027.11   -47526.821    4026.9559   -51553.776   0.14512202 
  141200    292.56415   -589.68963    149354.09   -47475.849     4017.664   -51493.513   0.15075101 
  141400    289.83845   -651.80985    149436.08    -47479.18    3980.2332   -51459.413   0.15199692 
  141600    292.30668   -346.61576    149103.74    -47465.63    4014.1283   -51479.759   0.14573345 
  141800    292.73876   -364.72199    149117.83   -47520.268     4020.062    -51540.33    0.1439408 
  142000    289.49184   -623.15493    149416.22   -47534.189    3975.4733   -51509.662   0.15078929 
  142200    291.10063   -546.58817    149329.97   -47531.932    3997.5662   -51529.498   0.15523303 
  142400    293.94709   -408.60116    149059.83   -47537.845    4036.6554   -51574.501   0.15381108 
  142600    290.15712   -476.56022    149212.81   -47527.772    3984.6093   -51512.382   0.14897094 
  142800    290.61877   -647.67072    149443.41   -47530.134     3990.949   -51521.083   0.15016939 
  143000     288.8808    -484.1683    149237.48   -47593.596    3967.0822   -51560.678   0.14342872 
  143200    288.22842   -353.63441    149031.26   -47562.538    3958.1233   -51520.661   0.14500036 
  143400       291.43   -510.64246     149279.5   -47524.629    4002.0892   -51526.718   0.14608744 
  143600    293.78304   -649.95664    149472.34   -47511.996    4034.4026   -51546.399   0.15032991 
  143800    292.16144   -460.27295    149185.93   -47526.989    4012.1339   -51539.123   0.14780109 
  144000    294.75896   -333.65727     149023.3   -47517.429    4047.8045   -51565.234   0.14492175 
  144200    292.20846   -591.32005    149385.52     -47487.9    4012.7795    -51500.68   0.15271183 
  144400     292.1615   -702.76101    149510.84   -47488.895    4012.1347   -51501.029   0.15649822 
  144600    294.73699   -383.58484    149090.79   -47465.812    4047.5028   -51513.315   0.15331981 
  144800    291.57917   -305.48179    149062.24   -47436.275    4004.1378   -51440.413   0.14849268 
  145000    289.40718   -769.42178    149585.87   -47477.202    3974.3107   -51451.513    0.1537729 
  145200    293.14696    -626.1897    149460.93   -47508.699    4025.6676   -51534.367    0.1474232 
  145400    293.68202    -162.4982    148822.74   -47517.909    4033.0153   -51550.925   0.14148088 
  145600    293.31219   -374.44694    149085.76   -47535.907    4027.9366   -51563.843   0.14811904 
  145800     287.3353    -938.4068     149810.2    -47543.88    3945.8584   -51489.738   0.15503047 
  146000    286.19467   -592.47175     149331.2   -47534.797    3930.1946   -51464.992   0.15428622 
  146200    288.86964   -42.623174    148576.09   -47571.014    3966.9289   -51537.943   0.15081344 
  146400     292.3814   -487.59313    149248.48   -47521.141    4015.1544   -51536.295   0.15143392 
  146600    291.99597   -1036.5921    149936.56   -47475.593    4009.8615   -51485.454   0.16128366 
  146800    294.70234   -392.98153    149111.39   -47439.397    4047.0269   -51486.424   0.15377034 
  147000    293.34083   -14.397906    148636.53   -47455.964    4028.3299   -51484.294    0.1473741 
  147200     295.3715   -688.23361    149533.72   -47419.761    4056.2162   -51475.977   0.15200133 
  147400    285.75363   -933.15903    149819.61   -47479.411     3924.138   -51403.549   0.15501697 
  147600    288.77952   -272.57667    148898.31   -47500.846    3965.6913   -51466.538    0.1500807 
  147800    295.40323   -141.50144    148780.81   -47544.629     4056.652   -51601.281   0.14392714 
  148000    291.93835   -776.74302    149586.65   -47502.792    4009.0703   -51511.862   0.15782873 
  148200     296.6276   -730.53855    149544.64   -47544.138    4073.4657   -51617.603   0.15448728 
  148400    289.73464   -216.48625    148836.68   -47598.852    3978.8076    -51577.66   0.14695153 
  148600    287.94698   -339.94778    149013.02   -47567.761    3954.2583   -51522.019    0.1500389 
  148800    288.43681   -809.83141    149613.35   -47566.169     3960.985   -51527.154   0.15617031 
  149000    295.13745   -577.06507    149344.53    -47575.44    4053.0021   -51628.442   0.14756064 
  149200    291.95309   -198.19635    148879.93   -47584.209    4009.2726   -51593.482   0.13939446 
  149400    286.78725   -475.20143    149214.31   -47605.236    3938.3322   -51543.568   0.14423611 
  149600     286.7083   -766.00217    149575.97   -47601.476    3937.2481   -51538.724   0.15047582 
  149800    287.79898   -468.73285    149205.75   -47591.477    3952.2259   -51543.702    0.1461905 
  150000    293.84223   -303.46428    148944.12    -47553.14    4035.2155   -51588.355   0.14732501 
  150200    290.37113   -571.06599    149353.11   -47495.102    3987.5482    -51482.65   0.15540383 
  150400    292.02945   -699.79123    149560.15   -47463.709    4010.3213    -51474.03   0.15286436 
  150600    293.40558   -439.04649     149165.7   -47519.474    4029.2191   -51548.693   0.15204494 
  150800    290.82569   -332.81326    149040.46   -47482.693    3993.7905   -51476.484   0.15390083 
  151000    296.94741   -580.76903    149428.26   -47520.982    4077.8576    -51598.84   0.14707182 
  151200    296.97777    -667.8791    149493.13   -47507.904    4078.2745   -51586.179   0.14563869 
  151400    297.80947   -338.79392    149128.14    -47423.92     4089.696   -51513.615   0.14136255 
  151600    293.85921   -407.61353    149154.05   -47410.253    4035.4485   -51445.701   0.15338964 
  151800    293.54037    -635.5438    149467.69   -47419.956    4031.0702   -51451.026   0.15314526 
  152000    289.33652   -620.20298    149409.15   -47421.972    3973.3403   -51395.312   0.15796673 
  152200    294.24016   -356.18048    149095.21   -47444.021      4040.68   -51484.701   0.15131426 
  152400    295.87223   -442.71155    149174.55   -47493.183    4063.0926   -51556.275   0.14936872 
  152600    293.10298   -635.29764    149440.91   -47459.434    4025.0636   -51484.498   0.15341112 
  152800    295.04474   -503.45772    149315.37     -47392.5     4051.729   -51444.229   0.15416901 
  153000    293.62111    -351.7289    149091.91   -47462.519    4032.1789   -51494.698   0.15083446 
  153200     294.2748   -466.66964    149243.79   -47402.606    4041.1558   -51443.762   0.15311753 
  153400      295.075   -694.82012    149464.44   -47454.681    4052.1446   -51506.825   0.15053559 
  153600    298.04365   -451.44621    149214.21   -47483.443    4092.9118   -51576.355   0.14347015 
  153800    291.50192   -350.56158    148996.68   -47513.464    4003.0769   -51516.541   0.14982014 
  154000    288.15055   -561.35632    149297.21   -47525.775    3957.0539   -51482.828   0.15840288 
  154200    294.59403   -671.73965    149497.53    -47470.17    4045.5396    -51515.71    0.1575338 
  154400    291.70159   -448.97486    149163.04   -47466.636    4005.8189   -51472.455     0.156928 
  154600      291.293   -351.11672    149052.71    -47488.11    4000.2078   -51488.317   0.15197562 
  154800    293.12421   -644.29947    149427.58   -47502.119    4025.3551   -51527.475   0.15581987 
  155000    295.36103   -599.92226    149406.25   -47489.628    4056.0725   -51545.701    0.1515128 
[...]
  163200    288.48046   -661.00079    149415.87   -47556.581    3961.5844   -51518.166   0.14872558 
  163400    287.72226   -443.67815    149103.55   -47593.323    3951.1724   -51544.496   0.14893342 
  163600    291.51614   -355.72542    149030.51   -47543.372    4003.2722   -51546.645   0.14910185 
  163800    289.08066   -617.17598    149403.92    -47600.31    3969.8267   -51570.137   0.14579397 
  164000    290.97896    -658.9427    149384.84   -47616.109    3995.8953   -51612.004   0.14663279 
  164200    287.95544   -310.48324    148942.92   -47615.205    3954.3745    -51569.58   0.14560722 
  164400    291.88982   -370.60336    149038.17   -47558.012    4008.4038   -51566.416    0.1441925 
  164600    285.11572   -754.96959    149530.58    -47531.59    3915.3779   -51446.967    0.1539376 
  164800    284.75173   -630.85111    149360.42   -47571.521    3910.3792     -51481.9   0.15674386 
  165000    288.94705   -247.81264    148867.68   -47550.713    3967.9919   -51518.705   0.15190073 
  165200     291.5556   -430.92792    149134.63   -47547.255    4003.8141    -51551.07   0.14611742 
  165400    291.05337   -827.92259    149608.68   -47571.101    3996.9171   -51568.018   0.14774057 
  165600    293.83783   -503.17022    149204.93   -47513.076     4035.155   -51548.231   0.14945772 
  165800    295.30769   -142.29247    148762.14    -47540.72    4055.3399    -51596.06   0.14931857 
  166000    288.77034   -593.09735    149302.85     -47495.3    3965.5652   -51460.865   0.15461352 
  166200    292.01982   -850.08634     149652.3   -47522.244     4010.189   -51532.433   0.15436237 
  166400    292.96123   -376.38728    149025.51   -47523.282    4023.1171     -51546.4   0.14942613 
  166600    290.58867   -181.32712    148793.65    -47519.82    3990.5356   -51510.355   0.15250691 
  166800    293.49196   -706.44815     149497.1   -47576.718    4030.4054   -51607.123   0.15087489 
  167000     291.1635   -758.36249    149602.94   -47574.301    3998.4295   -51572.731   0.15078515 
  167200    290.05426   -234.22794    148897.72   -47527.535    3983.1967   -51510.732   0.15105018 
  167400    294.31562   -280.93245    148947.37   -47576.475    4041.7163   -51618.191   0.14818463 
  167600    292.03351   -793.87185    149668.89   -47551.788     4010.377   -51562.165    0.1463705 
  167800    285.37689   -671.13652    149497.77   -47621.943    3918.9644   -51540.908   0.14556823 
  168000     291.0296   -180.23912     148788.2   -47615.746    3996.5908   -51612.337   0.14860842 
  168200     289.4011   -378.07344    149051.61   -47613.503    3974.2272    -51587.73    0.1478366 
  168400    284.30844    -854.4779    149663.21    -47563.57    3904.2918   -51467.862    0.1537203 
  168600    292.03142   -535.94788     149295.3   -47578.115    4010.3483   -51588.463   0.14576603 
  168800    288.96608   -198.11123    148824.07    -47622.17    3968.2533   -51590.424   0.14753269 
  169000    294.65618   -484.77331    149231.73   -47607.086    4046.3931   -51653.479   0.14632349 
  169200    291.21665   -761.30428    149579.87   -47571.735    3999.1594   -51570.894   0.15066296 
  169400    292.28746   -452.02968    149170.21   -47601.566    4013.8644    -51615.43   0.14925593 
  169600    289.77653   -277.69743     148947.8   -47613.837    3979.3829    -51593.22   0.14269934 
  169800    290.23594   -567.86787    149348.47   -47616.426    3985.6917   -51602.118   0.14397174 
  170000    292.34838   -622.91349    149449.73   -47654.967     4014.701   -51669.668   0.14148449 
  170200    290.11665   -427.37619    149110.89   -47667.193    3984.0536   -51651.247   0.14478438 
  170400    288.38087   -405.88268    149066.73   -47637.447    3960.2168   -51597.664   0.14631625 
  170600    287.65104   -600.43475    149340.36   -47615.901    3950.1944   -51566.096   0.14969885 
  170800    291.25184   -603.07906    149319.01    -47640.94    3999.6426   -51640.583   0.15050036 
  171000    288.16383   -407.37667    149071.17   -47642.072    3957.2363   -51599.308   0.14590611 
  171200    289.57479   -463.52699    149145.53   -47668.796    3976.6124   -51645.408   0.13970418 
  171400     289.7241   -635.22224    149364.87   -47662.303    3978.6628   -51640.966   0.14767679 
  171600     288.8609    -540.2858    149238.22   -47627.097    3966.8088   -51593.906   0.15198257 
  171800    285.48439   -422.32891    149038.99   -47605.866    3920.4406   -51526.306   0.14852682 
  172000    288.20031   -493.54216    149227.02   -47610.517    3957.7373   -51568.254   0.14117045 
  172200    287.80949   -598.22449    149376.71   -47614.688    3952.3702   -51567.058   0.14360538 
  172400    290.43021   -515.35913    149182.87    -47585.67    3988.3595    -51574.03    0.1513173 
  172600     287.3574   -419.89782    149108.21   -47569.731    3946.1619   -51515.893   0.14814123 
  172800    289.02296   -539.66745    149317.15   -47576.469    3969.0344   -51545.503   0.14635935 
  173000    287.97551   -574.32737    149331.09   -47593.834    3954.6501   -51548.484   0.14829227 
  173200    290.78438   -399.27677    149106.04   -47633.014    3993.2232   -51626.237   0.14032748 
  173400    287.08096   -441.10692    149104.25   -47619.611    3942.3656   -51561.976   0.14935414 
  173600    293.46224   -540.93908    149322.61   -47568.314    4029.9972   -51598.311   0.14978775 
  173800    292.60721   -559.86098    149301.41   -47568.887    4018.2554   -51587.143   0.15404003 
  174000    291.84435   -385.60234    149101.47    -47533.42    4007.7794     -51541.2   0.14618588 
  174200    290.39856   -443.19126    149213.15    -47527.29    3987.9249   -51515.215    0.1446757 
  174400    290.25875   -648.45447    149449.65   -47508.002     3986.005   -51494.007   0.14728199 
  174600    292.44884   -523.93694    149263.13   -47521.387    4016.0806   -51537.468   0.14971538 
  174800     293.4233   -280.23163    149038.14   -47485.363    4029.4624   -51514.825   0.14538535 
  175000    288.87486   -545.70677    149314.32   -47531.821    3967.0006   -51498.821   0.14740071 
  175200    293.46696   -656.55394    149477.18   -47527.779    4030.0619   -51557.841   0.14592844 
  175400    286.92081    -428.3438    149158.49   -47539.404    3940.1663    -51479.57   0.14767868 
  175600    289.44599   -351.92044    149026.98   -47551.981    3974.8436   -51526.824   0.15073517 
  175800    297.78831   -604.10526    149371.33   -47534.182    4089.4053   -51623.587   0.15088788 
  176000    292.25957   -659.33801    149448.69   -47519.516    4013.4814   -51532.998   0.15229704 
  176200    299.23652   -345.52404    149063.42   -47472.649     4109.293   -51581.942   0.14682108 
  176400    288.74295   -374.47437    149107.49    -47510.66    3965.1891   -51475.849   0.14905733 
  176600    294.67203   -717.54934     149551.9   -47487.464    4046.6108   -51534.075    0.1486924 
  176800    291.54091   -605.29332    149397.17   -47496.626    4003.6123   -51500.238   0.15155234 
  177000    293.08446   -267.18774    148917.47    -47516.15    4024.8092   -51540.959   0.14715818 
  177200    294.74043   -410.82745    149193.06   -47530.212      4047.55   -51577.762   0.14644209 
  177400    285.39816   -826.82447    149696.09   -47614.296    3919.2564   -51533.552   0.15113593 
  177600    288.46657   -487.07864    149228.47   -47583.205    3961.3937   -51544.598   0.14501009 
  177800    287.99917   -144.08524    148749.71   -47564.939     3954.975   -51519.914   0.15224879 
  178000    295.25613   -593.31062    149388.32   -47520.753    4054.6319   -51575.385   0.14949771 
  178200    289.12357   -939.13459    149800.38    -47551.11     3970.416   -51521.526   0.15407888 
  178400    294.15565   -267.27356    148998.37   -47532.553    4039.5195   -51572.072    0.1443651 
  178600    289.86634   -104.57233    148720.25   -47550.357    3980.6161   -51530.973   0.14307297 
  178800    293.58561   -769.45278     149612.6   -47514.974    4031.6913   -51546.666   0.14649503 
  179000    292.06152   -855.79665    149728.88   -47486.784    4010.7616   -51497.546    0.1529338 
  179200     296.0742   -176.35469    148847.77   -47517.446    4065.8662   -51583.312   0.15212034 
  179400     291.2132   -192.01828    148889.72   -47490.883     3999.112   -51489.995   0.14846174 
  179600    287.44899   -837.75771    149722.67     -47490.2    3947.4197    -51437.62   0.15183171 
  179800    289.81592   -676.74513     149502.4   -47520.963    3979.9237   -51500.887   0.14819592 
  180000    293.78488   -144.04043    148793.46    -47492.61    4034.4279   -51527.038   0.14633372 
  180200       295.95    -396.6168    149116.95   -47454.329    4064.1606   -51518.489   0.15345944 
  180400     289.7619   -841.90474    149706.59   -47403.408     3979.182    -51382.59   0.15952287 
  180600    293.04554   -555.63565    149328.36   -47495.082    4024.2748   -51519.356   0.14823187 
  180800    290.36468    -176.5372     148847.6   -47462.085    3987.4597   -51449.545   0.14341956 
  181000    289.82046   -494.25499    149260.68   -47502.516    3979.9861   -51482.502   0.15101338 
  181200    293.17302   -739.56943    149626.48   -47481.306    4026.0254   -51507.332   0.15595684 
  181400    292.33695   -427.63904    149175.13    -47524.25    4014.5441   -51538.794   0.15167475 
  181600    287.35659   -232.42955    148884.87   -47546.125    3946.1508   -51492.276   0.14862033 
  181800    295.64951   -537.64318    149352.43   -47515.749     4060.034   -51575.784   0.14707006 
  182000    289.67995   -755.29943    149557.49   -47520.856    3978.0566   -51498.913   0.15396705 
  182200    299.23301   -357.21566     149083.6   -47541.438    4109.2448   -51650.683   0.14636777 
  182400    294.17192   -324.15357     148985.2   -47543.549    4039.7429   -51583.292   0.14950238 
  182600    293.15392   -634.36731    149457.28   -47503.652    4025.7631   -51529.415   0.14849184 
  182800    292.83428    -655.6976    149494.95   -47466.701    4021.3737   -51488.075   0.14734081 
  183000    298.83189   -350.66348    149042.37   -47472.694    4103.7364    -51576.43   0.14766264 
  183200    298.07573   -349.01804    149103.39   -47453.922    4093.3523   -51547.275   0.15249168 
  183400    292.35312   -652.49995    149500.41   -47458.506     4014.766   -51473.272   0.15284574 
  183600    292.11988   -600.40125    149353.33   -47488.823     4011.563   -51500.386   0.15495242 
  183800    292.97174   -317.45483    148991.95   -47524.042    4023.2613   -51547.303   0.14842429 
  184000    287.91753   -478.00072    149178.73   -47536.057    3953.8539   -51489.911   0.15090619 
  184200    291.42803   -661.63003    149428.64    -47575.77    4002.0621   -51577.832   0.14874849 
  184400     290.2051   -471.92773    149182.64   -47586.916    3985.2682   -51572.184   0.14798226 
  184600    291.22277   -329.97825     148967.2     -47596.4    3999.2435   -51595.644   0.14961699 
  184800    290.26897   -552.77164    149219.27   -47582.302    3986.1453   -51568.447   0.15119868 
  185000    288.70575   -653.64719    149393.45   -47570.715    3964.6782   -51535.393   0.15419663 
  185200    287.98483   -422.12042     149143.5   -47630.138    3954.7782   -51584.916   0.14591889 
  185400    287.54738   -385.37817    149019.17     -47609.8    3948.7708   -51558.571   0.15198802 
  185600    284.88776   -555.36152    149273.47   -47610.652    3912.2473     -51522.9   0.15396387 
  185800    288.69685    -642.0899    149363.67   -47554.873     3964.556   -51519.429    0.1571193 
  186000    292.88997   -433.74146    149103.34    -47543.94    4022.1384   -51566.078    0.1514669 
  186200    291.52269   -400.46717    149058.03   -47535.678    4003.3621    -51539.04   0.14554324 
  186400    291.62259   -597.54394    149344.47   -47482.495    4004.7341   -51487.229   0.14993563 
  186600    292.97026   -562.69252    149360.77   -47515.694     4023.241   -51538.935   0.15059727 
  186800    290.01676   -413.81578    149104.98   -47544.483    3982.6818   -51527.165   0.15566206 
  187000    294.71725   -455.80333    149132.77   -47515.837    4047.2317   -51563.068    0.1506656 
  187200    295.53513   -614.92022    149347.77   -47533.609    4058.4633   -51592.072    0.1505172 
  187400    296.14027   -488.98188    149251.37   -47520.146    4066.7735    -51586.92    0.1434494 
  187600    288.33514   -406.30916    149079.52   -47561.039    3959.5888   -51520.627   0.15581116 
  187800    291.73054   -518.01146     149239.1   -47549.182    4006.2165   -51555.399   0.15614698 
  188000    293.91097   -614.58561    149401.13   -47521.342    4036.1595   -51557.501    0.1532131 
  188200    294.42642   -477.21696    149202.92   -47513.496    4043.2378   -51556.734   0.14774641 
  188400    295.22927   -387.18995    149095.01   -47502.952    4054.2631   -51557.215    0.1441059 
  188600    289.69024   -538.68085    149298.24   -47506.948    3978.1979   -51485.146   0.15532225 
  188800    294.37156   -583.28223    149341.63   -47519.298    4042.4845   -51561.783   0.15154708 
  189000    292.37191   -427.76336    149117.94   -47512.498    4015.0241   -51527.522     0.151592 
  189200     292.9035   -413.73831    149111.02   -47516.137    4022.3243   -51538.461   0.15116748 
  189400    292.96198   -590.49454     149355.4   -47477.038    4023.1273   -51500.165   0.15172133 
  189600    293.45965   -590.22903    149344.18   -47491.111    4029.9616   -51521.072   0.15085241 
  189800    288.46429   -431.59872    149104.02    -47531.61    3961.3623   -51492.973   0.15408612 
  190000    290.74277   -481.10919    149182.78   -47563.783    3992.6519   -51556.434   0.15376706 
  190200    292.86334   -622.72519    149402.43   -47536.788    4021.7727   -51558.561   0.14856776 
  190400    287.34135   -541.64049    149281.89   -47535.151    3945.9416   -51481.092   0.15196835 
  190600    293.27602   -344.91402    149080.13   -47480.683    4027.4399   -51508.123   0.14993022 
  190800    290.51206   -505.03718    149287.29   -47512.654    3989.4835   -51502.138    0.1519052 
  191000    291.96944   -620.35534    149447.76   -47525.106    4009.4972   -51534.603   0.14908464 
  191200    288.41652   -439.87992     149155.6   -47520.832    3960.7064   -51481.538   0.15135112 
  191400    290.46291   -322.26234    149006.58   -47546.768    3988.8086   -51535.576   0.14909685 
  191600    295.77282   -618.68666    149364.26    -47500.51    4061.7275   -51562.237    0.1540665 
  191800    291.81898   -654.47715    149472.21   -47532.128     4007.431   -51539.559   0.15490017 
  192000    291.18848   -348.37452    149037.49   -47535.729    3998.7725   -51534.502   0.15018885 
  192200    297.42962   -310.41653    149000.97   -47505.821    4084.4796   -51590.301   0.15259307 
  192400    293.10063   -701.57803    149520.97   -47509.041    4025.0313   -51534.073   0.15382616 
  192600    288.90568    -643.6312    149428.86   -47539.231    3967.4238   -51506.655   0.15480923 
  192800    291.95631   -248.11954    148845.83   -47519.689    4009.3169   -51529.006   0.15037811 
  193000    288.13599   -370.69231    149027.34   -47508.929    3956.8539   -51465.783   0.15496102 
  193200    289.06754   -822.19223    149646.45   -47456.115    3969.6466   -51425.761   0.16324593 
  193400    296.98529   -600.00958    149360.81   -47461.744    4078.3778   -51540.121   0.15663641 
  193600    296.57827   -120.07115    148727.72   -47478.198    4072.7884   -51550.987   0.15374575 
  193800    291.60851    -436.1494    149129.48   -47526.037    4004.5407   -51530.578   0.15257251 
  194000    287.22785   -881.66548    149702.02   -47545.644    3944.3829   -51490.026   0.16184091 
  194200    290.84132   -527.46729    149176.16   -47535.535    3994.0051    -51529.54   0.15571388 
  194400    293.55505   -111.56321    148683.19   -47519.066    4031.2716   -51550.338   0.15777543 
  194600     289.4852   -563.10714    149316.84   -47540.447    3975.3821   -51515.829   0.15455595 
  194800    294.01781   -885.02513    149690.63   -47522.264    4037.6266   -51559.891   0.15314762 
  195000     295.0552   -356.56358    149016.55   -47509.751    4051.8727   -51561.623    0.1473842 
  195200    291.96103   -226.44651    148803.41   -47496.895    4009.3817   -51506.276   0.15468285 
  195400     293.3286   -667.40058    149475.55   -47493.628     4028.162    -51521.79   0.15903831 
  195600    288.65306   -789.81022    149545.84   -47497.688    3963.9547   -51461.643   0.16258158 
  195800    287.39368   -289.96268    148906.11   -47547.122    3946.6601   -51493.783   0.15552081 
  196000    294.06838   -239.05534    148982.37   -47518.727    4038.3211   -51557.048   0.15035388 
  196200    289.32898   -751.52564    149573.76   -47501.228    3973.2369   -51474.465   0.16264074 
  196400      294.282   -657.24025    149413.91   -47501.817    4041.2546   -51543.072   0.15864758 
  196600    289.24265   -247.83765    148912.15   -47572.355    3972.0513   -51544.406   0.15467689 
  196800    291.06171    -412.7119     149144.9   -47562.147    3997.0317   -51559.179    0.1464778 
  197000    290.14497   -721.64356     149522.8   -47568.326    3984.4425   -51552.768   0.15022079 
  197200    292.75399   -515.98184    149225.91   -47626.496    4020.2711   -51646.767   0.14990016 
  197400    288.95224   -314.83389    148955.41   -47585.218    3968.0633   -51553.282   0.15300735 
  197600    298.59909   -509.72013    149257.05   -47497.387    4100.5395   -51597.927   0.15185398 
  197800    295.29987   -671.50776       149448   -47481.286    4055.2326   -51536.518   0.15114715 
  198000    290.96856   -445.36489    149139.13   -47513.133    3995.7525   -51508.885   0.15536089 
  198200    290.10917   -370.78069    149004.87    -47540.25    3983.9509   -51524.201   0.15645432 
  198400    291.86263   -492.39498    149300.27   -47464.737    4008.0304   -51472.767   0.15210989 
  198600    294.98952   -651.96122    149430.89   -47453.979    4050.9707    -51504.95   0.15718894 
  198800    289.05341   -453.91453    149158.53   -47488.304    3969.4525   -51457.757   0.15211913 
  199000    293.61826   -344.18268    149072.72   -47496.419    4032.1398   -51528.559    0.1485985 
  199200    291.58064   -551.33121    149330.79   -47488.528     4004.158   -51492.686   0.14814417 
  199400    296.79646   -599.94038    149375.58   -47500.286    4075.7846   -51576.071   0.15209041 
  199600    294.19664   -418.32077    149141.39   -47524.996    4040.0825   -51565.079     0.149756 
  199800    292.31832   -415.47101    149111.34   -47503.994    4014.2881   -51518.282   0.15553044 
  200000    290.64006   -586.02098    149372.05   -47522.157    3991.2413   -51513.398   0.15734909 
Loop time of 109.053 on 6 procs for 200000 steps with 4608 atoms

Performance: 792.274 ns/day, 0.030 hours/ns, 1833.968 timesteps/s
97.8% CPU use with 6 MPI tasks x no OpenMP threads

MPI task timing breakdown:
Section |  min time  |  avg time  |  max time  |%varavg| %total
---------------------------------------------------------------
Pair    | 76.113     | 77.336     | 78.336     |   8.6 | 70.92
Neigh   | 12.264     | 12.443     | 12.795     |   6.3 | 11.41
Comm    | 8.3211     | 9.2532     | 10.122     |  23.3 |  8.49
Output  | 3.0193     | 3.0203     | 3.0239     |   0.1 |  2.77
Modify  | 5.635      | 5.7405     | 5.8497     |   3.3 |  5.26
Other   |            | 1.26       |            |       |  1.15

Nlocal:        768.000 ave         781 max         757 min
Histogram: 1 1 0 1 0 1 1 0 0 1
Nghost:        1397.67 ave        1408 max        1390 min
Histogram: 1 1 1 0 0 1 1 0 0 1
Neighs:        0.00000 ave           0 max           0 min
Histogram: 6 0 0 0 0 0 0 0 0 0
FullNghs:      21858.0 ave       22216 max       21548 min
Histogram: 2 0 0 1 0 1 0 1 0 1

Total # of neighbors = 131148
Ave neighs/atom = 28.460938
Neighbor list builds = 12641
Dangerous builds = 0
write_data		data.${NAME}
write_data		data.ice_292K_-500atm_ML
System init for write_data ...
Total wall time: 0:02:44
