
# Define the lattice
#
variable	    lattice_constant equal 6.36339
lattice		    diamond ${lattice_constant}
lattice		    diamond 6.36339
Lattice spacing in x,y,z = 6.3633900 6.3633900 6.3633900

# Define region
# multiples of lattice spacing
#
region 		    simbox block 0 9 0 8 0 8

# Create Atoms
#
create_box          1 simbox
Created orthogonal box = (0.0000000 0.0000000 0.0000000) to (57.270510 50.907120 50.907120)
  3 by 1 by 2 MPI processor grid
create_atoms        1 box
Created 4608 atoms
  create_atoms CPU = 0.000 seconds
mass                1 18.015

# Define potential
#
pair_style          sw
pair_coeff          * * /data/emrosky-sim/Freezing_Simulations/Melting/MLmW_fancy/ML_mW.sw mW
Reading sw potential file /data/emrosky-sim/Freezing_Simulations/Melting/MLmW_fancy/ML_mW.sw with DATE: 2019-02-27

# Add velocity/set timestep
#
velocity            all create ${TEMP} 120598 rot yes dist gaussian
velocity            all create 292 120598 rot yes dist gaussian
timestep            5.0

# Define output
#
compute	            1 all msd
thermo              100
thermo_style        custom step temp press vol etotal ke pe c_1[4]

# Neighbor lists
#
neigh_modify        delay 0 every 1 check yes

# Set fixes
#
fix                 1 all momentum 10 linear 1 1 1 rescale
fix                 2 all nve
fix                 3 all temp/csvr ${TEMP} ${TEMP} 500.0 928347
fix                 3 all temp/csvr 292 ${TEMP} 500.0 928347
fix                 3 all temp/csvr 292 292 500.0 928347
fix                 4 all press/berendsen iso ${PRES} ${PRES} 1000.0 modulus 20000
fix                 4 all press/berendsen iso -500 ${PRES} 1000.0 modulus 20000
fix                 4 all press/berendsen iso -500 -500 1000.0 modulus 20000

# Run 0.5 ns equilibration
#
dump		    1 all custom 1000 eq.${NAME}.dump id type x y z vx vy vz
dump		    1 all custom 1000 eq.ice_292K_-500atm_ML.dump id type x y z vx vy vz
run                 100000
Neighbor list info ...
  update every 1 steps, delay 0 steps, check yes
  max neighbors/atom: 2000, page size: 100000
  master list distance cutoff = 6.0032907
  ghost atom cutoff = 6.0032907
  binsize = 3.0016454, bins = 20 17 17
  1 neighbor lists, perpetual/occasional/extra = 1 0 0
  (1) pair sw, perpetual
      attributes: full, newton on
      pair build: full/bin/atomonly
      stencil: full/bin/3d
      bin: standard
Per MPI rank memory allocation (min/avg/max) = 4.779 | 4.779 | 4.779 Mbytes
Step Temp Press Volume TotEng KinEng PotEng c_1[4] 
       0          292   -627.25492    148418.52   -51887.267    4009.9168   -55897.184            0 
     100    193.53538   -360.03532    148356.29   -50253.903    2657.7424   -52911.646  0.095669674 
     200    223.90096   -399.55654       148678   -49283.728    3074.7406   -52358.469   0.10726962 
     300    246.83628   -449.24266    148884.64   -48668.538    3389.7019    -52058.24    0.1304877 
     400    262.29419   -467.94155    149025.85   -48260.762    3601.9791   -51862.741   0.13428423 
     500    277.70997    -447.5642    149126.99   -47975.004    3813.6777   -51788.681   0.13263937 
     600    285.48998   -455.89147     149209.2    -47700.41    3920.5174   -51620.928   0.14698315 
     700    288.53359   -514.92399    149268.16   -47653.903     3962.314   -51616.217   0.13582553 
     800    287.10418   -530.78206    149286.58   -47558.126    3942.6846   -51500.811   0.15035962 
     900    293.95895   -524.28269    149286.19   -47537.886    4036.8183   -51574.704   0.15033071 
    1000    290.29268   -509.62515    149263.49   -47585.027    3986.4709   -51571.498   0.14277767 
    1100    291.22294   -523.42924    149292.99   -47527.127    3999.2458   -51526.373   0.14022499 
    1200    290.85037    -494.6546    149297.38   -47516.968    3994.1295   -51511.097   0.14797673 
    1300    291.73269   -536.42828     149292.7   -47439.824     4006.246    -51446.07    0.1486909 
    1400    290.37843   -514.09101    149316.16    -47542.48    3987.6484   -51530.128   0.14686491 
    1500    288.65874   -513.70173    149262.52   -47567.232    3964.0327   -51531.265   0.14148747 
    1600    292.68392   -459.21224    149267.14   -47502.396    4019.3088   -51521.705   0.14741835 
    1700    291.81063   -460.22741    149266.39   -47527.029    4007.3163   -51534.345   0.14265963 
    1800      292.113   -474.67222    149242.91    -47522.07    4011.4686   -51533.538   0.14718417 
    1900    291.36414   -513.14916    149294.06    -47429.67    4001.1848   -51430.855   0.15018803 
    2000    298.32232   -528.46888     149346.8   -47377.005    4096.7387   -51473.744   0.14034452 
    2100    289.67359   -545.93415    149314.31   -47551.105    3977.9691   -51529.074   0.14946854 
    2200     291.4536   -481.05756     149296.8   -47475.157    4002.4134    -51477.57   0.13280278 
    2300    294.49121   -540.61496    149288.88   -47411.784    4044.1276   -51455.912   0.15629337 
    2400    298.25575   -480.46836    149298.17   -47438.426    4095.8245   -51534.251   0.14550277 
    2500    297.88996   -457.07283    149322.42   -47486.234    4090.8013   -51577.036   0.13481308 
    2600    291.31477    -516.3137    149308.05   -47520.337    4000.5068   -51520.843   0.15042055 
    2700    295.59069   -460.20593    149314.78   -47487.507    4059.2263   -51546.733   0.13064474 
    2800     302.5467   -468.51688    149315.87   -47387.173    4154.7504   -51541.923    0.1482333 
    2900    298.55724    -514.0657     149326.1   -47414.893    4099.9647   -51514.857   0.14735262 
    3000    293.18621   -498.58918    149281.43   -47474.473    4026.2065    -51500.68   0.14789256 
    3100    291.26665   -495.90045    149318.03   -47450.404     3999.846    -51450.25   0.14737485 
    3200    295.25475   -480.41093    149295.54   -47556.124     4054.613   -51610.737   0.14069827 
    3300    296.81467   -461.37467    149247.44   -47619.794    4076.0348   -51695.829   0.13059838 
    3400    290.82531   -516.23823    149245.92   -47550.496    3993.7854   -51544.282   0.14863432 
    3500    290.90393   -505.45107    149260.42   -47517.611    3994.8649   -51512.476   0.14478604 
    3600    290.63185   -505.48237    149254.67    -47520.84    3991.1287   -51511.969   0.14645584 
    3700    290.58425   -497.11115    149261.49   -47482.113    3990.4749   -51472.588   0.14508153 
    3800    295.18758   -468.76006    149279.67   -47471.101    4053.6905   -51524.791   0.14764166 
    3900    289.60324   -507.71968    149267.48   -47477.543    3977.0032   -51454.546   0.15092849 
    4000    291.49063   -504.86177    149280.73   -47526.353    4002.9218   -51529.275   0.14057906 
    4100    286.33321    -517.7817     149268.3   -47538.039    3932.0971   -51470.136   0.15349107 
    4200    289.68189   -522.47262    149287.03   -47502.204    3978.0831   -51480.287   0.14034202 
    4300    286.45122   -515.44345    149258.83   -47632.425    3933.7178   -51566.142   0.15083555 
    4400    294.30704   -509.61685    149278.61   -47523.602    4041.5985     -51565.2   0.14107865 
    4500    288.81969   -486.40984    149270.34   -47581.177     3966.243    -51547.42    0.1510356 
    4600     288.6247   -525.49077    149257.75     -47611.6    3963.5652   -51575.165   0.14435494 
    4700    296.48911   -491.30494    149269.35    -47513.78    4071.5639   -51585.344   0.13666908 
    4800    292.66686   -446.36901    149286.51   -47406.157    4019.0745   -51425.232   0.14400565 
    4900    290.82828   -479.43556    149288.32    -47374.45     3993.826   -51368.276   0.15102931 
    5000    294.90031   -487.81868    149265.38   -47510.289    4049.7456   -51560.034   0.14678818 
    5100    288.44794   -477.22549    149267.72   -47434.018    3961.1379   -51395.156   0.14958468 
    5200    286.27135   -514.49662    149264.28   -47499.261    3931.2476   -51430.508   0.15243908 
    5300    283.96576   -518.40475    149241.48   -47609.047    3899.5859   -51508.633   0.14135815 
    5400    293.24503   -478.54468    149234.04   -47579.946    4027.0144    -51606.96   0.14394663 
    5500    292.30174   -458.59827    149260.53   -47538.375    4014.0605   -51552.435   0.14421303 
    5600    291.65838   -501.25883    149245.92   -47583.142    4005.2255   -51588.368   0.14725045 
    5700    291.85342   -480.53697    149245.43   -47571.113    4007.9039   -51579.017   0.14081939 
    5800    288.00414   -479.52915    149251.72   -47513.698    3955.0433   -51468.741    0.1480613 
    5900    289.77338   -486.51059    149255.13   -47589.371    3979.3396    -51568.71   0.14293656 
    6000    287.82682   -483.82924    149247.13    -47567.28    3952.6083   -51519.889   0.14414575 
    6100    283.40535   -471.75891    149222.41   -47644.872      3891.89   -51536.762   0.14239728 
    6200    284.24283   -489.37407    149230.78   -47622.685    3903.3907   -51526.075   0.14490721 
    6300    292.99921   -520.05481    149230.29   -47499.152    4023.6386   -51522.791   0.15487971 
    6400    293.44218   -500.08986    149242.67   -47555.995    4029.7218   -51585.716   0.14279583 
    6500    292.26304   -477.77911    149239.56   -47573.359    4013.5291   -51586.888   0.14660008 
    6600    291.83917   -502.18444     149222.1   -47578.615    4007.7082   -51586.323   0.14533213 
    6700    287.57411   -525.89577     149217.3   -47634.133    3949.1379    -51583.27    0.1442094 
    6800    287.00139   -509.28453    149222.01     -47587.2     3941.273   -51528.473   0.14436537 
    6900    295.16363   -482.85215    149261.63   -47509.511    4053.3617   -51562.873   0.14538057 
    7000    288.07355   -494.82393    149254.52   -47506.414    3955.9964    -51462.41     0.151441 
    7100    295.65845   -497.08646    149285.09    -47522.35    4060.1568   -51582.507   0.13680309 
    7200    291.39218   -505.90752    149232.86   -47630.943    4001.5699   -51632.513   0.14651096 
    7300    286.81106   -488.17116       149224   -47684.439    3938.6593   -51623.098   0.13487665 
    7400    293.48348   -450.54265    149233.27   -47570.261    4030.2889    -51600.55   0.13985512 
    7500    292.43153   -494.54831    149230.18   -47498.045    4015.8428   -51513.888   0.14650516 
    7600    287.14649   -505.38809    149257.17   -47474.543    3943.2656   -51417.809   0.14957846 
    7700    289.80883   -517.35158    149244.46   -47568.674    3979.8264     -51548.5   0.14976599 
    7800     288.2987   -504.06556    149226.36   -47635.216    3959.0884   -51594.304   0.14872135 
    7900    289.05476   -494.88358    149233.13   -47574.289    3969.4711    -51543.76   0.14364493 
    8000    294.08547   -493.25627    149269.86   -47471.121    4038.5557   -51509.677   0.14576622 
    8100    300.05903   -498.20993    149265.75    -47433.22    4120.5882   -51553.808   0.14513501 
    8200    297.09105   -458.44691    149242.45   -47448.304    4079.8301   -51528.134   0.14431252 
    8300    294.61047    -494.5988    149245.99   -47412.397    4045.7653   -51458.162   0.15813173 
    8400     298.3686   -502.87538    149247.76   -47390.356    4097.3743    -51487.73   0.14755436 
    8500    294.20183   -512.28011    149224.19   -47478.406    4040.1536   -51518.559   0.15532952 
    8600    290.75455   -514.26842    149226.88   -47493.168    3992.8135   -51485.982   0.14443143 
    8700    294.23217   -506.37624    149209.49   -47460.808    4040.5703   -51501.378   0.15739963 
    8800    293.05429   -518.48395    149226.85   -47512.402    4024.3949   -51536.797   0.14311418 
    8900    293.35697   -500.04411    149191.58   -47572.406    4028.5516   -51600.957   0.15104266 
    9000    288.75266    -498.6422    149206.42   -47493.016    3965.3224   -51458.338   0.14833028 
    9100    288.99244   -524.23826    149214.94   -47548.234    3968.6153   -51516.849   0.14558782 
    9200    293.00692   -509.10049    149202.33   -47434.285    4023.7445    -51458.03   0.15767924 
    9300    289.95888    -519.6124    149190.89   -47589.674     3981.887   -51571.561   0.14043568 
    9400    292.74477   -465.10962    149202.25   -47548.333    4020.1444   -51568.477   0.14833558 
    9500    292.44693   -474.71996    149227.12   -47591.574    4016.0543   -51607.628   0.14275563 
    9600    285.00259   -497.17512    149239.25   -47585.259    3913.8243   -51499.084   0.14352114 
    9700    292.66121   -461.62072    149248.47   -47462.477     4018.997   -51481.474   0.15082212 
    9800    295.13471   -474.98539    149276.12   -47422.597    4052.9645   -51475.561   0.14908355 
    9900    290.16857   -536.12982    149258.92   -47452.834    3984.7665   -51437.601   0.15034964 
   10000    294.23492   -501.28503    149237.24   -47505.326    4040.6081   -51545.934   0.14933727 
   10100    293.12707   -476.79531    149248.47   -47455.539    4025.3944   -51480.933   0.14125811 
   10200    294.74938   -469.53828    149239.37   -47422.776    4047.6729   -51470.449   0.15033059 
   10300    292.69614   -532.23177    149253.23   -47429.182    4019.4766   -51448.659   0.15462435 
   10400    288.47263   -515.30132    149256.66   -47434.431    3961.4769   -51395.907   0.15214185 
   10500    290.22435   -481.54617    149243.36   -47480.606    3985.5326   -51466.139   0.14894659 
   10600    293.36603   -475.21342    149247.98   -47504.216    4028.6759   -51532.892   0.14288096 
   10700    290.45894   -497.64518    149232.94   -47524.112    3988.7541   -51512.867   0.14967037 
   10800    288.92215   -482.83612    149222.85   -47656.072      3967.65   -51623.722   0.13793068 
   10900    285.25194   -510.53982     149187.3   -47641.876    3917.2485   -51559.125   0.15549732 
   11000    288.97543   -528.03883    149221.13   -47661.353    3968.3817   -51629.735   0.14601164 
   11100    291.17788   -519.02642       149235   -47568.179     3998.627   -51566.806   0.14418236 
   11200    286.55497   -509.46219    149200.31   -47673.518    3935.1425    -51608.66   0.15261299 
   11300    296.04152   -453.93481    149225.26    -47587.53    4065.4174   -51652.948   0.13396224 
   11400     290.5898   -493.47911    149211.87   -47564.091    3990.5511   -51554.642   0.15473365 
   11500    298.99531   -446.53693    149236.83   -47465.854    4105.9806   -51571.834   0.13926428 
   11600    290.34602   -520.32522    149242.96   -47455.915    3987.2034   -51443.118   0.15572796 
   11700    300.69925   -474.02715    149285.45   -47325.922    4129.3801   -51455.302   0.14999586 
   11800    300.94597     -501.001    149274.71   -47404.918    4132.7682   -51537.686   0.14934911 
   11900    293.52325   -499.05706    149254.54    -47451.66    4030.8351   -51482.495   0.15123523 
   12000    296.86477   -518.70183    149237.28    -47412.88    4076.7228   -51489.603   0.15473308 
   12100    297.29264    -503.0554    149224.23   -47470.192    4082.5986   -51552.791   0.14361325 
   12200    296.94292   -466.32857    149210.01   -47470.279    4077.7959   -51548.075   0.14573893 
   12300    290.62739   -490.59434    149181.03   -47520.481    3991.0673   -51511.549    0.1534291 
   12400    290.34645    -538.0493    149192.89   -47515.951    3987.2093    -51503.16   0.15180387 
   12500    291.61638   -505.57118    149208.72   -47444.691    4004.6488   -51449.339    0.1542828 
   12600    295.84426   -476.99923    149206.56   -47406.145    4062.7085   -51468.853   0.14785302 
   12700    294.48484   -528.16907    149197.16   -47484.481    4044.0402   -51528.521   0.15668506 
   12800    294.00424   -486.45699    149208.35   -47470.919    4037.4403   -51508.359   0.13937917 
   12900      288.327   -515.55499    149187.72   -47531.589    3959.4771   -51491.066   0.16033731 
   13000    291.34581   -457.88676    149197.98     -47499.8    4000.9331   -51500.733   0.14260858 
   13100    287.74712   -515.86393    149176.57   -47575.959    3951.5138   -51527.472   0.15411401 
   13200    287.27369   -505.55732    149177.74   -47604.658    3945.0123   -51549.671   0.14888851 
   13300    287.58384    -473.2054    149162.53   -47687.715    3949.2715   -51636.987   0.14006294 
   13400    288.87446    -524.2962     149145.5   -47674.995    3966.9951    -51641.99   0.15339222 
   13500    288.51575   -494.77228    149183.83   -47586.641    3962.0691    -51548.71   0.14374712 
   13600    290.64256   -463.63292    149174.41   -47531.863    3991.2757   -51523.139   0.15121123 
   13700     293.4463   -500.19332    149202.94   -47568.406    4029.7783   -51598.185   0.14673322 
   13800    295.25035   -483.56536    149218.43   -47517.197    4054.5526   -51571.749   0.14861967 
   13900    295.04716   -489.56008    149231.02   -47512.732    4051.7622   -51564.494   0.14499464 
   14000    297.85758   -504.90674    149252.17   -47394.827    4090.3566   -51485.183   0.15343256 
   14100    291.47408   -522.88665    149226.96   -47488.014    4002.6946   -51490.708   0.15380962 
   14200    293.72491     -507.276    149216.83   -47491.358    4033.6043   -51524.962   0.14864205 
   14300    290.81967   -523.62307     149198.9   -47522.402    3993.7079    -51516.11   0.15582014 
   14400    284.08223   -509.80028    149183.86   -47578.966    3901.1854   -51480.152   0.14778511 
   14500    286.95232   -539.17656    149200.51   -47603.643    3940.5991   -51544.242   0.15098962 
   14600    291.60709   -476.20677    149205.05   -47555.148    4004.5212   -51559.669   0.14705216 
   14700    291.78239    -500.8351    149221.45    -47502.79    4006.9285   -51509.718   0.14950082 
   14800    290.97216   -502.55765    149246.37    -47479.98    3995.8019   -51475.782    0.1481037 
   14900    293.54645   -485.64701    149223.05   -47490.189    4031.1536   -51521.342   0.15102223 
   15000    290.99582   -497.86473    149232.34    -47557.48    3996.1268   -51553.607   0.14635142 
   15100    287.74825    -518.8107    149231.91   -47577.196    3951.5294   -51528.726    0.1510274 
   15200     290.7443   -521.55226    149246.19   -47500.686    3992.6728   -51493.359   0.15417943 
   15300    287.67265   -517.54332    149226.19   -47585.072    3950.4911   -51535.563   0.14709585 
   15400    287.78747   -498.31121    149227.05   -47581.509    3952.0679   -51533.576   0.15159847 
   15500    292.55024   -471.87539    149226.13   -47510.773     4017.473   -51528.246   0.14193731 
   15600    294.49038   -513.21989    149276.53   -47389.025    4044.1163   -51433.141   0.16138622 
   15700    296.55358   -449.57016    149282.19   -47409.788    4072.4493   -51482.238   0.14472392 
   15800    297.54042   -472.33294    149273.69   -47410.716    4086.0012   -51496.718   0.15419602 
   15900    297.99237   -489.49769    149291.16   -47437.933    4092.2076   -51530.141   0.14387279 
   16000    289.21242   -547.60931    149254.33   -47479.135    3971.6361   -51450.771   0.15842927 
   16100    294.69134   -465.53039    149217.09   -47508.136     4046.876   -51555.012   0.14782088 
   16200    294.89305   -513.97742    149234.46   -47521.447    4049.6459   -51571.093   0.14514245 
   16300    286.55254   -527.03226    149214.42   -47536.686     3935.109   -51471.795   0.15966225 
   16400    291.50699    -489.3745    149237.68    -47555.63    4003.1465   -51558.777   0.13642983 
   16500    294.83277   -513.01497    149218.11   -47465.641    4048.8181   -51514.459   0.15284687 
   16600     297.5092   -479.66267    149252.65   -47395.337    4085.5725   -51480.909   0.15003432 
   16700    292.17873   -485.03984    149209.24   -47434.582    4012.3712   -51446.953   0.15467896 
   16800    295.50702   -518.60863    149224.68   -47492.427    4058.0773   -51550.504   0.15044347 
   16900    291.90407   -520.08376    149256.56   -47511.739    4008.5995   -51520.338   0.15077153 
   17000    295.01868   -503.11133     149218.4   -47561.173    4051.3712   -51612.544   0.14394331 
   17100    286.90812   -531.67879    149219.47   -47512.772    3939.9921   -51452.764   0.15514347 
   17200    285.41571   -503.75393    149201.38    -47572.02    3919.4974   -51491.517    0.1478696 
   17300    284.28921   -530.39124    149204.15   -47668.021    3904.0277   -51572.049   0.14980945 
   17400    285.88839   -504.93989    149194.99   -47661.711    3925.9885   -51587.699    0.1460368 
   17500    287.67619   -499.28358    149197.86   -47555.572    3950.5397   -51506.112   0.14883521 
   17600    294.90931   -503.64749    149183.35   -47565.412    4049.8692   -51615.281   0.14843385 
   17700    290.70981   -479.51509     149195.6    -47629.16    3992.1992   -51621.359   0.14459534 
   17800    291.03115   -459.21104    149186.11    -47574.82    3996.6121   -51571.433   0.15183485 
   17900     293.0587   -503.03325    149204.23   -47518.796    4024.4555   -51543.252   0.14345142 
   18000    296.17044   -491.78775    149222.44    -47423.73    4067.1877   -51490.918   0.15378684 
   18100    292.77074   -481.55932    149244.96   -47437.737    4020.5011   -51458.238   0.15117107 
   18200    294.67294   -530.56627    149205.48   -47481.176    4046.6232   -51527.799    0.1479755 
   18300    290.39493    -494.0754       149178   -47476.725    3987.8751     -51464.6   0.16042394 
   18400    289.12743   -487.40343    149203.99   -47579.529     3970.469   -51549.998   0.14302748 
   18500     289.2393   -500.71315    149178.27   -47510.388    3972.0053   -51482.394   0.14972319 
   18600    293.10388   -490.94481    149222.87   -47467.985     4025.076   -51493.061   0.14727478 
   18700    296.97268    -501.5264    149219.25   -47491.173    4078.2046   -51569.377   0.14602147 
   18800    294.04296   -515.51356    149240.72   -47513.817     4037.972   -51551.789   0.15076029 
   18900     289.4118   -504.10122     149248.3   -47471.699    3974.3741   -51446.074   0.14928593 
   19000     287.7904   -513.85729    149229.36   -47498.824    3952.1081   -51450.932   0.15180913 
   19100    296.86053   -495.76861     149235.5    -47413.22    4076.6644   -51489.884   0.15004414 
   19200    295.61347   -486.11331    149231.74   -47443.417    4059.5392   -51502.956   0.15241317 
   19300     298.0834     -513.886    149273.05   -47339.229    4093.4577   -51432.687   0.15191532 
   19400    295.68661   -495.75477    149269.79   -47400.679    4060.5436   -51461.223   0.15578287 
   19500    302.10369   -472.86773    149279.49   -47399.107    4148.6668   -51547.774    0.1464205 
   19600    299.22421   -477.29942     149258.7   -47384.893     4109.124   -51494.017   0.15157174 
   19700    299.88484   -526.43931    149269.69   -47445.769    4118.1961   -51563.965   0.14774614 
   19800    297.15822   -474.70232    149233.11   -47387.295    4080.7526   -51468.047   0.15851785 
   19900    293.40754   -521.41468    149241.01   -47473.917     4029.246   -51503.163   0.14545649 
   20000    289.56579   -485.60483    149256.18   -47505.245    3976.4889   -51481.734   0.15347877 
   20100    288.49431   -508.44386     149229.7   -47544.347    3961.7746   -51506.122   0.14642923 
   20200    292.20631   -529.71364    149219.57   -47523.144      4012.75   -51535.894   0.15086227 
   20300    291.70366   -531.43663    149228.51   -47486.321    4005.8473   -51492.168   0.15962995 
   20400    297.23964   -504.82054    149256.53   -47552.015    4081.8707   -51633.886   0.14034828 
   20500      287.903   -508.55891     149219.6   -47584.347    3953.6544   -51538.001   0.15062439 
   20600    289.12987   -493.66484    149225.09   -47607.713    3970.5025   -51578.216   0.14610184 
   20700    284.96872   -489.83348    149210.53   -47545.144    3913.3591   -51458.503   0.15198561 
   20800    300.33893   -472.83763       149261   -47410.214     4124.432   -51534.646   0.14740051 
   20900    287.20018   -461.68477    149272.89   -47514.832    3944.0028   -51458.835   0.15377164 
   21000    289.13174   -528.44316    149259.02   -47526.049    3970.5282   -51496.578   0.14777103 
   21100    296.45511   -496.80673    149250.35   -47403.715    4071.0971   -51474.812   0.15407966 
   21200    301.78124   -508.83636    149273.87   -47428.803    4144.2386   -51573.042   0.14689367 
   21300    294.13904    -518.0332    149282.77   -47423.632    4039.2914   -51462.923   0.15269843 
   21400    294.56933   -498.20655    149256.87   -47466.772    4045.2004   -51511.973   0.14917684 
   21500    300.55733   -482.40942    149286.28       -47368    4127.4312   -51495.431   0.14753196 
   21600    298.67078    -463.2126     149292.2   -47370.361    4101.5239   -51471.885   0.14809277 
   21700    290.29962   -529.28312    149248.05   -47507.974    3986.5662    -51494.54     0.153571 
   21800    294.76719   -524.72708    149258.33   -47544.211    4047.9175   -51592.129   0.14306717 
   21900    293.77098   -502.62795    149245.63   -47518.671     4034.237   -51552.908   0.14747505 
   22000     287.4508   -522.84378    149245.32   -47549.506    3947.4445   -51496.951   0.14998205 
   22100    290.98638    -496.2164    149249.41     -47591.3    3995.9972   -51587.297   0.14179901 
   22200    286.94213   -526.35773    149202.38   -47675.961    3940.4592    -51616.42   0.14721251 
   22300    288.74509   -484.31883    149240.18   -47563.914    3965.2185   -51529.133   0.14634837 
   22400    294.76171   -477.02218    149270.66   -47515.097    4047.8423   -51562.939   0.14897414 
   22500    290.05661   -510.89182    149287.38   -47463.931    3983.2291    -51447.16   0.14705118 
   22600    292.03481   -511.72767    149268.77    -47504.82    4010.3949   -51515.215   0.15125801 
   22700    296.22995   -475.65841    149244.72    -47562.01     4068.005   -51630.015   0.14659648 
   22800    291.33517   -529.63023    149258.41   -47488.477     4000.787   -51489.264   0.15115011 
   22900    292.48957   -483.13355    149266.55   -47525.402    4016.6399   -51542.042   0.14623041 
   23000    289.62691   -493.18672    149259.06   -47595.095    3977.3281   -51572.424   0.13954501 
   23100    289.70307   -506.43417    149262.49   -47532.596    3978.3741    -51510.97   0.15047756 
   23200    294.12589    -473.0785    149281.49    -47476.86    4039.1107   -51515.971   0.14603081 
   23300    294.68482   -481.77401    149282.46    -47479.22    4046.7863   -51526.006   0.14328275 
   23400    290.79009   -510.71256    149281.98   -47532.305    3993.3017   -51525.607   0.15133921 
   23500    296.16311   -512.87841    149303.93   -47417.497    4067.0872   -51484.584   0.14344826 
   23600    294.21004   -525.78981    149316.13   -47435.565    4040.2664   -51475.832   0.15134839 
   23700    287.38902   -512.63876    149286.88   -47421.989    3946.5961   -51368.585   0.15138143 
   23800    297.34663   -503.62889    149302.75   -47435.832      4083.34   -51519.172   0.14894479 
   23900    291.18392   -523.90793    149262.66   -47528.136    3998.7099   -51526.846   0.14818578 
   24000    293.66569    -495.9582    149252.02   -47471.734    4032.7911   -51504.525   0.15128814 
   24100    295.95766   -479.72358    149267.68   -47395.497    4064.2658   -51459.762   0.14514738 
   24200    288.37236   -537.92614    149259.65    -47533.93    3960.0999    -51494.03   0.15311727 
   24300     293.0205   -483.49795    149232.55   -47562.637    4023.9309   -51586.568   0.13811825 
   24400    289.74766   -512.87569     149209.1   -47589.459    3978.9863   -51568.445   0.15056272 
   24500    292.28379   -483.67489    149240.76   -47549.075    4013.8141   -51562.889   0.14430686 
   24600    290.46579   -472.98623    149225.43   -47591.968    3988.8481   -51580.816   0.14404512 
   24700    287.37128   -535.55517    149217.27   -47593.417    3946.3525   -51539.769    0.1474527 
   24800    290.34146   -519.38133    149245.83   -47526.789    3987.1408    -51513.93   0.14489804 
   24900    288.46326   -518.69242    149242.63   -47593.486    3961.3482   -51554.835   0.15377107 
   25000    288.79699   -487.03407    149240.75   -47574.544    3965.9311   -51540.475   0.13924426 
   25100    290.43717   -495.02694    149234.89     -47626.6    3988.4551   -51615.055   0.14983421 
   25200    285.95416    -506.6041    149209.53   -47768.911    3926.8917   -51695.803   0.13523298 
   25300    288.18123   -524.90833    149217.65   -47602.879    3957.4753   -51560.354   0.14886945 
   25400      283.679   -498.72898    149229.89   -47640.452    3895.6479   -51536.099   0.14507073 
   25500    291.10128    -498.2692    149226.66   -47525.064    3997.5751   -51522.639   0.14986205 
   25600    297.76266   -496.67032    149284.33   -47449.785    4089.0531   -51538.838   0.14559107 
   25700     290.5878   -504.05103    149254.55   -47541.365    3990.5236   -51531.889   0.14846523 
   25800    294.05962   -470.98184    149263.27   -47396.665    4038.2008   -51434.866   0.14547704 
   25900     292.8405   -499.59312    149281.61   -47419.821    4021.4591    -51441.28   0.15582475 
   26000      296.144   -468.79021    149280.94   -47475.366    4066.8247   -51542.191   0.14557422 
   26100    291.46645   -485.76012    149269.74   -47452.837    4002.5898   -51455.427   0.14755812 
   26200    287.24143   -506.01238    149230.22   -47555.286    3944.5694   -51499.856   0.15041104 
   26300    292.56638   -464.15963    149248.57   -47521.116    4017.6947    -51538.81   0.14209049 
   26400     287.8916   -525.48483     149224.6   -47577.781    3953.4978   -51531.279   0.15103798 
   26500    296.05139    -498.1932    149254.43    -47488.73    4065.5529   -51554.283   0.14443909 
   26600    293.73089   -488.31275     149264.5   -47435.032    4033.6864   -51468.718   0.15156389 
   26700    297.69042   -521.85716    149299.38   -47440.498    4088.0611   -51528.559   0.14752989 
   26800    290.74671   -489.14655    149251.64   -47483.023    3992.7059   -51475.729   0.14696895 
   26900    292.02331   -495.03434    149266.77   -47428.735    4010.2369   -51438.972   0.15274506 
   27000    291.36791   -527.11332    149273.27    -47455.99    4001.2366   -51457.226   0.15101129 
   27100    289.74832   -456.04092    149245.11   -47399.244    3978.9954   -51378.239   0.15182145 
   27200    291.60304    -490.5615    149273.54   -47470.926    4004.4655   -51475.391   0.14723453 
   27300    298.05918    -480.6419    149299.17   -47299.965    4093.1251    -51393.09   0.15063757 
   27400    289.39977   -516.50679    149295.25   -47428.246    3974.2089   -51402.455   0.15658587 
   27500    286.81338    -535.6041    149248.88   -47535.761     3938.691   -51474.452   0.14823302 
   27600    289.58723   -499.27495    149229.86   -47588.753    3976.7833   -51565.536   0.14867061 
   27700    298.24626   -460.33066    149240.59   -47482.011    4095.6942   -51577.705   0.14413066 
   27800    293.22729   -510.15144    149240.63   -47465.078    4026.7707   -51491.849   0.15266004 
   27900    294.76067    -474.4999    149221.34   -47519.122     4047.828    -51566.95   0.14379956 
   28000    286.82743    -502.4911    149201.58    -47594.57     3938.884   -51533.454   0.15517365 
   28100    288.57837   -496.82264       149216    -47570.22     3962.929   -51533.149   0.14798143 
   28200    290.21744    -510.9724    149219.99   -47535.837    3985.4376   -51521.275   0.15402548 
   28300    289.59934   -534.27513    149210.34   -47557.209    3976.9496   -51534.158   0.14783629 
   28400    294.48548   -505.31656    149232.74   -47492.064    4044.0489   -51536.112   0.15037798 
   28500     291.4604   -492.94778    149225.27    -47521.38    4002.5067   -51523.887   0.15197141 
   28600    290.19032   -542.41442    149229.34    -47532.96    3985.0653   -51518.025   0.14817042 
   28700    292.86616   -476.28374    149214.93   -47526.018    4021.8115   -51547.829   0.14776511 
   28800    288.88353   -481.89889    149204.74   -47570.195    3967.1196   -51537.315   0.14656429 
   28900    289.78342   -468.18093    149219.63   -47541.448    3979.4775   -51520.926   0.14844985 
   29000    293.12618   -473.56503    149228.67   -47483.732    4025.3822   -51509.114   0.14581989 
   29100    293.84879   -447.77381    149222.02   -47476.785    4035.3055   -51512.091   0.15416589 
   29200    299.35479    -509.1728    149257.84    -47416.02    4110.9171   -51526.937   0.15044355 
   29300    294.80342   -487.66206    149248.75   -47418.015    4048.4151    -51466.43   0.15155433 
   29400     297.0176   -486.19737    149260.81   -47430.038    4078.8215   -51508.859   0.14830482 
   29500    291.55672   -526.65015    149251.43   -47474.419    4003.8294   -51478.248   0.15819386 
   29600    292.11421   -519.48996    149268.84   -47445.621    4011.4852   -51457.106   0.14882055 
   29700    294.56295   -457.91618     149249.8    -47522.78    4045.1128   -51567.893    0.1472161 
   29800     295.8097   -460.30247    149215.46   -47612.943    4062.2339   -51675.177   0.14307161 
   29900    290.92938   -492.83891    149225.21   -47591.159    3995.2144   -51586.373   0.14802133 
   30000    289.78064   -493.28645    149220.46   -47554.499    3979.4393   -51533.938   0.15370057 
   30100    290.35912   -509.48539    149243.61   -47527.159    3987.3833   -51514.543   0.14834349 
   30200    289.84736    -505.6402    149227.72   -47535.719    3980.3555   -51516.074   0.15665742 
   30300    290.61473     -511.855    149227.41   -47525.762    3990.8935   -51516.655   0.15284434 
   30400    286.27854   -496.20866    149226.94   -47562.928    3931.3464   -51494.274   0.14627075 
   30500    283.87917   -517.19307    149203.31   -47660.294    3898.3968   -51558.691   0.15308456 
   30600    290.63693   -480.58899    149218.51   -47535.118    3991.1983   -51526.316    0.1473671 
   30700    288.54158    -528.7009    149212.57   -47564.969    3962.4238   -51527.393   0.15047121 
   30800    296.52514   -458.97271    149217.01   -47497.289    4072.0587   -51569.348   0.14696459 
   30900    292.75375    -502.1237     149229.1   -47474.425    4020.2678   -51494.693   0.15339047 
   31000    295.86896   -524.41419    149218.71   -47516.506    4063.0477   -51579.553   0.15188209 
   31100    287.49956   -535.44587    149211.84   -47525.213    3948.1141   -51473.327   0.15408154 
   31200    296.43317   -474.43058    149217.02   -47464.553    4070.7957   -51535.348   0.15026351 
   31300     299.0214   -493.42988    149235.17   -47400.975    4106.3389   -51507.314   0.15480755 
   31400    293.80907   -521.65749    149196.45   -47516.681    4034.7601   -51551.441   0.15598621 
   31500    293.86189   -496.03396    149216.72   -47466.403    4035.4854   -51501.889   0.15471388 
   31600     289.1873   -530.59566    149219.31   -47487.952    3971.2912   -51459.243   0.15801555 
   31700    292.85059   -480.62407     149232.7   -47459.356    4021.5977   -51480.953    0.1457159 
   31800    291.96226   -531.28307    149229.96   -47526.266    4009.3986   -51535.664   0.15326458 
   31900      292.456   -485.43442    149229.55   -47522.719    4016.1789   -51538.898    0.1457165 
   32000    291.00953   -469.29508    149226.44   -47468.569    3996.3151   -51464.884   0.15707386 
   32100    292.76414   -472.12348    149232.07   -47506.529    4020.4105    -51526.94   0.14540869 
   32200    285.34156   -491.16235    149186.74   -47629.904    3918.4792   -51548.383   0.15401121 
   32300    286.64135   -494.38451     149187.9   -47569.797    3936.3287   -51506.126   0.14997937 
   32400    284.24679   -483.25454    149175.12   -47661.982    3903.4452   -51565.427   0.14832548 
   32500    288.54341   -466.43644    149210.88   -47519.912    3962.4488   -51482.361   0.15464363 
   32600    293.99334   -477.97406    149231.96   -47474.148    4037.2906   -51511.438   0.14984905 
   32700    291.73984   -496.21026    149222.33   -47561.706    4006.3442    -51568.05   0.15316168 
   32800    296.85717   -498.91142    149262.11   -47438.131    4076.6184   -51514.749   0.15518814 
   32900    290.06686   -485.74503    149250.73   -47506.635    3983.3698   -51490.005   0.15020423 
   33000    294.05973   -494.73535     149271.5   -47497.929    4038.2023   -51536.131   0.14906809 
   33100     290.2117   -511.40337    149232.71    -47529.44    3985.3589   -51514.799   0.15396941 
   33200     293.5417   -489.89678    149242.06   -47511.845    4031.0883   -51542.933   0.14351135 
   33300    292.23229   -499.26517    149227.19   -47509.619    4013.1068   -51522.725   0.15400926 
   33400    293.11878   -484.41485    149243.71   -47530.743    4025.2806   -51556.024   0.14681972 
   33500     287.6985   -504.93439    149238.18   -47556.937     3950.846   -51507.783   0.15272543 
   33600    288.76135   -512.77778    149254.26   -47569.757    3965.4418   -51535.199   0.15131046 
   33700    294.32601   -507.42199    149249.11   -47464.012    4041.8589   -51505.871   0.14979526 
   33800    297.46461   -483.08331    149287.07   -47350.641    4084.9601   -51435.601   0.15756582 
   33900    293.04453   -550.91322    149287.52   -47376.456     4024.261   -51400.717   0.15769953 
   34000    294.94481   -500.93567    149254.11   -47521.056    4050.3567   -51571.413   0.15056627 
   34100    290.04383   -524.19294    149242.34    -47538.95    3983.0536   -51522.003   0.15274894 
   34200    297.61893   -484.05957    149227.34   -47540.327    4087.0793   -51627.407   0.14570909 
   34300    292.44906   -474.06163    149222.07    -47577.22    4016.0836   -51593.303   0.14924418 
   34400    292.96171   -465.66657    149211.28   -47499.067    4023.1236    -51522.19   0.14436289 
   34500    294.80406   -510.13342    149228.27   -47424.852    4048.4238   -51473.276   0.15896037 
   34600    294.60813   -567.59462    149229.51   -47426.172    4045.7332   -51471.905   0.15580217 
   34700    296.09727    -513.4034    149191.62    -47542.95     4066.183   -51609.133   0.14930823 
   34800    289.27421   -497.59229    149144.83   -47525.047    3972.4847   -51497.531   0.15627783 
   34900    293.19874   -501.56431    149165.69   -47512.157    4026.3786   -51538.535   0.15135908 
   35000    293.27731   -492.85444    149184.19   -47487.396    4027.4576   -51514.854   0.15137754 
   35100    291.79988   -495.51118    149197.45   -47501.871    4007.1686   -51509.039   0.15237623 
   35200    291.90985   -516.46285    149213.22   -47445.842    4008.6788   -51454.521   0.15435075 
   35300    295.62721   -496.40435    149206.19   -47528.864    4059.7279   -51588.592    0.1501093 
   35400     292.8025   -489.78659    149172.98   -47525.283    4020.9373    -51546.22   0.15349054 
   35500    289.56571    -565.7914     149198.6   -47516.426    3976.4877   -51492.914   0.15043338 
   35600    294.09238    -478.9415    149182.35   -47482.341    4038.6506   -51520.991   0.15547256 
   35700    296.77696   -521.27484    149179.47   -47498.286    4075.5169   -51573.803   0.14894886 
   35800    297.24154   -497.54741    149228.61   -47325.366    4081.8968   -51407.263   0.15770313 
   35900    288.34213    -522.7184    149217.96   -47449.693    3959.6848   -51409.378   0.15738757 
   36000    290.88016   -483.87755    149191.12   -47503.477    3994.5385   -51498.015   0.15379105 
   36100    290.27693    -483.1386    149202.56   -47550.718    3986.2546   -51536.972   0.14961778 
   36200    286.81387   -548.85665    149176.11   -47582.276    3938.6978   -51520.973    0.1545208 
   36300    293.94687   -472.25003    149186.76   -47514.075    4036.6524   -51550.727   0.15002673 
   36400    289.49533   -511.81078    149188.48   -47573.487    3975.5213   -51549.008   0.14874548 
   36500    284.67626   -535.10135    149178.39   -47542.381    3909.3429   -51451.724   0.15393828 
   36600    287.74639   -532.17504    149186.11   -47551.756    3951.5037    -51503.26   0.15350348 
   36700    291.31199   -511.07953     149143.9     -47580.2    4000.4686   -51580.668   0.15124829 
   36800    284.83609   -512.43671    149151.88   -47655.336    3911.5378   -51566.874   0.15337611 
   36900    291.00497   -505.75667    149164.83   -47574.045    3996.2526   -51570.298   0.15267998 
   37000    290.63064   -513.49009    149184.88   -47558.067     3991.112   -51549.179   0.15051878 
   37100    288.55997   -477.29363    149209.84   -47604.456    3962.6763   -51567.132   0.15157259 
   37200    288.59042   -485.46894    149221.13   -47605.154    3963.0945   -51568.248   0.14393437 
   37300    290.74769   -493.01198    149225.62   -47606.152    3992.7194   -51598.871   0.15145184 
   37400    288.59512   -507.41807    149215.57   -47616.485     3963.159   -51579.644   0.15018369 
   37500    289.64634   -506.47936    149237.02   -47593.679     3977.595   -51571.274   0.14576516 
   37600    288.44067   -527.40704    149219.21   -47641.785     3961.038   -51602.823   0.14937697 
   37700    288.61326   -484.58187    149218.38    -47722.92    3963.4081   -51686.328    0.1394411 
   37800    281.68611   -513.14446    149181.98   -47737.377    3868.2805   -51605.657   0.14306541 
   37900    282.84704   -496.82968    149197.72   -47644.386    3884.2229   -51528.609   0.15288713 
   38000    292.47311   -469.32463     149209.2   -47576.629    4016.4139   -51593.043   0.14281621 
   38100    289.44694   -510.91103    149240.39   -47519.193    3974.8567    -51494.05   0.15508452 
   38200    292.29382   -481.73835    149276.01   -47486.084    4013.9517   -51500.036   0.14839671 
   38300    286.02568   -501.58097     149269.3   -47537.357    3927.8739   -51465.231    0.1480773 
   38400    291.21388   -475.56674    149250.59   -47465.703    3999.1214   -51464.824    0.1513321 
   38500    290.79634   -489.34669    149242.55   -47523.591    3993.3874   -51516.979     0.147579 
   38600    291.43037   -498.10685    149256.14   -47485.939    4002.0943   -51488.033   0.15065205 
   38700    290.44904   -504.93009    149264.13   -47451.292    3988.6181    -51439.91   0.14603296 
   38800    295.09232   -484.14012    149261.45   -47489.905    4052.3825   -51542.287   0.14730647 
   38900    293.20745   -505.27089    149266.86   -47428.462    4026.4982    -51454.96   0.15047751 
   39000    289.77846   -535.57831    149257.11   -47491.087    3979.4093   -51470.496   0.14917856 
   39100    287.31966    -484.9515    149233.59    -47508.43    3945.6436   -51454.074    0.1515019 
   39200    288.53149   -527.92801    149231.91   -47642.998    3962.2852   -51605.283    0.1444442 
   39300    294.21504   -464.88223    149207.01   -47648.842    4040.3351   -51689.177   0.14056881 
   39400    290.92093   -521.83468    149242.21     -47522.1    3995.0985   -51517.199   0.15467998 
   39500    292.12412   -445.27928    149252.09   -47507.599    4011.6213    -51519.22    0.1424927 
   39600    288.49901   -502.23665     149262.4   -47506.047    3961.8391   -51467.886   0.15552217 
   39700    300.54277   -480.80066    149270.25   -47491.971    4127.2312   -51619.202   0.13912366 
   39800    294.30551   -494.02054    149255.63   -47508.878    4041.5775   -51550.455   0.14232335 
   39900    293.14397   -526.84121     149258.2   -47476.341    4025.6265   -51501.968   0.15469883 
   40000    289.35193   -515.18096    149260.53   -47549.399     3973.552   -51522.951   0.14462327 
   40100    289.12251   -525.40444    149228.65   -47551.183    3970.4014   -51521.585   0.15204608 
   40200    293.74575   -518.35039    149245.85    -47532.29    4033.8905    -51566.18   0.14727163 
   40300    289.74082    -532.0795    149242.94   -47541.985    3978.8925   -51520.878   0.14506291 
   40400    284.85597   -534.62855     149232.6   -47626.276    3911.8108   -51538.087   0.15000173 
   40500    299.46278    -474.2043    149249.29   -47486.742    4112.4001   -51599.142   0.14093429 
   40600     291.7161   -509.16821    149263.15    -47564.02    4006.0181   -51570.038   0.15071701 
   40700    293.27924    -497.9627    149250.19   -47566.954    4027.4841   -51594.438   0.14423428 
   40800    291.20706   -472.83233    149251.03   -47537.422    3999.0277    -51536.45   0.14932979 
   40900      292.734   -469.84428    149260.62   -47527.724    4019.9966    -51547.72   0.14542338 
   41000    290.59178    -522.8934    149244.44   -47592.284    3990.5783   -51582.862   0.14382836 
   41100    287.19771   -545.17469    149244.67   -47560.843    3943.9689   -51504.812   0.15585828 
   41200    291.78838   -520.32745    149263.62   -47447.691    4007.0108   -51454.702   0.14469682 
   41300    292.72834   -511.88712    149263.05   -47536.929    4019.9189   -51556.847   0.15091612 
   41400    293.89592   -474.87815    149252.03   -47480.443    4035.9527   -51516.395   0.14491246 
   41500    287.89603   -500.37353     149250.3   -47492.947    3953.5587   -51446.506   0.15371523 
   41600     292.7156   -509.71799    149255.47   -47503.542    4019.7438   -51523.286   0.14871285 
   41700    287.05266   -486.32337       149213   -47607.722     3941.977   -51549.699   0.14551927 
   41800    293.33622   -499.23189    149237.66   -47526.889    4028.2666   -51555.155   0.14203805 
   41900    290.75014   -501.59817    149203.74   -47604.016     3992.753   -51596.769   0.15071063 
   42000    292.66432   -501.92993    149214.64   -47576.399    4019.0397   -51595.439   0.14238001 
   42100    288.78089     -493.523    149186.89   -47643.861    3965.7101   -51609.571   0.14611838 
   42200    291.59331   -506.22326    149181.43   -47604.688    4004.3319    -51609.02   0.14522397 
   42300    289.19958   -509.60971    149204.17   -47568.414    3971.4599   -51539.874   0.14839342 
   42400    287.98669   -541.71089    149189.79   -47589.492    3954.8036   -51544.296   0.14793921 
   42500    291.55732   -524.61758    149211.71   -47552.547    4003.8377   -51556.385   0.14834627 
   42600    296.06839   -483.38288    149212.64   -47590.678    4065.7863   -51656.464   0.14624004 
   42700    286.63234   -488.56942    149187.03   -47656.757     3936.205   -51592.962   0.14623449 
   42800    288.18202   -493.68654    149207.32   -47569.056    3957.4861   -51526.542   0.14907565 
   42900    294.04463   -468.27632    149219.03   -47587.463    4037.9948   -51625.458   0.14022183 
   43000    288.69275   -513.66078    149226.47   -47608.558    3964.4998   -51573.058   0.14811158 
   43100    294.65859   -474.48611    149243.49   -47530.722    4046.4262   -51577.148   0.14444699 
   43200    291.85793   -515.04459     149230.9    -47541.79    4007.9658   -51549.756    0.1477139 
   43300    286.49973    -507.4084    149228.67   -47541.157    3934.3838   -51475.541    0.1513394 
   43400    296.35223   -512.51137    149264.85   -47471.343    4069.6843   -51541.027   0.14782706 
   43500    290.74579   -512.56259    149273.44   -47528.983    3992.6933   -51521.676   0.15006651 
   43600    287.83481   -532.01922    149263.94   -47573.895     3952.718   -51526.613   0.14821677 
   43700    293.89416   -460.00879    149236.79   -47614.651    4035.9285   -51650.579   0.13967532 
   43800    280.53625   -494.73796    149224.78   -47651.476    3852.4899   -51503.966   0.14660868 
   43900    293.24847   -482.39839    149241.48   -47560.397    4027.0615   -51587.458   0.14300067 
   44000    285.00524   -494.49227    149233.89   -47650.654    3913.8607   -51564.515   0.14783033 
   44100    288.56189    -541.2353    149241.69   -47607.448    3962.7027   -51570.151   0.14447396 
   44200    288.86898   -499.75758    149251.02   -47569.383    3966.9198   -51536.303   0.14775216 
   44300    293.03209   -494.96081    149254.24   -47573.399    4024.0901   -51597.489   0.14177352 
   44400    290.53281   -473.99716     149254.8    -47582.63    3989.7685   -51572.399   0.14590965 
   44500    288.19805   -469.85851    149252.04   -47584.548    3957.7062   -51542.254   0.14516046 
   44600     294.3404   -512.56023    149255.82   -47594.762    4042.0567   -51636.818   0.13859635 
   44700    296.01286    -500.5199    149282.22   -47583.096    4065.0238    -51648.12   0.13904928 
   44800    294.17515    -463.0633    149264.34   -47540.241    4039.7873   -51580.028    0.1442395 
   44900    286.46522   -510.10426    149261.94   -47523.324    3933.9099   -51457.234   0.14541039 
   45000    288.71612   -543.63483    149254.37   -47569.182    3964.8206   -51534.002   0.14930803 
   45100    294.19168   -455.61627    149256.86   -47449.451    4040.0142   -51489.465   0.14648094 
   45200    287.45636    -489.7899       149261   -47486.442    3947.5209   -51433.963   0.14720048 
   45300     293.1923   -506.38931     149252.8   -47507.722    4026.2902   -51534.012   0.14700747 
   45400    292.92521   -457.67318    149233.24   -47574.838    4022.6223   -51597.461   0.13804942 
   45500    288.49815   -524.04069    149237.55   -47514.978    3961.8273   -51476.806   0.16005906 
   45600    293.02558    -475.0707     149257.9   -47505.633    4024.0008   -51529.634   0.14136735 
   45700     292.5983   -529.45649    149224.37   -47454.461    4018.1331   -51472.594   0.15246255 
   45800    293.00065   -509.49668     149244.9   -47539.505    4023.6583   -51563.164   0.14152211 
   45900     300.6883   -481.71581    149238.88   -47399.964    4129.2297   -51529.193    0.1496232 
   46000     296.2904   -504.20178    149227.43    -47460.53    4068.8351   -51529.365   0.15211752 
   46100    299.39373   -489.43302    149243.63   -47363.671    4111.4519   -51475.123   0.15117037 
   46200    294.92316   -489.87017    149241.06    -47421.78    4050.0594   -51471.839   0.15445675 
   46300    297.28623   -478.66436    149267.76   -47420.998    4082.5105   -51503.509   0.14631271 
   46400    297.68975   -496.50559    149240.54   -47459.397    4088.0519   -51547.449   0.15018532 
   46500     295.2755   -508.24452    149267.92   -47427.025    4054.8979   -51481.923   0.15406592 
   46600    291.69802   -493.66174    149235.63   -47485.734    4005.7699   -51491.503    0.1465579 
   46700     295.2101    -476.9371    149247.67    -47419.93    4053.9998    -51473.93   0.15481284 
   46800    295.95877   -489.03109    149219.01    -47427.51     4064.281   -51491.791   0.14945072 
   46900    288.96234   -499.53125    149200.26   -47485.857    3968.2019   -51454.058   0.15246852 
   47000    292.90298   -532.79346    149193.95   -47518.156     4022.317   -51540.473   0.15606736 
   47100    295.12214   -484.14495     149191.5   -47525.967    4052.7919   -51578.759   0.14250911 
   47200    287.14003   -523.74533    149173.88   -47492.529    3943.1768   -51435.706   0.15653587 
   47300    287.08174   -534.33014    149181.29   -47620.728    3942.3763   -51563.105   0.14546423 
   47400    289.05044   -495.96427    149180.73     -47548.4    3969.4117   -51517.812   0.15160526 
   47500    291.53904   -460.37263    149179.52   -47556.692    4003.5866   -51560.278   0.14957518 
   47600    291.64958   -498.42454    149200.46    -47553.15    4005.1046   -51558.255   0.14990245 
   47700     297.0378    -497.7818    149224.32   -47477.953    4079.0989   -51557.052   0.15175939 
   47800    288.13267   -531.90155    149220.03   -47532.985    3956.8084   -51489.793   0.14994573 
   47900    288.82125   -484.87475    149187.95   -47585.275    3966.2643   -51551.539   0.14805552 
   48000    283.90716     -533.385    149192.99    -47547.01    3898.7812   -51445.791   0.15786605 
   48100    289.12789   -500.82226    149192.95   -47589.718    3970.4754   -51560.193   0.14476339 
   48200    290.11026    -484.5277    149192.88   -47577.999    3983.9659   -51561.965   0.15246177 
   48300    287.50314   -466.75464    149186.65   -47524.473    3948.1633   -51472.636   0.14237869 
   48400    292.15968   -512.05003    149184.56   -47568.635    4012.1097   -51580.744   0.15090682 
   48500    285.08702   -484.98039    149176.62    -47653.14    3914.9837   -51568.123   0.14745894 
   48600    286.49099   -505.85686     149188.9   -47648.415    3934.2639   -51582.679   0.14440487 
   48700    288.61328   -504.15869    149198.61   -47535.525    3963.4085   -51498.933   0.15657555 
   48800    290.87839   -502.52229    149194.74   -47528.709    3994.5142   -51523.224   0.14733064 
   48900    287.40082   -518.95348    149189.96   -47553.202    3946.7581   -51499.961   0.15382635 
   49000    287.41876   -548.86568    149177.04   -47586.652    3947.0045   -51533.657   0.15234534 
   49100    290.94822   -526.76308    149192.68   -47498.653    3995.4732   -51494.126   0.15671061 
   49200    290.64983   -561.83085    149194.61   -47537.674    3991.3755    -51529.05   0.15384835 
   49300    291.75364   -515.15369    149189.45   -47602.275    4006.5337   -51608.809   0.14892225 
   49400    291.19073   -504.43125    149174.74   -47619.717    3998.8035    -51618.52   0.14511243 
   49500    288.53825   -515.98749    149190.06   -47555.785     3962.378   -51518.163   0.15474332 
   49600    290.41532   -498.80967    149200.24   -47552.114    3988.1551   -51540.269   0.14870984 
   49700    291.07878   -497.33521    149204.26   -47557.581    3997.2661   -51554.848   0.14983223 
   49800    285.22712   -462.05768    149198.37   -47567.367    3916.9076   -51484.275   0.14592312 
   49900    290.81431    -472.0297    149218.62   -47548.645    3993.6343    -51542.28   0.15222149 
   50000     287.9977    -472.6757    149211.04   -47557.446    3954.9548     -51512.4   0.14412811 
   50100    290.63088   -518.76798    149226.96   -47416.659    3991.1153   -51407.775   0.15915838 
   50200    289.33702   -539.99836    149234.33   -47493.625    3973.3473   -51466.972   0.15327151 
   50300    293.23839   -533.54867    149242.14   -47508.248    4026.9231   -51535.171   0.14860217 
   50400    289.97057   -492.48692    149212.51   -47523.385    3982.0475   -51505.432   0.15034877 
   50500     293.8437   -488.22311    149233.45   -47437.896    4035.2356   -51473.131   0.14727039 
   50600    296.36434   -491.75973    149281.76   -47366.993    4069.8505   -51436.843   0.15309072 
   50700    290.12911   -510.73037    149227.46   -47608.179    3984.2247   -51592.404   0.14726352 
   50800    289.18086   -517.42034    149190.81   -47586.227    3971.2027    -51557.43   0.14715651 
   50900    288.63732   -487.60108    149200.56   -47610.454    3963.7385   -51574.193   0.14553447 
   51000    287.24282    -493.1796    149207.71   -47567.628    3944.5884   -51512.217   0.14747431 
   51100    288.49659   -484.49634    149205.57   -47579.444    3961.8059    -51541.25    0.1444606 
   51200    291.60717   -467.99308    149194.24   -47636.756    4004.5223   -51641.278   0.14633715 
   51300    287.09284   -474.77356    149187.26   -47650.112    3942.5289   -51592.641   0.14392945 
   51400    290.96456   -479.09131    149190.23   -47584.918    3995.6975   -51580.616   0.14878776 
   51500    289.05932   -492.67992    149185.35   -47638.669    3969.5337   -51608.203   0.14119879 
   51600    288.02215   -512.64362    149193.93   -47553.105    3955.2907   -51508.396   0.15521589 
   51700    293.51404   -520.27264    149221.07   -47450.726    4030.7085   -51481.434   0.14854622 
   51800    291.06586   -513.84608    149230.11   -47501.551    3997.0886    -51498.64   0.15213481 
   51900    291.48184    -526.4327    149204.97   -47566.291    4002.8012   -51569.092   0.14773716 
   52000     293.4766   -491.42807    149214.86   -47552.114    4030.1944   -51582.309   0.14684305 
   52100    288.26587   -518.72006    149178.82   -47623.653    3958.6375    -51582.29   0.14996884 
   52200    284.69808   -482.61416    149159.41   -47678.432    3909.6426   -51588.075   0.14428102 
   52300    286.98179   -484.73537    149172.36    -47658.04    3941.0039   -51599.043   0.14559242 
   52400    287.59174   -471.90504    149166.74    -47747.71    3949.3799    -51697.09    0.1407747 
   52500    292.27359   -473.04092    149184.85   -47588.485    4013.6739   -51602.159    0.1423156 
   52600    287.84324   -517.83818    149221.57   -47562.652    3952.8337   -51515.486   0.15283423 
   52700    292.59148    -476.1995     149230.2   -47494.043    4018.0394   -51512.082   0.14926817 
   52800    291.05474   -492.20059    149262.36   -47466.478     3996.936   -51463.414   0.14914548 
   52900      293.024   -519.25874     149270.8   -47488.984     4023.979   -51512.963   0.15116659 
   53000    295.02239   -477.21684    149273.17   -47441.527     4051.422   -51492.949   0.14705224 
   53100    290.02679   -494.33548    149239.07   -47580.552    3982.8195   -51563.371   0.15122708 
   53200    292.46211   -501.84078    149245.69   -47629.955    4016.2628   -51646.218   0.13955838 
   53300    286.78002   -511.22506    149240.85       -47592     3938.233   -51530.233   0.15195123 
   53400    288.79233   -503.65235    149260.62   -47524.123    3965.8673    -51489.99   0.14702692 
   53500    292.65841   -477.86432     149262.5   -47514.287    4018.9585   -51533.246   0.14406851 
   53600    288.69225   -503.20211    149261.02   -47586.917    3964.4928    -51551.41   0.14602058 
   53700      286.686   -526.46726    149238.43   -47561.553    3936.9418   -51498.495   0.14868678 
   53800     290.2879   -495.70026    149240.03   -47590.046    3986.4052   -51576.451   0.14660706 
   53900    288.26134   -525.97379    149235.54   -47596.432    3958.5754   -51555.007   0.14799018 
   54000    289.52853   -488.15561    149233.61   -47604.724    3975.9772   -51580.701   0.14085928 
   54100    288.15729   -535.80454     149257.1   -47579.137    3957.1464   -51536.284   0.15485137 
   54200    294.15224   -493.23045    149286.73   -47525.931    4039.4727   -51565.404   0.13857927 
   54300    294.01031   -501.37486     149284.3   -47450.667    4037.5236   -51488.191   0.15170613 
   54400    297.05732   -483.21793    149298.75   -47368.939    4079.3669   -51448.306   0.14647999 
   54500    293.47643   -524.83192    149293.55   -47448.296     4030.192   -51478.488   0.15438598 
   54600    294.09058   -530.68098    149288.56   -47463.759    4038.6259   -51502.385   0.15054873 
   54700    293.95118   -515.33438    149282.57   -47525.233    4036.7116   -51561.945   0.14581784 
   54800     293.2703   -488.14017    149296.08   -47448.257    4027.3614   -51475.618   0.15466225 
   54900    295.75892    -514.8091       149301   -47468.935    4061.5366   -51530.472   0.14314231 
   55000    291.01858   -512.87935    149271.47   -47498.526    3996.4394   -51494.966   0.15250825 
   55100    292.50472   -515.29244    149252.81   -47513.407    4016.8479   -51530.255   0.14622353 
   55200    287.36222    -484.7657    149219.98   -47629.501    3946.2281   -51575.729   0.14640446 
   55300    291.89694   -491.11552    149187.32   -47671.147    4008.5015   -51679.649   0.14286471 
   55400    288.42527   -484.07941     149185.9   -47626.301    3960.8265   -51587.127   0.14682936 
   55500    284.19195   -498.33789    149190.11   -47587.073     3902.692   -51489.765    0.1535166 
   55600     287.5804   -521.40441    149219.33   -47480.654    3949.2242   -51429.878   0.15800108 
   55700    293.90946   -478.47364    149243.03   -47442.019    4036.1387   -51478.158   0.14531627 
   55800    289.73119   -501.82298    149250.63   -47423.162    3978.7602   -51401.922   0.15642327 
   55900    290.71155   -485.22067    149257.04   -47435.358    3992.2231   -51427.581   0.14627995 
   56000    289.53884   -498.30206    149247.62   -47448.805    3976.1187   -51424.924    0.1521486 
   56100    296.19238   -464.90637    149240.64   -47431.689     4067.489   -51499.178   0.14662125 
   56200    293.83559   -485.35835    149240.11   -47470.266    4035.1242    -51505.39   0.15201317 
   56300    292.23529   -517.48901    149198.29   -47539.155     4013.148   -51552.303   0.15326926 
   56400    288.23988   -474.03668       149207   -47590.384    3958.2806   -51548.665   0.14461529 
   56500    288.35578   -521.01258    149204.23   -47644.861    3959.8723   -51604.733   0.14850187 
   56600    284.60712    -515.2865       149173   -47701.672    3908.3934   -51610.066   0.14522829 
   56700    285.62607   -507.50007    149203.44   -47682.964    3922.3863    -51605.35   0.14461656 
   56800    285.59792   -490.64152    149221.53   -47567.435    3921.9997   -51489.435   0.15075603 
   56900    284.41694   -482.69386    149207.59   -47664.106    3905.7818   -51569.888   0.14193693 
   57000    287.32953   -506.86754    149197.68   -47653.352    3945.7792   -51599.131   0.15023952 
   57100    287.53907   -520.94369    149236.73   -47575.154    3948.6568   -51523.811   0.14804798 
   57200    293.85787   -529.08555    149251.25   -47527.562    4035.4303   -51562.992   0.14866197 
   57300    287.32694   -509.69625    149215.54   -47657.442    3945.7437   -51603.186   0.14648116 
   57400    291.79274   -455.65258    149236.46   -47543.121    4007.0706   -51550.192   0.14036524 
   57500    287.05817   -491.68485     149251.4   -47506.396    3942.0527   -51448.449   0.15126337 
   57600    292.86694   -453.74661    149253.36   -47621.377    4021.8222   -51643.199   0.13457237 
   57700    294.70073   -478.25885    149220.36   -47531.336    4047.0049   -51578.341   0.14844371 
   57800    291.29208   -515.95754    149246.63   -47478.521    4000.1953   -51478.716   0.15040865 
   57900    291.18438   -494.30337    149268.91   -47520.049    3998.7162   -51518.766     0.147149 
   58000    292.42097   -490.00471    149288.92   -47480.062    4015.6979    -51495.76   0.14849454 
   58100    288.95942   -480.95801    149269.59   -47532.543    3968.1618   -51500.705     0.147068 
   58200    295.98158   -482.72401    149288.62   -47425.037    4064.5942   -51489.631   0.14702338 
   58300    294.85049   -515.35086    149266.47   -47497.221    4049.0614   -51546.283   0.14911186 
   58400    290.68998   -495.14037    149222.62   -47530.972    3991.9269   -51522.899   0.14675303 
   58500    291.64425    -478.1041     149219.8   -47537.948    4005.0315    -51542.98   0.14585709 
   58600     293.0668   -484.64977    149225.17   -47573.512    4024.5668   -51598.078   0.13881259 
   58700    294.36989   -484.21513    149230.45   -47524.545    4042.4615   -51567.007   0.14700676 
   58800    290.16457   -499.70209    149202.04   -47560.039    3984.7117   -51544.751   0.14892097 
   58900    292.96234   -536.65997    149231.33   -47487.921    4023.1322   -51511.053   0.14940633 
   59000    295.91808   -492.47865    149253.56   -47451.742    4063.7222   -51515.464   0.14952638 
   59100    294.98123   -476.64462    149240.41   -47414.271    4050.8568   -51465.128    0.1482156 
   59200    294.60494   -492.27351    149231.64   -47534.683    4045.6894   -51580.373   0.15063492 
   59300    294.69151   -460.25676    149235.46   -47515.336    4046.8783   -51562.215   0.14072452 
   59400    290.19906   -465.48623    149227.19   -47494.312    3985.1852   -51479.497   0.15046741 
   59500     287.5678   -478.65442    149204.43    -47609.08    3949.0512   -51558.131   0.14321279 
   59600    285.80078   -541.57659    149207.62   -47576.573    3924.7855   -51501.358   0.15172324 
   59700    292.52138   -493.65004    149256.66   -47512.297    4017.0767   -51529.373   0.14688165 
   59800     285.7289   -541.30297    149226.14   -47631.623    3923.7983   -51555.421    0.1505987 
   59900    287.78633   -474.12854    149219.22   -47623.664    3952.0522   -51575.716   0.14463883 
   60000    291.63797   -508.65343    149242.26    -47590.95    4004.9453   -51595.895   0.14476892 
   60100    293.31852   -467.37921    149221.54   -47546.683    4028.0235   -51574.706   0.14295143 
   60200      291.909   -476.13617    149209.07    -47509.34    4008.6672   -51518.007   0.14907274 
   60300    293.87463   -533.06453    149234.43    -47481.48    4035.6604    -51517.14   0.14734579 
   60400    290.04569   -494.26484     149201.2    -47419.23    3983.0791   -51402.309   0.15835743 
   60500    293.49311   -475.95957    149214.38   -47448.379    4030.4211     -51478.8   0.15078262 
   60600    291.98958   -461.55008    149224.53    -47511.26    4009.7737   -51521.033   0.14815721 
   60700    299.49623   -466.30494    149266.51   -47328.813    4112.8596   -51441.673   0.15346757 
   60800    298.78687    -504.2243    149267.41   -47358.981    4103.1182     -51462.1   0.14955033 
   60900    293.32953   -516.05348    149250.27   -47452.904    4028.1747   -51481.079   0.15314794 
   61000    289.68712   -504.51665    149217.18   -47496.194     3978.155   -51474.349   0.14849446 
   61100      291.311   -515.79471    149233.94    -47485.53    4000.4551   -51485.986   0.15201396 
   61200    301.55404   -489.63487     149221.3   -47418.874    4141.1186   -51559.992   0.15028036 
   61300    292.90177   -526.08032    149230.28   -47514.579    4022.3005   -51536.879   0.15124684 
   61400    291.93506   -526.20407    149227.05   -47572.255    4009.0251    -51581.28   0.14892058 
   61500    290.94963   -505.39192    149252.33   -47504.484    3995.4925   -51499.976   0.15059311 
   61600      293.526   -495.35531     149253.6   -47554.715    4030.8728   -51585.588   0.14202143 
   61700    284.74922   -560.73535    149239.81   -47617.382    3910.3448   -51527.727   0.14952777 
   61800    289.35669   -512.06634    149228.09   -47605.204    3973.6173   -51578.821   0.14433411 
   61900    291.23333   -485.93378    149246.06   -47498.387    3999.3884   -51497.776   0.15230697 
   62000    294.43602   -473.12688    149262.46   -47510.241    4043.3697   -51553.611   0.14369701 
   62100    290.00048   -495.79527    149230.07   -47580.225    3982.4583   -51562.683   0.15202866 
   62200    294.17544   -504.01429    149263.63   -47477.138    4039.7912    -51516.93   0.14687027 
   62300    295.21498   -511.35608    149248.57   -47523.138    4054.0668   -51577.205   0.14870976 
   62400     290.8248    -461.7121    149243.45   -47571.702    3993.7783    -51565.48   0.14828578 
   62500     290.4427    -533.4437    149250.18   -47567.038    3988.5311   -51555.569   0.14687052 
   62600    285.25785   -510.65248    149233.89    -47589.38    3917.3296    -51506.71   0.14773871 
   62700    291.05226   -530.41148    149257.05    -47630.32    3996.9019   -51627.221   0.14600771 
   62800    286.52433   -498.94996    149229.84   -47591.634    3934.7217   -51526.356   0.14854291 
   62900    288.18727   -539.76024    149244.85   -47504.703    3957.5582   -51462.261   0.15574318 
   63000    293.02061   -509.07489    149235.39   -47535.535    4023.9325   -51559.467   0.14753582 
   63100    287.69958   -495.87704    149235.44   -47610.585     3950.861   -51561.446   0.14505586 
   63200    293.34095   -492.87263    149247.05   -47482.575    4028.3316   -51510.906   0.14606249 
   63300    292.17071   -477.73574    149249.63   -47585.634    4012.2611   -51597.895   0.14249006 
   63400    284.59511   -503.34258     149218.8   -47671.669    3908.2285   -51579.897   0.14701669 
   63500    288.56492   -532.32492    149221.11   -47649.568    3962.7442   -51612.312   0.14728939 
   63600     286.4354   -507.57075    149208.96   -47701.126    3933.5004   -51634.626   0.15040908 
   63700    286.74613   -465.12029    149217.02     -47660.8    3937.7676   -51598.568   0.14040468 
   63800     278.9037   -519.67007    149208.93   -47740.089    3830.0707    -51570.16   0.15158539 
   63900    287.88249   -504.84941    149208.29   -47625.824    3953.3727   -51579.197   0.14469445 
   64000    291.17191   -487.82041    149233.46    -47541.34     3998.545   -51539.885    0.1505045 
   64100    293.29383   -477.42742    149238.75   -47487.726    4027.6844    -51515.41   0.15063018 
   64200    293.26683   -504.44881    149251.63   -47480.954    4027.3137   -51508.268   0.14940533 
   64300    287.35932    -485.9651    149262.05   -47522.432    3946.1882    -51468.62   0.14929404 
   64400    286.29442   -503.74849    149245.42   -47579.692    3931.5644   -51511.256   0.15151263 
   64500    288.27947   -512.90664    149250.17   -47572.878    3958.8243   -51531.702    0.1461563 
   64600    289.36728   -515.46717    149243.23   -47604.138    3973.7628   -51577.901   0.15121411 
   64700    291.18737   -457.48991    149239.59   -47609.017    3998.7573   -51607.774   0.13982277 
   64800    294.20328   -492.10969    149242.05   -47555.986    4040.1736   -51596.159    0.1451359 
   64900    295.85215   -490.86699    149260.41   -47462.011    4062.8168   -51524.828   0.14944844 
   65000    293.31526   -472.59561       149286   -47453.127    4027.9788   -51481.106   0.14960542 
   65100    286.28534   -512.72863    149236.83   -47519.144    3931.4398   -51450.584   0.15580485 
   65200    289.73279   -510.97384    149246.84    -47544.16    3978.7822   -51522.942   0.14616451 
   65300    293.95133   -508.29227    149252.59   -47472.319    4036.7136   -51509.033   0.15511361 
   65400    293.34847   -523.52653    149240.42   -47513.861    4028.4348   -51542.296   0.14737915 
   65500    292.66297    -525.5526    149267.49   -47447.711    4019.0211   -51466.733    0.1559852 
   65600    294.27601   -503.81995    149270.52   -47467.717    4041.1724   -51508.889   0.14989403 
   65700    291.81533   -479.43443    149265.03   -47423.737    4007.3809   -51431.118   0.15151962 
   65800    291.95765   -495.77548    149256.21   -47492.178    4009.3352   -51501.513   0.15024579 
   65900    294.76133   -495.47206    149237.86   -47501.991    4047.8371   -51549.828   0.14668756 
   66000    289.67661   -509.34484    149251.54   -47515.358    3978.0107   -51493.368   0.15120285 
   66100    294.31959   -514.49633    149241.73   -47484.211    4041.7708   -51525.982   0.15590793 
   66200    292.71143   -491.47603    149241.14   -47615.537    4019.6866   -51635.223   0.14086069 
   66300    294.15249   -504.12027    149234.88   -47548.022    4039.4761   -51587.498   0.15114362 
   66400    294.20018   -463.97536    149248.31   -47549.708    4040.1311   -51589.839   0.14348975 
   66500    288.60154   -512.88571    149216.23   -47588.039    3963.2472   -51551.287    0.1524215 
   66600    294.64247   -486.17846    149226.06   -47586.985    4046.2048    -51633.19   0.14375782 
   66700    290.02145   -503.52308    149235.08   -47577.719    3982.7462   -51560.465   0.14952529 
   66800     290.4914   -491.46117    149228.41   -47596.432    3989.1998   -51585.632   0.15240831 
   66900    288.84525   -519.41675    149224.39   -47609.799     3966.594   -51576.393   0.14854025 
   67000      285.597   -510.42281    149197.44   -47717.904     3921.987   -51639.891   0.14748101 
   67100    298.26522   -475.96033    149226.36   -47553.178    4095.9545   -51649.132   0.14647516 
   67200    287.37747   -525.48059    149204.67   -47658.474    3946.4375   -51604.912   0.14714722 
   67300    287.19667   -493.83996    149224.43   -47574.311    3943.9547   -51518.265   0.15047051 
   67400    293.18412   -465.52496    149241.95   -47555.818    4026.1778   -51581.996   0.14736333 
   67500    290.60453     -521.078    149242.32   -47538.519    3990.7534   -51529.273   0.15147105 
   67600    293.26202   -516.98761     149258.1   -47392.874    4027.2476   -51420.121   0.16153614 
   67700    289.86859   -522.57553    149273.52   -47475.308    3980.6471   -51455.956   0.14843407 
   67800    294.39924   -529.26667    149253.54   -47517.807    4042.8646   -51560.671   0.15735757 
   67900    288.22618   -516.59147     149231.3   -47548.066    3958.0925   -51506.158   0.14689451 
   68000    290.04382   -518.40165    149195.52   -47575.047    3983.0533     -51558.1   0.15301577 
   68100    296.15932   -482.20313    149211.76   -47583.189    4067.0351   -51650.224   0.14095363 
   68200    293.33649   -475.23266    149229.12   -47548.314    4028.2702   -51576.584   0.14885315 
   68300     288.4512   -484.70526     149238.1   -47491.746    3961.1826   -51452.929   0.15060658 
   68400    294.89398   -502.64237    149257.55   -47460.378    4049.6587   -51510.037    0.1510673 
   68500    297.24928   -522.44924    149238.17   -47458.174     4082.003   -51540.177   0.15181702 
   68600    289.11975   -564.23231    149203.55   -47553.488    3970.3636   -51523.852   0.15191804 
   68700    292.35388   -505.25077    149190.41   -47523.739    4014.7765   -51538.515   0.15310281 
   68800     292.2847    -501.8309    149209.29   -47518.955    4013.8265   -51532.782   0.14874096 
   68900    291.02742   -479.53069    149186.81   -47516.025    3996.5607   -51512.586   0.14814823 
   69000    286.04869    -475.2522    149215.17   -47518.829    3928.1899   -51447.019    0.1536115 
   69100    291.11034   -497.22537    149209.09   -47587.543    3997.6994   -51585.242   0.14432697 
   69200     289.4153   -517.67347    149220.08   -47599.275    3974.4222   -51573.697   0.14830023 
   69300    290.23864   -502.24822    149209.49   -47632.951    3985.7287    -51618.68   0.14922779 
   69400    286.71475   -510.98246    149200.68   -47682.014    3937.3367   -51619.351   0.14525328 
   69500    291.14022   -523.40954    149192.76   -47544.309    3998.1098   -51542.419   0.15525066 
   69600    291.53438   -505.47893    149254.98   -47436.709    4003.5227   -51440.232    0.1499674 
   69700    293.27627   -520.77599    149226.42   -47533.448    4027.4433   -51560.891   0.15091618 
   69800    292.67329   -489.26123    149208.31   -47532.078    4019.1629   -51551.241   0.14618601 
   69900    290.82627     -509.407    149201.05   -47627.647    3993.7984   -51621.445   0.14970017 
   70000    288.18703   -528.13673    149205.48   -47555.616    3957.5549    -51513.17   0.15344128 
   70100    286.89345   -529.11538    149187.88   -47680.439    3939.7907   -51620.229   0.15281019 
   70200    296.47766   -471.71348    149224.62   -47510.299    4071.4067   -51581.706     0.143423 
   70300    289.62021   -512.45682    149221.38   -47520.943    3977.2361   -51498.179   0.15279524 
   70400    292.07485   -460.09684     149245.5   -47407.311    4010.9447   -51418.256   0.14947751 
   70500    290.41161   -514.73311    149250.08   -47483.499    3988.1041   -51471.603   0.15460159 
   70600    294.29791   -469.68623    149231.16   -47538.851    4041.4731   -51580.324   0.14052104 
   70700    288.91232   -459.81372    149219.41   -47502.548     3967.515   -51470.063   0.15286228 
   70800    289.55747   -518.63347     149220.3   -47541.006    3976.3746   -51517.381   0.14937446 
   70900    293.53562   -481.95615    149220.15   -47533.986    4031.0049   -51564.991   0.14929825 
   71000    290.73077   -491.50391    149226.75   -47555.713     3992.487     -51548.2   0.15239602 
   71100     288.9021   -496.98944    149225.29   -47544.724    3967.3747   -51512.098   0.14551594 
   71200    288.03902   -555.34723    149226.11    -47582.85    3955.5223   -51538.372   0.15315925 
   71300     287.4802   -441.31693    149214.55   -47633.079    3947.8482   -51580.927   0.13839079 
   71400    291.54893   -465.61228     149202.1   -47566.471    4003.7225   -51570.194   0.15255334 
   71500    288.36047   -511.39785    149221.06    -47520.17    3959.9366   -51480.106   0.15438234 
   71600    287.94727   -485.51167     149209.8   -47535.459    3954.2624   -51489.721   0.15178793 
   71700    294.48267   -479.58923    149242.88   -47531.946    4044.0104   -51575.956   0.14525063 
   71800    285.73221    -531.8685     149203.3   -47707.507    3923.8438   -51631.351   0.14757191 
   71900    290.97251   -479.10371     149184.9   -47648.795    3995.8067   -51644.601   0.14836616 
   72000    288.01449   -483.93078    149196.54    -47613.27    3955.1854   -51568.455   0.15211355 
   72100    294.31743   -476.22687    149239.16   -47478.808    4041.7412   -51520.549   0.15141479 
   72200    288.94247   -524.20983    149290.36   -47370.882    3967.9291   -51338.811   0.16192679 
   72300    297.58514   -508.61982    149276.49   -47344.879    4086.6153   -51431.494   0.15084784 
   72400    288.55637   -484.45988    149238.31   -47468.646    3962.6268   -51431.273   0.15282073 
   72500     296.7054   -492.67975    149243.32   -47464.116    4074.5342    -51538.65   0.15107142 
   72600    291.24676   -516.65952    149271.03   -47407.564    3999.5728   -51407.137   0.15670811 
   72700    290.30924   -516.88266    149246.36   -47573.967    3986.6983   -51560.666   0.15054519 
   72800    291.13587   -490.62478    149240.92   -47501.853    3998.0501   -51499.903   0.14576398 
   72900    289.94403   -521.51897     149242.7   -47506.718     3981.683   -51488.401   0.15131829 
   73000    290.65071   -445.88715    149257.76    -47519.55    3991.3875   -51510.937   0.14612283 
   73100     291.8491   -499.60485    149256.19   -47475.086    4007.8446   -51482.931   0.15097117 
   73200    292.25071   -506.20988    149277.79   -47463.716    4013.3598   -51477.076   0.15202626 
   73300    294.77581   -499.76194     149261.1   -47437.983    4048.0359   -51486.019   0.14997005 
   73400    295.99345   -520.75571    149294.01   -47425.082    4064.7573   -51489.839   0.15224036 
   73500    299.23738   -486.96672     149272.9    -47423.55    4109.3048   -51532.855   0.14872084 
   73600    289.96515   -506.51778    149273.79   -47465.229    3981.9731   -51447.202    0.1526593 
   73700    290.01385   -532.50464    149271.96   -47530.064    3982.6419   -51512.705   0.15096333 
   73800    296.20742   -483.89236    149256.03   -47618.995    4067.6956   -51686.691   0.13718263 
   73900    291.17559   -493.48119    149233.08   -47595.473    3998.5955   -51594.069   0.14843206 
   74000     288.4029   -533.32048     149252.9    -47519.89    3960.5193   -51480.409   0.14832009 
   74100    293.77762   -468.51103    149298.48   -47356.929    4034.3282   -51391.257   0.15568489 
   74200     294.1307   -511.51506    149285.95   -47530.559    4039.1769   -51569.736   0.14637047 
   74300    291.87682   -497.91897    149267.16   -47527.989    4008.2253   -51536.214   0.14855681 
   74400    288.42343   -517.28409    149245.16   -47558.796    3960.8013   -51519.597   0.14931662 
   74500     289.3897   -494.13172    149232.72    -47574.48    3974.0707   -51548.551    0.1468223 
   74600    293.76554   -490.20453    149243.77   -47577.305    4034.1623   -51611.467   0.14691077 
   74700      290.502   -528.07681    149269.16   -47491.579    3989.3454   -51480.925   0.15176162 
   74800    288.70443   -521.70506    149281.55   -47550.183    3964.6601   -51514.843   0.14465728 
   74900    285.88247   -500.51431     149288.3   -47553.722    3925.9073    -51479.63   0.15138783 
   75000     291.0234    -484.1715    149257.68   -47529.214    3996.5056    -51525.72   0.14536732 
   75100    291.28687   -505.62373    149270.14   -47464.704    4000.1238   -51464.827   0.15463013 
   75200    293.99383   -510.14563    149281.34   -47512.162    4037.2972   -51549.459   0.14739919 
   75300    300.07774   -507.45566    149273.92   -47562.332    4120.8451   -51683.177   0.14255382 
   75400    288.86829   -541.23339    149236.74     -47571.8    3966.9103    -51538.71   0.15189318 
   75500    292.72711    -492.3747    149250.96   -47570.322    4019.9019   -51590.224   0.14310639 
   75600    293.63989   -470.59787     149298.3   -47499.852    4032.4368   -51532.289    0.1478682 
   75700    291.10161   -504.99276    149299.02   -47455.274    3997.5797   -51452.853   0.14733736 
   75800    293.70868   -513.89238    149278.97   -47478.482    4033.3814   -51511.863   0.14803156 
   75900    294.28513   -491.34252    149277.56    -47493.99    4041.2976   -51535.287   0.14686663 
   76000    291.03946   -485.10366    149278.35   -47497.391    3996.7261   -51494.117    0.1471902 
   76100    288.45078   -475.84705    149252.51     -47585.8    3961.1768   -51546.977   0.14486182 
   76200     292.2444   -497.95936    149250.58   -47638.987     4013.273    -51652.26   0.14449781 
   76300     291.1933   -523.91069    149250.46   -47575.503    3998.8387   -51574.342   0.14539826 
   76400    288.91905   -470.26874    149232.77   -47567.342    3967.6074    -51534.95   0.14449767 
   76500    286.30366   -518.51945    149223.44   -47555.912    3931.6913   -51487.603   0.14928098 
   76600    286.80042   -534.75395    149212.22   -47600.597    3938.5132    -51539.11   0.15191582 
[...]
   81900    286.78473   -518.24367    149227.41   -47596.893    3938.2977   -51535.191   0.14735524 
   82000    292.88826   -478.27612    149245.14   -47505.514    4022.1149   -51527.628   0.14817544 
   82100    291.40839   -518.35658     149252.8   -47456.158    4001.7925   -51457.951   0.14927127 
   82200     292.1648   -508.54505    149245.11   -47464.079      4012.18   -51476.259   0.15231465 
   82300    292.05099   -506.96117     149245.8   -47538.534    4010.6171   -51549.151   0.14911581 
   82400    296.74087   -472.88507    149234.63   -47413.923    4075.0213   -51488.945   0.15199072 
   82500    295.60581   -506.95003    149259.55   -47309.343    4059.4339   -51368.777   0.16051643 
   82600    298.60316    -532.4276    149258.16   -47412.012    4100.5954   -51512.608   0.15209887 
   82700    291.41805   -524.71203    149222.16   -47494.158    4001.9252   -51496.083    0.1549713 
   82800    289.89691    -512.3055    149254.61   -47511.587    3981.0359   -51492.623   0.14763051 
   82900    292.78735   -538.76507    149257.72     -47461.3    4020.7292   -51482.029   0.15239767 
   83000    296.20586   -476.02032    149267.19   -47397.977    4067.6742   -51465.651   0.15030479 
   83100    295.83713   -517.35173    149264.37   -47440.392    4062.6106   -51503.002   0.15227881 
   83200    295.44748    -514.3027    149254.75    -47470.45    4057.2597    -51527.71   0.15012581 
   83300    299.85253   -466.90315    149281.39   -47463.826    4117.7524   -51581.578   0.13915942 
   83400    286.80733   -497.97919    149241.56   -47543.068     3938.608   -51481.676   0.14953616 
   83500    293.45582   -468.35757    149223.62   -47656.162     4029.909   -51686.071   0.13675075 
   83600     289.8906    -493.7965    149241.85   -47600.967    3980.9493   -51581.917   0.14637754 
   83700     287.7254   -513.17402    149242.97    -47631.76    3951.2155   -51582.976   0.14694488 
   83800    290.89761   -508.21118    149278.14   -47595.862    3994.7781    -51590.64   0.14540325 
   83900     290.1394   -521.46858    149234.74   -47589.303     3984.366   -51573.669   0.14907401 
   84000     289.3881   -490.66294     149237.3   -47612.066    3974.0487   -51586.114   0.14100373 
   84100    288.61875   -521.54125    149227.64   -47540.248    3963.4835   -51503.732   0.15030003 
   84200    295.97388   -511.63053    149253.31   -47497.317    4064.4885   -51561.805   0.15099662 
   84300    288.11525   -509.62342    149234.01   -47550.625    3956.5691   -51507.195   0.14761623 
   84400    287.98006   -490.41202    149225.24   -47539.927    3954.7127    -51494.64   0.15401325 
   84500     288.5005   -515.64236    149229.56   -47599.374    3961.8596   -51561.233   0.14349678 
   84600    291.34154   -491.18385    149247.25   -47510.836    4000.8745    -51511.71   0.15010921 
   84700    293.32065   -508.20542    149228.92   -47517.817    4028.0528   -51545.869    0.1497167 
   84800    288.93685   -523.03456    149231.39   -47515.767    3967.8518   -51483.619   0.15002366 
   84900      288.609   -518.99234    149245.79   -47435.042    3963.3497   -51398.391   0.15709909 
   85000    291.35038   -471.94407     149243.4   -47508.922    4000.9959   -51509.918   0.14468452 
   85100    291.19126   -522.81885    149232.13    -47527.21    3998.8108   -51526.021   0.14863991 
   85200    290.95187    -479.7153    149227.46   -47568.857    3995.5233    -51564.38   0.14436277 
   85300     286.1209   -519.01901    149224.62   -47579.201    3929.1816   -51508.383   0.14667712 
   85400    288.62999   -494.67671    149215.41   -47604.696    3963.6379   -51568.334   0.14692543 
   85500    291.17633   -499.71226    149246.72   -47553.732    3998.6057   -51552.337   0.14435465 
   85600    287.52326   -501.64704    149219.26   -47582.558    3948.4396   -51530.997   0.14879138 
   85700    289.19968   -501.12174    149207.06   -47521.908    3971.4612   -51493.369   0.14819805 
   85800     288.1222   -501.04993    149220.72   -47516.429    3956.6645   -51473.093   0.15174774 
   85900    291.87768   -504.91333    149234.62   -47481.212    4008.2371   -51489.449   0.15388478 
   86000     291.5916   -514.51097    149228.91   -47537.219    4004.3085   -51541.528   0.14627941 
   86100    293.29365   -471.33938    149244.62   -47508.481    4027.6821   -51536.163   0.15003154 
   86200    290.27066   -492.60518     149260.4   -47472.959    3986.1685   -51459.127   0.14782323 
   86300    291.03781   -459.79605    149251.18   -47520.122    3996.7035   -51516.826    0.1488141 
   86400    293.87963    -516.5846    149220.97   -47579.933     4035.729   -51615.662   0.14692697 
   86500    292.61273   -518.44356    149234.17   -47615.151    4018.3312   -51633.482   0.14365928 
   86600    290.68279    -490.0715    149240.17   -47449.062    3991.8281    -51440.89   0.15227707 
   86700    294.21778   -501.57523    149234.11   -47453.423    4040.3728   -51493.796   0.14955297 
   86800     293.7013   -513.70856    149204.42   -47575.699      4033.28   -51608.979   0.15080281 
   86900    291.09815   -508.85777    149224.83    -47560.03    3997.5321   -51557.562   0.15216937 
   87000    292.23688   -522.05172    149231.04   -47535.224    4013.1698   -51548.393   0.14748074 
   87100     292.8266   -495.76913    149214.22   -47505.472    4021.2682   -51526.741   0.15006797 
   87200    293.00212   -464.47765    149244.86   -47438.152    4023.6786    -51461.83   0.14555941 
   87300    292.96062   -487.75078    149262.06   -47449.721    4023.1086    -51472.83   0.15039373 
   87400    292.09124   -511.25154    149265.45     -47508.7    4011.1698    -51519.87   0.15128026 
   87500    294.88422    -536.2492     149281.3   -47487.945    4049.5246   -51537.469   0.14725914 
   87600     295.9141   -491.66466    149270.93   -47510.475    4063.6675   -51574.143   0.14792153 
   87700    292.83541   -477.46692    149252.96   -47478.648    4021.3892   -51500.037   0.14473577 
   87800      289.842   -490.10881    149231.72   -47563.613    3980.2819   -51543.894   0.14857795 
   87900    285.83307    -513.7992    149236.27    -47586.57    3925.2288   -51511.799   0.14860134 
   88000     292.8235   -473.13697       149243   -47554.335    4021.2257   -51575.561   0.14556021 
   88100    294.08561   -497.44917    149243.88   -47519.997    4038.5576   -51558.555   0.14672048 
   88200    284.08192   -462.54476    149240.87   -47622.536    3901.1811   -51523.717   0.14459776 
   88300    292.06198   -502.40538    149228.47   -47565.938     4010.768   -51576.706   0.14890455 
   88400    292.19399   -476.50039    149247.89   -47494.407    4012.5808   -51506.987   0.14854348 
   88500    291.84613   -538.83484    149245.94   -47573.492    4007.8039   -51581.296   0.14646438 
   88600    287.71119   -542.78237    149229.53   -47565.371    3951.0204   -51516.392   0.15121096 
   88700    291.58858   -495.52952     149222.9   -47529.409    4004.2669   -51533.676   0.14721328 
   88800    289.82392   -500.00762    149204.46   -47591.188    3980.0336   -51571.222   0.14864269 
   88900    291.69455   -489.05696    149204.26   -47530.828    4005.7222    -51536.55   0.14637774 
   89000    295.04011   -506.06759    149205.32   -47493.455    4051.6654    -51545.12   0.15156773 
   89100     286.6829   -536.70802    149220.23   -47547.448    3936.8993   -51484.348   0.15095227 
   89200    294.49171   -513.54375    149235.54   -47496.839    4044.1344   -51540.973   0.14736714 
   89300    288.85672   -511.13985    149218.17   -47620.086    3966.7515   -51586.837   0.14579437 
   89400    290.56904   -504.41231    149234.66   -47523.664     3990.266    -51513.93   0.14881347 
   89500    287.05202   -521.92285    149216.32   -47619.292    3941.9682   -51561.261   0.14726825 
   89600    291.22239   -466.83139    149184.62   -47644.293    3999.2383   -51643.531   0.14298144 
   89700      290.157   -472.98144    149199.57   -47556.338    3984.6076   -51540.946   0.14427418 
   89800    294.37425   -539.63109     149207.7   -47494.512    4042.5215   -51537.034   0.15112201 
   89900    296.36568   -524.29049    149218.12   -47480.177     4069.869   -51550.046   0.15039703 
   90000    295.37816   -508.99248    149229.45   -47503.798    4056.3078   -51560.106   0.14836022 
   90100    290.77767   -507.54561    149242.31   -47482.681    3993.1311   -51475.812   0.14941731 
   90200    292.74865   -500.43617    149243.92   -47558.338    4020.1977   -51578.535   0.14597103 
   90300    296.38147   -507.27851    149230.51   -47529.706    4070.0857   -51599.791   0.14497564 
   90400    287.98606   -529.42736    149222.57   -47515.611    3954.7951   -51470.406   0.14960142 
   90500    294.05675    -477.1512    149217.59   -47531.139    4038.1613   -51569.301   0.14993355 
   90600    294.87297   -508.70878    149238.91   -47554.884    4049.3701   -51604.254   0.14260733 
   90700      287.482    -510.8517    149206.42   -47581.606     3947.873   -51529.479   0.15084634 
   90800    289.85712   -479.88308     149200.2   -47599.475    3980.4896   -51579.965   0.14393971 
   90900    286.05524   -491.90307    149223.49   -47572.861    3928.2799   -51501.141   0.15049997 
   91000    288.87497   -481.42518    149222.57   -47584.129    3967.0021   -51551.131   0.14707493 
   91100    285.88813   -506.39278    149192.73   -47691.726    3925.9851   -51617.711   0.14730486 
   91200    287.52952   -518.29451    149195.29   -47632.308    3948.5255   -51580.833   0.14660571 
   91300    292.15585   -490.46787    149219.09   -47566.723     4012.057    -51578.78   0.14618801 
   91400     296.5727   -471.68992    149235.21   -47544.834    4072.7118   -51617.546   0.14244293 
   91500    296.30064   -465.92912    149281.49   -47379.707    4068.9757   -51448.682   0.15178036 
   91600    290.68243   -522.77053    149252.96   -47444.168    3991.8232   -51435.991   0.15338257 
   91700    291.74117   -497.88069    149236.45   -47517.875    4006.3625   -51524.238   0.14605137 
   91800    290.41971     -521.779    149232.61   -47487.356    3988.2154   -51475.572   0.15185022 
   91900    291.34242   -551.88462    149266.75   -47487.035    4000.8865   -51487.922   0.14962224 
   92000    287.13275   -507.75458    149243.64   -47532.298    3943.0769   -51475.375   0.14864075 
   92100    290.46207   -485.15882     149226.9    -47516.15    3988.7971   -51504.947    0.1443685 
   92200    291.15865   -488.08228    149210.59   -47549.842    3998.3629   -51548.205   0.14642412 
   92300    296.93406   -476.89622    149237.53   -47425.948    4077.6743   -51503.622   0.14850976 
   92400    293.54298   -484.80235    149245.11   -47470.362    4031.1059   -51501.468   0.14597984 
   92500    294.12979   -506.00666     149246.8   -47467.808    4039.1644   -51506.973   0.14818005 
   92600    295.87015   -473.14813    149268.17   -47381.077     4063.064   -51444.141   0.14949014 
   92700    286.80566   -519.69834    149232.43   -47505.246    3938.5851   -51443.831   0.15190722 
   92800    295.97222   -488.50348    149235.39   -47517.568    4064.4657   -51582.034   0.14197695 
   92900     291.1882   -491.14933     149228.5    -47551.47    3998.7687   -51550.238   0.14643558 
   93000       285.85    -512.4512    149188.17   -47556.031    3925.4614   -51481.492   0.15162942 
   93100    293.21782   -500.08444    149190.81   -47475.678    4026.6407   -51502.318   0.15161454 
   93200    289.30688   -490.87143    149214.02   -47537.326    3972.9333   -51510.259   0.15198398 
   93300    290.43952   -491.48237     149220.9    -47587.79    3988.4873   -51576.277   0.14491453 
   93400    285.68098   -537.25923    149200.77   -47646.516    3923.1403   -51569.656    0.1493004 
   93500    286.55029    -496.3839    149175.57   -47639.555    3935.0782   -51574.633   0.14304521 
   93600    287.47085   -512.40105    149213.19   -47594.747    3947.7199   -51542.467     0.148861 
   93700     293.1504   -527.37615    149192.41   -47574.838    4025.7148   -51600.552   0.14596158 
   93800    290.60265   -509.06559    149197.29   -47574.593    3990.7277   -51565.321    0.1467701 
   93900    289.15253   -503.07848    149180.07   -47650.139    3970.8137   -51620.953   0.14795526 
   94000    291.05217   -483.23259    149174.95   -47617.049    3996.9007    -51613.95   0.14519672 
   94100     289.4357   -508.05357    149186.45   -47496.283    3974.7023   -51470.985   0.15154161 
   94200    292.85721   -508.05204    149181.81   -47483.042    4021.6886   -51504.731   0.15280284 
   94300    289.78125   -525.90285    149194.48   -47500.375    3979.4477   -51479.823   0.15047416 
   94400    298.91434   -473.12781    149209.27   -47493.192    4104.8686   -51598.061   0.14543261 
   94500    290.58657   -454.61654    149218.73   -47493.096    3990.5068   -51483.602   0.14667045 
   94600     292.3339   -457.71712     149212.1   -47500.607    4014.5021    -51515.11   0.14676459 
   94700    290.05425    -523.7354    149203.94    -47545.81    3983.1966   -51529.006    0.1544739 
   94800    288.71784   -514.62585    149212.68   -47589.487    3964.8442   -51554.332   0.14289749 
   94900     281.9747   -523.61684    149189.88   -47605.108    3872.2434   -51477.351   0.15361662 
   95000    291.89684   -496.89909    149217.93   -47573.551    4008.5001   -51582.051   0.14508131 
   95100    291.15209   -486.54615    149216.46   -47536.489    3998.2728   -51534.762   0.15080033 
   95200    284.87049   -513.52628    149194.45   -47559.112    3912.0102   -51471.122   0.15250873 
   95300    291.26175   -495.03202    149227.89   -47514.798    3999.7787   -51514.577    0.1481838 
   95400    291.55032   -473.78725    149220.35   -47480.545    4003.7415   -51484.287   0.15055879 
   95500    294.25526   -453.18884    149245.42   -47504.448    4040.8874   -51545.335   0.14525983 
   95600    296.87386   -531.28313    149243.95   -47495.193    4076.8475   -51572.041   0.15414001 
   95700    290.30112   -511.82949    149240.84   -47534.812    3986.5868   -51521.399    0.1499748 
   95800    292.79152   -480.83945    149250.41   -47478.509    4020.7865   -51499.296   0.14975501 
   95900    291.55792   -524.37823    149253.82   -47498.721    4003.8459   -51502.567   0.15150583 
   96000    303.66497   -477.91343    149260.24   -47461.753     4170.107    -51631.86   0.14362951 
   96100    299.47059   -496.87543    149276.02    -47413.42    4112.5074   -51525.927   0.14994484 
   96200    295.66353   -498.98604     149270.5   -47431.307    4060.2267   -51491.534   0.14977446 
   96300     291.9406    -483.5339    149271.03   -47450.657    4009.1012   -51459.758   0.15328655 
   96400    293.41069   -499.03691    149249.37   -47501.299    4029.2893   -51530.589   0.15140496 
   96500    290.77072   -493.51439    149252.55   -47496.615    3993.0356    -51489.65   0.15296421 
   96600    288.82566   -510.57489    149242.42   -47545.186     3966.325   -51511.511   0.15098203 
   96700    294.43424   -499.52664    149252.93   -47514.515    4043.3453   -51557.861    0.1480022 
   96800    291.13676     -482.873     149263.2   -47533.581    3998.0624   -51531.643   0.14842069 
   96900    293.25078   -447.43129    149248.04   -47546.606    4027.0933     -51573.7    0.1471143 
   97000    288.49369    -494.3447    149265.91   -47622.588    3961.7661   -51584.354   0.14491144 
   97100    286.73445   -510.64405    149242.88   -47587.329    3937.6072   -51524.936   0.14736591 
   97200    287.17732   -484.12584       149245    -47529.11     3943.689   -51472.799   0.14855436 
   97300    296.85196   -501.65491    149276.44   -47421.017    4076.5468   -51497.564   0.15196488 
   97400    287.69555   -510.26453    149240.71   -47510.781    3950.8055   -51461.586   0.15143992 
   97500    291.22328   -522.39412    149262.91   -47485.771    3999.2504   -51485.021   0.15279921 
   97600    294.73763   -484.86629    149269.39   -47419.457    4047.5117   -51466.969   0.15757016 
   97700    292.76527   -465.42635    149278.91   -47380.562    4020.4259   -51400.988   0.15087623 
   97800    294.32377   -492.78296    149258.36   -47491.193    4041.8283   -51533.021   0.15201089 
   97900    293.22219   -502.83138    149270.07   -47451.149    4026.7007    -51477.85   0.15217164 
   98000    289.90957   -533.82934    149239.41   -47540.748    3981.2098   -51521.958   0.15435703 
   98100    296.29283   -522.75883    149265.03   -47523.513    4068.8686   -51592.382   0.14763952 
   98200    296.46156   -477.71741    149266.02   -47515.362    4071.1857   -51586.548   0.14630799 
   98300    293.11969   -500.18077    149272.41    -47448.32    4025.2931   -51473.613   0.15595079 
   98400    291.39741   -508.62137     149257.3   -47492.333    4001.6417   -51493.975   0.14930312 
   98500    288.54687   -503.04914    149246.07   -47465.367    3962.4965   -51427.863   0.15320598 
   98600    292.56122   -505.82419    149245.82    -47471.74    4017.6238   -51489.364   0.14983584 
   98700    295.46303   -472.77672    149254.69   -47440.659    4057.4732   -51498.132   0.15211155 
   98800     293.0931   -508.12101    149264.89   -47451.615     4024.928   -51476.543   0.15283747 
   98900    290.35224   -487.81005    149230.86   -47511.094    3987.2888   -51498.383   0.14854679 
   99000    292.69711   -496.03062    149236.19   -47507.585    4019.4899   -51527.075   0.15384452 
   99100    292.48238   -496.80763    149244.42   -47574.769    4016.5411    -51591.31   0.14441092 
   99200    292.45957     -497.724    149227.83   -47575.422    4016.2279    -51591.65   0.14616693 
   99300    291.02326   -477.47423    149238.06   -47496.569    3996.5037   -51493.072   0.15479631 
   99400    287.52095   -465.12763    149222.94   -47540.138    3948.4078   -51488.546   0.14680884 
   99500    290.37727   -466.30169    149225.01   -47490.809    3987.6326   -51478.441   0.15331602 
   99600    290.61207   -500.26278    149233.64   -47482.556    3990.8569   -51473.413   0.15081365 
   99700    291.15091   -529.54469    149249.96   -47535.502    3998.2566   -51533.759   0.15065084 
   99800     291.4054    -510.2303    149237.22   -47555.673    4001.7514   -51557.425   0.15110651 
   99900    287.54858    -503.9298    149222.43   -47607.344    3948.7873   -51556.132   0.14477455 
  100000    288.26615   -498.24771       149223   -47520.487    3958.6414   -51479.128   0.15214019 
Loop time of 54.9865 on 6 procs for 100000 steps with 4608 atoms

Performance: 785.647 ns/day, 0.031 hours/ns, 1818.628 timesteps/s
97.8% CPU use with 6 MPI tasks x no OpenMP threads

MPI task timing breakdown:
Section |  min time  |  avg time  |  max time  |%varavg| %total
---------------------------------------------------------------
Pair    | 39.198     | 39.9       | 40.753     |   8.0 | 72.56
Neigh   | 6.3175     | 6.4493     | 6.6849     |   5.3 | 11.73
Comm    | 5.0447     | 5.846      | 6.6777     |  22.4 | 10.63
Output  | 0.17583    | 0.17678    | 0.18062    |   0.4 |  0.32
Modify  | 1.8988     | 1.9683     | 2.0429     |   3.2 |  3.58
Other   |            | 0.6465     |            |       |  1.18

Nlocal:        768.000 ave         782 max         745 min
Histogram: 1 0 0 0 0 1 0 3 0 1
Nghost:        1391.17 ave        1415 max        1376 min
Histogram: 1 1 0 1 2 0 0 0 0 1
Neighs:        0.00000 ave           0 max           0 min
Histogram: 6 0 0 0 0 0 0 0 0 0
FullNghs:      21874.3 ave       22308 max       21191 min
Histogram: 1 0 0 0 0 1 1 2 0 1

Total # of neighbors = 131246
Ave neighs/atom = 28.482205
Neighbor list builds = 6291
Dangerous builds = 0

undump              1
unfix               2
unfix               3
unfix               4




################################################
#######         Run Simulation         #########
################################################

reset_timestep      0
log                 log.run_${NAME}
log                 log.run_ice_292K_-500atm_ML
