
# Import phase coexistance setup
#
read_data           data.coexist_${TEMP}K_${PRES}atm_ML
read_data           data.coexist_292K_${PRES}atm_ML
read_data           data.coexist_292K_-500atm_ML
Reading data file ...
  orthogonal box = (-0.28121473 -0.17659535 -0.17659535) to (104.66949 51.192502 51.192502)
  3 by 1 by 2 MPI processor grid
  reading atoms ...
  8531 atoms
  reading velocities ...
  8531 velocities
  read_data CPU = 0.058 seconds

# Define potential
#
pair_style 	    sw
pair_coeff	    * * /data/emrosky-sim/Freezing_Simulations/Melting/MLmW_fancy/ML_mW.sw mW
Reading sw potential file /data/emrosky-sim/Freezing_Simulations/Melting/MLmW_fancy/ML_mW.sw with DATE: 2019-02-27

# Reset velocity/set timestep
#
velocity	    all create ${TEMP} 120598 rot yes dist gaussian
velocity	    all create 292 120598 rot yes dist gaussian
timestep	    10.0

# Define output
#
compute	            1 all msd
compute             2 all orientorder/atom nnn NULL degrees 2 4 12
thermo              1000
thermo_style        custom step temp press vol etotal ke pe c_1[4]

# Neighbor lists
#
neigh_modify        delay 0 every 1 check yes

# Set fixes
#
fix                 1 all momentum 10 linear 1 1 1 rescale
fix                 2 all nph iso ${PRES} ${PRES} ${PCOUPL}
fix                 2 all nph iso -500 ${PRES} ${PCOUPL}
fix                 2 all nph iso -500 -500 ${PCOUPL}
fix                 2 all nph iso -500 -500 10000.0
fix                 3 all temp/csvr ${TEMP} ${TEMP} ${TCOUPL} 837492
fix                 3 all temp/csvr 292 ${TEMP} ${TCOUPL} 837492
fix                 3 all temp/csvr 292 292 ${TCOUPL} 837492
fix                 3 all temp/csvr 292 292 5000.0 837492

# Run very short equilibration
#
dump		    1 all atom 50 eq.${NAME}.dump
dump		    1 all atom 50 eq.melt_292K_-500atm_ML.dump
run	            500
Neighbor list info ...
  update every 1 steps, delay 0 steps, check yes
  max neighbors/atom: 2000, page size: 100000
  master list distance cutoff = 6.0032907
  ghost atom cutoff = 6.0032907
  binsize = 3.0016454, bins = 35 18 18
  2 neighbor lists, perpetual/occasional/extra = 1 1 0
  (1) pair sw, perpetual
      attributes: full, newton on
      pair build: full/bin/atomonly
      stencil: full/bin/3d
      bin: standard
  (2) compute orientorder/atom, occasional, copy from (1)
      attributes: full, newton on
      pair build: copy
      stencil: none
      bin: none
Per MPI rank memory allocation (min/avg/max) = 4.600 | 4.601 | 4.603 Mbytes
Step Temp Press Volume TotEng KinEng PotEng c_1[4] 
       0          292   -622.94345    276942.27   -76591.272    7424.4824   -84015.754            0 
     500    334.63245   -305.36877    271210.55    -78227.23    8508.4684   -86735.698    15.253922 
Loop time of 1.16959 on 6 procs for 500 steps with 8531 atoms

Performance: 369.359 ns/day, 0.065 hours/ns, 427.499 timesteps/s
99.9% CPU use with 6 MPI tasks x no OpenMP threads

MPI task timing breakdown:
Section |  min time  |  avg time  |  max time  |%varavg| %total
---------------------------------------------------------------
Pair    | 0.3905     | 0.64687    | 0.94211    |  28.0 | 55.31
Neigh   | 0.12673    | 0.14636    | 0.16356    |   3.8 | 12.51
Comm    | 0.03151    | 0.34012    | 0.61619    |  41.0 | 29.08
Output  | 0.0076634  | 0.0082056  | 0.0087328  |   0.4 |  0.70
Modify  | 0.022947   | 0.023475   | 0.023992   |   0.2 |  2.01
Other   |            | 0.00456    |            |       |  0.39

Nlocal:        1421.83 ave        1459 max        1391 min
Histogram: 2 0 0 0 1 1 1 0 0 1
Nghost:        2076.50 ave        2101 max        2042 min
Histogram: 1 0 0 0 2 0 0 1 1 1
Neighs:        0.00000 ave           0 max           0 min
Histogram: 6 0 0 0 0 0 0 0 0 0
FullNghs:      40066.3 ave       40728 max       39594 min
Histogram: 3 0 0 0 0 1 0 1 0 1

Total # of neighbors = 240398
Ave neighs/atom = 28.179346
Neighbor list builds = 84
Dangerous builds = 0

reset_timestep      0
undump              1
unfix               2
unfix               3


################################################
#######         Run Simulation         #########
################################################

log                 log.run_${NAME}
log                 log.run_melt_292K_-500atm_ML
