LAMMPS data file via write_data, version 29 Oct 2020, timestep = 200000

4608 atoms
1 atom types

-0.06572075912966113 53.46572075912788 xlo xhi
-0.1319026834491659 51.03902268344973 ylo yhi
-0.1319026834491659 51.03902268344973 zlo zhi

Masses

1 18.015

Atoms # atomic

688 1 0.1078496379435171 27.94287210030133 13.56911687921839 1 -1 -1
1819 1 14.415805547549953 49.756099830877474 0.7598364614414892 0 0 0
732 1 0.45436189774466196 45.680501435760775 11.190638330064873 0 0 1
4555 1 5.91183406040327 1.9760329119920788 0.7171712861797005 0 0 1
4067 1 8.244061177682237 0.853622228869389 1.683602200422309 0 1 1
4032 1 7.968330204999031 3.069282381867569 3.253001603323358 2 1 1
2838 1 0.3421254901770125 24.1548443033161 16.71892870109679 0 0 -1
4541 1 11.935845002675608 36.61910501480344 0.5440783058320119 1 0 1
2634 1 1.9043507890196099 5.352085370675512 3.148198224418078 1 1 0
1681 1 8.1949611789708 22.00279448899755 0.6442235823958767 1 1 1
443 1 4.606066195313338 6.212223974928784 3.4866412049042332 0 1 0
3012 1 7.28169630431468 4.817903517736028 0.41447123218416637 0 0 1
362 1 8.16452224855043 49.34560850628917 25.023602192582388 2 -1 -1
3255 1 1.1276812636106286 12.728792640841528 16.424297096433346 1 0 0
2092 1 0.22213303905832799 11.234197676919846 20.760558276444712 0 1 -1
3652 1 0.6171097768827193 30.206859476664526 11.036607474647157 0 -1 0
684 1 5.74546299761657 10.072502519589694 1.639671477957381 0 -1 1
238 1 10.432689066565095 7.5538025817135415 2.2018963574655213 0 2 -1
1288 1 11.709654842277613 3.819473065995485 3.906072375159873 0 1 0
798 1 1.9609233502881538 41.429712823513725 1.5434862826499578 -1 0 0
873 1 13.109091735903068 20.499567215180438 25.197504759301655 0 1 0
328 1 5.972449793199632 9.636829669462697 4.993870735395134 0 1 1
1108 1 7.913952632056633 8.7840978974603 3.308055595090662 0 0 2
1211 1 12.029930206507574 7.752261236597745 4.39233705953825 0 1 1
91 1 14.797880105250487 7.538758783936478 3.330446263500716 0 -1 0
2991 1 7.208714720402555 15.002826756261948 2.3820272284738686 -1 0 0
408 1 3.4654468547346764 11.304714423224405 2.9044434309899767 -1 0 1
1302 1 9.580770985619148 15.61743089776469 4.757599542171608 -1 1 1
3674 1 7.112634839462137 35.88368538266613 5.763622768064037 0 0 -1
3948 1 15.811372377717126 9.28474461542127 5.120872578826374 1 0 0
174 1 1.9544942692272165 14.243876548429736 4.234984162938739 0 1 0
2772 1 3.6683786792414628 15.963524651613234 1.68019712511784 0 -1 1
4044 1 8.002747578885666 18.12450196249245 1.0671293443412395 1 1 1
3132 1 12.831426952260433 0.5300947801833336 24.74278109145645 1 1 0
2677 1 9.957564060763193 16.136751053408634 1.749595644177425 0 0 2
1910 1 14.444931109642702 9.380306549246443 1.2430217292368635 0 -1 0
4572 1 0.7587180573721638 13.64082330414815 13.670701005324345 1 2 0
2767 1 0.01832983297216445 6.749117409986739 10.863711445486016 0 0 0
1396 1 3.258621551562146 18.603274902303976 2.088321337958462 1 0 0
3554 1 4.02236592873448 22.090204202760603 2.422162345879215 0 0 1
1179 1 7.137070894063977 24.71363875879614 0.22759117199606543 0 0 0
2231 1 0.48975142982409814 18.75358209475802 5.945200464897958 0 -1 0
2435 1 9.998799485081568 46.12840759817429 24.168427022146602 -1 0 1
510 1 0.6186313607132398 19.480134660454016 1.559253536089149 1 -1 0
1143 1 16.52140921811707 44.57612060567607 0.3400797414088243 -1 -2 0
4307 1 5.839659427408442 24.051955625049057 3.5134546365606445 0 -1 -1
3998 1 13.733130877270973 22.536667403874905 1.5864743234496477 1 0 0
3032 1 16.255914501088636 4.284149242323341 1.0636754082705053 1 0 1
3935 1 11.885322050775125 9.511638929998572 0.7659163595019051 0 1 1
3861 1 1.4527227552851154 14.633421454274462 21.041288741901727 1 -1 1
1994 1 5.101785550162005 26.162350703173157 1.721313589669647 0 1 0
2592 1 8.119161095720752 26.551064737062493 7.195814779524362 0 1 0
1365 1 0.5447572318305149 30.028151717381167 2.4647869661880955 0 0 0
384 1 7.282952913430983 27.541451463808176 3.7594265972005827 0 1 0
3989 1 12.800182850651733 26.827726453414158 3.102827403462506 1 0 1
2679 1 12.6904051340846 24.70227458685148 5.122316710825593 1 1 1
329 1 4.391292757243971 38.84121328257464 3.0143299694535117 1 0 -1
3901 1 5.021279596964192 30.53292380580254 4.430338342746235 1 0 1
492 1 5.503525909133141 31.4756030931535 1.9527226637287654 0 0 -1
3605 1 9.735050803917655 31.64028819530602 4.0356148305610535 1 0 1
3214 1 10.564894242544716 27.758388289788762 4.12806285629251 1 0 0
1408 1 9.516990131256017 31.68617110817521 0.6603459230520712 0 0 1
3709 1 0.9336070522593035 33.49301768009886 13.351678656986401 1 -1 0
555 1 15.551532659591913 30.024932273837926 3.514284648176998 0 0 0
2356 1 3.4495176994516843 33.48652865479866 2.7050721697372926 0 -1 2
4039 1 6.576258506748005 35.80598680234009 2.8204992384142247 1 1 1
145 1 9.493507025735333 34.612949007953844 5.398458412281699 0 0 0
2959 1 8.768981767063744 34.133414366057266 2.377775922179455 1 -1 1
182 1 0.025514644187006108 14.271397947437332 1.930073434223373 0 0 1
2062 1 3.969800631119866 35.97722165601512 2.0068999165964456 0 1 0
2156 1 1.487211656987152 15.307396787906193 23.99623938262371 0 0 0
1255 1 14.243783213194938 26.05507406101334 24.968602282927517 0 -1 1
1542 1 14.692401898306507 47.47127533321047 22.8404522448871 0 -1 1
2644 1 15.479192953915817 4.224413586547775 23.814127192227286 0 1 1
4198 1 13.286961053749698 36.60949661725799 4.63383733455539 0 0 1
4072 1 0.794953479433347 1.6474378921025654 17.15114888596228 1 0 1
1491 1 0.8623260057946143 29.12345564632325 17.55747847783299 1 2 0
3157 1 15.033598724863525 46.06769469870764 7.404806189609291 0 -1 0
2840 1 2.8865885858732754 12.272945525000123 20.730075754341026 1 0 -1
3832 1 5.536818958315119 43.153761551278066 3.277535576090317 0 0 0
1212 1 6.799678604243178 41.62940155058283 5.3433936367637775 -1 0 1
3040 1 6.838502007801721 39.012148329864104 4.871953271741157 0 0 0
1794 1 14.621814364904088 39.87279317839568 2.2937189666030124 0 0 0
1442 1 11.841120469561341 32.1458629156772 2.015387486727793 0 0 0
1513 1 0.5158070847306668 4.008328713879272 6.79833422409582 1 1 0
1167 1 3.963536568896645 45.897054163605404 2.5399165943575297 0 0 1
3758 1 1.2351288562659901 2.313487076204166 22.05707121964385 1 1 0
1332 1 9.514231507366203 42.62313046025051 4.776867572454133 -1 0 1
1963 1 11.047288207511569 46.811500606149664 2.521920559071877 0 0 0
3118 1 10.063945098271837 38.157319793985025 24.872016511697236 1 0 0
893 1 9.71149607358603 42.217421841093355 2.136089924858945 1 0 1
2509 1 17.77551735586829 20.036087381711653 10.33120556893809 -1 -1 1
3306 1 0.16856057969842153 37.49194375378596 23.06881012009782 1 0 0
3841 1 1.5706491290336722 44.219884424578396 2.1181094534054203 1 0 0
3860 1 14.289646099221654 42.67513155137627 3.9337954797341688 1 -1 1
2028 1 16.21461632254802 16.117930792741717 24.330569817899914 0 1 -1
758 1 9.58214590743395 9.170498865653297 24.635167474365712 1 1 -1
1786 1 1.523316317988761 0.3394943827816777 4.204815207960747 0 -1 0
3598 1 3.834539993173614 1.3139857640222252 5.314589974838383 1 0 0
1836 1 5.752557631859777 50.56306483637066 6.086789577069458 1 0 0
759 1 9.35367853068162 50.84821487001257 8.892475253280784 0 0 0
800 1 12.98147400038035 1.1949469523079332 2.670282342639635 0 0 1
767 1 11.350822113365615 -0.08929127229609327 0.19395655420486935 0 1 0
4177 1 4.644104523227073 2.9508048305511663 3.08896424609654 0 1 0
2866 1 9.7679200268489 3.218072368533507 6.5777264097383865 -1 1 1
3896 1 16.67508429820562 1.6038544230156502 5.491773211373397 0 0 1
1761 1 3.38364331955566 8.405337012412687 4.676141610282927 1 1 1
1949 1 15.461374145150652 1.4364760548700202 0.6742998923302952 0 1 -1
136 1 1.39041203083245 9.022237087382502 2.856467572438857 0 1 0
3923 1 7.179442594002712 6.766166598869332 6.326291382755204 0 0 1
3095 1 9.84626927869764 11.23119255904405 7.244773467302699 1 0 0
586 1 12.141229075740968 7.238780883880924 7.536078354252856 -1 2 0
1983 1 15.728301045311008 5.082689319265394 3.50177042961229 0 0 -1
162 1 10.776633136967623 38.1327146058447 3.291718602793353 0 0 0
1374 1 4.1468849864542765 13.37298090212456 8.673958268630232 -1 0 0
3378 1 9.909050790039887 6.076158670449428 5.990782953355054 0 0 0
3188 1 11.609870055731397 10.388617272191118 4.845595512772849 1 0 0
2573 1 10.57511488791921 2.3782157136965325 0.9648400094674621 0 0 1
1679 1 6.411903569434662 12.51114143468724 4.911504878695871 0 0 0
4296 1 9.173179156710288 12.699676090048744 4.735471919616869 0 0 1
825 1 8.245307751678075 17.817690786473065 5.884911496657966 -1 0 1
3714 1 13.953381697149709 11.171914316275965 6.3576825754561135 1 1 -1
4567 1 12.281710767617781 12.984017010548445 8.053391472563858 1 0 1
3770 1 2.8524850239758437 20.178737156900276 4.360410086726758 0 0 0
1806 1 4.945777032753037 14.647564924426977 4.079937242499632 1 1 0
2820 1 5.539761172246697 16.633002998594897 6.109563944174525 0 0 1
2976 1 7.769246809534497 20.00285090566094 4.268879509610509 1 1 0
4412 1 12.167230691158231 18.84967337885741 5.898303779560473 1 0 1
4263 1 13.420284060173726 13.407594939630531 4.140995882359327 0 0 2
3463 1 1.8407035822664304 30.28488113525303 5.135186738261572 1 -1 0
3102 1 4.66731658690083 19.484037314560346 6.269190451395733 0 1 1
2220 1 12.85688785772354 16.330828940706628 4.634715728350089 0 -1 1
2610 1 14.434179614288936 18.192636087248818 2.5802090484225393 0 -1 1
2718 1 14.613441318003943 19.610281956123764 7.103678427701521 0 1 0
405 1 1.8695583717880244 25.086227108879964 3.447845634150223 0 0 0
4329 1 0.5849747518626011 22.094342342206534 5.52857700283108 1 0 1
232 1 2.69185146522095 24.004536351316837 5.6378269365399944 1 0 1
3651 1 5.678371502693118 24.438617082551644 6.14104192447703 0 -1 0
968 1 11.970590837293717 21.48965657440871 5.166969196025436 0 1 1
2466 1 6.759062303342384 48.29471546804503 2.6435890576713277 1 -1 1
3632 1 7.907562898517313 38.2057705017135 2.474176971821959 2 -1 1
1816 1 6.8062337514850455 24.826279352322093 8.705982668839132 -1 0 1
2265 1 3.6224067771669697 27.6572826373157 4.006206113554063 0 0 0
836 1 9.966150273757046 24.77506582453392 6.428420547748845 -1 2 1
1139 1 14.678183767376037 21.93499912557944 4.2594295429161 0 1 0
323 1 3.287427504916331 32.996235337233145 5.579516572436409 0 0 0
4442 1 17.104496002529107 3.6652308325422323 17.771295543828014 0 0 0
2502 1 5.760219620394325 50.23907096181023 0.4271034571460405 0 0 1
4481 1 11.160559297025566 29.58760406467548 5.849910221252818 1 -1 0
3538 1 10.425638159276005 27.93868824343464 8.52921227218496 0 -1 0
138 1 13.630106484717349 30.06504287967931 7.4086865480435895 0 0 0
400 1 15.629941255509902 28.295343555774995 6.5003088293782 -1 -1 -1
2274 1 7.221652472672334 32.415888430856384 5.311752409826867 0 0 0
2554 1 11.64415224753588 32.025087877983836 10.908121817318944 0 1 1
3606 1 14.67263502728917 32.498686963158775 6.637548766019012 0 0 1
2849 1 14.103862946329807 28.916353891406786 24.5319065093022 0 1 0
1490 1 9.62977625472104 37.75150304891088 5.918469868131274 0 0 0
739 1 0.6736307593159243 42.24471349793285 20.691409690310255 0 1 0
1141 1 11.461156924740596 35.00964835575627 2.8357123928824386 0 -1 0
924 1 15.419539538613288 33.411872361067665 0.4433826816838269 -1 0 0
3980 1 16.639230115270514 34.30225647664574 2.84201199054126 0 -1 1
198 1 15.884390722009021 46.18277914367914 25.26442251312174 -1 0 0
3724 1 17.21554627713472 43.93199350720852 22.975630061188276 0 1 -1
1118 1 2.2026210797819568 36.55443970025182 4.578743568678108 0 1 1
3871 1 3.8323353493662085 37.777557119298635 6.671944988562389 0 1 1
2441 1 11.238937318554335 40.51570403239174 6.0347837760164085 0 -2 0
656 1 4.94868555216386 41.10088611531063 1.7517642811796583 1 -1 1
3304 1 0.6489120939637713 42.67784312137975 5.823290923656985 0 0 1
2876 1 1.807569928377068 38.37565285373664 9.050953624077895 0 0 0
3355 1 4.10832548182542 40.91950714201214 6.5898763520979085 2 -1 0
4086 1 8.341049604526448 42.69568525284558 7.7981764864051835 1 0 0
4278 1 10.872895434586106 41.54465350970055 8.593255660528765 1 -1 0
3545 1 16.901870260948876 38.08330068729643 1.6208132287436299 1 -1 0
2922 1 15.909033392724071 36.643163186003974 3.816210689551583 0 0 1
3942 1 0.6823024056104787 27.67182568581568 22.38052324301085 0 0 0
261 1 4.086415957670353 43.678335488133285 8.328167399930951 -1 0 1
3816 1 14.94849568476708 41.49583988255499 6.481624241755034 1 -1 0
2853 1 8.035788881601588 36.26241352982771 -0.05422305255576054 1 0 0
2640 1 3.5619990198059233 43.28807550167821 5.310135235796919 -1 0 0
965 1 1.2049197303831722 47.148370071965246 5.376087750125028 0 0 2
623 1 3.639157766315799 46.10260468847798 5.388353971106655 0 0 -1
4197 1 13.251715050154948 45.154431159940316 4.873713930836014 1 -1 2
2928 1 6.464663606981167 44.84743396379153 8.433746415996543 0 0 0
4113 1 13.645461389524584 46.86557937438201 2.2595195494634677 1 0 0
1055 1 15.752308289830582 45.284196414369106 9.932620843014824 -1 1 -1
1823 1 17.327346274541135 4.449499552716773 6.630345443086989 0 0 0
2254 1 3.1481005058409512 50.225081662886694 1.8488250529618233 1 -1 0
2293 1 8.279661458169157 50.303139257680314 3.9316676352588793 1 0 1
3422 1 4.259427953209625 48.63928269727329 4.208011541243734 1 -1 1
1746 1 13.502790255283944 49.72889852292734 3.691825784406256 0 -1 1
2912 1 0.5770380168540946 48.967681025024916 24.70991747305534 1 -1 1
2831 1 1.3319754833800876 49.18126736378396 7.156723981068667 1 -1 0
1702 1 6.161234285565947 0.23294375219660934 11.114193794866027 0 -1 0
3600 1 11.996995237724699 2.174171297110216 9.512948630485306 0 1 0
2751 1 1.9219571995038172 18.337086003752326 18.609342431580732 0 -1 1
682 1 10.023048269220746 46.80921157770223 19.64087069987699 0 0 0
3004 1 6.042568091978405 4.335517882899449 5.629919378663918 0 1 0
1017 1 10.901994059255298 49.60490977919241 24.929195144081334 0 0 1
1958 1 4.6412376555049875 2.968107944481955 7.229290123466031 0 0 1
946 1 12.917169865245691 4.125980150005143 7.380177980000282 -1 1 0
1170 1 7.925766199433381 1.7567233463831442 5.5235752032793535 0 0 1
3919 1 6.548908323111229 1.5567457859668994 8.643548411614741 1 0 0
3656 1 15.59085184578677 21.481726407299742 17.527221526519835 1 -1 1
1882 1 2.5984700006116213 6.677291005990368 9.272390428023428 2 -1 1
4207 1 7.9105983423742385 6.177687444964649 3.337250604318038 0 0 1
1463 1 14.1017344952133 3.175848168172938 4.939227867836941 0 0 1
3046 1 13.654096678223004 50.87547845515901 9.243067248393205 0 -1 0
3854 1 2.3646088365282942 8.292618563645336 7.137088110945558 1 0 1
2331 1 4.4255214816077855 9.633969785815934 9.653072524985427 0 0 2
2206 1 6.411342707632995 10.021142177298863 7.741660488614445 0 -1 0
2172 1 6.738868007325447 12.822792874006947 7.730887871575221 0 0 0
2719 1 14.315482511947115 9.01413561906791 8.063724703298998 0 1 0
1217 1 13.59867846664943 12.908760789126928 10.98693016461388 0 0 2
3460 1 15.158846686180796 9.296994861073426 12.394795569310723 1 0 0
2600 1 2.503472943803792 11.163200501122324 8.030286930964 1 0 1
3910 1 0.6872406829503467 12.568682818338486 9.359847351753404 2 0 0
3417 1 9.943893837675601 15.080878384187496 7.685242667062984 0 0 0
1759 1 17.59149833507327 11.44770546585154 8.429041042555738 0 0 0
3646 1 6.4677999314844605 28.82203099699356 1.421719304268492 1 0 0
4094 1 0.5405822228238191 16.083733678652134 5.938758785828056 1 0 1
3172 1 15.448541332123778 50.09800104256287 23.690924351778502 0 1 0
4202 1 10.853154998994489 17.664107965437665 8.089105819972213 1 0 2
376 1 7.806923402731188 18.307043240154005 8.698208915833689 -1 0 1
2221 1 14.010510976133911 15.100144737907819 7.092607726369865 0 0 1
1670 1 16.379421215071904 13.441588541834852 10.180285190887934 0 1 0
768 1 16.57975867477789 12.842371442391194 6.067193800933847 -1 0 0
3916 1 6.550511575804466 21.804374718981666 6.110081931020475 1 0 2
2151 1 9.539280151406924 22.181336152092417 6.502918858682521 0 0 1
3252 1 6.891330284612792 20.858516061357488 8.771760245361351 0 0 0
3063 1 10.961123797124513 21.51814969310746 8.952481083965536 1 1 1
2973 1 3.3384465189044623 19.703381629209403 8.66462118673229 0 1 -1
425 1 10.095893444390024 19.439447754522618 10.456101077292505 0 0 0
4494 1 14.257068708883487 22.09679791840573 8.955754147229284 1 1 0
3997 1 1.7679703049114106 25.272283197165383 7.7747984153987595 1 0 1
2074 1 11.827003111527246 5.253650930456313 1.3089140275499722 0 1 1
3737 1 5.6177374487587555 26.69989752866043 9.991852790717386 2 0 -1
654 1 10.966037981546947 24.997593802165273 9.332152752743873 0 -1 1
645 1 13.366224295912993 24.505051173030825 8.339918609105855 -1 1 0
3454 1 7.808178515936673 25.92839160170482 12.19898351193319 0 1 0
1194 1 15.239677191257543 26.417081921671247 9.990366159542 -1 0 1
2515 1 4.773967950565454 30.28278906047349 10.10836578436944 0 0 1
1655 1 2.5388178474572163 28.04835267271862 6.805629006777198 1 0 1
2103 1 4.823105009105612 28.601584072585606 8.126934396639138 1 0 0
3546 1 9.057175156739525 31.59373282912396 10.253311356625217 1 0 1
3428 1 12.630234629564331 27.57664686392517 10.374325281412187 0 -1 1
3700 1 12.182498624732832 29.516816668894727 0.2029675337131583 1 0 -1
1486 1 8.775784620183936 30.824149000408333 7.212763807240146 1 -1 0
963 1 4.220802786946836 32.90541404493989 9.746177728576278 0 0 0
2121 1 13.535938114910072 30.19557605648638 9.913467679162446 0 0 1
87 1 1.3156429848102051 32.70439922483503 9.861728801186588 0 0 1
4259 1 1.5102775435837528 34.66095669119484 7.123689659345603 0 1 0
1522 1 5.302545538539021 34.27035328097179 7.314126506216727 -1 -1 0
1658 1 9.450924569875568 36.4851668448497 8.28776212404571 1 -1 0
3751 1 12.054622453005813 35.36933145022127 8.758772605720326 0 0 -1
414 1 13.114055466872685 39.27493423222843 9.214377608055472 0 0 0
4187 1 3.1016005480620703 35.927625219341735 9.217042001438054 1 -1 -1
3568 1 6.657285464172141 38.0811469681495 7.801744707755022 0 0 0
2862 1 6.5661766814119 40.638774364997445 8.790808267458681 1 -1 1
633 1 10.542844596250259 38.54243017398258 10.132281707041253 0 1 -2
551 1 17.285063862451768 2.935240482213641 11.627437383044846 0 1 0
2956 1 0.18203384052214425 27.228340616458436 19.391473445158464 1 2 1
214 1 5.338037125424913 40.47790745743012 11.092806473749237 0 0 0
2212 1 13.627111902397603 38.77569286861487 6.64097424145876 1 1 1
2412 1 15.240300379874718 13.989968374090868 21.122799754761534 1 1 0
698 1 3.047394905181658 41.139592499929805 9.50098746847284 0 0 1
3613 1 10.311438681165155 45.215494981506325 5.020702310727433 1 1 0
1768 1 9.49005646992288 43.22290637089671 11.787041097923495 0 0 0
1973 1 9.614664752493333 45.817979958072556 7.846467174552469 0 1 0
482 1 16.376361138202082 40.65358290454178 12.459010105800283 0 -2 -1
2149 1 10.173415611330402 20.687082747495772 3.2864215348714763 1 0 1
501 1 0.8425827925841619 45.18124663194615 7.180016101033928 0 1 -1
3161 1 7.3337524474581235 44.90689367514139 11.385689986685069 1 -1 1
1311 1 10.688884172555094 48.892070659720986 4.485539654616335 1 0 0
3570 1 12.817799227631877 48.86277095609434 8.123333607318141 1 -1 0
2080 1 13.833514843124284 44.166686567676834 23.425062160704044 0 -2 -1
2556 1 5.531442927696018 47.04453156891131 7.332969476676085 1 -1 0
2601 1 10.283337893983365 48.75397240571125 7.274992371717011 0 -1 0
4043 1 10.91869893032637 13.8035481838396 25.313512455958044 1 -1 0
3614 1 10.975842543185307 0.3810508891126271 11.536672982038128 1 1 0
4469 1 13.377137981656642 4.567840367010168 11.25707820388047 1 1 -1
2217 1 2.553666999998898 4.066282506547131 8.400296640828088 1 0 0
2931 1 1.0582573819522891 2.47625347275165 10.161681066088086 0 1 0
2397 1 4.995790960453535 6.603672273817923 10.718957729852722 0 0 0
776 1 9.065779627645368 2.884400543850094 9.36370958749235 0 -1 0
1224 1 16.462645172593504 0.6822497452914863 9.226150679663547 0 0 1
685 1 17.26205967551761 0.25386008382537967 12.313322693771415 1 1 -1
4244 1 1.679353659552489 8.128524712414318 13.169231104730567 0 0 1
3680 1 7.496400895899587 12.081617628572236 2.0641709690270362 0 1 0
4047 1 4.337440307396084 6.483725203565943 13.417981924154233 1 0 1
188 1 7.358521626750421 5.435948107426776 9.001822733229599 0 0 0
3447 1 10.410904528427892 9.139955841498736 8.795710056158443 2 -1 -1
3209 1 16.999151915032193 7.261888300086271 11.591930238227253 1 -1 2
3459 1 8.56607577285913 25.138798522442293 4.006330112291425 1 0 0
752 1 6.0258301068392655 11.939618505974714 10.753541510780094 0 0 -1
1785 1 10.466233319210547 11.390427130550794 11.68501229382246 0 0 0
1863 1 9.463823551143733 13.425780614938644 9.73119962101212 0 0 0
1665 1 15.906283461933896 8.122288731196418 15.162198367109879 0 1 0
1226 1 12.756912433058233 46.522103779613346 25.0790729236759 -1 -2 1
3934 1 0.8446962707340498 47.81684896443542 18.977632641456026 1 -2 0
2647 1 3.3812569875903016 15.597869274271686 7.099976811438179 0 0 1
3889 1 8.189519966624262 13.2013268047837 13.886021529046921 0 0 2
2588 1 9.052814523075902 18.616392505617796 14.043277035109169 0 0 1
1540 1 16.45977016756646 11.271547411334804 13.905017289749319 -1 -1 0
3262 1 14.731661827177811 32.483842548929786 3.8302027245755044 0 0 0
1107 1 4.093772636508415 17.233484973801616 9.871671257907403 -1 0 0
1459 1 12.74062409707919 16.395036008637693 9.628723158190526 0 0 1
2740 1 13.602873092927856 12.987369584259923 13.741201565730009 0 -1 0
1599 1 1.2700272591021655 35.170564350555296 23.942370342585345 1 -1 0
699 1 7.455376678544674 40.61808773955674 1.2273165489657232 1 0 0
3866 1 2.3827755732999774 14.922425538618365 10.338692715879702 0 -1 1
52 1 3.073311402553368 20.739440676422387 12.768292262235624 0 0 0
572 1 8.383623717368033 22.73960984409333 10.182375111466031 1 0 0
679 1 16.48038647373863 15.421164281432455 7.330507843659933 0 0 0
3567 1 14.313463642457755 17.980496382366038 11.138910592458029 1 0 0
4319 1 1.3938045624458657 8.056635495134541 0.3076817640094125 1 0 0
270 1 2.1346127772666432 30.78924085786086 21.57693149610614 0 0 0
2315 1 4.290249320955482 21.83440870365807 9.955854895576557 -1 0 0
496 1 5.735380172048453 22.71636176805867 14.153613447064496 1 -1 1
2109 1 14.51673498542508 24.524388413414968 14.406041356170665 0 0 0
2795 1 16.1079062473648 22.340572935516594 11.435326568731357 0 1 1
3006 1 0.617515603560196 20.075809268557812 8.287262904596828 1 1 1
1258 1 17.28270708188528 8.750567272363494 8.507270200242452 -1 0 1
4593 1 3.3965191611457315 24.63797028634847 9.950981592225851 1 0 1
1279 1 11.234155857183413 22.24456462350732 14.8046686046666 0 0 1
1645 1 11.480909518699878 24.95124290547653 14.017173599197688 1 0 0
1265 1 17.441940006276315 0.3271257047728041 19.829965659150467 -1 1 -1
2040 1 14.966714356343683 46.69727981774524 19.968013226691983 1 0 1
1465 1 3.2813120303551315 26.69988790231831 12.06479456669343 0 -1 0
2 1 8.117447821883134 32.230823280751 12.971942396364762 -1 0 0
2864 1 6.613516405928147 30.178670203822264 12.259565271278685 1 1 1
786 1 9.954404847874363 24.35957731643438 11.70480927298786 1 -1 1
325 1 15.464085396708226 28.689980001627134 13.20619585885616 0 0 0
1075 1 11.59072660059615 18.379229862650348 24.37316475028766 -1 0 1
1466 1 3.0245825986599306 29.58415641288846 12.13886500783766 -1 1 0
2875 1 4.4950206354999445 33.79960897709047 12.217854236499779 0 0 0
3085 1 7.753467087292246 34.065148688702266 9.053582007685549 0 1 0
3444 1 5.763343127300601 32.842010556982416 14.763504041928842 1 0 0
3285 1 9.15589617239361 27.13236127963427 14.70193997261456 0 0 -1
3336 1 15.943452304556967 30.28811617407483 11.240382900042087 1 0 1
3940 1 16.79417824167551 34.577664999213596 9.562885191081214 0 -1 1
646 1 12.642367544097219 11.522009907395457 25.233136658494114 0 -1 1
4042 1 5.9748011935582195 36.4443592916102 10.40429253341214 0 0 0
3880 1 11.55922517002933 35.465712669957355 14.197180401506387 1 0 1
1878 1 7.589348491327504 34.68554813011497 11.868360280713807 0 1 -2
2730 1 12.619455164779264 34.548102398294645 11.642874613161077 0 0 0
3789 1 12.603479495407713 34.25803429796113 6.291751379451588 0 -1 0
1246 1 15.664703295366026 35.30659586067884 14.436844447493565 0 1 0
2420 1 0.713799415049919 38.43972051455222 14.810281371477718 0 0 0
2567 1 6.197878322089237 38.421551171967295 12.402453815263723 1 -1 1
3385 1 15.321070023190392 34.05496716067991 11.993809374824686 0 0 -1
3560 1 14.275222394288544 28.577232107284974 1.517709720284069 1 0 1
3135 1 0.01864738249531571 37.059820609476944 11.06179868186622 -1 0 0
2357 1 3.9177119386780364 43.10194630428579 15.743297707219295 0 0 0
257 1 8.962374382918812 40.65591439202932 10.46681179556134 0 1 0
2340 1 11.28760824187376 44.56319113423052 9.844623675365819 0 1 0
2748 1 8.864301297942937 39.112221688322094 13.035028545317369 0 -1 0
2824 1 11.743540189254526 38.37204642881001 12.961554065839053 0 -1 0
2125 1 13.269611298672281 40.451818067429656 13.766961932464694 -1 1 0
2637 1 15.306085677461953 39.05811567514354 15.328644363648998 1 0 0
505 1 0.8628580749039845 42.8629442992644 13.159885115361728 1 -1 0
2042 1 4.752003294924069 43.748324695634665 11.295869448709713 0 0 0
3335 1 14.329127759753858 41.331895009771145 10.750693903374984 1 -1 0
456 1 14.344877449238485 36.75423752307326 9.90201897454165 0 0 0
243 1 2.521011142068714 45.68183393892393 9.274009842793 0 -1 1
4218 1 4.2379686263787315 45.27011078778462 13.436101758712054 1 0 0
750 1 12.18338160478721 47.325339255512276 10.209176089644007 1 0 1
258 1 13.541589700977392 43.2698900041614 8.641575206628257 0 1 1
3379 1 15.331278711736445 46.20144136574612 14.041156565627835 0 0 0
101 1 3.378759703753968 48.49178363951998 9.026715132378762 0 0 0
1099 1 2.8707743898078317 50.06812871590559 12.07653013134527 2 -1 1
4454 1 8.163850515982816 47.11463154555253 9.713911129715148 2 -1 0
2498 1 6.634850176815817 49.55793165693993 8.338341363781913 -1 0 0
2923 1 15.089610760204112 41.48244084840388 20.808236910863677 0 0 0
1752 1 14.916292914249123 47.52384245106879 11.477405067952452 0 0 0
63 1 17.249282891333195 11.201365909850175 3.7961241407543125 0 0 0
3298 1 3.3754630381334927 1.6454325922171935 11.761084453935855 1 0 0
1101 1 3.6534295755916246 2.312666406630221 14.573552176852541 0 0 0
2961 1 5.384016512420574 3.5469674392581054 10.538702103982121 0 1 0
4470 1 7.374619747129356 2.851216675660853 12.637934079409302 0 -1 0
1914 1 10.144871757864175 3.029488255278705 12.546583469588096 0 1 0
3956 1 9.77848790328245 48.804198557023625 11.139408631541414 1 -1 2
3286 1 14.813197717259511 50.589871924874785 11.94418183236243 0 0 1
481 1 3.148480820688813 36.594701905869755 25.36792241750415 0 0 0
2026 1 0.24542126592418512 4.156121792255333 12.24217965773532 1 1 -1
3177 1 2.0645410270675395 4.870995544207669 14.356006146383498 1 0 0
1965 1 8.096250697238766 7.997764345580634 10.315519787831077 1 0 1
1811 1 6.562459748804284 4.774407543398277 14.416859472408431 1 1 -1
3313 1 12.345969953835988 6.561342653119882 12.84254145247755 1 1 0
830 1 9.682260173564304 6.006601488033525 11.995320769453704 1 0 0
2505 1 17.288813706540353 1.5961806062789348 15.823777826617803 1 0 0
954 1 0.44477633208574474 40.46941174718144 3.7094335243118355 0 -1 1
2123 1 14.95590148344122 39.94757877424976 23.585353800403894 0 0 0
1062 1 3.950583134451798 9.651420993343315 14.226748740881478 1 -1 0
1736 1 7.906105478387647 10.217309010254468 12.31988306029022 1 0 -1
3838 1 12.83387898657071 10.427445874440465 10.092684483733462 0 -1 1
1755 1 16.687566415410135 5.545408513714744 13.768119883067955 -1 1 2
788 1 1.3646609500265514 10.168607505873746 11.409628485783438 0 1 1
782 1 3.753782029124004 11.717738283813492 12.151746802894698 0 0 0
735 1 3.685976752292782 11.981774280949905 18.16222727895645 0 -1 0
1898 1 12.376924010827997 9.148827307090505 13.060720725704094 0 0 1
1142 1 6.954469653885614 28.854764344236084 6.240636844587271 0 0 1
2721 1 7.524908394248401 14.120202400985681 11.585817987897904 0 0 0
1987 1 6.113568296814152 11.997256887853428 15.18616668236432 1 1 -1
1776 1 11.601094126977484 14.666562047315978 11.344739555818997 0 1 0
4561 1 6.5290181957391376 11.641390391720922 17.889430089011505 1 1 0
943 1 14.317663420731794 10.221277174267966 16.310693168116035 -1 0 1
2373 1 15.635320448037811 12.677216337617361 16.572418160301112 0 -1 0
1734 1 5.412298594320019 17.19222215960401 15.18884436523908 1 0 0
3072 1 6.9150200530524755 16.84381731239287 10.525915441771115 1 0 -2
1164 1 6.479856609799407 18.387576513393135 12.746571828463958 1 0 0
550 1 8.301642424361381 19.459565141982587 16.658608577877658 0 -1 1
4211 1 11.226084481742479 16.553464448535113 13.277833808129367 1 0 -1
1957 1 11.055354247563052 12.898670787037723 14.531666529243056 1 0 -1
2257 1 3.461259825823047 17.48155599960613 12.76301239683606 1 1 -1
4478 1 4.203523982034826 25.34413110681014 14.379956355420598 3 0 1
918 1 13.663120256940186 17.64161996190931 14.087541577112843 0 2 1
4437 1 13.71260519458621 21.764486015871412 13.535434170498984 0 1 0
1750 1 16.563043574445523 17.875343456967855 8.949778978797127 0 1 1
4510 1 2.4442800084083207 23.26965085214569 13.96873074943747 1 -1 1
3930 1 6.226058220205932 20.88287927619274 12.008466486466816 1 1 0
1094 1 9.3555740812717 21.230155254773052 13.06171681358093 2 0 0
4416 1 13.00651744859556 20.5440632659487 11.12762926948813 0 -1 0
2168 1 3.0450176894782417 12.464757356657161 0.32378458090274753 0 -1 1
2870 1 1.9797767898424339 28.773319089341218 15.34929000908953 0 1 1
3366 1 1.1324337665106832 24.37007035043305 11.721413724607226 1 0 0
2673 1 2.8278248701395308 24.83862908319469 17.83894922659983 0 -1 1
3638 1 8.180513607300288 23.750779131237376 14.459966315639074 1 1 0
3049 1 13.077603978144435 27.349577778513336 13.40930122841883 0 1 0
1975 1 0.015477450460664316 26.929795794418723 10.636201083233248 1 0 1
4154 1 6.903437483490268 27.661920408295263 16.957716673913477 1 0 0
3973 1 5.818998708305035 28.03310764538261 13.905589934456756 2 0 0
4316 1 10.483487887494451 29.032937116044337 13.266825440237643 1 1 1
4242 1 16.339126212452367 41.465002945154 16.61680867909469 1 -1 0