LAMMPS data file via write_data, version 29 Oct 2020, timestep = 100000

8517 atoms
1 atom types

-0.2695191070155687 104.63545639354068 xlo xhi
-0.17823685194873207 51.19581241361422 ylo yhi
-0.17823685194873207 51.19581241361422 zlo zhi

Masses

1 18.015

Atoms # atomic

196 1 4.787753154392401 1.8599664815037773 0.8071290139499355 0 1 0
290 1 6.530765367737333 0.27532278954297595 2.3328235449435524 0 1 0
198 1 10.930670951082794 2.563888108362165 1.0319215584614532 0 1 0
2220 1 31.687913395689367 49.11476142792096 25.292886208817862 0 0 0
199 1 17.134851258309048 2.521180220067838 1.0856771482707757 0 1 0
932 1 23.42569274817792 2.583252528717167 1.1146417558221473 0 1 0
2442 1 18.943660669157666 4.249027009319598 25.095932138378224 0 1 0
1403 1 9.26410913070442 7.446662060230495 25.229311573289092 0 0 0
933 1 30.216053750956164 2.4189721776717636 0.6583317844455997 0 1 0
200 1 1.6728783237642377 5.480458396534732 1.1358815483233327 0 1 0
1884 1 -0.26575096994192604 23.04809146933724 24.96748737696533 0 0 0
202 1 7.64518579485808 5.723680204147373 1.1308198241434497 0 1 0
1562 1 3.1118716194725384 45.27890638760211 25.10998206741563 0 0 0
203 1 13.805801001194427 5.883521202304517 0.9555415716206974 0 1 0
934 1 20.423930554809637 5.7508900138053445 0.8664110457493592 0 1 0
1541 1 12.211850758255283 29.264386804611547 25.318245418520114 0 0 0
938 1 26.646435658922762 5.661419853785711 0.8727769424334018 0 1 0
1431 1 9.339959586655459 20.146693626331235 25.1552700549792 0 0 0
937 1 28.607461985243113 4.046630246629852 2.084772298113218 0 1 0
939 1 33.11892339295179 6.0279273244929525 1.0068779426483745 0 1 0
3 1 2.9631250537526244 7.556090342013676 -0.1528699612100558 0 0 0
103 1 4.4271177706908 9.047495720140171 1.3661349229269533 0 0 0
6730 1 0.034345583609999786 36.257058107112464 5.704887148936907 2 0 -1
106 1 16.961603254370093 9.13648174944382 0.6322669145897927 0 0 0
763 1 18.418336477923646 7.681408155396812 2.382757534465152 0 0 0
1455 1 5.660091089728536 35.82903349430927 24.987495961376474 0 0 0
860 1 23.481033749610077 9.011639977243318 0.748230962937797 0 0 0
943 1 25.018326844319542 7.602327417273682 2.157285302235946 0 0 0
2289 1 28.508481583899986 46.17428352631609 24.95376342111587 0 0 0
862 1 29.993238080962712 8.84885175751268 0.9302270803068897 0 0 0
1567 1 15.558756305166789 45.86972766149987 25.147643395648533 0 0 0
104 1 10.76176553827586 9.356096038823546 1.2531683511037406 0 0 0
2230 1 19.14974476781178 10.689342902838824 25.322826220481765 0 0 0
215 1 15.261659611718587 10.418640892381237 2.2822468042508968 0 0 0
1566 1 9.094865879024207 45.56480837926772 25.00446189268362 0 0 0
865 1 20.269629287773828 12.2262463167898 1.0589294166557186 0 0 0
1516 1 2.9400450210327693 19.87128968694953 25.182268036132825 0 0 0
1802 1 18.762084008060345 42.98932033031932 25.156627021251715 0 0 0
868 1 33.894717663294365 11.991090992931332 1.0044080129471038 0 0 0
107 1 1.2589479124367697 12.364854848954698 1.229300002321776 0 0 0
2256 1 25.679646832495266 29.817970869225785 24.98977851188685 0 0 0
112 1 7.496758814366418 12.43739609603682 0.9525352281532331 0 0 0
2275 1 28.535280429419423 39.65502989908905 25.250409975556785 0 0 0
115 1 13.902532080024212 12.468075332269406 1.2003531685050184 0 0 0
1551 1 9.159459731023702 39.24427112789527 25.020245852041725 0 0 0
2200 1 22.17615597611519 39.38221279945899 25.16822945218471 0 0 0
869 1 23.463069685747307 15.277808006881672 1.2707174097580611 0 0 0
866 1 26.700424907690948 12.597048129227899 0.9980310704095228 0 0 0
2203 1 25.590497933927516 42.507870746925114 24.959158227997495 0 0 0
872 1 31.990721047235148 13.711261109481432 2.2159533510650995 0 0 0
117 1 4.229339582599954 15.287422187715032 1.3834411259823747 0 0 0
398 1 -0.21573764431273884 19.914426275282842 21.559082410682247 0 0 0
118 1 11.132080059901725 15.56444456045267 1.0766709574916855 0 0 0
2287 1 21.832512930536232 46.278989549807164 25.23756139992143 0 0 0
122 1 17.390215752470375 15.354400527568687 0.7586961610473333 0 0 0
1594 1 15.840914495380122 7.149928529660078 24.96136574503622 0 0 0
2160 1 31.60435518189018 10.530901613495155 25.3521954797837 0 0 0
871 1 30.22806124409326 15.508594402342494 0.7082580704633842 0 0 0
870 1 28.477278878631957 17.047931591192036 2.152047791105434 0 0 0
2171 1 21.9118686745671 20.167897317134507 24.945202216944008 0 0 0
125 1 1.5280554490350438 18.6047009988137 0.5962234178448536 0 0 0
38 1 -0.015162281062258198 19.965448784510265 2.3599709777442643 0 0 0
126 1 8.128662066274831 18.410708110088226 1.1704221690251169 0 0 0
128 1 14.390610132511073 18.514655921931098 0.9162140141529425 0 0 0
873 1 20.72329541666627 18.92780765172524 0.781805486433388 0 0 0
1489 1 15.5818022333881 0.9045302132951314 24.948683056740556 0 1 0
876 1 27.105142334467715 18.62326989906251 0.6618045141449693 0 0 0
875 1 25.237757923657732 19.918776819840502 2.33600876321001 0 0 0
1500 1 12.536706287275972 4.2145654541429005 24.97690563122659 0 1 0
878 1 33.570922233813306 18.644628451074606 0.7560472272865217 0 0 0
879 1 31.854607748609098 20.326776785550607 1.8393499906335036 0 0 0
130 1 4.768040229414394 21.47773020019739 0.8802383804669309 0 0 0
134 1 9.292744645533698 23.09384974994123 2.3242369194722596 0 0 0
132 1 10.91710589131792 21.38378979811129 0.8351404954322039 0 0 0
135 1 15.247068165696676 23.246609760584327 2.267653828757031 0 0 0
136 1 17.240567659675026 21.7088649201606 1.0974089771736215 0 0 0
2193 1 31.573772639419595 36.49838596451834 25.38521650143514 0 0 0
881 1 24.099514307523048 22.028186502162814 1.0538325736497722 0 0 0
2282 1 31.880504844076675 42.74712120267402 25.092458216774503 0 0 0
966 1 28.324450698786553 23.295263867669828 2.1791997233413722 0 0 0
882 1 30.396157626006875 22.50543928199538 0.6755245424902179 0 0 0
138 1 1.3005789819111437 24.473872196046823 0.6319430818482636 0 0 0
1429 1 5.936079357121746 22.93689283708324 24.96436021332804 0 0 0
94 1 -0.10675473724303905 26.16656911573734 2.329518380577413 0 0 0
139 1 7.659737358532513 24.654933201331136 0.8885866001176557 0 0 0
2184 1 28.801659764302528 26.691306683043628 24.994695275485945 0 0 0
241 1 12.293191250051365 26.666930116434447 2.31841880066854 0 0 0
143 1 13.657438219671064 24.919742676283168 0.4618588214332203 0 0 0
883 1 20.56303442187335 25.09043399751502 1.1831995674691118 0 0 0
2180 1 31.548403962626296 23.645374522785378 25.061066856109946 0 0 0
884 1 26.775705249393216 25.27984998862747 0.8600830708002638 0 0 0
684 1 -0.2667018607009465 33.01244499646647 2.5565502126323616 0 0 0
885 1 33.642231634541524 25.271885532471785 0.8240787870258821 0 0 0
968 1 31.690604309179133 26.52858831783575 2.3830066329664517 0 0 0
146 1 4.260032114930645 28.084407485632926 0.8023365063718938 0 0 0
1537 1 9.384078682529612 32.64660419658715 25.041015793368032 0 0 0
154 1 8.80833397180767 29.369341222030652 2.146642227485879 0 0 0
148 1 10.758857358972367 28.074896182761268 0.9459614411482911 0 0 0
2186 1 31.607085184595118 29.645981812339468 25.158347822399637 0 0 0
150 1 17.133678010662088 27.975726932245852 0.6626329261215099 0 0 0
888 1 23.769142284667502 28.33171619398121 1.4215323494732492 0 0 0
33 1 -0.21380947048610396 0.489835848585391 2.390294996472586 0 1 0
890 1 30.24010097780887 28.45487489488137 0.8827853209739451 0 0 0
1685 1 18.75679942266803 48.92289512575247 24.874447574338657 0 0 0
152 1 1.2635290143093494 31.146819871898487 0.8170873208516651 0 0 0
1494 1 8.978049216436816 0.5793288255980859 25.069726497523853 0 1 0
153 1 7.50507433043323 31.244641533830148 0.6223361713739543 0 0 0
1490 1 17.009857632146172 50.51799262719783 23.504044593722003 0 0 0
155 1 12.401215205226775 32.96090409472692 2.2503786850276826 0 0 0
156 1 14.158448744456308 31.213939230687846 1.215835409800341 0 0 0
1473 1 6.168172458728404 42.3045016360017 25.379697014192164 0 0 0
892 1 20.290562407826346 30.87565855699761 0.8747179776592915 0 0 0
2269 1 28.688052001438276 33.32091497516837 25.33590592093802 0 0 0
895 1 27.00332217041514 31.395515100140113 1.132176627531886 0 0 0
58 1 -0.22314098560877113 19.987001455877117 15.12475889240845 0 0 0
897 1 33.857864258514006 31.70161972379385 1.0636568173355476 0 0 0
980 1 31.95727731262297 33.373380924741724 2.392551256965501 0 0 0
159 1 4.3799918282357675 34.6046074861753 0.8014867256886806 0 0 0
161 1 10.820465499397793 34.67252575709345 0.9081379894617159 0 0 0
1495 1 5.350443980757063 4.090120511225223 25.02815804279491 0 1 0
164 1 17.288329415087528 34.37692710962624 0.9730035363314755 0 0 0
2183 1 22.16506624575873 26.687511878894206 24.995853971473323 0 0 0
898 1 23.71758695860316 34.206142341346606 1.4092424482836516 0 0 0
900 1 30.33287646883453 34.93663439196087 0.9116554488490829 0 0 0
165 1 1.1218918998284502 37.56833349575368 0.7096203082221518 0 0 0
779 1 15.47353477712539 48.865616286646144 21.804632575363634 0 0 0
167 1 7.782192366332291 37.76540700295939 0.6591826198430808 0 0 0
1433 1 15.66075303593353 19.676530505806348 24.994205348666824 0 0 0
169 1 14.123292254560518 37.90082205968924 0.6610220920344754 0 0 0
733 1 18.818349341865172 39.12579591245637 2.3828981558794373 0 0 0
902 1 20.411251901300293 37.63024173781889 0.544978976268706 0 0 0
905 1 26.93418064783113 37.65004477225085 1.1225546728487263 0 0 0
2245 1 31.810855185538564 16.986826913208812 25.413776797815586 0 0 0
78 1 -0.22032134969027525 45.696230877777005 15.440207188848085 0 0 0
906 1 33.72202529347229 38.062861643442865 1.0510480908901954 0 0 0
172 1 4.560532469129075 41.06304419943042 0.8703316619901282 0 0 0
173 1 6.4137077441362615 39.55561772732888 2.2617969641659643 0 0 0
175 1 11.214121274133044 40.577957985518076 0.9074370769079809 0 0 0
2242 1 25.728985913869955 16.779676053566025 24.968411195670402 0 0 0
1510 1 2.991154724588528 14.20797901708642 24.932587947337435 0 0 0
177 1 17.359679609277816 40.961013270493666 0.7854794604609375 0 0 0
2224 1 31.7238971785019 3.7956279282432734 25.194849197575916 0 1 0
908 1 23.96624596947036 41.02351056584244 0.903176754435163 0 0 0
911 1 30.27076512884104 41.12749059676161 1.0454636577979948 0 0 0
179 1 1.2350412309180918 44.08370179479391 1.2734543023908065 0 0 0
181 1 7.754506820768832 43.52717124973694 0.9579708179088078 0 0 0
2301 1 22.33719558124063 7.48625130375602 25.166097011484982 0 0 0
182 1 14.497572775302983 44.209816410190335 0.5352343317679799 0 0 0
274 1 15.694512952674703 42.5161953380367 2.2776261801797277 0 0 0
913 1 20.26171851107646 43.99908382684423 1.0073833232355005 0 0 0
2215 1 19.30174406034023 36.36450504487823 25.3035309583445 0 0 0
915 1 27.02581701484897 44.266110379843184 0.8307342752903559 0 0 0
918 1 33.299333330691496 44.23210787556139 1.0243431473777396 0 0 0
8097 1 -0.2591620477793055 1.0663774477603984 20.751091219501834 0 -2 0
183 1 4.781246565134615 47.12602107800188 0.7406466394185163 0 0 0
184 1 10.944018254151446 47.08093919595732 0.8050676711132111 0 0 0
186 1 17.607453838794676 47.643056826073284 0.5933232134722918 0 0 0
1533 1 15.339756550983875 26.54358296600679 25.09245538738465 0 0 0
920 1 23.629224387997265 47.14971559087142 1.0231290011120233 0 0 0
2295 1 25.067881965317575 49.19515414303927 25.014731046164744 0 0 0
921 1 30.333522917503213 47.47584771972689 0.9439184209335569 0 0 0
4299 1 34.68247310141017 13.826951031486155 25.301947104532154 0 0 0
187 1 1.8834144414218645 50.342215883467155 1.0535837621321607 0 0 0
1475 1 -0.1530606856692629 10.481319913446017 24.931634115173377 0 0 0
189 1 8.1779148458793 50.37860352342079 0.6090556824533375 0 0 0
702 1 -0.24293822415388275 7.070170805163662 8.861240143438353 0 0 0
192 1 13.982986551476838 50.921528984729164 1.1246587804942254 0 0 0
281 1 15.85832997099006 49.01288240432822 2.2727136777183103 0 0 0
1469 1 12.083002103399144 42.099608222390984 25.14761810751722 0 0 0
925 1 20.62364736498996 50.990398849747514 1.2855532248569899 0 0 0
2165 1 28.78334281563683 13.567946834061035 25.273170741255225 0 0 0
928 1 26.666854736009515 50.63733783612984 1.1676685178881119 0 0 0
1003 1 28.503954261412282 48.75692330167472 2.3637829986162133 0 0 0
6230 1 0.18317156862413025 5.778699212441033 16.66076697697836 0 -1 0
931 1 33.57375804200715 -0.12242056696168702 1.0106314616830934 0 1 0
289 1 1.377444189967992 2.27438348622528 4.046541524703134 0 1 0
380 1 3.0054242771857465 0.5365292425994395 5.331293882812923 0 1 0
291 1 7.711901305659084 2.050759895742494 4.157832986178271 0 1 0
191 1 12.299725735000255 0.8682131361852794 2.773575624878784 0 1 0
293 1 13.913486913703359 2.5061951163177714 4.239376950912507 0 1 0
1010 1 20.518654678834217 2.2889189791046913 4.322475472534093 0 1 0
758 1 18.871390159835872 0.823317413318444 2.9873822141579605 0 1 0
1011 1 25.181802187621233 1.0812939028503183 2.547315324440956 0 1 0
1012 1 26.877410633244754 2.67355628335678 4.022842970766299 0 1 0
1080 1 28.427862469810464 0.8885516548315842 5.4337617209246 0 1 0
930 1 31.95033691075158 1.3423029562211917 2.662113515031037 0 1 0
1013 1 33.23950666765322 2.7942913976652766 4.387346456125797 0 1 0
2217 1 23.329091239528648 50.52388888751551 23.18733681937216 0 0 0
195 1 3.4134785735176103 3.754500654976654 2.4202133950977074 0 1 0
296 1 4.964706656734861 5.261100007095182 3.969209185120727 0 1 0
292 1 9.284660698788006 4.0951750561317395 3.027950710046501 0 1 0
297 1 10.798555069710497 5.730448975438054 4.685589833118461 0 1 0
298 1 15.598341427099438 4.137334566773413 2.8123812485111346 0 1 0
299 1 17.33139538923229 5.6909074569119875 4.1200412499004555 0 1 0
1014 1 21.87879819082255 4.120412551728546 2.648638096967163 0 1 0
1015 1 23.577502630995085 5.563780375133988 4.03174377275861 0 1 0
1017 1 29.979631794530818 5.48850208907227 4.035487823875112 0 1 0
205 1 1.3910908400526403 8.624254711226412 4.220103109678849 0 0 0
224 1 -0.1834231299812729 7.233543392879236 2.4469838289393113 0 0 0
295 1 3.262165211776706 6.943774092137611 5.570134214392295 0 0 0
206 1 6.254718512573237 7.761512553048593 2.7404876008297583 0 0 0
207 1 8.093408200491165 9.21224033109719 4.409118228287552 0 0 0
204 1 12.141500088486813 7.189070632848928 2.7750225765028906 0 0 0
209 1 14.043506855401738 9.124775315336793 4.497477500365258 0 0 0
944 1 26.854267033735894 8.887600619475831 3.7972894307366074 0 0 0
1092 1 28.291964545488625 7.059015197186534 5.469860011600022 0 0 0
1016 1 31.637801957014265 7.453564593607898 3.0089893546491946 0 0 0
946 1 33.40734536950683 9.051840544858067 4.1737139355324215 0 0 0
110 1 2.8387674820093323 10.71256687799256 2.8584665099158184 0 0 0
212 1 4.4681543474035745 12.22309191184017 4.322585205427958 0 0 0
114 1 9.478094311712033 11.250166108131866 2.8403736404136875 0 0 0
216 1 16.759232924982044 12.09831963754637 3.9202358236688672 0 0 0
942 1 20.457924483071494 9.277170037290308 3.9605338513414097 0 0 0
941 1 22.168275622775244 10.664873117609577 2.5559316119401343 0 0 0
947 1 23.716094353900335 12.099079279861707 4.097138559405928 0 0 0
863 1 28.38384950369129 10.703028888395894 2.5228911455453327 0 0 0
945 1 25.64728425722472 10.646755994965572 5.412463615405391 0 0 0
1024 1 31.723922794052914 10.736188060595095 5.606450405757959 0 0 0
113 1 6.054781384784481 13.78272459695688 2.778919648783695 0 0 0
214 1 10.779588815402372 12.848407582068727 4.731265649691002 0 0 0
119 1 12.612025623318397 13.981810610732406 2.860307629830983 0 0 0
762 1 18.747094419962067 13.841549477792144 2.7891982297886155 0 0 0
867 1 25.199634883560144 13.918029647992926 2.922482922081784 0 0 0
948 1 30.307876783721955 12.520148660561716 4.099592925147344 0 0 0
949 1 28.8128029274741 14.107648635924885 5.521068072198621 0 0 0
219 1 1.398124600888934 15.400143500688474 3.9660697840300028 0 0 0
218 1 2.913158370492536 17.28348992864663 2.508469914323654 0 0 0
221 1 7.5417842740514835 15.344839083980334 4.411293432259279 0 0 0
220 1 9.530865758938983 16.849308972773617 2.7277155774480315 0 0 0
223 1 14.281363961879782 15.792092639638591 4.309329692772169 0 0 0
121 1 15.926423679840717 16.952700373466442 2.4397730319115456 0 0 0
730 1 18.806406510269024 17.2787822244566 5.582267301770267 0 0 0
950 1 20.457443270583283 15.511525738046664 4.049698462889472 0 0 0
874 1 22.187944705306162 17.126183212216983 2.5308421318116 0 0 0
952 1 26.885772253676304 15.633820395017123 4.209956072020859 0 0 0
954 1 33.4085662418543 15.610755677394218 3.8466023986826654 0 0 0
955 1 31.870424593853194 17.392890530964806 5.11655398082363 0 0 0
320 1 2.800504813554517 20.167189659572472 5.380532814986419 0 0 0
227 1 4.6008268563337404 18.447020721896294 4.1552603633797665 0 0 0
228 1 6.260059555079211 20.12907595394132 2.7451078488807363 0 0 0
229 1 10.835809273921932 18.68936209890645 4.13962304710396 0 0 0
133 1 12.686945917821133 20.077464274850804 2.5212438630204903 0 0 0
324 1 15.604341778941054 20.05046183875137 5.34193691530682 0 0 0
231 1 17.37044371814317 18.71096221122352 3.9796664246287143 0 0 0
808 1 18.964622815795313 20.386279302178387 2.572120084874375 0 0 0
956 1 21.798057451905716 20.64279902012033 5.544646481567598 0 0 0
957 1 23.74462541854345 18.918717694495868 4.220028595731342 0 0 0
958 1 30.01498959924114 18.8445943412991 3.6209955669398832 0 0 0
961 1 28.420758697093994 20.07206703313546 5.328982998890622 0 0 0
1037 1 34.63455248063253 19.948336369850153 5.358162865329619 0 0 0
232 1 1.273992181022806 21.792656712941394 3.702592667520145 0 0 0
131 1 3.153851975489287 23.268017145095776 2.5130119938926 0 0 0
233 1 7.900153555784794 21.575527429635443 4.167720023450283 0 0 0
332 1 12.287708433849053 23.239960974675455 5.578384184549026 0 0 0
234 1 13.91004029988614 21.59941295101043 4.103241809044974 0 0 0
751 1 18.620636737348907 23.57629566753042 5.3727305529769875 0 0 0
959 1 20.702285802074048 22.315824920955432 3.9191307408356764 0 0 0
880 1 22.70922695359323 23.8505265465323 2.7709150488338365 0 0 0
960 1 26.779714321198423 21.49316797452847 3.8126501868351856 0 0 0
965 1 25.66920674154975 23.451614375003114 5.542358246018447 0 0 0
962 1 31.462700948731577 23.341449448190623 5.564401990215362 0 0 0
963 1 33.11014574922698 21.93292742528431 3.9856540576157675 0 0 0
237 1 4.397237264041314 25.070668322490572 4.09757718354121 0 0 0
147 1 6.164601333500132 26.544434500179797 2.521560532665201 0 0 0
239 1 9.2656072887738 26.454256299868923 5.420904363016091 0 0 0
240 1 10.904302695466715 24.61042632903204 3.8385389215388965 0 0 0
242 1 17.100045622172004 24.999425631520133 3.4419981646699416 0 0 0
243 1 15.909850204697076 26.28316404584797 5.311241555730832 0 0 0
832 1 19.06610541605435 26.5634204211494 2.522211437138166 0 0 0
964 1 24.14524907636681 25.464526406232178 4.309181530550496 0 0 0
887 1 25.697739799185353 27.082000422005624 2.7356375659815093 0 0 0
967 1 29.61788768662508 24.75217051400305 3.9946212049467498 0 0 0
244 1 1.3192444747786345 27.841851262597242 4.194796600130159 0 0 0
249 1 2.8306209544321526 29.746418794236615 2.4284244558773063 0 0 0
246 1 7.5987896205869925 28.039865015791683 4.087312876213716 0 0 0
247 1 11.915669815230078 29.751872785435605 5.440499906095093 0 0 0
149 1 15.566034773052376 29.368793385159243 2.6337460544654676 0 0 0
248 1 13.857122551901519 28.25654197614092 4.439411937228427 0 0 0
971 1 20.52086071140004 28.17254343423204 4.149565803815303 0 0 0
893 1 21.904331863995854 29.786744294968784 2.8143931512385514 0 0 0
972 1 27.116193681991394 28.48235412773854 4.471163903888891 0 0 0
974 1 28.717796156621112 30.089644837848947 2.7878415284602887 0 0 0
975 1 33.199899481552734 28.347085969697467 3.99927526156974 0 0 0
256 1 2.905389982779941 33.10400522751281 5.590624545363727 0 0 0
250 1 4.32101854507416 31.299766926871154 4.079980984384655 0 0 0
160 1 5.816173094020688 32.72604764159942 2.402645604182006 0 0 0
251 1 10.366437677180567 31.222373770817622 3.8427728047617897 0 0 0
253 1 17.461858256248856 31.211302755933254 4.025110707585844 0 0 0
1383 1 19.085793353985288 32.98105321022356 2.677422768987351 0 0 0
977 1 23.814934207775732 31.25573854456568 4.0083005192734875 0 0 0
894 1 25.744147208543673 32.85861956152648 2.8955258842983778 0 0 0
979 1 30.425557930459636 31.583205600662883 3.9952228166258887 0 0 0
984 1 28.505027258480492 33.06471941255778 5.552431728420644 0 0 0
255 1 1.4323776878685643 34.64538133886487 3.918672795631813 0 0 0
166 1 3.236629229462848 36.376047755131715 2.500441657846407 0 0 0
258 1 7.810522797390508 34.320815714620885 3.8901066843999788 0 0 0
162 1 9.155684169094599 36.23824395025707 2.488525396764893 0 0 0
259 1 13.9512627850731 34.109028551800236 4.44196656336479 0 0 0
170 1 15.447181957623604 35.64364309032369 2.6527452616216984 0 0 0
987 1 21.775810835545833 35.874916393322394 2.4570331586127088 0 0 0
981 1 20.428091656085794 34.51431596045502 4.467941140335238 0 0 0
983 1 27.11027285221166 35.135938779195364 4.209656616634955 0 0 0
989 1 25.232988733539663 36.245654689854696 5.575795530874801 0 0 0
901 1 28.780254136945338 36.20871577098536 2.4669638680224115 0 0 0
985 1 33.29625591981882 35.060697113632216 4.112024249699222 0 0 0
288 1 -0.13278399556149778 39.449241694696624 2.690155493845545 0 0 0
261 1 5.19733512320052 37.78007165640543 3.953988305139214 0 0 0
358 1 3.29036254755018 39.0567059885209 5.579020006549488 0 0 0
263 1 11.085888702498675 37.51721651510143 4.168265354940623 0 0 0
168 1 12.73794201467662 39.13211768027977 2.485973383018338 0 0 0
264 1 17.14750973270869 37.41002120168117 4.177122725878771 0 0 0
268 1 15.825123654664434 39.39368252206932 5.534434664725573 0 0 0
988 1 23.664836171153713 37.69112671242376 3.9653988000345777 0 0 0
909 1 25.31691999946161 39.0594064650453 2.409882786319891 0 0 0
990 1 30.204992692805394 37.99971769879604 4.0606880778698695 0 0 0
265 1 1.6446346505339915 40.836785783206395 4.491923216970031 0 0 0
269 1 3.01119002784038 42.31822278928252 2.8091010391909785 0 0 0
266 1 8.232908605631488 40.97394822091127 4.166442311362404 0 0 0
180 1 9.488460959727426 42.24997760577687 2.471964389404148 0 0 0
267 1 14.327997811121119 41.24379876110865 4.006551551104885 0 0 0
992 1 20.479276504231272 40.844394245557346 3.6165792101190295 0 0 0
993 1 26.782058988422175 40.630534827823276 4.0755886808923565 0 0 0
998 1 28.624901184159672 42.31603832200311 2.5586498821551684 0 0 0
991 1 32.006068412293764 39.51363562273837 2.5051562059591106 0 0 0
995 1 33.772519796646826 41.19806390570067 3.8942191620083824 0 0 0
1067 1 31.8182536194154 42.47216652913214 5.424841615363224 0 0 0
271 1 4.752393077600989 43.755039810629626 4.041432546456263 0 0 0
365 1 6.5253116175077 42.63307237668569 5.533104802650186 0 0 0
273 1 11.007606783823354 44.21082669956028 3.9857653742557613 0 0 0
275 1 17.123690638291595 44.06410633675556 4.080501865565892 0 0 0
996 1 22.4066624700061 42.68990610276065 2.463954517554457 0 0 0
997 1 23.714267712790953 43.971642342975755 4.506590205345662 0 0 0
999 1 30.10572278997723 44.0212197382499 4.191001434399431 0 0 0
276 1 1.4624108427501992 47.07810140923452 4.092805555710916 0 0 0
283 1 3.3292817652920266 48.461044115564306 2.498913702014918 0 0 0
277 1 6.2028658712576465 45.69514029273241 2.4856341905882813 0 0 0
280 1 8.05518628470578 47.0170290328606 4.102826355883851 0 0 0
371 1 9.430861269664655 45.5957426734789 5.517359138552527 0 0 0
185 1 12.832265349212555 45.612919831218946 2.5221851605470107 0 0 0
282 1 14.587956651352 47.36760742958179 4.09500520356409 0 0 0
765 1 18.763325038821456 45.771397942532964 2.425065658272868 0 0 0
1001 1 20.67404157760624 47.258519204660516 3.9933133147504156 0 0 0
916 1 25.30561914404914 45.71690741142194 2.8034257348486187 0 0 0
1004 1 27.252307182913228 47.243464206605736 4.210524051341011 0 0 0
3035 1 34.69165879568606 45.981387835824535 5.333011091942584 0 0 0
923 1 31.72268538635627 45.59982826888259 2.5524672412710276 0 0 0
1005 1 33.053060223780044 47.73407946974935 4.115587393315063 0 0 0
48 1 -0.10898237870462463 49.04557167910861 5.476679960924316 0 0 0
284 1 4.857461619345725 50.18052047480184 4.076030509497652 0 0 0
279 1 9.812082263437981 48.904884749446246 2.679866685382146 0 0 0
285 1 11.210576538968983 50.37170426653059 4.561020347168477 0 0 0
287 1 17.403681992109412 50.470546368360644 4.222439331316109 0 0 0
919 1 22.362795206679483 49.171012381683965 2.529409985645246 0 0 0
1007 1 23.92087597267663 50.5160457896826 4.199194152337656 0 0 0
1008 1 30.00964387931517 50.63421857133523 3.818189918906631 0 0 0
1082 1 31.441421767905243 49.565162280553196 5.561205871424676 0 0 0
93 1 -0.09822542259409045 0.5783236494208258 8.803848325782676 0 1 0
381 1 4.382330573761346 1.971086115542695 7.291902509768497 0 1 0
383 1 9.586025640889284 0.9337313618779046 5.90936705437301 0 1 0
384 1 11.025771081947857 2.575111671182448 7.606577689126696 0 1 0
386 1 17.171090691253255 2.547135234026557 7.688117194470383 0 1 0
385 1 15.947678614914356 0.7888593739131581 5.815025966945643 0 1 0
1085 1 23.54002411626587 2.4484069911112445 7.363283409162716 0 1 0
1084 1 22.30294592866187 0.8790975399975913 5.755928336209658 0 1 0
1087 1 29.862569882960596 2.3505596412523144 7.358336039381196 0 1 0
1157 1 31.558955556085493 1.0078459107761693 8.685871991246962 0 1 0
387 1 1.3293475250315585 5.563998140408601 7.144109618701387 0 1 0
388 1 6.04684956791191 3.725334199429048 5.783095999412755 0 1 0
492 1 3.0593406368930536 3.80198483747536 8.614683249907298 0 1 0
389 1 7.486297214311543 5.458211021758819 7.576286328666962 0 1 0
391 1 12.467660858155082 3.9843593897811385 5.865909708146226 0 1 0
392 1 14.053353221512833 6.025953840344988 7.109750479320088 0 1 0
1360 1 19.026508296735177 4.288738451235157 6.168687994410362 0 1 0
1089 1 20.631902865274643 6.077270021485138 7.3635790973914 0 1 0
1090 1 25.173833414621388 4.003874357472368 5.870019306835871 0 1 0
1091 1 26.78887832844514 5.463304045799712 7.138731889301464 0 1 0
1086 1 31.53319433150239 4.156814507765766 5.967874695783799 0 1 0
1093 1 33.08954094740406 5.854538530609866 7.371742759531561 0 1 0
300 1 4.279650091755416 8.83427830221759 7.358897879045057 0 0 0
390 1 8.954370579836892 7.210840233896576 6.132797345775359 0 0 0
303 1 10.843931711039833 9.041464306563004 7.7106400604153995 0 0 0
211 1 15.899925507390812 7.685384932986688 5.730125290908469 0 0 0
1018 1 22.178910867547433 7.716615499337993 5.740036578040933 0 0 0
1019 1 24.228877120875087 9.181123428967567 7.050905475348751 0 0 0
1095 1 25.535377281557473 7.191574856439241 8.766012620280005 0 0 0
1020 1 29.98888733573838 9.075997641536707 7.141483770455152 0 0 0
306 1 1.2669507115761414 11.925599761729675 7.200900389188822 0 0 0
208 1 6.087160506750476 10.450541882852711 5.9390670696815935 0 0 0
307 1 7.81110328630837 12.089307349313858 7.591612734535807 0 0 0
210 1 12.413464824633289 10.862729967896037 6.1142306241361934 0 0 0
305 1 17.112477344832275 9.317999880185326 7.116268119295672 0 0 0
739 1 18.715610447729997 10.802522075179915 5.709333323112371 0 0 0
1021 1 22.217261487521924 10.697460883147421 8.600748607542274 0 0 0
1026 1 33.228358433277435 12.090571320785818 7.073843818120213 0 0 0
213 1 3.0478193483345835 13.548943155611157 6.0154030406543395 0 0 0
310 1 4.455378504920695 15.230244541076617 7.761394155569402 0 0 0
222 1 9.036903314906425 14.217247410508335 6.312322547711949 0 0 0
308 1 13.961677724352803 12.409055230647056 7.683012256073472 0 0 0
217 1 15.394248452587732 14.00510407298316 5.986775941864807 0 0 0
1022 1 20.48305853057479 12.387911673187055 7.409476218723199 0 0 0
951 1 22.048578682052565 13.844705635033234 5.77278677634312 0 0 0
1023 1 26.90333287244958 12.405245935796886 6.894437266351491 0 0 0
1027 1 25.310934130389892 14.136902656744967 8.654942981522703 0 0 0
1025 1 32.12055232038304 14.166158475481932 8.46492391030748 0 0 0
316 1 5.9340566929484595 16.732006059359755 5.832123100811824 0 0 0
313 1 10.894069310069263 15.612152088569006 7.645889815601159 0 0 0
312 1 12.287502723076623 17.160450031283812 5.917020021855929 0 0 0
314 1 17.241105270774376 15.740233208288046 7.3903353979654876 0 0 0
1028 1 23.400872240420323 15.442190416145282 7.3419989483051555 0 0 0
953 1 25.265003944699966 17.03991777616387 5.702152430569417 0 0 0
1029 1 30.403315880395308 15.66959171125324 6.997773329218257 0 0 0
315 1 1.253345976662233 18.67406847862367 7.132309256521255 0 0 0
317 1 7.620787389434111 18.367312660382083 7.40134223533124 0 0 0
230 1 9.140780713137886 20.048488664074615 5.9464897643913215 0 0 0
318 1 14.284704226631808 18.925753453175066 7.353304961814526 0 0 0
1030 1 20.38971983617786 18.76900424238529 7.132185062618505 0 0 0
1032 1 26.739423436037036 18.5328040521255 7.406817678433134 0 0 0
1035 1 31.546992072831898 20.46737604775042 8.71844278809065 0 0 0
1036 1 33.38978203263794 18.7123883948751 7.10546793990434 0 0 0
321 1 4.56613814909067 21.533269994879266 7.144149650723645 0 0 0
238 1 6.117679664496884 23.222067035037234 5.621476088325793 0 0 0
329 1 3.0176031300003467 23.056079296826354 8.630056763531245 0 0 0
322 1 10.68575631092257 21.85553054163611 7.456306541889699 0 0 0
327 1 17.212166825409 21.756801186607813 6.808680878917217 0 0 0
326 1 15.790797862002986 23.48252051347353 8.502184320575035 0 0 0
1038 1 23.495189163286124 21.835845993076564 7.518514787308828 0 0 0
1039 1 29.844077295271273 22.015459494855115 6.988269621539094 0 0 0
1529 1 2.9289765518750817 26.534270004270986 24.99303842881493 0 0 0
328 1 1.1829405852136685 24.880389701721526 7.30821649152018 0 0 0
236 1 2.902242102648806 26.418906092306052 5.970835903588928 0 0 0
331 1 7.922249595772202 24.7896315701384 7.197332179810002 0 0 0
333 1 14.175034753983407 24.958606710859744 6.712964017545662 0 0 0
439 1 12.574096740864688 26.732373468362 8.178769890666313 0 0 0
1040 1 20.437918577103787 24.898774003210452 6.99875544247686 0 0 0
940 1 19.24374769238046 26.56261148056333 8.609213532482688 0 0 0
970 1 22.19719510226165 26.62384534093853 5.792498130271936 0 0 0
1042 1 27.029668986997333 25.126548304490885 7.273462312171207 0 0 0
973 1 28.465072357050733 26.75189619412823 5.723844183796519 0 0 0
1044 1 33.06485093641026 24.95145374120737 7.251653713109075 0 0 0