LAMMPS data file via write_data, version 29 Oct 2020, timestep = 200000

4608 atoms
1 atom types

-0.06213125343843373 57.33264125343878 xlo xhi
-0.055227780833643436 50.96234778083357 ylo yhi
-0.055227780833643436 50.96234778083357 zlo zhi

Masses

1 18.015

Atoms # atomic

5 1 1.6289373522450885 1.5634450054496927 1.7894598068837555 0 0 0
746 1 -0.0363471217749094 47.6620908700656 22.21512850879149 0 0 0
3 1 3.209561377234216 0.10383134617211146 3.6115183837517146 0 0 0
13 1 7.491253413336376 1.6816055132330465 1.6245957466133483 0 0 0
11 1 9.227498830779089 0.4671165995599801 3.423969635329953 0 0 0
21 1 13.949323783527001 1.9609075083740155 1.4816283842047788 0 0 0
19 1 15.45985764152954 0.30640300680819255 2.882851259173346 0 0 0
766 1 14.662956465386905 49.638138410825206 23.975218451577483 0 0 0
8 1 4.745926344420144 4.74027124556985 1.4196257543503583 0 0 0
916 1 3.2050329812242033 41.313169220197636 25.201178126140498 0 0 0
16 1 10.806290202794258 4.634016952185023 1.661764184352956 0 0 0
24 1 17.32717128521756 4.858188557477964 1.6360997648243836 0 0 0
530 1 0.5261503377056457 41.238082748292186 15.700596957868399 0 0 0
29 1 1.4681459740748946 7.875604228742302 1.3829603757727444 0 0 0
754 1 6.4132376655062675 47.26241965000082 22.51751965297462 0 0 0
892 1 3.0738972232211004 34.711825185327044 25.379316921684364 0 0 0
37 1 7.932075557883588 8.053869801297502 1.6590416902240288 0 0 0
35 1 9.31862053161133 6.577321768941152 3.3435542772835443 0 0 0
92 1 16.084155337840112 21.964741217420002 -0.011533888466306708 0 0 0
45 1 14.131981241457828 8.132316098380857 1.5550924372215598 0 0 0
34 1 6.157318012886883 9.452336651998339 3.450771027030252 0 0 0
32 1 4.676545690693214 11.04183689410545 1.6762299508079213 0 0 0
51 1 3.0679209526876874 12.97225815393842 2.8949321898929905 0 0 0
59 1 9.517437046360698 12.58123640104417 2.8471555451053754 0 0 0
40 1 10.989527190340283 11.191778851616924 1.4092787411395837 0 0 0
42 1 12.810241462445648 9.862176119072661 3.265534792653821 0 0 0
74 1 0.08997978292572856 21.77432048813293 2.8099590732477733 0 0 0
48 1 17.448934053272577 11.268905207743876 1.6171999632257559 0 0 0
758 1 8.086824474064041 49.172673280788445 23.692004937219018 0 0 0
53 1 1.335609325446236 14.35255253175049 1.1995026842511112 0 0 0
61 1 7.990604818795038 14.437978759424544 1.528403268279441 0 0 0
69 1 14.111509057556919 14.414655876419925 1.1101630735242969 0 0 0
361 1 0.045187889854810454 44.236440939328176 6.144628117278732 0 0 0
579 1 3.11298464470146 50.75104530497846 22.33982004552696 0 -1 0
750 1 1.5248431956326192 49.21088739521316 23.660724152242047 0 0 0
56 1 4.766286863263631 17.550734883994114 1.0600580506257882 0 0 0
75 1 3.2100445976902843 18.66621049036416 3.0335187057321904 0 0 0
241 1 0.2430496634468659 12.464125381582337 6.1144239943538246 0 0 0
64 1 11.057806527760437 17.411770520284755 1.2403056321449242 0 0 0
72 1 17.517832189256097 17.36392823322195 1.3394656103136156 0 0 0
77 1 1.661592293476689 19.901463246469252 1.3071162249143917 0 0 0
868 1 2.8946351666565677 27.981917359591872 25.27536405732559 0 0 0
85 1 7.830771971585811 20.422692145821646 1.5073415390777807 0 0 0
833 1 12.858478816976996 12.679630811337068 25.180343130556036 0 0 0
93 1 13.998980461407553 20.779117649602828 1.7240411129341862 0 0 0
90 1 12.438787535345442 22.33934951910575 3.1868679213253452 0 0 0
386 1 0.08637917964947758 3.3572845869482584 15.774477429482747 0 0 0
338 1 0.14960051386639858 41.42927061682744 9.21881006180704 0 0 0
80 1 4.723853042164614 24.110665623652853 1.4381107707300391 0 0 0
44 1 15.595928821459433 9.685961067503271 0.007612507762287779 0 0 0
107 1 9.45233481055696 25.412328443502272 3.0945981036871504 0 0 0
88 1 10.904694533725586 23.938066245404215 1.5223469476073115 0 0 0
96 1 17.329285335044514 24.110970573287815 1.1814834013495674 0 0 0
101 1 1.6956561490762632 27.15755167591848 1.5953292259544267 0 0 0
649 1 -0.06144259314771716 19.022427837932472 18.72566398653032 0 0 0
109 1 8.3630054047286 26.85173691177152 1.2617583171718354 0 0 0
117 1 14.54381324577063 27.15895061281538 1.5019680346459845 0 0 0
625 1 0.03589326989126107 12.48559283750062 18.828742196704106 0 0 0
104 1 5.115061345738506 30.332448408943996 1.512742820817171 0 0 0
123 1 3.3105619888413123 31.53357625356081 3.439009160170521 0 0 0
106 1 6.536012260122077 28.446823633810396 2.800104390198881 0 0 0
112 1 11.426770423569693 30.130728535946616 1.2773031104447443 0 0 0
120 1 17.68153495934904 30.404777831363276 1.1641403397815135 0 0 0
626 1 0.20689882397331488 15.685322033559984 21.727867912876977 0 0 0
125 1 1.6756728193850698 33.21695600731195 2.502413263121059 0 0 0
133 1 8.191533152227711 32.79992384937326 1.5015415543211241 0 0 0
139 1 16.12580683397904 31.879062917184914 3.012288156611158 0 0 0
141 1 14.517081267522112 33.33918065501133 1.34492118973929 0 0 0
122 1 0.03581778761011592 35.15925766108158 3.39242847486511 0 0 0
767 1 17.24219823014679 45.990030184565924 24.05316823892037 0 0 0
128 1 4.586468481998941 36.437363082055185 1.669689608888962 0 0 0
130 1 6.29426590992769 34.579419912903475 2.8993211850779903 0 0 0
136 1 11.316792265971873 36.32430766822441 1.7735814780572599 0 0 0
41 1 12.337429986568894 6.24830488828069 0.23530525244974576 0 0 0
148 1 3.3141537023757333 41.055615904285474 0.20577817628173062 0 0 0
144 1 17.524748435735212 36.24098651116876 1.5550592623542305 0 0 0
163 1 15.9986726698247 38.43470166776254 2.7038475400229833 0 0 0
721 1 0.03870175746638725 38.09317251626457 19.142943266407723 0 0 0
149 1 1.5377349060063075 39.535001317715256 1.7509972149320858 0 0 0
147 1 3.1495069711922676 38.10612083261741 3.3586778583276278 0 0 0
155 1 9.647210665658458 37.786050071063 3.2657120030874838 0 0 0
157 1 8.382331324921614 39.493937550540224 1.6391422672488134 0 0 0
165 1 14.24908862785529 40.10652302855863 1.4101257014310817 0 0 0
152 1 4.959554387359272 42.79169734471914 1.5858029973835415 0 0 0
780 1 9.510235214139904 3.1967596052414518 25.19762069423054 0 0 0
160 1 11.49601667091073 43.13181040804848 1.047575770887034 0 0 0
168 1 17.34926949433461 43.23854977796648 1.7450713340473207 0 0 0
173 1 1.36300885899203 46.10417955886447 1.7388122319656192 0 0 0
171 1 3.1588865760207088 44.401062636197835 2.702605230741515 0 0 0
170 1 -0.05936402001519525 47.78908340593996 3.381761352796704 0 0 0
181 1 8.207093635281401 46.34680107203327 1.5031141527584684 0 0 0
722 1 -0.0523096030743478 40.95149593745474 22.112325827179472 0 0 0
553 1 0.16031493887622572 44.324578875060084 12.532823391789895 0 0 0
265 1 0.15181934762788737 18.640727580488075 6.084091801366461 0 0 0
186 1 12.776175188718987 47.84484568905138 3.1876726117093095 0 0 0
189 1 14.298825359474955 46.431579480006974 1.6839413543664887 0 0 0
759 1 10.924717941481667 46.32975302321324 23.58400640422891 0 0 0
124 1 3.1752641442869227 34.33775328550942 0.30119206030437445 0 0 0
176 1 4.899328639170989 49.5944118833381 1.7713622614742641 0 0 0
745 1 0.30558553343485584 44.42785463093993 18.85995059914724 0 0 0
184 1 10.956746596121343 49.46432060364164 1.6240058368473789 0 0 0
192 1 17.235985790505133 49.547876454111915 1.4945122894814855 0 0 0
7 1 4.667765726065644 1.5893399713795378 5.124517391409272 0 0 0
15 1 10.977367417477165 1.8967201390186748 5.011997469418107 0 0 0
18 1 12.308975894171736 3.373905628826219 3.3617953809443466 0 0 0
23 1 17.15269207248378 1.6779741656719307 4.393550967297235 0 0 0
6 1 1.512122250731592 4.8935828493021845 4.988223491862753 0 0 0
751 1 4.581898453330905 45.98685485229524 23.91791764295232 0 0 0
27 1 3.07659606202011 6.229763964713802 3.0662699769553776 0 0 0
196 1 3.0856954933209195 3.247827732556311 6.610948563414781 0 0 0
10 1 6.042652440749133 3.337584251070757 3.1640971847303874 0 0 0
14 1 7.7252699523165385 4.965837281131559 4.712552996630068 0 0 0
225 1 6.288993846291287 6.305846591254091 6.531716216493209 0 0 0
204 1 9.698771599760713 3.7833013904838535 6.59292722991636 0 0 0
22 1 14.105715924169386 4.996395217093681 4.959391108704214 0 0 0
820 1 3.419382933458593 15.906356231514383 25.311142299281496 0 0 0
31 1 4.470769517927795 7.804594874037694 5.141755168800311 0 0 0
39 1 11.346217781022531 8.080521949340238 4.836197915263974 0 0 0
233 1 12.820311901601082 6.504145454164554 6.612782403867443 0 0 0
43 1 15.682420071554247 6.557994893344497 3.2997806821991835 0 0 0
236 1 16.121605414786103 9.463288844562348 6.193910525322073 0 0 0
47 1 17.57960991262047 7.871308393389616 4.519480334890033 0 0 0
172 1 3.3140759586524258 47.83894087442418 0.28847282202134317 0 0 0
433 1 -0.040633414622334385 12.66250357685151 12.563168583112807 0 0 0
30 1 1.7801657837565403 11.108757751806804 4.357649980159509 0 0 0
38 1 8.354674770600946 10.915531876630578 4.929578451099001 0 0 0
67 1 15.830754290207404 13.208727959933695 2.868882048921688 0 0 0
46 1 14.591864202415573 11.019068697222648 4.676375390281675 0 0 0
58 1 6.212778183834722 15.748934575996973 2.9383153276940708 0 0 0
55 1 5.007340237723281 13.970427504193925 4.640541997884285 0 0 0
244 1 3.399534198477144 15.753635971355859 6.266859913409111 0 0 0
63 1 11.132093582255258 13.876858525832695 4.595622421905709 0 0 0
257 1 12.894935974519118 12.575697982497895 6.275059235183579 0 0 0
252 1 9.514154773359303 15.580157203258162 6.078831222223857 0 0 0
260 1 15.444935952113445 15.732313227853899 6.022471851035434 0 0 0
71 1 17.430553501900487 14.200648358381605 4.856853940486362 0 0 0
857 1 12.88371138052287 19.008690152801176 25.444843754535167 0 0 0
54 1 1.553588718325028 16.95472328484695 4.393228414933336 0 0 0
62 1 7.88760410816231 17.135068406960407 4.648857210152027 0 0 0
83 1 9.527289262866097 18.71457980403871 3.0645076885172284 0 0 0
91 1 15.830859977783037 18.894657930189776 2.631166822172809 0 0 0
66 1 12.488634000690146 15.52730177764236 2.855187390507624 0 0 0
70 1 13.861591121563759 17.398830872114278 4.223816637582463 0 0 0
763 1 15.933452551998409 44.87218950753092 21.936643845257596 0 0 0
82 1 6.177430142804517 21.834752528428933 3.1100786287320976 0 0 0
79 1 4.501340697417534 20.550983156886883 4.562948134012711 0 0 0
273 1 6.398379586365923 19.017098952075475 6.275374652772409 0 0 0
87 1 10.974470736600264 20.541509460022326 4.706005201215375 0 0 0
284 1 15.762641421955037 21.830290821876694 6.38711661287433 0 0 0
95 1 17.324086475641504 20.44273230717395 4.423796916993869 0 0 0
742 1 14.497717749754647 43.34818504402929 23.69813672599095 0 0 0
78 1 1.5166852397380608 23.601287306560817 4.577640626382256 0 0 0
86 1 7.733552590304062 23.698722198953266 4.38365948848254 0 0 0
276 1 9.031659373707082 21.830836492697994 5.9019387082193395 0 0 0
305 1 12.610334990593383 25.408198961425054 6.0052650101672915 0 0 0
94 1 14.360620739402327 23.668141287283063 4.974812135957171 0 0 0
115 1 15.826972059409314 25.326127091634998 3.1349624535362386 0 0 0
99 1 3.126913173875762 25.388445746717867 3.1051448972750735 0 0 0
103 1 4.620826111246699 27.045403440565643 4.562101713211779 0 0 0
297 1 6.0513289704807836 25.174271089149755 6.156929892871002 0 0 0
111 1 11.035835289341888 27.113053174662497 4.668331296762765 0 0 0
300 1 9.377636209787372 28.672580795184924 6.242470131953128 0 0 0
114 1 12.803758468969596 28.598463649105888 3.001662475776785 0 0 0
119 1 17.478126415785514 26.818623271930498 4.732940376740208 0 0 0
102 1 1.3756081333411057 29.99741140202141 4.470598519301431 0 0 0
292 1 3.4819841658382717 28.809839748205928 6.254339278246916 0 0 0
110 1 8.009574950533453 30.193705715457604 4.4203602526159065 0 0 0
329 1 12.945730441832623 31.555012660636002 6.239928208417314 0 0 0
118 1 14.325603252045402 30.328585365017233 4.422192451859696 0 0 0
308 1 15.644258529523809 28.080330881823205 6.4060407005275035 0 0 0
698 1 0.36960264246413677 34.981185531573374 22.386899532434455 0 0 0
127 1 4.800652926397953 33.478304638065254 4.630674448819059 0 0 0
321 1 6.646501074340777 31.976838263451054 6.016638143450739 0 0 0
131 1 9.89663989847016 31.650952389921613 3.0034072723342935 0 0 0
135 1 11.427934618812312 32.995136369192394 4.6676331554931405 0 0 0
138 1 13.007442707795008 34.83427928784866 3.0373218907153836 0 0 0
143 1 17.549194503935222 33.37667712136175 4.546157737877754 0 0 0
734 1 7.806590041046782 42.97251032022855 23.67749879505049 0 0 0
126 1 1.4883100920006984 36.48701908788662 5.032203213643834 0 0 0
324 1 9.709097259884356 34.66054511978653 6.225974603884401 0 0 0
134 1 7.981998868717854 35.93268896611286 4.7179670950256565 0 0 0
142 1 14.698403933848178 36.612635068414434 4.29690203413562 0 0 0
151 1 5.020494357929644 39.51730957907978 4.501502177875176 0 0 0
159 1 11.15889953836912 39.47240594281517 4.565668500211689 0 0 0
353 1 13.039680838596972 38.01019086683658 6.275996810986549 0 0 0
167 1 17.795989077998712 40.032301059304515 4.354761242682058 0 0 0
150 1 2.134119749578467 42.72078811947793 4.813202002588694 0 0 0
154 1 6.655817638559062 41.10423725994964 3.001876370452588 0 0 0
158 1 8.403732813431692 42.75703188914662 4.370431508265208 0 0 0
162 1 12.745784187378167 41.7184130992766 3.19167724352809 0 0 0
377 1 12.509246791770515 44.613322190097335 6.526393321913045 0 0 0
166 1 14.18585229288078 43.297810719265684 4.883996002907172 0 0 0
187 1 15.868486034859163 44.67514317078388 3.2701068701425116 0 0 0
146 1 0.14923764416638538 41.176390173122385 3.3981297560021133 0 0 0
364 1 3.658134278885214 47.48819783885118 6.174428223850782 0 0 0
175 1 5.026975221284787 45.601154318206895 4.5677216928637705 0 0 0
179 1 9.642765072965597 44.59149269713929 2.8058694921921505 0 0 0
183 1 11.145605008174888 46.30229276353589 4.791625447437767 0 0 0
191 1 17.32525508447594 46.259753734671506 4.845168497158534 0 0 0
174 1 1.9244160544696307 49.20733144895897 4.895174397898811 0 0 0
178 1 6.584948694043562 47.46923162809384 3.2466169273324526 0 0 0
182 1 7.873110078795406 49.44959160059061 4.890132686880144 0 0 0
190 1 14.009367302906014 49.60880061572715 4.715547453547485 0 0 0
209 1 12.351646741460659 50.90918813488014 6.527834552546764 0 -1 0
197 1 1.6437427085982175 1.1677723825105932 7.967201493043085 0 0 0
201 1 6.488140458061654 0.30844135413873697 6.493436122055028 0 0 0
205 1 8.319560292363214 1.7534332113010884 8.155469279324352 0 0 0
202 1 6.321244946939677 2.9868387378745855 9.679368973768877 0 0 0
213 1 14.246133310234553 1.6663140167336306 8.243479194478526 0 0 0
210 1 12.622536177172945 3.3973971041782796 9.853839962529621 0 0 0
211 1 16.09521201142009 0.23261472921312043 9.471253313810697 0 0 0
200 1 4.708640051416635 4.752380417751379 8.069278392722978 0 0 0
219 1 3.2939208055644533 6.072989480352822 9.755403125821532 0 0 0
208 1 10.99512022452144 5.375223700487632 8.476342986837375 0 0 0
212 1 15.459469706140647 2.9550638782734016 6.037007128487014 0 0 0
216 1 16.951121879561896 4.628101470947932 7.668519829211518 0 0 0
235 1 15.591534314197384 6.527346818188234 9.726889213514905 0 0 0
220 1 3.159792253396809 9.792770516385028 6.262335792418894 0 0 0
221 1 1.6507486591889486 7.916870506889044 7.714172570205315 0 0 0
228 1 9.751334398025097 9.360306235169245 6.4807145969935105 0 0 0
229 1 7.770117389302346 7.861784754056779 8.157635882924673 0 0 0
227 1 9.259324994075525 6.738651378501985 10.051148665697772 0 0 0
237 1 14.483049971809328 8.307269948310354 8.056075290018114 0 0 0
193 1 0.0754540881461738 50.95348505748747 6.201092812134673 0 -1 0
897 1 6.286131162015518 31.527895343731103 25.347441260163322 0 0 0
929 1 12.133605799142149 38.13610811103598 25.075161137462334 0 0 0
224 1 4.8407879967269025 10.951700914797815 7.902615123487407 0 0 0
249 1 6.493460383030681 12.627105598144523 6.498038102462988 0 0 0
232 1 11.051118397296861 11.193084116892791 7.887039634392352 0 0 0
251 1 9.36279167945773 12.54683693615927 9.686762320457394 0 0 0
240 1 17.55991605341924 11.214598826189048 7.727715452093447 0 0 0
245 1 1.5271070369421245 14.284108853241593 7.451737195584283 0 0 0
253 1 8.127069742320192 14.06783806069553 7.915025520266907 0 0 0
261 1 14.113194457858953 14.091629142946323 7.850802241309741 0 0 0
409 1 -0.046227273572284844 5.90202221058053 12.729821890214852 0 0 0
267 1 3.1489191465441335 18.892066861308916 9.711012199329224 0 0 0
248 1 4.638003361651156 17.549159785027253 7.845160012732942 0 0 0
250 1 6.351643437337523 15.707867539902074 9.363033690945974 0 0 0
275 1 9.487124712905775 18.927277300408946 9.163254990741555 0 0 0
256 1 11.11934100797494 17.090737506956895 7.587145942174243 0 0 0
281 1 12.502738143018856 19.13911024234231 6.073036107231984 0 0 0
264 1 17.29058706366354 17.478198775048504 7.1921730372784145 0 0 0
283 1 16.10509746823118 18.756861514881084 9.054025770788293 0 0 0
269 1 1.5721804111372202 20.309385958229274 7.941995040954426 0 0 0
274 1 6.200170618578177 22.05148277705678 9.374456511155097 0 0 0
277 1 7.82689734678659 20.506616800088544 7.834936288659831 0 0 0
282 1 12.126709361137657 22.211855594001168 9.182773056511232 0 0 0
285 1 14.060485937284009 20.72243705808424 8.185643212301382 0 0 0
268 1 3.077581175672165 22.206423166917393 6.182606819549233 0 0 0
272 1 4.562085998009956 23.75362963594644 7.827633385833393 0 0 0
280 1 10.583602612779949 23.676542478734717 7.591363085372081 0 0 0
299 1 9.259213751216652 25.341292778433072 9.629901786942346 0 0 0
288 1 17.650969154618586 23.665515236685252 7.772980056398503 0 0 0
726 1 1.5592661953987743 42.61332697506235 23.598879469918728 0 0 0
293 1 1.684866315524699 27.08601608065786 7.666962981110802 0 0 0
291 1 3.152054580514221 25.550734297658 9.332304129524571 0 0 0
298 1 6.514188423832497 28.500755105115246 9.611133951626833 0 0 0
301 1 8.037793368081752 26.76273373145124 7.638509815226967 0 0 0
309 1 14.154253956634925 26.55178393758978 8.188187737898122 0 0 0
306 1 12.839799418970355 28.416636483416656 9.56617621515068 0 0 0
296 1 5.434937775475756 30.20831238745717 7.702138859343826 0 0 0
323 1 9.640955969269108 31.69394532307011 9.435634082772703 0 0 0
304 1 11.300209056072095 29.94649652886173 7.915568695613165 0 0 0
312 1 17.33786350950773 29.8397250467394 7.92439104607398 0 0 0
317 1 1.8962840517248576 33.25294080757246 8.237946871736497 0 0 0
325 1 8.45850913759016 33.38956092927714 7.913752860026656 0 0 0
333 1 14.529499439063397 33.65834452819408 7.754494279537598 0 0 0
331 1 16.020705911982404 31.815543321332946 9.27633641372988 0 0 0
316 1 3.257436310920946 34.72852047391281 6.561778275024008 0 0 0
33 1 6.545856379245205 6.340885324061601 0.22227054409209462 0 0 0
320 1 4.991754951978945 36.1596565750427 7.789237361606493 0 0 0
330 1 12.74058112707242 34.88207949283846 9.466998137107074 0 0 0
328 1 11.222236650248979 36.61364136328079 7.733790287553042 0 0 0
332 1 15.89061162159252 34.92571027424789 6.032404773545175 0 0 0
336 1 17.314138591574427 36.46750110682319 7.828152207542957 0 0 0
341 1 1.714780724627207 39.469579376197146 7.840407251074696 0 0 0
345 1 6.436492832912729 38.09208624320142 6.239590357094059 0 0 0
339 1 3.2964263840067045 37.7249368461722 9.485750919216825 0 0 0
348 1 10.031439022234368 41.289139938386725 6.433054890978517 0 0 0
349 1 8.2814894992684 39.40874846919523 7.850388430777016 0 0 0
356 1 16.053780936410305 41.39671058965544 6.027511694249195 0 0 0
357 1 14.78843044804811 39.75794074098182 7.8425982019097615 0 0 0
340 1 3.5742703699385125 40.84705417181998 6.252817363682333 0 0 0
344 1 5.096408071304708 42.559732025846756 7.823698530425077 0 0 0
352 1 11.424403898903746 42.75015991069728 8.306770804110807 0 0 0
354 1 13.02999279970948 40.727165079692966 9.74588360121447 0 0 0
360 1 17.59302290913045 42.848611208349396 7.9695284776736255 0 0 0
313 1 0.125893004390183 31.87088282282307 6.443303019314151 0 0 0
365 1 1.6301500149527668 46.01393279143569 7.794326139857627 0 0 0
369 1 6.763095872814952 44.02277602695413 6.087383897697997 0 0 0
373 1 7.939561808274041 45.791193369056344 7.905177574590371 0 0 0
372 1 9.506102789108231 47.82752527371795 6.779762653013223 0 0 0
381 1 14.116627444374696 46.24482787936971 7.986399128919567 0 0 0
100 1 3.139738424830183 28.892155761252738 0.15882451025074398 0 0 0
195 1 3.507419183397422 50.66486145327765 9.311894813695568 0 -1 0
368 1 5.203229080796397 48.98884036376769 7.717299558659692 0 0 0
376 1 11.014011489616117 49.456333609356676 8.430847764359989 0 0 0
380 1 15.79482034120911 47.86951809311772 6.565045514976896 0 0 0
384 1 17.521022114688854 49.41694843099697 7.8675352601494195 0 0 0
199 1 4.5208811082341365 1.3769655773925331 11.093586023392719 0 0 0
388 1 2.898025936713457 2.768780042291467 12.571224161505999 0 0 0
393 1 6.435386006616791 50.92254801550446 12.618572767628807 0 -1 0
207 1 11.059208719736125 1.583332404944185 11.443937478429184 0 0 0
401 1 12.973555158105253 0.004612432991070635 12.903314633491151 0 0 0
215 1 17.302969633492765 1.8587746058493129 10.85191557877269 0 0 0
198 1 1.5200934082194286 4.456064498952255 10.93621322764886 0 0 0
206 1 8.038371561848443 4.61912481570869 11.325380765529856 0 0 0
214 1 14.164627717087196 4.937608470507428 11.416418909535338 0 0 0
404 1 15.884347550266249 3.1315332589501503 12.885757273189846 0 0 0
223 1 4.6959147223536535 7.747643297695358 11.494490900872627 0 0 0
412 1 2.6966686228217114 9.582876855066047 12.877686544950052 0 0 0
234 1 12.497072107473016 9.670217097000323 9.657409096068038 0 0 0
231 1 11.109148083572334 8.128040850334575 11.37944324462265 0 0 0
239 1 17.431088987380193 8.255615559974027 11.124899243927379 0 0 0
222 1 1.5065424640196565 11.177850964878145 10.867893292180579 0 0 0
226 1 6.168746478521355 9.243467116715692 9.572847842425073 0 0 0
230 1 7.848808140348723 10.872308004852771 11.135862562204618 0 0 0
238 1 14.486377029746375 11.428540821583226 11.08801521956648 0 0 0
428 1 16.10948481185685 10.004019236795326 12.616436699042525 0 0 0
243 1 3.047584108685593 12.665068608928674 9.12304306466825 0 0 0
247 1 4.806236442492804 14.025747704357643 10.879686871560006 0 0 0
255 1 10.901658717157353 14.346734089945198 11.19060954962365 0 0 0
444 1 9.37817631470324 15.84510850717278 12.746099471431876 0 0 0
259 1 15.80079696872088 12.548802309253071 9.084599766344947 0 0 0
743 1 17.254273241636174 39.46164447839497 23.919842614299295 0 0 0
452 1 15.986515837430737 15.96729123137662 12.232352112670016 0 0 0
263 1 17.402264959506535 14.248395093313954 10.545544483905791 0 0 0
246 1 1.4364154430286462 17.35963349224949 11.043105021104186 0 0 0
436 1 3.263824056809944 15.54253608782905 12.359718970617347 0 0 0
465 1 6.59048499040611 18.731904649917958 12.67801639944999 0 0 0
254 1 8.149078418476481 17.269234202256495 10.932659126338205 0 0 0
258 1 12.497277004901484 15.72569073006811 9.320112164931624 0 0 0
262 1 14.377141170782687 17.437541245174984 10.450206070064324 0 0 0
460 1 3.2710524540682187 22.065671564610376 12.530094768910987 0 0 0
271 1 4.910230444151289 20.161531568350398 11.02186705942538 0 0 0
468 1 9.739698941370134 22.42181609887808 12.6333131792643 0 0 0
279 1 10.912432667126824 20.77758297851872 10.872337648779904 0 0 0
287 1 17.759629845371215 20.313787198460133 10.593639235172136 0 0 0
476 1 15.755513235934014 21.680516591614854 12.30875077638683 0 0 0
270 1 1.5657305141704145 23.795286092128496 10.81623790433475 0 0 0
278 1 7.658244777579891 23.59575152335934 10.991824428821388 0 0 0
489 1 6.671415223627003 25.589914780268074 12.70435912064953 0 0 0
286 1 14.246116218201848 23.161405554074324 10.957833152175807 0 0 0
497 1 12.893717132227975 24.718974819199364 12.763549825982201 0 0 0
295 1 4.699662048136136 27.04176732064605 11.19776410739964 0 0 0
303 1 11.423992629501084 26.574223624646887 11.229317830079076 0 0 0
307 1 15.840775708775046 25.03711766487532 9.586841510307753 0 0 0
500 1 15.626418845236032 28.72756615152221 12.753416740010437 0 0 0
311 1 17.27986427132372 26.82445008949237 11.161129882051892 0 0 0
801 1 6.125791778396993 6.3161502029116 25.236862182376 0 0 0
735 1 10.941016250687225 39.87965876668052 23.36160459932398 0 0 0
294 1 1.514027773416193 30.251682861582612 10.950540507868489 0 0 0
302 1 8.076569704538123 29.955303069166494 11.150559264439897 0 0 0
492 1 9.633719521141213 28.219263520050006 12.911614616625624 0 0 0
310 1 14.338658209330262 30.17785831158232 10.911124567120622 0 0 0
481 1 0.22127518746489377 25.437817620691487 12.456331435937956 0 0 0
132 1 9.644621893924473 34.653754882832715 0.0710728335926912 0 0 0
315 1 3.535505031895287 31.47989913335758 9.320745473003903 0 0 0
319 1 5.045340433919458 33.44794402630829 10.759202303883688 0 0 0
327 1 11.328761707194332 33.28836694461039 11.003942003291867 0 0 0
521 1 12.616475728237653 31.675013336474343 12.602222065361653 0 0 0
335 1 17.850958947254387 33.25744927781018 10.977581736787055 0 0 0
731 1 9.027975640838584 38.014522047036905 22.268544071650634 0 0 0
318 1 1.5911784938511935 36.27590854831898 11.133075200719588 0 0 0
322 1 6.757663685748327 35.04212520176948 9.275011809694083 0 0 0
326 1 8.111930132256314 36.534328967615394 10.989798848190281 0 0 0
355 1 16.19415516302754 38.19739744151586 9.542960122433572 0 0 0
334 1 14.404287674039262 36.50618196599544 10.98981366141131 0 0 0
849 1 6.341683247298832 18.87796120435579 24.96765544317057 0 0 0
343 1 4.898358227481473 39.80016815964828 10.940860321420447 0 0 0
347 1 9.651725308802263 37.99308162453784 9.259328401165742 0 0 0
537 1 6.474422939734897 38.058368998806756 12.742650318603067 0 0 0
351 1 10.921253615019848 39.45118085156331 11.250474015644377 0 0 0
359 1 17.390492678342206 39.97117080995591 11.143667901928037 0 0 0
342 1 2.064150471509004 42.759394962600226 10.832464410471585 0 0 0
346 1 6.803430008763395 41.20970808807593 9.721921851317216 0 0 0
350 1 8.325201905178867 43.12066254651228 11.312934758714924 0 0 0
358 1 14.202136840975003 43.0074076535296 11.112671893073612 0 0 0
548 1 15.796850693284936 41.81183468963779 12.877668465137697 0 0 0
363 1 3.2516933570240045 44.28294971593019 9.073998814518099 0 0 0
367 1 4.623155609786383 45.711834604882156 11.026855541949004 0 0 0
561 1 6.503203728660896 44.54200235291704 12.869680908617603 0 0 0
371 1 9.8062761875644 44.67858136832116 9.64978638706459 0 0 0
375 1 11.240329129953745 46.31347195037557 11.340286551338277 0 0 0
379 1 16.142776311609392 44.53428217856114 9.555818307600404 0 0 0
383 1 17.361351233115332 46.285606127098944 11.421503663909183 0 0 0
366 1 1.5822435157174106 49.29054089146726 10.87964699781732 0 0 0
370 1 6.281093390418933 47.45914670230971 9.524014585508008 0 0 0
374 1 7.71484971557633 49.18517203636716 11.31011495755788 0 0 0
203 1 9.177118578833689 50.9308716627761 9.872333274637068 0 -1 0
378 1 12.676517929170055 47.71714775289955 9.606500863493654 0 0 0
382 1 14.255940745556673 49.75067010032528 10.845423708391378 0 0 0
389 1 1.3562175148566078 1.4859081548091824 14.2776058063652 0 0 0
394 1 6.471773843145504 3.048233020070375 15.94912676421043 0 0 0
397 1 8.134086365095492 1.336379239247958 14.320479487345178 0 0 0
405 1 14.110155551224443 1.8179609177461002 14.510296528732402 0 0 0
403 1 15.704069132463935 0.0006056601357471436 15.244231690292702 0 0 0
817 1 0.04326733968409427 12.413304606327149 25.23762553852882 0 0 0
411 1 3.0493583339532266 6.055267171182515 15.761192762518679 0 0 0
417 1 6.315451495047126 6.072423865321167 13.071073017007295 0 0 0
392 1 4.792190606076703 4.279627592588612 14.059831309735785 0 0 0
396 1 9.6052117726625 3.200056091793406 12.963731486775703 0 0 0
400 1 11.156352709645047 4.9684116649986665 14.462081324308853 0 0 0
402 1 12.856068602477855 3.354073730064517 15.993596384560561 0 0 0
425 1 12.894107850007448 6.696070304074079 13.210055922976267 0 0 0
408 1 17.459240921521545 4.777386851459866 14.23752352897015 0 0 0
727 1 4.691905432235475 39.458103314066776 23.684296126038713 0 0 0
413 1 1.3543511686194796 7.623947738138021 14.06994910407527 0 0 0
421 1 7.8202845102378555 7.931580182924686 14.349854946937207 0 0 0
420 1 9.5972849720894 9.725971306800547 12.680195800475753 0 0 0
426 1 12.426277062509149 9.676892400852722 16.02787811184717 0 0 0
429 1 14.530335879957583 8.534464068036382 14.36995824391155 0 0 0
427 1 16.001307093217466 6.43282798805881 15.788575905333223 0 0 0
739 1 15.656718480674018 38.26630448355672 22.115296459261636 0 0 0
435 1 2.8782705944466462 12.729110216123091 15.889444678658354 0 0 0
416 1 4.581423934355788 11.00916294026387 14.343396020643747 0 0 0
424 1 11.022051019671332 11.311072658243269 14.378605867255537 0 0 0
432 1 17.782354874773382 11.486487567598191 14.380185766899324 0 0 0
900 1 9.661415563331573 34.6288303497668 25.314761915618504 0 0 0
437 1 1.440845997180593 14.226521162029881 14.235422653479691 0 0 0
441 1 6.091684092990951 12.37684095965638 12.617055656035115 0 0 0
445 1 7.609635044026003 14.192072956210147 14.290746912041108 0 0 0
443 1 9.266656076198286 12.824133413790989 16.17457618353699 0 0 0
449 1 12.530712153038786 12.76873800824642 12.712442892117323 0 0 0
453 1 14.21704033514603 14.471051386405623 13.842502261151644 0 0 0
451 1 15.55599139829311 12.686476104449147 15.849010796195747 0 0 0
450 1 12.708284828413566 16.019784369679492 15.612280250207744 0 0 0
440 1 4.63992980893421 17.090983318306954 13.86718796463436 0 0 0
442 1 5.956729720446169 15.950538904757867 15.948876688735439 0 0 0
448 1 11.219202257124119 17.53091738624806 14.022768559412402 0 0 0
456 1 17.638052204805312 17.54123713807992 13.721991458201407 0 0 0
475 1 15.826301442621794 18.853496006193012 15.386047154738089 0 0 0
718 1 14.0395502875431 36.80748879894145 23.658169651847658 0 0 0
714 1 12.577760983737507 35.07696802106322 22.16145239646263 0 0 0
461 1 1.5859708139937096 20.701325083482093 14.155420413057426 0 0 0
459 1 3.064589369391075 18.898440768637137 15.48194547485801 0 0 0
469 1 8.066937534938145 20.646577439730248 14.259986444382548 0 0 0
467 1 9.821908640098485 19.058167318522422 15.66599553509478 0 0 0
473 1 12.782532983235665 19.204294842837633 11.910216406179934 0 0 0
477 1 14.267304310472394 20.398853379432897 13.963618925901276 0 0 0
474 1 12.90799260921046 22.097034542959847 15.888032890607464 0 0 0