

read_data data.ice_${TEMP}K_${PRES}atm_ML group ice
read_data data.ice_291K_${PRES}atm_ML group ice
read_data data.ice_291K_-500atm_ML group ice
Reading data file ...
  orthogonal box = (-0.062131253 -0.055227781 -0.055227781) to (57.332641 50.962348 50.962348)
  3 by 1 by 2 MPI processor grid
  reading atoms ...
  4608 atoms
  reading velocities ...
  4608 velocities
  read_data CPU = 0.032 seconds
read_data data.liq_${TEMP}K_${PRES}atm_ML add append shift ${X_HI} ${YZ_LO} ${YZ_LO} group water
read_data data.liq_291K_${PRES}atm_ML add append shift ${X_HI} ${YZ_LO} ${YZ_LO} group water
read_data data.liq_291K_-500atm_ML add append shift ${X_HI} ${YZ_LO} ${YZ_LO} group water
read_data data.liq_291K_-500atm_ML add append shift 50.9623477808336 ${YZ_LO} ${YZ_LO} group water
read_data data.liq_291K_-500atm_ML add append shift 50.9623477808336 0.0552277808336434 ${YZ_LO} group water
read_data data.liq_291K_-500atm_ML add append shift 50.9623477808336 0.0552277808336434 0.0552277808336434 group water
Reading data file ...
  orthogonal box = (-0.062131253 -0.076674903 -0.076674903) to (104.42807 51.094250 51.094250)
  3 by 1 by 2 MPI processor grid
  reading atoms ...
  4608 atoms
  reading velocities ...
  4608 velocities
  read_data CPU = 0.031 seconds

write_data data.icewater_test
System init for write_data ...
WARNING: Communication cutoff is 0.0. No ghost atoms will be generated. Atoms may get lost. (../comm_brick.cpp:167)

# Define potential
#
pair_style sw
pair_coeff * * /data/emrosky-sim/Freezing_Simulations/Melting/MLmW_fancy/ML_mW.sw mW
Reading sw potential file /data/emrosky-sim/Freezing_Simulations/Melting/MLmW_fancy/ML_mW.sw with DATE: 2019-02-27

# Delete water and ice atoms that are overlapping
#
delete_atoms overlap 2.5 water ice
System init for delete_atoms ...
Neighbor list info ...
  update every 1 steps, delay 10 steps, check yes
  max neighbors/atom: 2000, page size: 100000
  master list distance cutoff = 6.0032907
  ghost atom cutoff = 6.0032907
  binsize = 3.0016454, bins = 35 18 18
  2 neighbor lists, perpetual/occasional/extra = 1 1 0
  (1) command delete_atoms, occasional, copy from (2)
      attributes: full, newton on
      pair build: copy
      stencil: none
      bin: none
  (2) pair sw, perpetual
      attributes: full, newton on
      pair build: full/bin/atomonly
      stencil: full/bin/3d
      bin: standard
Deleted 699 atoms, new total = 8517

# set timestep
#
timestep 10.0

# Define output
#
compute 1 all msd
thermo 50
thermo_style custom step temp press vol etotal ke pe c_1[4]

# Neighbor lists
#
neigh_modify delay 0 every 1 check yes

# Set fixes
#
fix 1 all momentum 10 linear 1 1 1 rescale
fix 2 all nph iso ${PRES} ${PRES} ${PCOUPL}
fix 2 all nph iso -500 ${PRES} ${PCOUPL}
fix 2 all nph iso -500 -500 ${PCOUPL}
fix 2 all nph iso -500 -500 10000.0
fix 3 all temp/csvr ${TEMP} ${TEMP} ${TCOUPL} 837492
fix 3 all temp/csvr 291 ${TEMP} ${TCOUPL} 837492
fix 3 all temp/csvr 291 291 ${TCOUPL} 837492
fix 3 all temp/csvr 291 291 5000.0 837492


# Fix ice atoms in place
#
velocity ice set 0.0 0.0 0.0
fix 4 ice setforce 0.0 0.0 0.0

# Run 1.0 ns equilibration of water
#
dump 1 all atom 1000 eq.all.${NAME}.dump
dump 1 all atom 1000 eq.all.coexist_291K_-500atm_ML.dump
run 100000
Neighbor list info ...
  update every 1 steps, delay 0 steps, check yes
  max neighbors/atom: 2000, page size: 100000
  master list distance cutoff = 6.0032907
  ghost atom cutoff = 6.0032907
  binsize = 3.0016454, bins = 35 18 18
  1 neighbor lists, perpetual/occasional/extra = 1 0 0
  (1) pair sw, perpetual
      attributes: full, newton on
      pair build: full/bin/atomonly
      stencil: full/bin/3d
      bin: standard
Per MPI rank memory allocation (min/avg/max) = 4.591 | 4.599 | 4.606 Mbytes
Step Temp Press Volume TotEng KinEng PotEng c_1[4] 
       0    135.18777   -1098.2972    273603.79   -83902.733    3431.6846   -87334.417            0 
      50    159.17245   -928.55643    272490.79    -83589.17    4040.5255   -87629.695   0.85709477 
     100    169.14472    -335.6314    270420.62   -83254.815    4293.6674   -87548.483    1.8065527 
     150    176.71671   -141.11283    269440.93   -82919.389    4485.8791   -87405.268    2.8352656 
     200    178.65861   -401.07344    269675.11   -82691.787    4535.1735   -87226.961    3.9121305 
     250    185.10951   -417.04272    270405.86   -82405.161    4698.9269   -87104.088    5.0554232 
     300    188.64046   -494.07524    271131.84   -82069.883    4788.5585   -86858.442    6.2485646 
     350    192.87454   -519.18764    271781.14    -81859.83    4896.0389   -86755.869    7.5133003 
     400    198.33274   -562.66593    272064.39   -81642.115    5034.5929   -86676.707    8.8320757 
     450     198.2588   -468.53882    271763.76   -81378.376     5032.716   -86411.092    10.420709 
     500    208.52658   -468.75232    271168.62   -81190.604    5293.3593   -86483.964     11.91276 
     550    213.16296   -361.05473    270979.34   -81012.437    5411.0519   -86423.489    13.556411 
     600    216.42934   -411.29071    271334.59   -80829.213    5493.9675    -86323.18    15.513875 
     650     219.9092   -541.91763    272160.68   -80637.475    5582.3023   -86219.778    17.393982 
     700     215.5502    -803.7995    273081.05   -80438.769     5471.651    -85910.42    19.406574 
     750    220.89445   -864.28191    273187.46   -80283.105    5607.3126   -85890.418    21.435214 
     800    222.36599    -501.2714    272638.44   -80100.958     5644.667   -85745.625    23.457728 
     850    230.41186    -317.6362    272195.03   -79920.325    5848.9079   -85769.233    25.381024 
     900    230.43429    -159.2204    272341.65   -79750.692    5849.4773   -85600.169    27.347699 
     950    231.98105    -491.8507    273061.43   -79593.601    5888.7411   -85482.342    29.584374 
    1000    237.47883   -543.27705    273595.25   -79453.793    6028.2999   -85482.093    32.019899 
    1050    237.17486   -775.91812     273796.6   -79330.123    6020.5837   -85350.707    34.151286 
    1100    244.19497   -783.14446    273676.36   -79231.034    6198.7862    -85429.82    36.369658 
    1150     245.6439   -531.74488    273397.92   -79115.692    6235.5669   -85351.259    38.819871 
    1200    246.48555   -313.86801    273405.49   -79020.677    6256.9317   -85277.608    41.059031 
    1250    246.57955   -482.25962    273865.17   -78913.059    6259.3179   -85172.376    43.622359 
    1300    248.13231   -701.17424    274163.92   -78826.376    6298.7341    -85125.11     45.88875 
    1350    250.75793   -629.97031    274256.34    -78742.38    6365.3844   -85107.765    48.218425 
    1400     252.8307   -590.80773    274211.29   -78620.363    6418.0007   -85038.364    50.582597 
    1450    256.79295   -616.06656     274060.6   -78518.269    6518.5809    -85036.85    53.017396 
    1500     253.7818   -319.67717    274055.18   -78441.875    6442.1441    -84884.02    55.255328 
    1550    259.18647   -229.33984    274318.17   -78370.676    6579.3394   -84950.016    57.926606 
    1600    259.96382   -538.75789    274965.43   -78286.235     6599.072   -84885.307    60.932627 
    1650    259.12028   -423.27918    275404.81   -78218.434    6577.6591   -84796.093    63.725423 
    1700    261.71387   -621.00017    275223.34   -78118.826    6643.4962   -84762.322    66.388439 
    1750    260.60937   -248.84261    274743.46   -78068.756    6615.4589   -84684.215    68.754507 
    1800    267.69922   -294.01467    274417.96   -77978.039    6795.4319   -84773.471    71.110866 
    1850    263.42738   -504.36896    274828.82   -77891.322    6686.9929   -84578.315    73.744904 
    1900    263.40049   -627.81215    275356.47    -77787.12    6686.3103    -84473.43     76.42124 
    1950    269.59701   -668.51176    275509.02   -77712.842    6843.6064   -84556.448    78.972458 
    2000    269.47241   -491.70609    275387.31   -77617.966    6840.4435   -84458.409    81.028605 
    2050    275.16274   -559.45584    275215.91   -77611.552    6984.8902   -84596.443     83.59624 
    2100    268.44023   -383.88144    275074.78   -77580.202     6814.242   -84394.444    86.524841 
    2150    272.73577   -664.93913    275310.93   -77523.003    6923.2825   -84446.286    89.495371 
    2200    270.81398   -483.26259     275676.8   -77451.945    6874.4987   -84326.444     92.90276 
    2250    276.49055   -673.90255    275913.65   -77416.004     7018.596     -84434.6    95.887566 
    2300    277.60713    -531.2629    275951.29   -77323.622      7046.94   -84370.562    98.966492 
    2350    278.95822   -918.85483    275884.51   -77229.986    7081.2369   -84311.223    102.52877 
    2400    278.01947   -427.51362    275606.48   -77201.136     7057.407   -84258.543    105.47479 
    2450    274.11426   -377.93286    275722.92   -77151.838     6958.275   -84110.113    108.59753 
    2500    283.22848   -528.00981    276087.14   -77079.068    7189.6357   -84268.703    112.49061 
    2550     284.2352   -782.94243    276348.77   -77053.699    7215.1906    -84268.89    115.39359 
    2600    283.51129   -734.20303    276097.69   -77026.032    7196.8146   -84222.846    118.42832 
    2650    282.45228   -179.84275    275520.67   -76952.866    7169.9321   -84122.798    120.90142 
    2700    283.48916   -631.67753     275699.1    -76922.22    7196.2528   -84118.473    123.51928 
    2750    282.21278   -477.36267    276243.25    -76934.51    7163.8525   -84098.363    126.36277 
    2800    279.58399   -644.44788    276583.25   -76896.288    7097.1216   -83993.409    129.35347 
    2850    281.72106   -755.92899    276519.92    -76908.31    7151.3703    -84059.68    131.63115 
    2900    279.55211    -335.5324    276054.48   -76922.859    7096.3123   -84019.171    133.84283 
    2950    282.84588   -328.29619    275799.66   -76919.774    7179.9235   -84099.698    135.81323 
    3000    287.10303   -346.03567    275894.23    -76874.81    7287.9893     -84162.8    138.78641 
    3050    282.75758   -529.93111     276038.5   -76879.212    7177.6819   -84056.894     141.5853 
    3100    287.04957   -393.53442    276155.43   -76861.388    7286.6324   -84148.021    144.41579 
    3150    284.00115   -313.36355    276301.13   -76863.164    7209.2496   -84072.414    147.26517 
    3200    286.25276   -851.23151    276444.67   -76825.344    7266.4055   -84091.749    149.34035 
    3250    283.83179   -358.32867    276007.29   -76798.253    7204.9504   -84003.204    152.22941 
    3300    291.01405   -318.07325    275630.55   -76765.261    7387.2688    -84152.53    154.99485 
    3350    289.70193   -357.86245    275759.29    -76659.09    7353.9613   -84013.051    158.06281 
    3400    288.10485   -430.52979    276388.46    -76711.67    7313.4201    -84025.09    161.79612 
    3450    288.34914   -725.59551    276897.87   -76726.705    7319.6214   -84046.326    165.25718 
    3500    288.86064   -869.58371    276627.26   -76720.071    7332.6056   -84052.676    168.91571 
    3550    289.07735   -641.83226    275970.84   -76684.043    7338.1067    -84022.15    172.04862 
    3600    290.18853   -525.42071    275409.23    -76701.43    7366.3134   -84067.743    175.04875 
    3650    287.79507    21.933544    275469.25   -76710.017    7305.5564   -84015.574    178.14355 
    3700    288.71335   -719.92661    276203.99   -76697.831    7328.8668   -84026.698    181.68335 
    3750    286.59534    -539.0447     276840.3   -76713.422    7275.1018   -83988.524    184.87357 
    3800    288.19482   -1003.7261    277254.01   -76708.385     7315.704   -84024.089    187.66084 
    3850    288.15078   -552.79799    276480.39   -76699.676    7314.5861   -84014.262    189.54483 
    3900    290.16556   -280.15729    275683.99   -76713.385    7365.7304   -84079.115    191.96877 
    3950    289.78837   -220.27894    275592.98   -76671.324    7356.1556   -84027.479    194.07287 
    4000    285.41573   -533.35276    276202.93   -76673.032     7245.158    -83918.19    197.59347 
    4050    289.57546   -653.67088    276683.41   -76656.984    7350.7509   -84007.735    201.09099 
    4100    287.59261    -804.7231    276889.93   -76646.978    7300.4171   -83947.395    203.59691 
    4150    287.02206   -499.26532    276597.57   -76603.182    7285.9339   -83889.116    206.09456 
    4200    289.13586   -333.37501    276186.37   -76603.686     7339.592   -83943.278    208.82093 
    4250    287.90606   -198.69284    276003.12    -76579.85    7308.3738   -83888.224    212.06366 
    4300    288.66218   -635.92045    276315.25   -76594.215    7327.5676   -83921.782    215.10608 
    4350    286.93322   -534.53137    276392.43     -76605.2    7283.6788   -83888.878     217.5299 
    4400    285.84247   -347.08255    276237.44   -76595.341    7255.9905   -83851.332    220.21871 
    4450    292.06528   -444.23435    276390.06   -76530.067    7413.9539   -83944.021    223.14557 
    4500    292.08664   -292.20015    276628.62   -76483.827    7414.4962   -83898.323    226.62585 
    4550    294.24794   -539.19552    276502.53    -76444.43    7469.3599    -83913.79     229.8383 
    4600    291.85992   -457.29044    276260.01   -76449.088     7408.741   -83857.829    232.56866 
    4650     292.8762   -260.64971     276071.7   -76383.505    7434.5389   -83818.044    235.20428 
    4700    291.30134   -470.29611    276258.33   -76370.873    7394.5618   -83765.435    238.37945 
    4750    288.01351   -253.17111    276680.17   -76385.178    7311.1016    -83696.28    241.67926 
    4800    296.23207   -783.30701    277098.06   -76389.774    7519.7261   -83909.501    245.00824 
    4850    294.93134   -596.16992    277342.89   -76390.577    7486.7077   -83877.284    247.65395 
    4900    292.42919   -525.16051    277031.95   -76385.351    7423.1916   -83808.543    249.85968 
    4950    291.25976   -545.05294    276324.56    -76397.19    7393.5063   -83790.696    251.99855 
    5000    296.12928   -159.39512    275918.84   -76428.962    7517.1169   -83946.079    255.32907 
    5050    295.78669   -501.33112    276253.12   -76442.786    7508.4204   -83951.207    259.13629 
    5100    294.04087   -611.74638    276733.23   -76455.833    7464.1034   -83919.936    262.41642 
    5150    293.92648   -510.96971    276912.39    -76473.78    7461.1999    -83934.98     265.6585 
    5200    292.43684   -644.38177    276602.98   -76469.301    7423.3858   -83892.686    268.90192 
    5250    296.00383   -531.34113    276173.22   -76462.648    7513.9324   -83976.581    270.30681 
    5300    294.42814    -515.3726    275986.55   -76450.268    7473.9342   -83924.203    273.08567 
    5350    299.95565   -455.45904    276194.24   -76420.849    7614.2477   -84035.096    276.59592 
    5400    295.05021   -276.87854    276736.05   -76478.991    7489.7251   -83968.716    280.30721 
    5450    291.85133   -380.27452    277183.15   -76457.659     7408.523   -83866.182    282.95726 
    5500    291.30816   -838.56229    277217.56   -76452.379    7394.7347   -83847.114    285.68069 
    5550    290.07157   -458.16095    276423.15   -76509.258    7363.3444   -83872.602    288.40982 
    5600    292.96278   -564.51002    275816.08   -76575.039    7436.7366   -84011.776    290.35525 
    5650    288.65668   -408.04675    275926.46    -76653.18    7327.4282   -83980.608    292.70906 
    5700    291.34969   -332.87269    276286.65     -76637.3    7395.7889   -84033.089    295.83012 
    5750    291.65294    -606.2066    276615.98   -76603.128    7403.4869   -84006.615    299.63337 
    5800    292.93425   -837.31897     276590.7   -76602.628    7436.0124    -84038.64    303.59838 
    5850    287.98358   -384.84383    276364.56   -76538.404    7310.3418   -83848.746    306.60597 
    5900    284.98707   -553.16836    276100.46   -76564.423    7234.2766     -83798.7    309.73651 
    5950    285.81181   -413.95978    276018.43   -76575.645    7255.2124   -83830.858    312.90316 
    6000    290.12275   -625.66447    276107.46   -76578.512    7364.6436   -83943.155    315.86766 
    6050    289.75316   -28.020603    276202.59   -76520.806    7355.2617   -83876.068    318.54986 
    6100     289.8771   -648.51576    276692.62   -76519.592     7358.408       -83878    321.10627 
    6150    288.91343   -732.03906    276728.63   -76503.824    7333.9456   -83837.769    323.35795 
    6200     290.5007   -554.67741    276236.49   -76526.763    7374.2377   -83901.001    325.98061 
    6250    290.50923   -168.20289    275878.51   -76510.332    7374.4544   -83884.786    328.65153 
    6300    291.81645   -486.74089    276259.79    -76478.95    7407.6376   -83886.588    332.42985 
    6350    294.31218   -572.90484    276946.19   -76452.138    7470.9906   -83923.129    336.87074 
    6400    289.47425   -700.63277    277455.04   -76503.409    7348.1817   -83851.591    340.86756 
    6450    291.23927   -808.68382    277201.66    -76517.42    7392.9862   -83910.406    343.26597 
    6500     297.5441   -548.04581    276401.36   -76477.426    7553.0316   -84030.458    345.18722 
    6550    292.71543    -493.1798    276025.97   -76459.061    7430.4578   -83889.518     348.8917 
    6600    288.50439   -230.75106    276303.51   -76476.303    7323.5624   -83799.866    351.07405 
    6650    290.00799   -560.06969    276750.81    -76516.05    7361.7307    -83877.78    354.07822 
    6700    291.15579   -797.22022    276878.32   -76521.493     7390.867    -83912.36    357.08471 
    6750     292.4247    -603.3892    276558.01   -76550.491    7423.0778   -83973.568    358.58192 
    6800     287.9992   -581.42947    276251.81   -76516.644    7310.7384   -83827.382    361.08847 
    6850    290.22583   -385.31364    276321.27   -76507.859    7367.2603   -83875.119    364.05173 
    6900    296.37003   -766.28851    276696.72   -76475.222    7523.2282    -83998.45    366.95661 
    6950    291.05646   -628.77143    276865.53   -76459.644    7388.3455    -83847.99    370.75573 
    7000    289.19439   -389.38286    276906.12   -76433.915    7341.0776   -83774.993    373.07789 
    7050    294.54859   -576.84579    276720.97   -76422.799    7476.9917   -83899.791    375.24745 
    7100    292.20362    -477.9554    276361.53   -76431.391    7417.4657   -83848.857    377.71813 
    7150    292.26934   -326.01122    276132.59   -76490.817     7419.134   -83909.951    380.99364 
    7200    286.35895   -415.52477    276335.69    -76523.42    7269.1013   -83792.521    384.21062 
    7250    291.12205   -486.95761    276620.49   -76470.341    7390.0105   -83860.352     387.1149 
    7300    294.21451    -539.7574    276834.92   -76447.724    7468.5113   -83916.235     390.1635 
    7350    293.72131   -463.38427    276910.88   -76434.359    7455.9917   -83890.351    392.98439 
    7400    293.85669   -510.82456    276774.42   -76387.914    7459.4282   -83847.343    395.88865 
    7450    289.69118   -317.24518    276621.13   -76358.068    7353.6884   -83711.756    398.17527 
    7500    288.37046   -535.81201    276617.92   -76427.172    7320.1626   -83747.335    401.62469 
    7550    292.66097   -919.73371    276326.72   -76462.775    7429.0754    -83891.85    404.58456 
    7600    291.75089   -248.98136    275793.78   -76412.013    7405.9734   -83817.987    406.91176 
    7650    295.78139   -258.89783    275954.62   -76428.229    7508.2858   -83936.515    409.56055 
    7700    294.10735   -602.22515    276841.58   -76420.191    7465.7911   -83885.982    412.24798 
    7750    290.80251   -926.69501    277329.25    -76373.78    7381.8991   -83755.679    415.79533 
    7800    290.61642   -636.83137    277194.59   -76406.606    7377.1754   -83783.781    418.75562 
    7850    295.96746    -842.9377    276721.24    -76381.83    7513.0091   -83894.839    420.37363 
    7900    290.62642   -528.05711    276205.08   -76415.628    7377.4293   -83793.057    421.43748 
    7950    294.00984   -233.75826     275895.6   -76462.313    7463.3159   -83925.629    424.21443 
    8000    291.15444   -503.56504    276237.23   -76453.029    7390.8328   -83843.862    428.02825 
    8050    295.25511   -460.79411    276701.23   -76438.088    7494.9264   -83933.015    431.99158 
    8100    292.90015   -503.23724    277316.13   -76472.224    7435.1467   -83907.371    435.75909 
    8150    293.87463   -1026.9277    277456.89   -76417.826    7459.8837    -83877.71    438.85484 
    8200    291.14478   -722.34403    276807.92   -76446.181    7390.5874   -83836.769    440.21233 
    8250    288.89949    -404.5191    276214.01   -76446.846    7333.5918   -83780.438    442.45969 
    8300    290.76696   -129.33463    275897.34   -76433.762    7380.9967   -83814.759    444.48558 
    8350     291.9937    -376.0735    276132.67   -76493.547     7412.137   -83905.684    446.38033 
    8400    291.38218   -452.03882    276552.19   -76497.863    7396.6139   -83894.477    450.11034 
    8450    287.84533   -552.12897    276854.96   -76495.658    7306.8323    -83802.49    453.56556 
    8500     292.9892   -484.42396    276781.57   -76481.362    7437.4073   -83918.769    456.63129 
    8550    288.10337   -485.96395    276627.85   -76507.506    7313.3827   -83820.889     459.0397 
    8600    293.27627   -623.26289    276238.72   -76510.564    7444.6945   -83955.258    460.69174 
    8650    293.94697   -534.85779    276111.22   -76504.052      7461.72   -83965.772    462.79335 
    8700    294.30959   -536.17366     276329.3   -76502.794    7470.9248   -83973.719    464.77282 
    8750    292.64883   -769.88718    276705.29   -76469.491    7428.7671   -83898.258    467.97406 
    8800    296.95383   -428.27147    276473.03   -76489.665    7538.0478   -84027.713    469.96097 
    8850    292.24267   -466.78042    276221.23   -76533.847     7418.457   -83952.304    472.18969 
    8900    293.99643   -200.29661    276353.11   -76557.179    7462.9753   -84020.155    475.11676 
    8950    288.83103   -537.44083     276778.9   -76534.167    7331.8539   -83866.021    478.88358 
    9000    289.26483   -528.69628    276716.51   -76525.696    7342.8659   -83868.561    482.93076 
    9050    292.43407   -506.95929    276350.97   -76527.805    7423.3155    -83951.12    486.11563 
    9100    288.66393   -400.73454    276147.47   -76589.927    7327.6121   -83917.539    488.81301 
    9150    290.16995   -254.83397    276052.05   -76555.365    7365.8418   -83921.206    490.36081 
    9200    290.47232   -532.70016    276428.25   -76560.432    7373.5174    -83933.95    493.07824 
    9250    290.30669   -602.88216    276706.76   -76588.063    7369.3128   -83957.376    496.51021 
    9300    286.50215   -631.30983    276507.85    -76635.36    7272.7362   -83908.096    499.16181 
    9350    292.67784   -527.63499    276187.61   -76618.719    7429.5035   -84048.222    501.43711 
    9400    287.24207   -319.87117    276129.13   -76608.502    7291.5188   -83900.021    502.96298 
    9450    292.55029   -420.07709    276351.81   -76570.119    7426.2657   -83996.385     504.4439 
    9500    288.57815   -354.11893    276476.94   -76589.628    7325.4347   -83915.063    506.92384 
    9550    287.11303   -213.22051    276654.86   -76572.209    7288.2433   -83860.453    510.01425 
    9600    291.00968   -609.54214     276848.3   -76540.301     7387.158   -83927.459    512.43545 
    9650    285.61017   -688.04258    276552.88   -76574.329    7250.0937   -83824.423     515.8425 
    9700    289.27899   -113.32158    275809.95   -76580.673    7343.2251   -83923.898     516.6835 
    9750    291.94067   -71.401352    275575.63   -76589.623    7410.7908   -84000.414     518.8837 
    9800    287.98294   -220.14785    276238.47   -76586.978    7310.3255   -83897.304    523.20714 
    9850    291.21105    -617.3369    277066.49   -76570.933    7392.2697   -83963.203    526.91811 
    9900    290.81521   -668.43421    277002.45   -76571.533    7382.2214   -83953.755    529.54411 
    9950    287.51679   -446.19319    276334.67   -76555.961    7298.4925   -83854.453    530.68162 
   10000    291.11676    -438.9277    276003.88   -76556.098    7389.8761   -83945.975    532.07851 
   10050    295.61435   -329.98714    276044.67   -76561.166    7504.0456   -84065.212    535.97907 
   10100     291.9881   -356.78767     276533.5   -76531.701    7411.9948   -83943.696    539.50294 
   10150    289.85453   -746.92437    277091.49   -76499.518    7357.8351   -83857.353    543.22924 
   10200    290.95893   -684.99428    277258.12   -76482.259    7385.8697   -83868.129    547.15412 
   10250    292.50031   -612.69056    276847.44   -76499.505    7424.9971   -83924.502    549.96812 
   10300    292.86375   -633.57343    276315.01   -76476.452    7434.2228   -83910.675    551.86404 
   10350     290.3944    -362.6171    275901.52   -76481.787    7371.5393   -83853.326     553.6887 
   10400    292.08503   -181.98869    275992.24   -76552.449    7414.4553   -83966.904    557.61755 
   10450     292.9239   -755.23941    276812.85   -76521.804    7435.7497   -83957.554    563.03614 
   10500    286.93632   -525.15041    277057.88   -76514.582    7283.7576    -83798.34    566.38317 
   10550    289.28083   -738.08824    276814.66   -76500.763    7343.2719   -83844.035    568.85814 
   10600    291.61992   -497.51505    276321.99   -76504.899    7402.6486   -83907.548    571.11335 
   10650    291.31666   -259.66871    276106.42   -76484.569    7394.9506   -83879.519    572.53344 
   10700    292.05042   -693.97192    276520.34   -76517.995    7413.5767   -83931.571    575.21503 
   10750    291.56328   -531.69637    276791.69   -76491.217     7401.211   -83892.428    577.38643 
   10800    295.90013   -738.76023    276780.25   -76516.173    7511.3001   -84027.473    579.44195 
   10850    292.79585   -397.45026    276657.49   -76455.569    7432.4992   -83888.068     581.7881 
   10900    291.08144   -564.99972     276618.1   -76460.251    7388.9796   -83849.231    583.74428 
   10950    293.72178   -526.22264    276232.09   -76469.389    7456.0034   -83925.393    585.10922 
   11000    292.06662   -473.84658    275944.26   -76514.408    7413.9881   -83928.396    587.64199 
   11050    289.45606   -708.72525    276193.69   -76541.751    7347.7201   -83889.471    590.56233 
   11100    292.38463   -435.49203    276510.92   -76515.119    7422.0606    -83937.18    594.14433 
   11150    290.20741   -379.48125    276825.31   -76518.264    7366.7928   -83885.057    598.75501 
   11200    291.68226   -502.19255    276555.21   -76511.945    7404.2311   -83916.176     601.2802 
   11250    291.72263    -533.0137    276414.64   -76548.765    7405.2558   -83954.021    604.20216 
   11300    293.95931   -496.82701    276478.46    -76536.73    7462.0332   -83998.763    607.12732 
   11350    290.14763   -551.93833     276583.5   -76569.503    7365.2752   -83934.778    609.37613 
   11400    288.29725    -757.5978    276551.35   -76571.766    7318.3042    -83890.07    613.02944 
   11450    291.39568   -339.01233    276154.53   -76630.483    7396.9565   -84027.439     615.8417 
   11500    287.72837   -235.82142    276050.46   -76617.129    7303.8635   -83920.993    619.37175 
   11550    290.82651   -736.58092     276378.8   -76643.547    7382.5084   -84026.055     622.9292 
   11600    289.03507   -461.19728    276472.89   -76619.677    7337.0334    -83956.71     625.9501 
   11650    286.37339   -519.41895    276600.33   -76605.039    7269.4678   -83874.507    629.47079 
   11700    290.73461   -626.65003    276497.14   -76572.782    7380.1755   -83952.957    633.91211 
   11750    295.48129     -410.458    276100.82   -76591.883    7500.6681   -84092.551    635.15035 
   11800    291.11909   -360.74709    276100.16   -76610.973    7389.9353   -84000.908     638.8508 
   11850    292.89098    22.718762    276362.96   -76541.703    7434.9142   -83976.617     642.8684 
   11900    288.16202   -661.60792    276939.11   -76613.868    7314.8713    -83928.74     646.0558 
   11950    289.35162   -1026.3253    277104.91   -76605.508    7345.0689   -83950.577    650.16023 
   12000    288.19987   -488.43346    276438.13   -76614.235    7315.8323   -83930.067     651.8736 
   12050    290.20898   -474.51484    275814.22   -76607.364    7366.8326   -83974.196    654.15583 
   12100    294.21302   -156.84116    275598.63   -76588.798    7468.4733   -84057.271    658.13925 
   12150     289.8536   -403.75578    276154.01   -76577.215    7357.8114   -83935.027     661.2343 
   12200    289.33114   -845.74956    277085.61   -76555.884    7344.5491   -83900.433    665.87405 
   12250    293.45871   -985.23534    277315.33   -76521.517    7449.3257   -83970.842    669.97448 
   12300    285.64387   -478.60973    276688.65   -76531.699    7250.9492   -83782.648    672.33941 
   12350    294.56245   -270.36948    275969.57   -76567.113    7477.3436   -84044.456     673.0906 
   12400    288.42572   -433.27012     276172.9   -76605.424    7321.5654    -83926.99    675.78969 
   12450    291.92397   -457.45855    276530.28   -76580.898     7410.367   -83991.265     680.2376 
   12500    289.39622   -489.85511    276599.97   -76545.252    7346.2011   -83891.453    684.11844 
   12550    290.36223    -472.2796    276592.34     -76601.5    7370.7227   -83972.223    687.47832 
   12600    291.91296   -681.73162    276803.79   -76540.807    7410.0875   -83950.895    691.61168 
   12650    288.99308   -806.08697    276681.23   -76554.607    7335.9676   -83890.574    694.81832 
   12700    292.77815   -128.34514    276180.84    -76529.68    7432.0499    -83961.73    697.25255 
   12750    288.05138   -336.56753    276038.28   -76581.664    7312.0629   -83893.727    699.22749 
   12800    293.42001   -518.76642    276176.81   -76608.665    7448.3432   -84057.008    703.19346 
   12850    286.02423   -464.67415    276409.08   -76593.328    7260.6044   -83853.933    706.00492 
   12900    290.91976   -369.45649    276493.96   -76566.791    7384.8755   -83951.667    709.37598 
   12950    291.84447    -471.3892    276616.39   -76580.466    7408.3489   -83988.815    711.63642 
   13000      291.837   -302.29425    276708.57   -76555.201    7408.1592    -83963.36    714.17085 
   13050    290.51973    -817.3904    276725.62   -76538.654    7374.7209   -83913.375    716.80243 
   13100    292.11095   -540.88382    276272.75   -76520.679    7415.1133   -83935.792    717.57681 
   13150    290.71668   -434.66792    275953.52   -76547.267    7379.7202   -83926.987    718.65733 
   13200    293.56892   -556.70049    275962.72   -76568.649    7452.1232   -84020.772    720.82405 
   13250    289.19147   -94.972525    276076.41    -76618.11    7341.0035   -83959.114    722.86249 
   13300    288.13561   -549.07862    276398.59   -76612.462     7314.201   -83926.663     726.2948 
   13350    288.64028   -525.84422    276568.08   -76583.214    7327.0119   -83910.226    728.57169 
   13400    284.25503    -684.5205    276694.52   -76605.793    7215.6942   -83821.487    732.48448 
   13450     288.3084   -542.46997    276616.93   -76631.319    7318.5871   -83949.906    735.29262 
   13500    294.92601   -496.55602    276310.38   -76599.357    7486.5724   -84085.929    738.57597 
   13550    291.51641   -415.14949    276094.04   -76681.924    7400.0213   -84081.945    738.72467 
   13600    286.07785   -360.80764    275969.87   -76681.807    7261.9655   -83943.772    739.64886 
   13650    283.67731   -331.27783    275884.16   -76684.316    7201.0288   -83885.345    742.97472 
   13700    290.19856   -459.37561    276159.67   -76677.361    7366.5681   -84043.929    745.56313 
   13750    284.90552   -550.04493    276615.52   -76647.855    7232.2065   -83880.061     748.5497 
   13800    289.27044   -560.51737    276811.96   -76695.817    7343.0082   -84038.826    751.58123 
   13850    288.43025   -534.20276    276632.61   -76683.564    7321.6803   -84005.244    753.24052 
   13900     294.3797   -283.41653    276258.76    -76666.39    7472.7047   -84139.095    755.66028 
   13950     289.3857   -422.32528    276143.53   -76689.135     7345.934   -84035.069    759.27035 
   14000    289.78199   -187.31162    276101.24   -76633.282    7355.9937   -83989.275     761.2383 
   14050    285.84886   -433.99652    276416.05   -76623.678    7256.1527    -83879.83    763.46442 
   14100    283.80952   -509.09648    276823.66   -76602.479     7204.385   -83806.864    767.11577 
   14150    285.86514   -771.35818    276632.49   -76604.167    7256.5659   -83860.733    768.44974 
   14200     290.2154   -404.15743    276102.34   -76601.071    7366.9955   -83968.067    769.78797 
   14250    291.69984    -263.7565    275825.71   -76524.472    7404.6773   -83929.149    771.16822 
   14300      292.688   -399.20336    276151.71   -76553.338    7429.7615     -83983.1    774.88898 
   14350    289.45305   -354.44551    276750.85   -76544.914    7347.6436   -83892.558    780.49286 
   14400    291.11093   -948.12292    277217.82   -76514.683    7389.7282   -83904.411    784.30308 
   14450    286.43628   -548.45663    277183.05   -76563.132    7271.0643   -83834.196    787.56304 
   14500    286.28007   -446.65742     276808.3   -76571.438    7267.0989   -83838.537    789.94488 
   14550    291.56111   -436.20477    276484.29   -76619.558    7401.1558   -84020.714    792.15727 
   14600     289.4619   -398.01186     276190.6   -76614.826    7347.8684   -83962.694    796.30873 
   14650    289.30952   -701.28097    276232.05    -76628.83    7344.0001    -83972.83    800.56299 
   14700    292.17085   -505.55679    276460.88    -76596.49    7416.6338   -84013.123    804.55259 
   14750    290.69335   -159.16917    276553.89   -76606.254    7379.1282   -83985.382    806.78524 
   14800    286.94821   -672.54259    276672.84   -76651.838    7284.0593   -83935.897    810.59344 
   14850    291.11416   -561.02112    276305.64   -76673.728    7389.8103   -84063.538    813.41529 
   14900    285.48242   -394.36941    276112.43   -76672.253    7246.8509   -83919.104    814.36123 
   14950    280.22327   -555.01462    276222.62   -76742.481    7113.3495   -83855.831    817.55204 
   15000    285.35672   -386.78254    276424.03   -76727.967    7243.6601   -83971.627    820.77619 
   15050    286.26853   -676.29969    276581.73   -76728.341     7266.806   -83995.147    823.79848 
   15100    290.56967     -616.412    276500.04   -76701.626    7375.9885   -84077.615    826.13235 
   15150    283.07202    -683.1543    276322.25   -76709.568     7185.664   -83895.232    828.78802 
   15200    285.28308   -264.66033    276014.05   -76700.236    7241.7907   -83942.027    830.68305 
   15250    286.58539   -274.89109     276047.3   -76709.238    7274.8494   -83984.087    833.16504 
   15300    287.49983   -476.68894    276235.82   -76666.486     7298.062   -83964.548    838.13268 
   15350    285.61819   -471.42127    276438.01   -76663.528    7250.2973   -83913.826    841.55343 
   15400    289.24896   -604.14671    276538.71   -76626.129    7342.4628   -83968.592    844.68497 
   15450    283.33138   -867.52806    276695.22   -76630.735    7192.2477   -83822.983     847.3965 
   15500    294.55634   -415.05735    276537.21   -76623.288    7477.1885   -84100.477    850.58193 
   15550    289.29455    -509.8297    276477.21   -76628.291    7343.6201   -83971.911    854.39684 
   15600    283.70512   -520.74052    276728.23   -76619.202    7201.7348   -83820.936    857.10035 
   15650    288.61911   -671.30886    276891.76   -76629.807    7326.4744   -83956.281    858.50554 
   15700    287.68239   -720.35742    276627.55   -76603.088    7302.6962   -83905.784    859.80291 
   15750    292.69761   -410.05125    276095.43   -76618.264    7430.0055    -84048.27    861.69386 
   15800    292.55549   -605.80529    275895.12    -76621.79    7426.3979   -84048.187    862.19416 
   15850    291.96022   -546.03093    275923.55   -76599.437     7411.287   -84010.724    864.40999 
   15900    287.11122   -350.52093    276357.95   -76601.742    7288.1972   -83889.939    868.87356 
   15950    289.62753   -598.34364    276654.59   -76566.037    7352.0728    -83918.11    871.59888 
   16000    290.55101   -635.06514    276912.59   -76533.123    7375.5149   -83908.638    875.07144 
   16050    295.28624   -745.68962    277083.37   -76490.195    7495.7166   -83985.912    877.37407 
   16100    289.76963   -676.99355    277046.45   -76487.997    7355.6799   -83843.677    878.57567 
   16150    290.99672    -692.6795    276775.91   -76484.885    7386.8289   -83871.714    878.74935 
   16200    292.25243   -385.76973    276328.37   -76440.871    7418.7048   -83859.576    880.46275 
   16250    291.65924   -488.70055    276115.22   -76426.736    7403.6469   -83830.383    883.27341 
   16300    290.30746   -427.74053    276271.78   -76447.028    7369.3324    -83816.36    886.41247 
   16350    291.88712   -416.05458    276852.82   -76463.576    7409.4314   -83873.007    890.91835 
   16400    296.29979   -819.80745    277380.07   -76443.863    7521.4452   -83965.308    894.30265 
   16450    295.45427   -587.95692    276992.06   -76483.616     7499.982   -83983.598    897.31713 
   16500    291.18792   -361.66767    276333.11   -76456.312    7391.6826   -83847.994     897.4241 
   16550    295.40259   -178.64879    276053.62   -76431.684    7498.6702   -83930.354    897.81754 
   16600    295.00963    -475.9723    276140.05   -76413.288    7488.6951   -83901.983    900.82556 
   16650    297.63662   -388.98345    276513.19   -76363.673    7555.3801   -83919.053    904.18282 
   16700     290.0032   -669.74951    276977.41   -76441.244    7361.6089   -83802.853    907.37346 
   16750    289.16399   -701.34749    277095.68   -76460.712    7340.3061   -83801.018    909.29932 
   16800    291.94468   -636.58435    276585.98   -76478.878    7410.8926    -83889.77    911.81496 
   16850    290.44251   -503.36927    276065.85   -76513.853    7372.7606   -83886.614     913.5833 
   16900     290.9122   -102.70983    275988.83   -76506.008    7384.6835   -83890.692    914.44563 
   16950    294.85208   -480.71174    276616.43   -76459.075    7484.6957   -83943.771    919.66742 
   17000    293.29329   -867.19224    277051.35   -76488.033    7445.1266   -83933.159    923.22344 
   17050    290.31282   -598.85298    276748.98   -76457.344    7369.4685   -83826.813    923.50113 
   17100    294.98386   -306.20835    276419.45   -76469.067     7488.041   -83957.108     923.6525 
   17150    295.42189   -377.04434    276459.64   -76411.756    7499.1602   -83910.916    928.03848 
   17200    291.62157   -542.70797    276672.89   -76363.259    7402.6907   -83765.949    929.46285 
   17250    295.40731   -605.01012    277010.96   -76363.992    7498.7899   -83862.782    931.89014 
   17300    293.20244   -645.46385    277021.77   -76314.753    7442.8204   -83757.574      933.233 
   17350    290.87854   -378.28778    276462.92   -76362.396    7383.8292   -83746.225     936.2858 
   17400    291.75117   -66.593145    276115.27   -76384.537    7405.9805   -83790.518    938.86712 
   17450    292.82452   -474.48352    276423.68    -76344.56     7433.227   -83777.787    942.20856 
   17500    294.46044   -860.51447    276692.53   -76398.178    7474.7541   -83872.932    944.66355 
   17550     294.7108   -271.60505    276758.99   -76448.907    7481.1094   -83930.017    948.71555 
   17600    292.48506   -583.50601    276745.85   -76418.513      7424.61   -83843.123    952.19901 
   17650    293.33034   -576.55467    276538.55   -76363.219    7446.0671   -83809.286    953.79294 
   17700    291.14976   -459.34336    276314.47   -76343.514    7390.7138   -83734.228    955.28723 
   17750    295.04844   -574.46145    276664.51    -76335.44    7489.6803    -83825.12     958.3202 
   17800    294.06109   -491.77562    276980.73   -76335.612    7464.6168   -83800.229    961.47404 
   17850     290.2621   -591.89596    277156.86   -76355.929    7368.1811    -83724.11    964.86712 
   17900    291.41764   -781.75133    277083.24   -76384.699     7397.514   -83782.213    968.41068 
   17950    291.74522   -487.11802    276603.27   -76407.824    7405.8294   -83813.653    968.16345 
   18000    289.14241   -429.95985    276146.25   -76470.064     7339.758   -83809.822    968.93577 
   18050    292.77543   -407.50225    276111.59   -76505.214    7431.9809   -83937.195    971.71652 
   18100    290.88541   -417.31577    276323.79   -76544.019    7384.0034   -83928.023    973.68719 
   18150    294.28501   -447.36044    276487.12   -76576.577    7470.3009   -84046.878    976.79422 
   18200     294.5202   -592.83278    276471.72   -76525.552    7476.2711   -84001.823    980.83048 
   18250    291.53362    -216.2831    276463.76   -76469.606    7400.4579   -83870.063    983.43351 
   18300    292.45583   -456.41285    276702.55    -76449.99    7423.8679   -83873.858    986.52689 
   18350     286.1506   -655.40085    276912.15   -76432.504    7263.8124   -83696.316    988.05097 
   18400     293.9829   -732.33347    276614.16   -76443.227    7462.6319   -83905.859    989.11565 
   18450    292.83223   -431.21312    276097.91   -76473.955    7433.4226   -83907.377    989.85367 
   18500    291.60023   -295.17855    276031.44   -76447.956    7402.1488   -83850.105    992.98983 
   18550    290.73695   -657.63635    276372.14   -76415.362    7380.2348   -83795.596     996.1012 
   18600    295.32216   -555.82636    276519.95   -76382.694    7496.6286   -83879.323    1000.0081 
   18650    295.36103   -601.71146    276726.18   -76403.076    7497.6151   -83900.691    1001.9627 
   18700    292.28534   -669.31214    276923.57   -76415.171    7419.5401   -83834.711       1005.4 
   18750    292.71196   -426.90001    276830.64   -76341.819    7430.3698   -83772.189    1006.0166 
   18800    291.30898   -312.01642    276343.05   -76355.963    7394.7557   -83750.719    1008.8098 
   18850    294.29476   -263.15582    276113.43   -76389.435    7470.5484   -83859.983    1009.7322 
   18900    293.39238    -553.6874     276675.2   -76413.181    7447.6418   -83860.823    1014.6187 
   18950    291.02757   -538.96359    277060.67   -76441.741    7387.6123   -83829.353    1018.9891 
   19000     298.6762   -697.23259     276800.7   -76418.526    7581.7694   -84000.295    1022.0323 
   19050    293.50477   -383.58625    276223.21   -76396.276    7450.4948    -83846.77    1023.1818 
   19100    292.13086   -249.27211    275829.82   -76441.468    7415.6187   -83857.087    1024.0052 
   19150     295.9762   -266.42364    276083.95   -76411.151    7513.2311   -83924.382     1027.835 
   19200    294.26361   -735.74121    276856.21   -76427.651    7469.7577   -83897.408    1032.4864 
   19250    289.69133   -555.57037    277155.42    -76400.99    7353.6922   -83754.683    1035.4601 
   19300    288.34393   -217.09139    277088.97   -76420.183    7319.4891   -83739.672    1037.8991 
   19350    291.36449   -654.50281    276825.72   -76447.668    7396.1648   -83843.833    1038.8159 
   19400    292.57672    -278.8794    276236.75   -76467.372    7426.9366   -83894.309    1038.2351 
   19450    294.29145   -460.97201    275969.35   -76495.094    7470.4644   -83965.558    1038.8396 
   19500    293.13202   -519.81216    276130.21    -76561.07    7441.0328   -84002.103    1041.0399 
   19550    296.16063   -490.63945     276418.7   -76492.843    7517.9127   -84010.756    1043.7907 
   19600    292.59943   -645.58771    276723.89   -76479.784    7427.5132   -83907.298    1048.4909 
   19650    290.88512   -430.14852    276768.84   -76440.161    7383.9961   -83824.157    1051.2477 
   19700    297.20875    -502.5872    276518.54   -76392.675    7544.5187   -83937.194    1051.8538 
   19750    287.73389   -337.63751    276177.97   -76414.127    7304.0035   -83718.131    1052.3192 
   19800    291.71365   -305.05656    276142.81   -76440.979     7405.028   -83846.007    1054.3118 
   19850    293.14211   -511.69741    276565.72   -76414.197     7441.289   -83855.486    1058.1438 
   19900    293.35937   -240.76545    276977.29   -76355.587     7446.804   -83802.391    1062.8863 
   19950     293.8239   -567.55378    276935.01   -76360.612    7458.5958   -83819.208    1065.3063 
   20000    295.71121   -609.47083    276557.67   -76329.503    7506.5045   -83836.007       1065.7 
   20050    297.73546   -518.45006    276282.84   -76376.066     7557.889   -83933.955    1067.7361 
   20100    296.91001   -357.26127    276162.06   -76407.059    7536.9354   -83943.994    1071.6715 
   20150    294.48605   -540.56844    276420.02   -76438.521    7475.4041   -83913.925    1075.9055 
   20200    293.73018    -621.6852    276690.57   -76433.057    7456.2168   -83889.274    1077.9125 
   20250    291.53534   -670.94018    276775.93   -76456.807    7400.5017   -83857.309    1080.6637 
   20300    291.35053   -626.64876    276725.14   -76433.152    7395.8104   -83828.963    1085.7741 
   20350    295.00739   -326.37587    276701.96   -76432.065    7488.6382   -83920.703    1087.3899 
   20400    294.81341   -808.70315    276927.66   -76407.619    7483.7141   -83891.333    1090.0171 
   20450    294.60489   -604.21156    276730.54   -76354.251    7478.4208   -83832.672    1092.2421 
   20500    295.40778   -299.08504    276281.74   -76360.907    7498.8019   -83859.709    1091.7709 
   20550    296.74415   -266.98055    276220.71   -76354.376    7532.7252   -83887.101     1093.898 
   20600    292.65128   -472.70884     276727.6   -76340.127    7428.8293   -83768.957     1098.388 
   20650    288.37315   -585.06134    277319.46   -76284.606    7320.2308   -83604.837    1103.5867 
   20700    294.98458    -700.3517    277358.66   -76367.416    7488.0592   -83855.475    1106.6881 
   20750    292.14446   -241.25018     276738.8   -76369.167    7415.9638   -83785.131    1108.0938 
   20800    293.14516   -232.21773    276364.29   -76355.574    7441.3662   -83796.941    1108.8831 
   20850    292.08114   -469.50394    276610.11   -76354.464    7414.3565   -83768.821    1112.9476 
   20900    294.79168   -608.27444    276919.91   -76278.582    7483.1625   -83761.745    1115.5915 
   20950    292.02478   -655.03115    276969.23   -76329.832    7412.9258   -83742.758     1117.262 
   21000    292.64324   -491.77729    276629.97   -76356.712    7428.6252   -83785.337    1120.5152 
   21050    292.41907    -52.32877    276326.99   -76307.212    7422.9347   -83730.147    1122.4011 
   21100    299.17139   -423.03898    276360.04   -76299.589    7594.3397   -83893.928    1125.0387 
   21150    293.60142   -418.94366     276625.4   -76336.396    7452.9482   -83789.344     1128.543 
   21200    296.17371   -322.48293    276801.64   -76364.358    7518.2447   -83882.603    1133.2358 
   21250    293.81337   -835.33494    277024.21   -76396.973    7458.3285   -83855.302    1137.6156 
   21300    295.52875   -613.51551    276741.31   -76390.281    7501.8727   -83892.154    1138.6995 
   21350    292.08721   -642.21781    276449.62    -76460.24    7414.5107    -83874.75    1139.4859 
   21400    291.16217   -547.52886    276312.08   -76460.705     7391.029   -83851.734    1142.7745 
   21450    293.05841   -380.75163    276468.46   -76445.067    7439.1641   -83884.231    1145.9695 
   21500    295.11548    -502.1168    276797.64   -76416.041    7491.3819   -83907.423    1151.2559 
   21550    297.08941   -649.20172    276930.51   -76423.118    7541.4894   -83964.608    1154.0555 
   21600     293.0308    -322.2554    276806.67   -76474.005    7438.4633   -83912.468    1156.5475 
   21650    290.00661   -563.84445    276699.62   -76480.356    7361.6956   -83842.052     1157.584 
   21700    293.91166   -610.94612    276342.87   -76456.856    7460.8235    -83917.68     1158.481 
   21750    287.25073    -297.8568    276092.51   -76458.415    7291.7385   -83750.153    1160.3126 
   21800    289.66047   -506.95916    276258.56   -76474.168    7352.9089   -83827.077    1162.9967 
   21850    291.64121   -814.51514     276796.1   -76469.628    7403.1893   -83872.817    1167.7398 
   21900     291.8053   -747.09613    277106.71    -76439.51    7407.3544   -83846.864    1169.4785 
   21950    297.05675   -618.13208    277044.67    -76458.99    7540.6604   -83999.651    1170.6556 
   22000    297.84236   -469.10381    276647.28   -76414.159    7560.6028   -83974.762    1172.6695 
   22050    293.03245   -420.46093    276462.25   -76402.385    7438.5053   -83840.891    1174.4557 
   22100    296.76609   -619.69154    276583.07   -76385.091     7533.282   -83918.373    1177.2439 
   22150    297.56818   -262.86384    276620.39   -76378.105    7553.6427   -83931.747     1179.198 
   22200    291.65224   -317.09539    276650.07     -76362.1    7403.4691   -83765.569    1180.9378 
   22250    290.62865   -412.48407    276740.27   -76381.517    7377.4858   -83759.003    1185.1676 
   22300    293.59889   -252.81841    276789.91   -76411.372    7452.8841   -83864.256    1189.7053 
   22350    293.93354   -566.49271    276888.62   -76418.451     7461.379    -83879.83    1193.1483 
   22400    291.05901   -579.27557    276786.36   -76444.245    7388.4102   -83832.656    1194.7925 
   22450     289.3097   -284.28333    276195.52   -76421.032    7344.0049   -83765.037    1194.4459 
   22500    297.12595    21.492561    275930.83   -76352.997    7542.4169   -83895.413    1196.6233 
   22550    295.07169   -522.42302    276311.87   -76386.251    7490.2704   -83876.521    1200.0723 
   22600    292.95533   -592.81984     276635.1   -76412.914    7436.5476   -83849.462    1204.2584 
   22650    296.59871   -661.51623    277031.21    -76396.89    7529.0332   -83925.923    1209.9441 
   22700     293.9693   -459.32412    276967.85   -76405.282    7462.2866   -83867.568    1213.6747 
   22750    292.74606    -302.6775    276738.31   -76377.595    7431.2353   -83808.831    1214.0941 
   22800     285.9704   -151.50741    276442.97    -76392.86     7259.238   -83652.098    1216.2219 
   22850    293.61432   -293.36942    276296.28   -76383.789    7453.2757   -83837.065    1218.5419 
   22900    294.90058   -405.94964    276467.11   -76332.088    7485.9268   -83818.015    1221.6563 
   22950    292.83905   -641.96396     276797.3   -76341.363    7433.5959   -83774.959    1224.2284 
   23000    292.08291   -531.47806    276934.15    -76402.44    7414.4016   -83816.842    1227.0124 
   23050    295.03291   -408.71225    276477.04   -76394.581     7489.286   -83883.867     1228.387 
   23100    293.81599   -80.033961    275904.03   -76444.022    7458.3949   -83902.417    1228.5512 
   23150    291.92003    -393.1824     276173.5   -76447.291    7410.2668   -83857.557    1230.5927 
   23200    293.69141   -384.49328    276618.22   -76408.821    7455.2325   -83864.054    1233.5879 
   23250    293.68318   -854.28634    276986.65   -76396.832    7455.0238   -83851.856    1236.9077 
   23300    292.04207   -694.02975     276810.6   -76407.971    7413.3648   -83821.336    1237.9465 
   23350    291.84028   -511.40072    276533.47   -76425.984    7408.2424   -83834.226    1237.0727 
   23400    294.13045   -466.79358    276456.11   -76411.543    7466.3774   -83877.921     1238.135 
   23450    290.23032   -661.78849    276409.53   -76431.107    7367.3743   -83798.481    1240.6293 
   23500    295.69364   -444.95822    276381.75   -76466.143    7506.0583   -83972.202    1244.1481 
   23550    296.76572    -406.0316     276702.6   -76461.281    7533.2728   -83994.554    1245.0826 
   23600    293.67714   -873.21491    277166.31    -76466.12    7454.8704   -83920.991    1246.8907 
   23650    288.67768   -533.56137    277024.38   -76493.657    7327.9612   -83821.618    1248.6148 
   23700    290.58013   -316.25988    276589.21   -76513.612    7376.2542   -83889.866    1248.6067 
   23750    291.69852   -600.12027    276512.85   -76510.533     7404.644   -83915.177    1251.5805 
   23800     295.1132   -585.10047    276404.02   -76488.227     7491.324   -83979.551    1251.3362 
   23850    289.58882    -501.6806    276432.03   -76446.427      7351.09   -83797.517     1254.231 
   23900    290.42483   -812.43802     276814.7   -76458.852    7372.3119   -83831.164    1256.4338 
   23950    292.99514   -614.69319    276929.83   -76500.543    7437.5581   -83938.101    1258.2028 
   24000    292.95263     -465.588    276891.78    -76485.39    7436.4791   -83921.869    1260.8825 
   24050    295.39843   -621.76842     276686.8   -76484.444    7498.5645   -83983.008    1263.4557 
   24100     291.9704   -367.10087    276441.46   -76487.873    7411.5455   -83899.419    1264.5467 
   24150    299.09413   -515.88577     276564.8   -76466.611    7592.3784   -84058.989    1267.2342 
   24200    292.22541   -734.61193    276861.08   -76464.227    7418.0187   -83882.245    1270.2789 
   24250    289.78096   -427.71497    276750.87    -76394.47    7355.9674   -83750.438    1272.5758 
   24300    293.42276   -482.13229    276838.96   -76427.009    7448.4132   -83875.422    1278.0417 
   24350    288.39267   -582.60881    277027.51   -76459.437    7320.7263   -83780.164      1282.24 
   24400    290.45852   -283.94939    276869.27   -76473.788     7373.167   -83846.955    1285.7554 
   24450    288.58339   -339.10154    276320.14   -76486.445    7325.5677   -83812.012    1287.1172 
   24500    290.50131   -193.50436    276203.32   -76487.979    7374.2533   -83862.233    1288.9985 
   24550    289.82781   -384.60866    276604.38    -76514.71    7357.1567   -83871.867    1291.3858 
   24600    291.45537   -670.29305    276920.79   -76531.114    7398.4718   -83929.586    1294.8633 
   24650    291.28788    -856.0729    276745.51   -76526.115      7394.22   -83920.335    1296.6546 
   24700    288.36451   -301.27876    276074.82   -76530.626    7320.0115   -83850.638    1296.7037 
   24750    289.09594   -626.69671    275911.42   -76518.641    7338.5786    -83857.22    1300.2153 
   24800    290.29798    -324.1271    276119.13   -76540.894    7369.0918   -83909.986    1304.1578 
   24850      292.157   -526.65806    276754.08   -76538.387    7416.2823   -83954.669    1309.0829 
   24900    285.69403   -603.54992    277064.26   -76567.311    7252.2224   -83819.533    1313.2726 
   24950    289.35561    -505.8877    276649.36    -76574.08    7345.1701    -83919.25    1314.2066 
   25000    287.87582   -495.75767    276126.41   -76544.483    7307.6064   -83852.089    1316.7247 
   25050    292.95628   -133.10409    275947.88   -76528.852    7436.5717   -83965.424    1319.2749 
   25100    286.28877   -373.33652    276337.62   -76546.931    7267.3198    -83814.25    1323.6556 
   25150    289.85419   -694.14173     276917.4   -76522.442    7357.8264   -83880.269    1326.5324 
   25200    291.97554   -680.68988     277081.8   -76488.354     7411.676    -83900.03    1329.8953 
   25250    293.29979   -526.21884    276508.89   -76476.286    7445.2916   -83921.578    1330.9126 
   25300    294.27224   -397.06243    275947.48   -76446.988    7469.9767   -83916.965    1331.9203 
   25350    290.97877   -626.37261    276315.59   -76459.497    7386.3735    -83845.87    1333.8745 
   25400    288.48254   -359.54953    276846.72   -76478.629    7323.0078   -83801.636    1337.3789 
   25450    293.02021   -674.98376    277013.58   -76499.074    7438.1946   -83937.268    1340.4231 
   25500    293.26527   -543.50336    276330.64   -76520.012    7444.4151   -83964.427    1342.7866 
   25550    293.90496   -195.05611    275771.96   -76528.548    7460.6536   -83989.202    1342.3164 
   25600    289.60344   -226.22466    275986.37   -76542.002    7351.4611   -83893.463    1345.9525 
   25650    294.53477   -493.69401    276430.83   -76526.542     7476.641   -84003.183    1349.4203 
   25700    288.81564   -723.79286    276845.75   -76487.901    7331.4633   -83819.365    1353.5275 
   25750    291.59343   -466.09761    276715.59   -76508.661    7401.9764   -83910.638    1354.1891 
   25800    292.17973   -465.54761    276580.39   -76486.436    7416.8592   -83903.295    1355.9529 
   25850     296.8267    -552.3414    276624.69   -76488.719    7534.8207    -84023.54    1358.5704 
   25900    290.38451   -631.05989    276528.87    -76519.17    7371.2882   -83890.459    1360.0455 
   25950    290.60657   -194.42763    276025.36   -76545.666    7376.9253   -83922.592    1358.9264 
   26000    290.20549   -197.71582    275977.56   -76578.619    7366.7441   -83945.363    1362.3572 
   26050      292.432   -649.18771    276493.35   -76576.639     7423.263   -83999.902    1365.2261 
   26100    289.89105   -635.54475     276981.5   -76590.427     7358.762   -83949.189    1368.9447 
   26150    290.10588   -702.41328    276895.37   -76521.251    7364.2156   -83885.466    1369.4557 
   26200    294.20131   -445.32817    276302.88   -76523.487    7468.1763   -83991.663    1368.6453 
   26250    293.49348   -490.75923    276194.55   -76484.887    7450.2082   -83935.095    1370.7157 
   26300    293.68988    -205.9761    276388.24   -76484.705    7455.1938   -83939.898     1373.937 
   26350    290.65337    -538.0693    276901.79   -76426.075    7378.1132   -83804.188    1378.1619 
   26400    291.31269   -614.40109    276921.62   -76426.821    7394.8498   -83821.671    1380.7475 
   26450    292.22015   -455.95579    276685.05    -76472.05    7417.8852   -83889.935    1382.5279 
   26500    298.05016   -542.84664    276666.86    -76446.43    7565.8777   -84012.307     1385.144 
   26550    290.97884   -682.68093    276783.38    -76480.99    7386.3751   -83867.365      1387.61 
   26600    292.62563   -523.55999    276610.56   -76466.305    7428.1782   -83894.483    1390.3017 
   26650    288.93792   -804.32543    276420.78    -76497.13    7334.5674   -83831.697    1394.0982 
   26700    286.09952   -115.29243    276333.28   -76552.474    7262.5158    -83814.99    1394.5978 
   26750    286.21524   -624.56415    276667.48   -76577.565    7265.4531   -83843.018    1398.2058 
   26800    289.90593   -636.88543    276914.99   -76581.817    7359.1399   -83940.957    1400.8765 
   26850    290.37672    -590.4052    276628.39   -76618.807    7371.0907   -83989.897    1401.5426 
   26900    289.35449   -305.06836    275986.08   -76647.212    7345.1416   -83992.354    1400.8346 
   26950     286.8919    -482.0689    276015.72   -76637.351    7282.6299   -83919.981    1404.8042 
   27000    289.46566   -648.70446    276382.93   -76648.747    7347.9637    -83996.71    1411.3792 
   27050    289.97606   -604.52392    276551.91   -76648.245      7360.92   -84009.165    1413.5696 
   27100    286.39775   -579.30409    276447.23    -76682.63    7270.0862   -83952.716     1415.015 
   27150    285.89896   -265.19583    276140.72   -76592.682    7257.4246   -83850.106    1417.7981 
   27200    290.28292   -401.49858    275986.59   -76596.401    7368.7095    -83965.11    1418.4253 
   27250    292.94307   -498.05249    276096.92   -76600.951    7436.2364   -84037.188    1421.7077 
   27300    293.91849   -553.67993    276425.22   -76586.032    7460.9968   -84047.029     1425.968 
   27350    288.08686   -396.88449    276882.36   -76584.926    7312.9634    -83897.89    1429.7272 
   27400    289.43081   -719.87686     276997.2   -76545.143     7347.079   -83892.222    1430.0255 
   27450    294.02801   -381.53481    276474.58   -76514.293    7463.7771    -83978.07     1430.221 
   27500    291.97735    -438.7355    276051.54   -76478.583    7411.7218   -83890.305    1431.8706 
   27550    292.33465   -588.15919    276256.21   -76464.606    7420.7918   -83885.398    1434.6769 
   27600     294.0846   -338.53085    276553.99   -76448.857    7465.2136   -83914.071    1439.0277 
   27650    293.16741    -657.8661    277036.38   -76475.585     7441.931   -83917.516    1443.6923 
   27700    287.84078   -523.40397    277090.15   -76475.167    7306.7169   -83781.884    1444.1491 
   27750    289.69535    -425.8968    276648.02   -76436.679    7353.7943   -83790.473    1445.4353 
   27800    295.91763   -227.54685    275800.48   -76504.931    7511.7442   -84016.675    1443.6177 
   27850    295.57263   -144.19325    275910.34   -76482.624    7502.9865   -83985.611    1446.0986 
   27900    289.07671   -427.01887    276739.58   -76399.148    7338.0905   -83737.238    1450.7622 
   27950    293.04677   -854.95611    277432.67   -76398.514    7438.8688   -83837.383     1457.503 
   28000    295.16412    -723.5267    277186.59   -76406.003    7492.6168    -83898.62    1458.2003 
   28050    295.00293   -289.41386    276158.48   -76391.859    7488.5251   -83880.384    1456.3204 
   28100    293.04783    -257.1654     275489.4   -76396.679    7438.8956   -83835.575    1455.8883 
   28150    296.02782   -461.31337    275777.36   -76435.879    7514.5413    -83950.42     1457.535 
   28200    289.43239   -369.41482    276611.84    -76463.85    7347.1191   -83810.969    1461.7938 
   28250    290.27924   -746.72233    277312.93   -76396.472     7368.616   -83765.088    1469.6321 
   28300    291.55037   -665.92926    277430.23   -76400.651    7400.8833   -83801.534    1473.2019 
   28350    289.90305   -494.86213     277000.7   -76429.623    7359.0667   -83788.689     1474.306 
   28400    296.52255    -279.2653     276306.3   -76436.379    7527.0998   -83963.479    1473.2006 
   28450    295.62855   -287.44559    276112.67   -76434.981    7504.4061   -83939.387    1475.1984 
   28500    297.12247   -508.09198    276306.66   -76385.109    7542.3286   -83927.438    1479.6148 
   28550    294.51904   -395.48627    276643.19   -76348.235    7476.2416   -83824.476    1483.7635 
   28600    293.77639   -530.59411    276806.19   -76303.258    7457.3897   -83760.648    1484.7086 
   28650    295.06955   -442.56934    276805.03   -76319.127    7490.2161   -83809.343    1486.0252 
   28700    293.16325   -779.21973    276913.29   -76272.222    7441.8254   -83714.048    1487.7714 
   28750    293.02031    -405.6776    276683.83   -76305.517     7438.197   -83743.714     1488.032 
   28800    292.80941   -495.36999    276568.25   -76380.793    7432.8435   -83813.636    1489.1211 
   28850    294.56635   -595.63115    276658.79   -76390.231    7477.4425   -83867.673    1491.3644 
   28900    295.02225   -630.89216    276641.54   -76401.641    7489.0154   -83890.656    1492.7683 
   28950    291.67527   -348.79135    276648.25   -76413.059    7404.0537   -83817.112    1495.2945 
   29000    295.93735   -790.13019    276616.06   -76456.606    7512.2449   -83968.851    1497.9642 
   29050    292.86412   -361.65831    276703.12   -76460.757    7434.2323   -83894.989    1500.0693 
   29100    292.22451   -767.72084     276769.2   -76446.073    7417.9959   -83864.069    1503.2404 
   29150    292.91853   -644.07972    276778.21   -76456.001    7435.6134   -83891.614    1505.8271 
   29200    292.42349    -348.3894    276584.78   -76453.254    7423.0471   -83876.301    1507.9409 
   29250     296.5773   -647.34211     276536.6   -76405.588    7528.4898   -83934.078    1509.6826 
   29300    290.84203   -447.16389    276527.16   -76448.406    7382.9023   -83831.309    1510.9505 
   29350    290.78049    -890.3078    276477.61   -76481.788    7381.3402   -83863.128    1513.4686 
   29400    294.23413   -396.38255    275928.14   -76508.174    7469.0093   -83977.183    1513.3906 
   29450    294.13842   -322.15875    275848.95   -76511.718    7466.5798   -83978.297    1515.5172 
   29500    294.32882   -353.84009    276350.11    -76518.63    7471.4131   -83990.043     1520.075 
   29550    294.74925   -681.20149     277148.2   -76474.233    7482.0854   -83956.318    1525.2808 
   29600    291.69167   -870.59675    277472.46   -76434.768    7404.4702   -83839.238    1528.9469 
   29650    298.59663   -298.74598    277015.22   -76417.433    7579.7496   -83997.183    1531.0804 
   29700    290.45337   -648.07912    276327.86   -76450.967    7373.0362   -83824.003    1532.2607 
   29750    291.90139    3.5538853    275943.53   -76436.092    7409.7937   -83845.886    1532.4808 
   29800    292.12988   -277.69245    276383.24   -76413.289    7415.5939   -83828.883    1538.2978 
   29850    291.58075    -641.5038    276783.13   -76403.975    7401.6545   -83805.629     1543.819 
   29900    291.14124    -564.3268    276853.65   -76358.408    7390.4977   -83748.905    1544.8128 
   29950    296.99889   -514.73197    276798.12    -76359.19    7539.1917   -83898.382    1547.3786 
   30000    293.03206   -549.94063     276605.1   -76392.748    7438.4953   -83831.244    1550.0891 
   30050    290.70709   -381.79765    276506.38   -76420.503    7379.4769    -83799.98    1553.5316 
   30100    288.80073   -548.73959    276741.87    -76370.89    7331.0848   -83701.974    1556.9118 
   30150    295.46066   -548.90363    276734.24   -76370.145    7500.1444   -83870.289      1562.32 
   30200    298.95019   -348.44491    276421.52   -76382.415    7588.7246    -83971.14    1567.4724 
   30250    295.83864   -620.57056    276312.29   -76390.855    7509.7391   -83900.594    1568.9999 
   30300    294.06173   -501.49136    276581.47   -76371.603     7464.633   -83836.236    1569.6422 
   30350    294.43629    -359.6172    276915.07   -76391.173     7474.141   -83865.314    1572.9228 
   30400     292.9281   -731.75594    277266.81   -76457.365    7435.8563   -83893.222    1576.0486 
   30450    294.54749   -675.56918    276929.87   -76487.931    7476.9638   -83964.895     1576.187 
   30500    295.55772   -321.08642    276226.46   -76438.485    7502.6081   -83941.093    1575.8159 
   30550    295.29666   -478.85463    276057.45   -76439.586    7495.9812   -83935.567    1577.6726 
   30600    289.40954   -402.75202    276445.61   -76473.008    7346.5391   -83819.547    1581.8437 
   30650    291.70468   -496.32575    276947.09   -76493.906    7404.8002   -83898.706    1584.3872 
   30700    292.51045   -538.87629    277111.77   -76486.007    7425.2544   -83911.262    1588.2376 
   30750    290.25761    -654.6313    276900.43   -76521.126    7368.0669   -83889.193    1589.0395 
   30800    289.59381   -200.21229    276528.21   -76566.747    7351.2168   -83917.963    1591.0034 
   30850    293.95959   -562.36256    276304.95   -76586.425    7462.0403   -84048.466    1592.5758 
   30900    291.24947    -275.8993    276223.31   -76564.747    7393.2451   -83957.992    1596.1081 
   30950    290.29625   -581.86439    276835.82   -76576.979    7369.0478   -83946.027    1600.4052 
   31000    288.13968   -653.66273    277143.07   -76575.695    7314.3042   -83889.999    1603.3122 
   31050    288.91096   -668.22598    276791.62   -76565.667     7333.883    -83899.55     1603.605 
   31100    288.18648   -124.85957    276065.27   -76542.597    7315.4924   -83858.089    1604.3891 
   31150      289.328   -252.28034    275872.01   -76510.031    7344.4694     -83854.5     1604.809 
   31200    292.75256   -632.97914    276177.94   -76498.684    7431.4002   -83930.084    1606.5678 
   31250     294.4326   -499.12344    276574.42   -76502.662    7474.0475   -83976.709    1609.5711 
   31300    296.07925   -367.48892    276739.26   -76499.427     7515.847   -84015.274    1611.9578 
   31350    289.50292   -263.53663    276827.96   -76522.646    7348.9095   -83871.555    1615.4873 
   31400    292.04962    -849.5656    276633.83   -76546.284    7413.5564    -83959.84     1615.738 
   31450    291.08607   -473.53275    276111.73   -76534.091    7389.0971   -83923.189     1614.019 
   31500    292.72814   -447.59494    275990.71   -76535.873    7430.7805   -83966.654    1617.3414 
   31550    291.02162   -300.72793    276042.53   -76547.723    7387.4612   -83935.184    1619.9803 
   31600    292.44021   -418.56316    276251.77   -76572.885    7423.4715   -83996.356    1623.3049 
   31650    290.91278   -799.18194    276591.95   -76507.881    7384.6983    -83892.58    1626.9458 
   31700    295.84132   -619.13775    276640.49   -76524.205    7509.8072   -84034.012    1629.5658 
   31750    287.58038    -400.6298    276613.35   -76518.102    7300.1066   -83818.208     1630.194 
   31800    294.86812   -470.91003    276653.34    -76526.61    7485.1029   -84011.712    1632.0663 
   31850    291.48992   -802.69359    276647.88   -76568.035    7399.3487   -83967.384     1632.393 
   31900    289.15058   -624.74092    276394.58   -76591.694    7339.9655    -83931.66    1632.3434 
   31950     290.6065    -273.0434    276197.28   -76555.506    7376.9235    -83932.43    1633.5872 
   32000    288.47144   -525.95638    276305.99   -76574.998     7322.726   -83897.724     1637.569 
   32050    293.73324   -345.27534    276257.04   -76596.173    7456.2945   -84052.468    1641.1871 
   32100    290.93505   -489.67931    276510.64   -76569.537    7385.2637     -83954.8    1646.1907 
   32150    288.01429   -616.08584    276889.73   -76612.558    7311.1213    -83923.68     1649.842 
   32200    290.27115   -669.52379    277034.27   -76573.191    7368.4108   -83941.602    1652.8939 
   32250    287.74375   -485.46002    276796.73    -76552.75    7304.2538   -83857.004    1653.9816 
   32300    292.73706   -571.97549    276348.51   -76576.088    7431.0067   -84007.095    1653.1893 
   32350    293.42068   -340.33927    276078.02    -76576.22    7448.3604    -84024.58    1655.1506 
   32400    285.25745   -302.75544     276401.2   -76564.145    7241.1401   -83805.285    1659.1912 
   32450    291.69452   -782.35399    277070.22   -76597.827    7404.5424    -84002.37    1664.3728 
   32500    289.55594   -703.74615    277148.82   -76567.928    7350.2554   -83918.183    1666.1584 
   32550    287.35291   -318.49758    276697.75   -76584.029    7294.3325   -83878.361    1665.6915 
   32600    292.87938   -578.01777     276367.6   -76528.787    7434.6196   -83963.406    1664.6713 
   32650    288.72183   -249.98186    276253.29    -76532.76    7329.0819   -83861.842    1665.6771 
   32700     288.2885   -662.16726    276615.18   -76538.128    7318.0819    -83856.21    1668.2007 
   32750    290.20322   -484.45003    276838.33   -76516.233    7366.6864   -83882.919    1670.6308 
   32800    287.10297   -618.39682    276943.04   -76527.805    7287.9877   -83815.793    1673.4195 
   32850    287.67862   -597.71213    276709.77   -76518.757    7302.6004   -83821.357    1673.6772 
   32900     288.9522   -399.66366    276260.33   -76539.347    7334.9298   -83874.276    1673.6323 
   32950     292.9479   -381.36923     276178.6   -76584.357    7436.3589   -84020.716    1676.5156 
   33000    295.61526   -280.42254     276256.4   -76533.634    7504.0688   -84037.703    1677.8745 
   33050    292.31613   -761.27735    276495.73   -76530.081    7420.3217   -83950.403    1681.5013 
   33100    291.78073   -369.99369    276567.38   -76543.926    7406.7308   -83950.657    1685.5937 
   33150    292.41002     -502.923    276369.08   -76555.148     7422.705   -83977.853    1687.3763 
   33200    289.75074   -241.91506    276068.02   -76583.646    7355.2003   -83938.846    1690.8911 
   33250    291.58002     -400.916    276142.36   -76592.692    7401.6359   -83994.328    1692.8473 
   33300    292.40372   -399.10066    276338.29   -76586.831    7422.5451   -84009.376    1693.8096 
   33350    288.81025    -774.5486    276680.91   -76622.546    7331.3263   -83953.872    1697.7008 
   33400    287.75511   -611.61809    276845.45    -76583.77    7304.5421   -83888.312    1702.6889 
   33450    288.50319   -337.71169    276653.21   -76562.931    7323.5319   -83886.463    1704.5841 
   33500    285.61425   -481.51422    276395.53   -76585.898    7250.1974   -83836.096    1707.2537 
   33550    290.82932   -404.88282    276180.09   -76567.955    7382.5797   -83950.535    1709.6548 
   33600    290.46628   -459.34939    276313.15   -76585.735     7373.364   -83959.099    1714.0069 
   33650    289.63956   -603.39332    276572.52   -76588.591    7352.3782   -83940.969    1717.1218 
   33700     289.7989   -434.34344    276667.31   -76548.822    7356.4228   -83905.245    1718.8321 
   33750    290.34986   -454.37377    276702.66   -76527.849    7370.4088   -83898.258    1720.9222 
   33800    290.29064   -603.37637    276639.36   -76535.202    7368.9054   -83904.108    1724.3256 
   33850     288.3866   -699.05589    276433.83   -76544.642    7320.5722   -83865.214    1726.7535 
   33900    293.08385   -460.49129    276023.27   -76568.029      7439.81   -84007.839    1724.9877 
   33950    292.45066   -460.85053    276206.13   -76576.007    7423.7367   -83999.744    1726.4714 
   34000    294.33425   -376.29449    276833.28   -76537.916    7471.5508   -84009.467    1731.5046 
   34050    290.84165   -645.17386    277382.75   -76551.851    7382.8928   -83934.743    1736.7644 
   34100    286.25591   -780.65546       277268   -76569.687    7266.4855   -83836.173    1738.3429 
   34150    291.05952   -430.67319    276544.87   -76570.518    7388.4231   -83958.941    1734.7335 
   34200    289.78461   -79.149797    275692.84   -76588.167      7356.06   -83944.227    1731.2243 
   34250    292.06697   -423.22294    275555.32   -76585.142     7413.997   -83999.139     1730.214 
   34300    286.51018   -635.10644    276201.11   -76532.971    7272.9402   -83805.911    1735.8742 
   34350    289.00696    -407.6003    276936.86   -76545.274    7336.3197   -83881.593    1740.3714 
   34400    296.17543   -799.31741    277127.06   -76592.336    7518.2885   -84110.625    1744.9696 
   34450    290.20378   -774.58591    276653.37   -76554.834    7366.7005   -83921.535     1746.334 
   34500    292.22083   -236.99562    275895.39   -76609.994    7417.9025   -84027.897    1745.1031 
   34550    294.45711   -329.33778    275696.84   -76662.602    7474.6695   -84137.271    1747.8349 
   34600    286.44935   -510.82475    276426.32   -76687.127     7271.396   -83958.523    1751.1098 
   34650    284.54046    -865.4609    276895.45   -76652.269    7222.9395   -83875.209    1754.7912 
   34700    285.31914   -425.26966    276618.67   -76620.648     7242.706   -83863.354    1757.1683 
   34750    289.97101   -307.10337    276261.42   -76647.864    7360.7918   -84008.655    1757.6284 
   34800    288.14907   -547.62835    276143.53   -76613.831    7314.5428   -83928.374    1758.7405 
   34850    285.71406   -441.45792    276191.88   -76648.184     7252.731   -83900.915    1761.4497 
   34900    290.27861   -330.51145    276202.31   -76643.736    7368.6002   -84012.336     1763.625 
   34950    293.05915   -457.98937     276119.6   -76597.137    7439.1829    -84036.32    1766.6154 
   35000    290.52786   -497.06638    276212.95   -76597.549    7374.9272   -83972.476    1770.1457 
   35050    291.71262   -323.40044    276141.74   -76588.742    7405.0018   -83993.744    1769.9227 
   35100    295.05902   -587.81347    276234.67   -76620.779    7489.9489   -84110.728    1773.3794 
   35150    286.06405   -634.97897    276514.88   -76630.228    7261.6152   -83891.843    1776.5939 
   35200     284.3833   -452.62205    276699.08   -76620.759    7218.9503   -83839.709    1780.6273 
   35250    289.93114   -442.79069    276799.53   -76579.755    7359.7797   -83939.535    1783.8327 
   35300    290.15689   -551.20868    276559.11    -76541.51    7365.5104    -83907.02    1784.9079 
   35350    289.70154   -633.30529    276240.64   -76521.777    7353.9514   -83875.728    1787.8364 
   35400    288.04897   -565.50921    276092.61   -76562.685    7312.0016   -83874.686    1790.2787 
   35450    292.86317   -347.01222    276304.09   -76541.066    7434.2081   -83975.274    1795.0631 
   35500    290.25025   -753.85453    276525.79   -76507.843    7367.8801   -83875.723    1795.8243 
   35550    290.87402   -607.91873    276527.13   -76547.815    7383.7144    -83931.53    1800.2081 
   35600    291.86207   -361.87065    276421.13   -76464.986    7408.7955   -83873.782     1800.329 
   35650    290.60378   -565.01039    276606.73   -76458.867    7376.8544   -83835.721    1804.1054 
   35700    290.00354   -754.21237    276614.12   -76508.512    7361.6176    -83870.13     1805.361 
   35750    291.11929   -219.17054    276389.56   -76515.663    7389.9404   -83905.604     1805.721 
   35800    293.24879   -684.13411    276575.53   -76531.989    7443.9969   -83975.986    1809.6943 
   35850    288.48925   -758.63648    276752.91   -76492.018     7323.178   -83815.196    1814.5027 
   35900    292.69367   -397.44118    276511.81   -76489.024    7429.9054   -83918.929    1816.3003 
   35950    291.49015   -445.91101    276346.66   -76506.608    7399.3545   -83905.963    1821.9886 
   36000    287.78721   -408.46025    276370.31   -76530.995    7305.3569   -83836.352    1824.6989 
   36050     289.6536   -328.44498    276428.28   -76564.429    7352.7346   -83917.164    1826.1232 
   36100    290.58986    -641.0683    276857.69   -76531.307    7376.5011   -83907.808    1830.0711 
   36150     291.0661   -918.62248     276922.7   -76523.547    7388.5902   -83912.137    1832.0695 
   36200    292.82381   -799.80177    276229.66    -76532.93     7433.209   -83966.139    1832.5321 
   36250    289.24283    -281.1121    275643.45   -76523.405    7342.3073   -83865.712    1833.8813 
   36300    294.79781   -252.47563     276043.9   -76576.463    7483.3182   -84059.781    1839.1756 
   36350    291.41427   -805.52693    276868.73   -76493.674    7397.4284   -83891.102    1844.2071 
   36400    287.70215   -672.27595    277062.09   -76540.358    7303.1978   -83843.556    1848.8034 
   36450    294.60616   -583.41513     276756.2   -76518.553    7478.4531   -83997.006    1849.3619 
   36500    294.58354    -516.1762    276490.21   -76520.532    7477.8791   -83998.411    1849.6405 
   36550    292.94265   -707.13243     276537.4   -76489.383    7436.2256   -83925.609     1851.442 
   36600    294.31845   -604.47063    276657.98   -76464.366    7471.1498   -83935.516    1855.6968 
   36650    294.37519   -608.91968    276607.85   -76489.003    7472.5902   -83961.594     1858.924 
   36700    291.19611   -509.49164    276551.99    -76478.58    7391.8906   -83870.471    1858.0346 
   36750    287.33872   -445.56995    276471.58   -76512.058    7293.9721    -83806.03    1858.9526 
   36800    289.15756   -479.17386    276609.78   -76474.465    7340.1427   -83814.608    1862.9634 
   36850    292.59726   -821.21322    276866.04   -76482.314    7427.4582   -83909.772    1869.1303 
   36900    288.45521   -682.97198    276383.35   -76493.688    7322.3139   -83816.002    1870.7692 
   36950    292.19597   -347.87905    275817.65   -76534.025    7417.2714   -83951.297    1869.4395 
   37000    289.49488   -393.10817    276058.76   -76559.528    7348.7054   -83908.234    1873.1918 
   37050     289.8174   -475.23036    276763.73   -76558.326    7356.8926   -83915.219    1879.0485 
   37100    292.12392    -613.1098    277191.87   -76510.097    7415.4424    -83925.54    1880.8145 
   37150    291.31028   -561.65085    276957.71   -76517.402    7394.7887    -83912.19     1878.249 
   37200    293.04393   -645.84656    276481.98   -76534.245    7438.7966   -83973.042    1878.6224 
   37250    289.46528   -241.09339    276093.22   -76533.637     7347.954   -83881.591    1879.4133 
   37300    289.17369   -472.93707    276180.52   -76542.953    7340.5521   -83883.505    1882.3545 
   37350    290.19125    -685.6262    276600.88   -76533.976    7366.3826   -83900.359    1887.0537 
   37400    287.99787   -730.07708    276877.41   -76517.927    7310.7046   -83828.631    1890.9581 
   37450    289.29662   -520.45471       276679   -76517.229    7343.6728   -83860.902    1892.5257 
   37500      291.724   -551.16311    276423.81   -76523.832    7405.2907   -83929.123    1893.2496 
   37550    297.15358   -332.91767    276158.19   -76527.595    7543.1183   -84070.713    1892.9747 
   37600    293.05997   -614.81568     276148.2   -76539.876    7439.2037    -83979.08    1897.7137 
   37650    287.78271   -307.63134    276434.06   -76535.098    7305.2427   -83840.341    1902.4081 
[...]
   90850    291.43537   -762.30998    277107.76   -76315.757     7397.964   -83713.721     4445.716 
   90900    293.15575   -287.09901    277050.74   -76319.345    7441.6352    -83760.98     4449.022 
   90950    295.66144   -630.82177    276855.18   -76350.427    7505.2409   -83855.668    4450.0827 
   91000    293.64994   -503.29454    276631.45   -76326.937      7454.18   -83781.117    4452.9988 
   91050    293.11319   -335.35073    276462.23   -76363.193    7440.5547   -83803.748    4456.5712 
   91100    297.04538   -242.38654    276386.89   -76319.561    7540.3718   -83859.933    4459.1512 
   91150    292.14931   -559.40857    276727.31   -76327.328     7416.087   -83743.415    4466.8946 
   91200    294.36855   -401.68176    277138.12   -76352.936    7472.4215   -83825.358     4471.232 
   91250    290.23354    -754.3792    277271.39   -76363.581    7367.4559   -83731.037    4475.6359 
   91300    296.38985   -602.33589    276681.15   -76373.673    7523.7314   -83897.405    4468.9172 
   91350    289.05972   -200.61622    276127.05   -76385.566    7337.6591   -83723.225    4467.3719 
   91400    296.29522   -374.83718    276309.89   -76426.232    7521.3293   -83947.561    4470.5404 
   91450    291.44299   -509.75123    276971.43   -76443.571    7398.1575   -83841.728    4482.8932 
   91500    289.10747   -463.65236    277141.01   -76438.972    7338.8713   -83777.844    4488.1333 
   91550    290.39138    -424.3866    276724.74   -76429.913    7371.4628   -83801.376    4488.8413 
   91600    296.24203   -251.41257     276048.4   -76468.324    7519.9789   -83988.303    4487.2567 
   91650     292.1602   -419.90905    276099.97   -76520.083    7416.3635   -83936.447    4494.3951 
   91700    284.72887   -689.90942    276502.52   -76535.013    7227.7224   -83762.735    4500.1089 
   91750    296.28407   -563.11142    276619.06   -76490.262    7521.0463   -84011.308     4503.195 
   91800    294.40805   -574.82271    276507.54   -76500.585    7473.4243   -83974.009    4502.8305 
   91850    290.61097   -565.50716    276308.18   -76532.034    7377.0369   -83909.071    4504.3182 
   91900    289.76808   -529.50046    276179.64   -76515.413    7355.6406   -83871.054    4505.9513 
   91950    291.35051   -275.79959    276206.47   -76573.609    7395.8098   -83969.419    4507.6066 
   92000    292.37233   -889.50376    276594.56   -76528.146    7421.7483   -83949.894    4515.3847 
   92050    286.25058   -479.01503    276554.06   -76579.773    7266.3503   -83846.123     4518.715 
   92100    291.52566   -374.27949    276278.59   -76518.995    7400.2559   -83919.251    4519.4077 
   92150    292.73237   -392.10406    276178.39   -76515.548    7430.8878   -83946.436    4523.8409 
   92200    291.73723   -410.40163     276402.8   -76511.953    7405.6265   -83917.579    4529.4178 
   92250    293.59111   -715.28865    276940.82    -76488.32    7452.6865   -83941.007     4539.857 
   92300    295.66324   -873.37436    276961.65   -76502.946    7505.2867   -84008.233    4542.7631 
   92350    291.07729   -514.99872    276436.26   -76522.758    7388.8742   -83911.632    4538.8262 
   92400    293.92232   -603.47127    276073.32   -76529.758    7461.0942   -83990.852    4534.7637 
   92450    295.67203   -245.13456    275996.11   -76526.921    7505.5097   -84032.431    4534.3501 
   92500     287.1647   -688.12034    276208.99    -76539.22    7289.5548   -83828.775    4536.9334 
   92550     293.2444   -420.65893    276471.12   -76551.667    7443.8854   -83995.552    4542.8256 
   92600    292.73922   -583.14627    276755.57   -76587.701    7431.0616   -84018.762    4548.7284 
   92650    294.01483   -666.28986    276721.53   -76570.775    7463.4425   -84034.218    4551.3862 
   92700    293.59985   -455.61636    276564.88   -76570.123    7452.9084   -84023.032    4554.3519 
   92750    285.54838   -793.27118    276702.62   -76618.732    7248.5252   -83867.257    4561.3517 
   92800    290.96867   -565.97102    276825.78   -76618.015     7386.117   -84004.132    4565.2003 
   92850     282.4837   -604.46424    276966.26   -76582.142    7170.7296   -83752.871    4566.3019 
   92900    287.73761   -370.90442     276793.6   -76593.777    7304.0979   -83897.874    4565.7467 
   92950    288.78169   -301.64181    276427.75   -76582.061    7330.6014   -83912.662    4563.0175 
   93000    290.32702   -380.10319    276077.61   -76549.253    7369.8291   -83919.082    4557.2236 
   93050    289.91957   -392.17695    276287.84   -76517.562    7359.4861   -83877.048    4562.0837 
   93100    290.55292   -491.32302    276741.29   -76475.379    7375.5633   -83850.942     4571.708 
   93150    290.47577   -734.24747    277083.13   -76489.803    7373.6049   -83863.408    4577.1125 
   93200    290.59554   -742.22891    276954.39   -76458.748    7376.6453   -83835.394    4577.1863 
   93250    290.07957    -477.7641    276383.96   -76434.919    7363.5477   -83798.467    4574.2824 
   93300    294.23682   -386.05315    276154.27   -76458.417    7469.0776   -83927.495    4578.6334 
   93350    286.71467   -273.81188     276478.2   -76495.996     7278.131   -83774.127    4586.7558 
   93400    290.08844   -335.08112     276850.9   -76506.125    7363.7726   -83869.898     4590.606 
   93450    293.71551   -681.84284    277072.26   -76500.532    7455.8445   -83956.376    4595.7996 
   93500    293.93044   -828.41522    276788.66   -76490.102    7461.3002   -83951.402    4596.3192 
   93550    294.29006   -268.58069    276193.35   -76488.918    7470.4291   -83959.347    4592.6677 
   93600     291.5288   -327.69152    276385.19   -76458.754    7400.3357    -83859.09    4594.8116 
   93650    289.90068   -757.14103     276893.6   -76461.385    7359.0066   -83820.392    4601.0312 
   93700    292.23736   -777.62105    277040.43   -76454.349    7418.3221   -83872.671    4601.8928 
   93750    290.63465   -428.86034    276579.63    -76435.65    7377.6381   -83813.288    4597.5082 
   93800    291.63508   -363.45326    276300.32   -76432.404    7403.0335   -83835.437    4594.4776 
   93850     292.7248    -299.3618    276235.38    -76440.36    7430.6956   -83871.056    4598.0654 
   93900    289.00693   -591.71384    276686.01   -76419.072    7336.3191   -83755.391    4607.0357 
   93950    293.46745   -407.06154       276911   -76417.194    7449.5475   -83866.742    4608.9293 
   94000    295.05366   -709.15962    276925.62   -76400.348    7489.8127   -83890.161    4613.4213 
   94050    292.81112   -582.06209    276572.42   -76362.393    7432.8867    -83795.28    4614.9485 
   94100    295.49653   -336.68734    276168.92    -76385.89    7501.0549   -83886.945     4614.254 
   94150    294.00718   -395.78675    276519.14   -76381.732    7463.2482    -83844.98    4617.6536 
   94200    294.92347    -571.9708    276992.74    -76373.09    7486.5078   -83859.598    4622.7907 
   94250    292.24974   -578.97074    276959.29   -76343.021    7418.6363   -83761.658    4623.3203 
   94300    293.20831    -735.3765    276655.61   -76326.799    7442.9693   -83769.768    4620.9561 
   94350    295.46733   -446.39821    276264.63   -76349.473    7500.3137   -83849.786    4614.0402 
   94400    296.34546   -290.04492    276121.74   -76378.561    7522.6046   -83901.166    4614.9618 
   94450    297.24299   -502.45313    276684.41   -76379.298    7545.3879   -83924.686    4622.1081 
   94500    290.95253   -852.89416    277193.86   -76344.576    7385.7072   -83730.283    4627.7717 
   94550    288.86076   -510.52981    276909.75   -76379.541    7332.6087   -83712.149     4627.695 
   94600    293.07952   -99.481041    276342.44   -76368.056    7439.7001   -83807.756    4625.0288 
   94650    293.50039   -68.593255    276124.41   -76342.931    7450.3837   -83793.315    4624.2029 
   94700    291.92223   -478.70018    276868.06   -76292.295    7410.3228   -83702.618    4637.5651 
   94750     291.2389   -607.75021    277602.25   -76334.158    7392.9768   -83727.135    4650.4751 
   94800    293.91988   -1043.0877    277597.26   -76347.073    7461.0322   -83808.105    4653.5677 
   94850    294.79558   -706.21283    276808.31    -76367.33    7483.2616   -83850.591    4646.2522 
   94900    299.45274   -365.44946     276054.7   -76377.277    7601.4816   -83978.759    4641.6131 
   94950    295.96488   -239.69034    276070.29   -76425.726    7512.9437   -83938.669    4641.5493 
   95000    294.06247   -490.84849    276564.52   -76429.478    7464.6519    -83894.13    4649.6658 
   95050    293.47679   -492.28133    276833.53   -76388.503    7449.7845   -83838.287    4654.4961 
   95100    290.39193   -446.57966    276639.34   -76404.492    7371.4766   -83775.969    4654.5704 
   95150    289.19422   -239.86463    276242.58   -76420.681    7341.0733   -83761.754    4649.4528 
   95200    292.59757   -340.20992    276122.33   -76428.551     7427.466   -83856.017    4652.9663 
   95250     294.9072   -629.44062    276278.57   -76420.426     7486.095   -83906.521    4658.4744 
   95300    295.86081   -499.41051    276499.21   -76464.766     7510.302   -83975.068    4664.9128 
   95350    287.02355   -609.56073    276943.47   -76473.054    7285.9719   -83759.026    4676.0961 
   95400    300.19791   -783.05474     276868.7   -76426.896    7620.3973   -84047.293    4676.6198 
   95450    295.20937   -683.12679    276310.29   -76454.189    7493.7653   -83947.955    4675.0565 
   95500    292.84256   -632.50791    276162.41   -76447.482     7433.685   -83881.167    4675.8276 
   95550    296.82028   -675.15171    276430.82   -76461.402    7534.6576    -83996.06    4680.4145 
   95600    291.91044   -384.84747    276613.13   -76464.168    7410.0234   -83874.191    4684.5181 
   95650     296.4692    -556.9895    276752.21   -76497.563    7525.7457   -84023.308    4689.7891 
   95700    290.70641   -634.13413    276676.65     -76477.7    7379.4597    -83857.16     4690.415 
   95750    293.02117   -596.33224    276430.23   -76470.352    7438.2189   -83908.571    4692.4597 
   95800    294.86632   -524.76361    276222.23   -76502.687    7485.0573   -83987.744     4694.108 
   95850    290.99679   -520.16993       276181   -76487.974    7386.8308   -83874.805    4697.5704 
   95900     288.0247   -506.75321    276328.97    -76489.16    7311.3855   -83800.545    4702.9899 
   95950     291.0722   -652.75786    276569.83   -76483.496    7388.7451   -83872.241    4711.7716 
   96000    294.37899   -634.60775    276765.63    -76488.03    7472.6866   -83960.717    4719.2548 
   96050    289.90559   -502.46225    276961.73   -76460.133    7359.1311   -83819.264     4724.346 
   96100    295.59198   -792.84098    276988.92   -76398.007    7503.4777   -83901.485    4723.7276 
   96150    291.60195   -512.81423    276590.22   -76424.539    7402.1924   -83826.731    4718.8067 
   96200    293.89209   -479.46379    276151.72   -76389.299    7460.3267   -83849.625    4717.5283 
   96250    295.96595     -447.606    275937.54   -76384.871    7512.9709   -83897.842     4716.568 
   96300    294.71308   -194.65323    276144.59   -76382.526    7481.1673   -83863.693    4721.7228 
   96350    291.59433   -567.49945    276831.89   -76385.792    7401.9992   -83787.791    4734.1313 
   96400    294.93322   -706.94943    277320.47   -76416.986    7486.7553   -83903.741    4742.4116 
   96450     291.9643     -624.177    277058.57    -76381.12    7411.3907   -83792.511      4742.22 
   96500    297.43662   -425.72518    276364.82   -76395.757    7550.3031    -83946.06     4732.734 
   96550    296.05362   -349.62748    275919.53   -76386.294    7515.1963    -83901.49    4729.7129 
   96600    291.11991   -179.55679    276191.35   -76387.263    7389.9563   -83777.219    4733.7711 
   96650    291.58464   -585.09342    276977.72   -76426.043     7401.753   -83827.796    4744.0065 
   96700    292.64668   -736.96189    277265.01   -76425.263    7428.7125   -83853.976    4751.2559 
   96750    293.43077    -642.4012    277024.48   -76409.046    7448.6164   -83857.663    4753.5302 
   96800    297.39578   -584.96435    276503.76   -76413.679    7549.2665   -83962.945    4753.4157 
   96850    292.35984   -242.61326    276329.64    -76457.97    7421.4312   -83879.402    4751.9178 
   96900    289.67275   -443.36614    276632.36   -76410.433    7353.2207   -83763.653    4758.6947 
   96950    288.99861   -440.69619    276991.95   -76412.692    7336.1077     -83748.8    4768.5024 
   97000    290.86833   -283.93831    276969.82   -76422.413      7383.57   -83805.983    4771.3932 
   97050    294.22407   -621.86169    276724.94   -76415.542     7468.754   -83884.296    4772.6827 
   97100     290.5143   -491.52173     276238.4    -76454.95    7374.5831   -83829.533    4766.2051 
   97150    293.15748    59.041584    276076.74   -76465.171    7441.6791    -83906.85    4766.6641 
   97200    292.22693   -327.83674    276435.96   -76454.956    7418.0575   -83873.013    4778.7035 
   97250    288.97005   -522.56224    276628.27   -76456.665    7335.3829   -83792.048    4782.4857 
   97300    294.34599   -461.66793    276495.12   -76487.749    7471.8488   -83959.598    4780.1333 
   97350    292.44924   -393.98723    276552.26   -76512.382    7423.7006   -83936.082    4784.9339 
   97400    290.48654   -901.25331    276816.48    -76524.39    7373.8784   -83898.268    4789.8458 
   97450    291.45878   -538.33462    276763.81    -76544.51    7398.5582   -83943.068    4789.6353 
   97500    285.04373   -380.17049    276654.53   -76534.757     7235.715   -83770.472    4791.0748 
   97550    294.57706    -816.1231     276542.8   -76503.233    7477.7145   -83980.948    4794.4556 
   97600    292.39628   -219.40274    276382.95   -76486.414    7422.3564   -83908.771    4797.6986 
   97650     287.5109   -355.98427    276536.64    -76467.16     7298.343   -83765.503     4800.335 
   97700    293.60151   -683.24995    276775.79   -76471.928    7452.9504   -83924.879     4805.011 
   97750    290.96254    -500.0656    276614.52   -76470.355    7385.9614   -83856.317    4803.8355 
   97800    288.57513   -740.58667     276548.6   -76498.939    7325.3579   -83824.297     4804.452 
   97850    292.49031   -576.72476     276501.2   -76530.525    7424.7433   -83955.269    4806.2301 
   97900    294.31046   -491.39833    276502.94    -76581.12    7470.9471   -84052.067    4806.6816 
   97950    295.75296   -568.61123    276494.81   -76542.778    7507.5643   -84050.342    4812.2988 
   98000    288.92252   -389.55208     276414.1   -76557.568    7334.1763   -83891.745     4814.655 
   98050    290.74288   -492.71662    276333.19   -76556.172    7380.3855   -83936.557    4819.3105 
   98100    292.20554   -582.43561    276326.73   -76578.607    7417.5143   -83996.122    4819.2413 
   98150    287.66767   -531.33696    276734.44   -76587.403    7302.3224   -83889.725    4825.8846 
   98200    291.64073   -764.63514     276948.8   -76606.504    7403.1768   -84009.681    4831.6271 
   98250    292.92663   -405.82854       276132   -76603.471    7435.8189    -84039.29    4827.3456 
   98300    286.18212   -127.47088    275544.82   -76634.224    7264.6125   -83898.836    4820.8581 
   98350    288.43105   -403.77829     276207.2   -76637.747    7321.7006   -83959.448    4833.6428 
   98400    285.97917   -793.47111    277153.59   -76594.316    7259.4606   -83853.777    4847.1846 
   98450    291.06556    -636.9513    277369.67   -76565.787    7388.5765   -83954.363    4854.7369 
   98500    288.35471   -515.39598    276723.81   -76586.404    7319.7628   -83906.167    4852.9102 
   98550    291.03132   -370.19074    275688.84   -76619.959    7387.7075   -84007.666    4842.8173 
   98600    290.06294   -69.586478    275184.68   -76635.036    7363.1253   -83998.161    4836.9623 
   98650    287.53889    -323.2569    275705.62   -76628.484    7299.0535   -83927.538    4843.6473 
   98700    288.57819   -723.38263    276610.94   -76609.468    7325.4358   -83934.904       4858.1 
   98750     290.6887   -543.09589    277210.68   -76585.713    7379.0102   -83964.723    4866.3414 
   98800    285.43562   -769.26487    277157.08   -76584.803    7245.6628   -83830.466    4867.6266 
   98850    294.67819   -488.06624    276482.87    -76569.83    7480.2817   -84050.112    4863.7413 
   98900     288.0756    -467.0514    276095.98   -76575.217    7312.6776   -83887.895    4860.9478 
   98950    292.08695   -402.47229    276280.76   -76557.927    7414.5042   -83972.431    4866.3273 
   99000    288.27863   -441.12918    276500.92   -76527.777    7317.8314   -83845.609    4871.9403 
   99050    287.74143    -581.0395    276876.96   -76535.897    7304.1949   -83840.092    4878.0288 
   99100    287.70703   -598.95593    276961.17   -76543.816    7303.3216   -83847.138    4881.5402 
   99150    292.77684   -429.06524    276462.16   -76551.711    7432.0167   -83983.727    4879.5399 
   99200    293.17867    -431.6508    276088.05   -76575.169    7442.2169   -84017.386    4877.8687 
   99250     289.9897    -155.2655    276151.98   -76597.014    7361.2662    -83958.28    4880.5608 
   99300    286.10421   -625.58067    276554.82   -76629.842    7262.6346   -83892.476    4890.5067 
   99350    289.49205   -739.76617    276699.02   -76649.639    7348.6336   -83998.273    4897.3486 
   99400    289.43021   -575.48445    276441.29     -76623.5     7347.064   -83970.563    4897.8382 
   99450    289.21695   -502.31173    276254.77   -76623.229    7341.6503   -83964.879    4899.9205 
   99500    289.35525   -339.05469    276119.01    -76651.58    7345.1611   -83996.741    4901.6894 
   99550    289.00834   -208.62038    275928.19    -76603.45    7336.3548   -83939.805    4898.9477 
   99600    290.07557   -375.30418    276021.19   -76607.391     7363.446   -83970.837    4899.9959 
   99650    288.90958   -439.15112    276413.95   -76606.878    7333.8479   -83940.726    4909.4921 
   99700    287.89536   -618.24495    277005.71   -76595.911    7308.1023   -83904.013    4918.4675 
   99750     288.2399   -711.54779    276988.07   -76604.179    7316.8484   -83921.027    4922.1452 
   99800    291.87699   -341.09074    276411.37   -76595.443    7409.1743   -84004.617    4917.6422 
   99850    292.48412   -310.55015    276000.42   -76585.389     7424.586   -84009.975    4915.6897 
   99900    291.09988   -261.09519    276238.51   -76608.007    7389.4476   -83997.455    4921.1768 
   99950    284.42293   -643.14538    276839.27   -76578.667     7219.956   -83798.623    4932.4699 
  100000    292.37865   -544.93284    276874.96     -76540.4    7421.9087   -83962.309    4937.9073 
Loop time of 247.023 on 6 procs for 100000 steps with 8517 atoms

Performance: 349.765 ns/day, 0.069 hours/ns, 404.821 timesteps/s
99.5% CPU use with 6 MPI tasks x no OpenMP threads

MPI task timing breakdown:
Section |  min time  |  avg time  |  max time  |%varavg| %total
---------------------------------------------------------------
Pair    | 71.243     | 127.48     | 194.15     | 446.0 | 51.61
Neigh   | 30.365     | 35.793     | 39.458     |  64.7 | 14.49
Comm    | 7.2277     | 77.516     | 139.21     | 611.6 | 31.38
Output  | 0.13106    | 0.13345    | 0.14227    |   1.1 |  0.05
Modify  | 4.9976     | 5.0747     | 5.1643     |   2.3 |  2.05
Other   |            | 1.028      |            |       |  0.42

Nlocal:        1419.50 ave        1446 max        1395 min
Histogram: 2 0 0 0 1 1 0 0 1 1
Nghost:        2044.50 ave        2071 max        2024 min
Histogram: 2 0 0 0 2 1 0 0 0 1
Neighs:        0.00000 ave           0 max           0 min
Histogram: 6 0 0 0 0 0 0 0 0 0
FullNghs:      39427.0 ave       40182 max       38333 min
Histogram: 1 0 0 0 0 2 1 1 0 1

Total # of neighbors = 236562
Ave neighs/atom = 27.775273
Neighbor list builds = 20706
Dangerous builds = 0

# Create data file for import to other simulations
#
write_data data.${NAME}
write_data data.coexist_291K_-500atm_ML
System init for write_data ...

Total wall time: 0:04:07
