
# Set production fixes - Nose/Hoover
#
fix                 2 all nph iso ${PRES} ${PRES} ${PCOUPL}
fix                 2 all nph iso -500 ${PRES} ${PCOUPL}
fix                 2 all nph iso -500 -500 ${PCOUPL}
fix                 2 all nph iso -500 -500 10000.0
fix                 3 all temp/csvr ${TEMP} ${TEMP} ${TCOUPL} 837492
fix                 3 all temp/csvr 291 ${TEMP} ${TCOUPL} 837492
fix                 3 all temp/csvr 291 291 ${TCOUPL} 837492
fix                 3 all temp/csvr 291 291 5000.0 837492

# Define Order parameter
#
compute             2 all orientorder/atom nnn NULL cutoff 3.5
thermo              200
thermo_style        custom step temp press vol etotal ke pe c_1[4]

# Run 1ns simulation
dump		    1 all custom 400 prod.${NAME}.dump id type x y z vx vy vz c_2[*]
dump		    1 all custom 400 prod.ice_291K_-500atm_ML.dump id type x y z vx vy vz c_2[*]
run                 200000
Neighbor list info ...
  update every 1 steps, delay 0 steps, check yes
  max neighbors/atom: 2000, page size: 100000
  master list distance cutoff = 6.0032907
  ghost atom cutoff = 6.0032907
  binsize = 3.0016454, bins = 20 17 17
  2 neighbor lists, perpetual/occasional/extra = 1 1 0
  (1) pair sw, perpetual
      attributes: full, newton on
      pair build: full/bin/atomonly
      stencil: full/bin/3d
      bin: standard
  (2) compute orientorder/atom, occasional, copy from (1)
      attributes: full, newton on
      pair build: copy
      stencil: none
      bin: none
Per MPI rank memory allocation (min/avg/max) = 5.819 | 5.819 | 5.819 Mbytes
Step Temp Press Volume TotEng KinEng PotEng c_1[4] 
       0     291.5245   -478.71314    149215.52   -47558.006     4003.387   -51561.393   0.15055825 
     200    292.57656   -453.14128    149223.22   -47548.022    4017.8345   -51565.857   0.14416224 
     400    296.14915   -479.52842    149246.23   -47542.514    4066.8954   -51609.409   0.13874488 
     600    289.92624   -534.21208    149237.07   -47580.537    3981.4388   -51561.976   0.14158948 
     800    288.99512   -453.55895    149211.89   -47595.812     3968.652   -51564.464   0.14294524 
    1000    284.69921   -514.85424    149272.45   -47608.674    3909.6581   -51518.332   0.14707824 
    1200    286.20294   -554.99898    149290.52   -47634.665    3930.3082   -51564.973   0.14498066 
    1400    291.14443   -454.88016    149195.41   -47626.137    3998.1677   -51624.304   0.14084628 
    1600    286.60094    -448.7658    149175.72   -47629.613    3935.7738   -51565.387   0.13928567 
    1800    287.82238   -509.65452    149247.26   -47635.533    3952.5473    -51588.08   0.14157904 
    2000    286.04055   -534.85898    149243.81   -47589.841    3928.0781    -51517.92   0.15260261 
    2200    287.33054   -480.38394    149176.36   -47559.241    3945.7931   -51505.034   0.15155275 
    2400    290.47031   -519.48073    149204.77   -47577.252    3988.9102   -51566.162   0.15035889 
    2600    289.83096   -542.32238    149252.02   -47621.622    3980.1303   -51601.752   0.14205721 
    2800    287.18168   -484.74967    149193.35   -47638.201    3943.7488    -51581.95   0.13994872 
    3000    284.87168   -438.85685    149156.89    -47650.26    3912.0266   -51562.287   0.14192485 
    3200    287.38018   -537.48653    149277.72   -47595.766    3946.4748   -51542.241   0.14611134 
    3400    289.47378   -565.98639    149317.22   -47634.851    3975.2253   -51610.076   0.14741015 
    3600      285.397   -437.10681    149161.55   -47664.603    3919.2405   -51583.843    0.1411038 
    3800    294.62903   -397.54476    149136.12   -47591.298    4046.0202   -51637.318    0.1396328 
    4000    285.84585   -575.32003    149337.36   -47583.175    3925.4045    -51508.58   0.14398009 
    4200    295.34311   -559.20841    149329.17   -47600.956    4055.8264   -51656.783    0.1442236 
    4400    289.05936   -436.65244    149112.69   -47588.878    3969.5342   -51558.412   0.14849212 
    4600    292.30684   -443.44827    149158.39   -47568.531    4014.1305   -51582.662   0.14101662 
    4800    290.09044   -623.67893    149378.97   -47557.051    3983.6937   -51540.745   0.14477509 
    5000    290.71635   -517.60252    149274.89   -47536.127    3992.2889   -51528.416   0.13755163 
    5200    290.66733   -357.87416    149068.42   -47540.159    3991.6158   -51531.774    0.1415527 
    5400    298.78756   -470.28832     149262.9   -47500.519    4103.1277   -51603.646   0.14611051 
    5600    288.24289   -672.24168     149490.8   -47482.146     3958.322   -51440.468   0.14867492 
    5800    291.21538   -477.81917    149254.05   -47472.913     3999.142   -51472.055   0.14391885 
    6000    295.92954   -318.18033    149039.23   -47461.337    4063.8796   -51525.216   0.14038056 
    6200    291.64139   -546.86909    149315.51   -47452.203    4004.9921   -51457.195   0.14949613 
    6400    295.82555   -672.26717    149486.33   -47418.565    4062.4515   -51481.016   0.14940434 
    6600     290.9943    -458.2899       149190   -47460.567     3996.106   -51456.673   0.14791561 
    6800    292.39215   -365.28529    149034.97   -47501.377     4015.302   -51516.679   0.14548694 
    7000    293.71087   -546.90562    149325.57    -47502.67    4033.4116   -51536.082   0.14600287 
    7200    294.88048   -637.25139    149449.07   -47449.187    4049.4733    -51498.66   0.14842172 
    7400    291.72299   -493.90256    149175.94   -47436.176    4006.1128   -51442.289   0.15187142 
    7600    291.92338   -372.35889    149085.48   -47469.908    4008.8646   -51478.772   0.14863835 
    7800    291.85141   -596.11087    149403.72   -47495.569    4007.8763   -51503.446   0.14598115 
    8000    293.99093   -632.54789    149480.52   -47460.379    4037.2575   -51497.636   0.14549866 
    8200    291.99729   -404.66509    149133.68   -47500.106    4009.8797   -51509.986   0.14380088 
    8400    289.85075   -356.68879    149106.25   -47526.456    3980.4021   -51506.859   0.14344377 
    8600    295.90546   -673.77565    149508.48   -47482.687    4063.5489   -51546.236   0.14416658 
    8800    298.15385   -649.81858    149485.98   -47413.211    4094.4252   -51507.636   0.14496583 
    9000    299.04211   -299.25283    149063.42    -47395.63    4106.6232   -51502.254    0.1431123 
    9200    293.71349   -393.28123    149152.54   -47380.211    4033.4475   -51413.659   0.14473818 
    9400    293.16686   -714.18988    149584.87    -47426.25    4025.9408   -51452.191   0.14680118 
    9600    292.32111   -582.37359    149367.56     -47417.6    4014.3265   -51431.927   0.15287825 
    9800    291.77237   -244.89211    148897.23   -47437.541    4006.7909   -51444.332   0.14883665 
   10000    295.97941   -449.97123    149245.41   -47434.081    4064.5644   -51498.646   0.14212812 
   10200     292.8625   -855.36693    149763.52   -47420.547    4021.7612   -51442.308   0.15068787 
   10400    294.13144   -510.36735    149273.21   -47411.376     4039.187   -51450.563   0.14778558 
   10600    297.31068   -108.22457    148773.27   -47396.463    4082.8462   -51479.309   0.14735716 
   10800    293.88975   -555.05646    149361.51   -47425.568     4035.868   -51461.436   0.15004651 
   11000    294.88124   -900.29992     149813.1   -47463.339    4049.4837   -51512.823   0.15133517 
   11200    295.38638   -415.71793     149105.8   -47486.458    4056.4206   -51542.878   0.14287477 
   11400    294.95012   -93.387758    148728.16   -47515.537    4050.4297   -51565.966   0.14219443 
   11600    294.63613     -705.533    149496.51   -47481.631    4046.1177   -51527.749    0.1536728 
   11800    289.70617   -879.82037    149689.33   -47552.445    3978.4166   -51530.862   0.15521777 
   12000    290.92403   -268.32582    148906.96   -47558.046     3995.141   -51553.187   0.14413423 
   12200    295.84032    -228.3624    148837.02   -47537.913    4062.6544   -51600.567   0.14093087 
   12400    294.60489   -776.71822    149563.64   -47501.377    4045.6888   -51547.066     0.146522 
   12600    291.90217   -734.12357    149561.48    -47510.96    4008.5734   -51519.534    0.1476308 
   12800    293.61427   -223.30705    148960.75   -47525.707    4032.0849   -51557.792   0.14036774 
   13000     296.2952   -344.35095    149068.69   -47507.203    4068.9011   -51576.104   0.14563818 
   13200    294.77672   -702.97329    149562.17   -47474.406    4048.0483   -51522.454   0.14552465 
   13400     286.1067   -570.66278    149405.09   -47494.118    3928.9865   -51423.105   0.14104414 
   13600    292.79299   -313.03595    149018.73   -47489.224    4020.8067   -51510.031   0.14284072 
   13800    289.21627   -457.51607    149194.84   -47482.471    3971.6889    -51454.16   0.15052706 
   14000    290.59717   -667.39208     149472.1   -47501.027    3990.6523    -51491.68   0.15140476 
   14200     288.6774   -502.84727    149270.06   -47528.834    3964.2889   -51493.123   0.14642202 
   14400    292.50458   -343.15238     149065.8   -47555.803     4016.846   -51572.649   0.14145027 
   14600    289.67632   -497.19662    149278.76   -47550.304    3978.0066   -51528.311   0.14184823 
   14800    290.97958   -641.88093    149429.33   -47531.159    3995.9038   -51527.063   0.14935644 
   15000    286.33597   -468.50889    149211.51   -47584.582    3932.1351   -51516.718    0.1485113 
   15200    285.08487   -378.91489    149073.93   -47640.122    3914.9542   -51555.076   0.14585234 
   15400    290.74405   -511.63872    149273.15   -47655.571    3992.6694    -51648.24     0.137569 
   15600    287.74371   -563.27916     149310.7   -47691.839     3951.467   -51643.306   0.14287115 
   15800    286.15424   -406.98886    149080.35   -47643.445    3929.6394   -51573.084   0.14487901 
   16000    286.72035   -450.23998    149144.35   -47628.694    3937.4135   -51566.108   0.15099349 
   16200    289.35744   -601.11708     149383.9   -47574.067    3973.6277   -51547.694   0.15392332 
   16400    289.98066   -566.74646    149288.68   -47571.078     3982.186   -51553.264   0.15115304 
   16600    294.15175   -354.12562     149063.6   -47590.545     4039.466   -51630.011   0.14020509 
   16800    289.48803   -422.63865    149199.88   -47543.197    3975.4209   -51518.618   0.14410825 
   17000     290.2269   -643.56549    149444.69   -47565.502    3985.5676    -51551.07   0.15018695 
   17200     291.4156   -473.74028    149273.27    -47549.11    4001.8916   -51551.002   0.14771286 
   17400    288.78532   -362.60338    149030.71   -47596.766    3965.7709   -51562.537   0.14511016 
   17600    288.20851   -517.48022    149234.37    -47634.06    3957.8498    -51591.91   0.14398191 
   17800    293.67182    -637.6099    149433.22   -47651.004    4032.8753    -51683.88   0.13942016 
   18000    286.55719   -497.14351    149162.92   -47686.473     3935.173   -51621.646    0.1433349 
   18200    288.34955   -378.29952    148984.29   -47713.925    3959.7866   -51673.712    0.1495105 
   18400    286.17835    -551.5488    149271.16    -47731.63    3929.9705   -51661.601   0.15011756 
   18600    284.29449   -669.91463    149396.01   -47685.542    3904.1001   -51589.642   0.14469655 
   18800    286.56073    -446.4897    149097.61   -47622.921    3935.2215   -51558.143   0.14852639 
   19000    284.73331   -373.41576    149056.29   -47650.793    3910.1264    -51560.92   0.14426107 
   19200    292.13199   -591.01436    149359.38   -47623.425    4011.7293   -51635.154   0.14708924 
   19400     288.7132   -567.11397    149332.05   -47612.386    3964.7806   -51577.167   0.14823176 
   19600    292.79718     -363.962    149024.42   -47644.099    4020.8641   -51664.963   0.14323947 
   19800    292.48526   -426.47245    149097.25   -47641.383    4016.5807   -51657.964   0.14366107 
   20000    285.86745   -728.85445    149414.33   -47627.746     3925.701   -51553.447   0.14902902 
   20200    292.81118   -551.55949    149263.39   -47654.743    4021.0565     -51675.8   0.14819598 
   20400    287.38548   -310.63463    148929.35   -47635.687    3946.5475   -51582.234   0.15120076 
   20600    288.06013   -474.14989    149166.92   -47630.729    3955.8123   -51586.542   0.14759954 
   20800    284.59104   -712.75144    149509.77   -47628.901    3908.1726   -51537.074   0.14605841 
   21000    285.73101   -488.31531    149183.97   -47625.943    3923.8273    -51549.77   0.14513546 
   21200    289.10313    -226.1815    148845.87   -47619.226    3970.1353   -51589.361   0.14409693 
   21400    287.10623   -591.37098    149291.39   -47612.347    3942.7127    -51555.06   0.14873659 
   21600    291.49368   -777.92337    149616.21   -47564.472    4002.9638   -51567.436   0.14692064 
   21800    288.20053   -411.71408    149112.03   -47519.891    3957.7402   -51477.631   0.14770242 
   22000    290.65197   -239.44909    148888.87    -47527.64    3991.4049   -51519.045    0.1465984 
   22200    289.26073   -681.44076    149481.21   -47482.597    3972.2996   -51454.896   0.15310979 
   22400    295.64776   -743.17062    149633.41   -47457.544      4060.01   -51517.554   0.15192605 
   22600    292.50576   -300.28082    148970.84   -47469.304    4016.8622   -51486.166   0.14956723 
   22800    290.11672   -244.28063    148907.14   -47507.005    3984.0545   -51491.059   0.15177092 
   23000    292.35076   -801.29332     149611.8   -47520.771    4014.7337   -51535.505   0.15350524 
   23200    293.44406   -696.28218    149530.82     -47513.7    4029.7475   -51543.448   0.14615674 
   23400    294.26522   -189.78515    148781.62   -47528.376    4041.0242     -51569.4   0.15028131 
   23600    289.95149    -281.6527    148969.77   -47544.675    3981.7854   -51526.461   0.14883381 
   23800    285.39476   -861.76277    149700.45   -47476.366    3919.2098   -51395.576   0.16181568 
   24000    293.96842   -622.96869    149407.19   -47515.989    4036.9484   -51552.938   0.14956202 
   24200    293.08125    -126.2967    148727.52   -47504.037    4024.7652   -51528.802   0.15296219 
   24400    292.14287   -468.02687    149138.59   -47508.409    4011.8788   -51520.288   0.15361745 
   24600    297.03723   -835.08675    149679.17   -47501.741     4079.091   -51580.832   0.15333094 
   24800    294.00319   -490.90704    149199.28   -47429.314    4037.4259    -51466.74   0.15814336 
   25000    298.29321   -172.66337    148820.56   -47431.349    4096.3389   -51527.688   0.15112977 
   25200    298.89507   -495.75257    149328.38    -47453.02    4104.6041   -51557.624   0.14448772 
   25400    293.78086   -796.92299    149571.67   -47512.479    4034.3727   -51546.851   0.14867748 
   25600    290.08261   -424.40499    149055.85   -47539.214     3983.586     -51522.8   0.15145146 
   25800    292.18061   -291.27932     148923.3    -47517.37     4012.397   -51529.767    0.1519405 
   26000     291.8038     -627.896     149356.5   -47492.706    4007.2225   -51499.928   0.15237717 
   26200     294.3611   -631.80375    149402.96   -47538.914    4042.3408   -51581.255   0.14759204 
   26400     291.4226   -380.41444    149048.42    -47564.51    4001.9876   -51566.498   0.14545146 
   26600    293.44323   -372.80054    149051.83    -47573.54    4029.7362   -51603.276   0.14692757 
   26800    291.45004    -614.4388    149320.22    -47576.06    4002.3644   -51578.424   0.15277882 
   27000    288.00624   -607.97452    149265.85   -47576.196    3955.0721   -51531.268   0.15625777 
   27200    290.12399   -390.76442    149019.26   -47571.357    3984.1544   -51555.511   0.14721162 
   27400    289.81659   -455.48386     149122.6   -47537.037    3979.9329    -51516.97   0.15080134 
   27600    286.23691   -627.60945    149377.98   -47539.255    3930.7746    -51470.03   0.15269868 
   27800    286.15242   -543.76938    149249.73   -47535.202    3929.6144   -51464.817   0.16174689 
   28000    291.36406   -355.77664    149041.46   -47525.336    4001.1837   -51526.519   0.14831985 
   28200    290.60063   -486.57779    149210.78   -47544.684    3990.6999   -51535.383   0.14675883 
   28400    289.51725   -640.95027    149399.71   -47538.243    3975.8222   -51514.065   0.15270115 
   28600     293.6447   -495.65604    149196.53   -47561.332    4032.5029   -51593.835   0.15019316 
   28800    286.36636   -349.25948    149049.82   -47572.336    3932.5523   -51504.888   0.15190745 
   29000    286.30391   -550.18788    149261.73   -47608.583    3931.6947   -51540.278   0.14970409 
   29200    284.83408   -620.80167    149328.19    -47643.16    3911.5102    -51554.67    0.1493729 
   29400    288.68513   -407.93228    149103.28   -47646.088    3964.3951   -51610.483   0.14256554 
   29600     288.7513   -412.56579    149103.42   -47607.129    3965.3037   -51572.432   0.14589676 
   29800     290.2922   -599.76222    149368.79   -47527.923    3986.4644   -51514.387   0.15414825 
   30000    291.00131   -629.42699    149346.08   -47518.131    3996.2023   -51514.333   0.15210933 
   30200    293.99917   -389.14141    149074.01   -47529.416    4037.3706   -51566.787   0.14678628 
   30400    294.09797   -410.67119    149129.86   -47581.704    4038.7274   -51620.431   0.14308279 
   30600    290.67132    -644.9148     149397.3   -47526.417    3991.6706   -51518.087   0.15107033 
   30800    291.50004   -596.68623    149292.34   -47494.422    4003.0511   -51497.473   0.15430594 
   31000    288.25307    -354.5324    149021.58   -47482.017    3958.4617   -51440.479   0.15170919 
   31200    291.31311   -427.87109    149206.66   -47483.937     4000.484   -51484.421   0.14616496 
   31400    290.02074   -691.44689    149509.93   -47479.177    3982.7365   -51461.913    0.1519829 
   31600     290.1861   -511.82693    149252.46    -47543.92    3985.0072   -51528.927   0.14692375 
   31800    287.92727   -314.14106    148924.15   -47517.413    3953.9878   -51471.401   0.15269353 
   32000    298.48244   -529.35321    149291.05   -47487.097    4098.9375   -51586.035   0.14715066 
   32200    289.07979   -789.32579    149604.17   -47517.336    3969.8148   -51487.151   0.15188505 
   32400    290.03607   -416.93542    149181.43   -47513.937     3982.947   -51496.884   0.14867208 
   32600    295.51842   -226.91365    148897.81   -47504.145    4058.2339   -51562.379   0.14664512 
   32800    285.77327   -636.43937       149447   -47497.304    3924.4077   -51421.712   0.15022138 
   33000    291.59757   -800.49044    149668.95   -47483.813    4004.3904   -51488.203   0.14833547 
   33200    292.76355   -292.54012    149010.68   -47483.549    4020.4024   -51503.952   0.14703425 
   33400    293.07119    -201.6105    148900.48   -47446.344     4024.627   -51470.971   0.14364628 
   33600    298.32449   -753.72347    149653.65   -47374.357    4096.7685   -51471.125   0.15077887 
   33800     294.1938   -769.35208    149648.68   -47407.863    4040.0434   -51447.907   0.14859566 
   34000    292.48815   -150.48238    148820.73   -47435.858    4016.6203   -51452.478   0.14624204 
   34200    299.16128   -265.38788    148953.89   -47468.938    4108.2598   -51577.198   0.14619872 
   34400    292.16036   -855.60658    149757.47   -47526.499     4012.119   -51538.618   0.15065066 
   34600    293.61976   -651.30908    149462.72   -47502.276    4032.1604   -51534.436   0.15041124 
   34800    289.95503   -106.18211    148730.92   -47548.325    3981.8342   -51530.159   0.14076042 
   35000    288.39169   -417.36515    149119.96   -47572.172    3960.3654   -51532.538   0.14558749 
   35200    292.03044   -831.90146    149734.84   -47553.955    4010.3348    -51564.29    0.1537171 
   35400     292.0615   -517.28123    149264.36    -47518.85    4010.7615   -51529.612    0.1496684 
   35600    290.53325   -135.69533    148791.67    -47516.05    3989.7746   -51505.824   0.14494488 
   35800    297.99966    -509.6344    149305.66   -47515.379    4092.3077   -51607.686   0.14314354 
   36000    293.35488   -792.81516    149642.98    -47512.01    4028.5229   -51540.533   0.15284213 
   36200    290.42804   -445.08627    149153.24   -47531.462    3988.3298   -51519.791   0.15206312 
   36400    295.51423   -267.74696    148953.89   -47560.747    4058.1764   -51618.924   0.14481127 
   36600    293.53907   -591.18643    149360.88   -47533.076    4031.0523   -51564.128   0.14543494 
   36800    294.23822   -682.39657    149455.47   -47575.251    4040.6534   -51615.905   0.14399013 
   37000    291.07293   -362.82839    149097.38    -47566.81    3997.1858   -51563.995   0.14095644 
   37200     290.8306   -378.73618    149104.93   -47528.207     3993.858   -51522.065   0.14686473 
   37400    285.56863   -637.29326    149413.09    -47518.27    3921.5975   -51439.867   0.15384055 
   37600    288.41354   -608.14568    149347.86   -47546.324    3960.6654    -51506.99   0.14547487 
   37800     294.5522   -310.56306    149045.18   -47513.978    4044.9651   -51558.943   0.14295235 
   38000    290.35133    -474.4159    149159.62   -47567.006    3987.2763   -51554.282   0.14702527 
   38200    288.04793   -646.62083    149416.04   -47558.194    3955.6446   -51513.838   0.15198492 
   38400    290.80576    -506.2658    149239.64   -47524.252    3993.5169   -51517.768   0.14953831 
   38600    295.30322   -347.03391    149035.57    -47524.38    4055.2786   -51579.659    0.1433068 
   38800    292.35261   -532.88344    149236.39   -47572.931     4014.759    -51587.69   0.14039797 
   39000    290.15953   -635.84491    149387.57   -47598.774    3984.6424   -51583.416   0.14450344 
   39200    289.21366   -476.80025    149165.53   -47620.482    3971.6532   -51592.136   0.14495955 
   39400    289.88449   -353.22679    149015.35   -47612.072    3980.8654   -51592.938   0.14833712 
   39600    285.16794   -558.61984    149262.89   -47680.341    3916.0949   -51596.436   0.14273291 
   39800    289.54235   -593.63924    149353.62   -47667.774    3976.1669   -51643.941   0.13966107 
   40000     287.6095   -392.09057    149108.23   -47680.988    3949.6239   -51630.612   0.14114333 
   40200    283.93664   -393.33463    149074.06   -47655.857    3899.1859   -51555.043   0.14467218 
   40400    285.52105   -591.88356    149345.32   -47647.446     3920.944    -51568.39   0.14926671 
   40600    284.10687   -630.18226    149320.53   -47675.712    3901.5237   -51577.235   0.14851802 
   40800    290.52397   -368.27664    149020.96   -47696.818    3989.6471   -51686.466   0.13820876 
   41000    287.54675   -381.96229    149075.85   -47651.567    3948.7622   -51600.329   0.13949786 
   41200    287.58986   -672.52913    149418.67   -47682.747    3949.3542   -51632.101   0.14569852 
   41400    282.68464   -602.99078    149311.53   -47647.099    3881.9928   -51529.092   0.14957441 
   41600    288.63399   -294.59426    148953.94   -47645.707    3963.6928     -51609.4   0.14474234 
   41800    284.74705   -481.40498    149142.22   -47642.953    3910.3151   -51553.268   0.14828845 
   42000    287.66939   -737.81695    149483.23    -47612.97    3950.4464   -51563.417   0.14599995 
   42200    289.83405    -490.9367    149234.96   -47641.428    3980.1728   -51621.601    0.1422809 
   42400    287.88655   -296.46466    148890.32   -47694.633    3953.4285   -51648.061   0.14351705 
   42600     284.9214   -494.44716    149201.46   -47720.003    3912.7093   -51632.712   0.14558766 
   42800    282.70657   -745.71841    149534.38   -47717.343     3882.294   -51599.637    0.1466436 
   43000    286.84635   -421.59236    149116.88   -47674.599    3939.1439   -51613.743   0.14096962 
   43200    292.04649   -165.50512    148849.22   -47680.753    4010.5553   -51691.308   0.13488395 
   43400    291.17315   -623.97568    149373.84   -47670.181     3998.562   -51668.743   0.13851235 
   43600    290.83967   -746.05295    149592.71   -47662.358    3993.9825   -51656.341   0.13895404 
   43800    284.96477   -314.76602     148999.7   -47640.041    3913.3049   -51553.346   0.14494913 
   44000    282.36779   -240.80086    148911.91   -47660.169    3877.6417    -51537.81   0.14864868 
   44200    283.63421    -762.9676    149566.15   -47699.179    3895.0328   -51594.211   0.14515945 
   44400    288.01381   -709.88509    149518.94   -47673.315    3955.1761   -51628.491   0.13867087 
   44600     294.1957   -180.50954    148838.78   -47615.062    4040.0695   -51655.132   0.13983447 
   44800     294.0934   -306.32809    149037.73   -47580.859    4038.6646   -51619.523   0.14324928 
   45000    286.28699   -891.52734    149746.62   -47610.332    3931.4624   -51541.795   0.14920954 
   45200     288.4543   -604.81915    149393.35   -47634.084    3961.2252   -51595.309   0.14322123 
   45400    287.87106   -123.05709    148691.78   -47687.774    3953.2158    -51640.99   0.13568113 
   45600     286.2057   -457.84601    149144.67   -47675.871    3930.3461   -51606.217   0.13873944 
   45800    288.85794   -884.52639    149763.93   -47642.398    3966.7683   -51609.166   0.14508331 
   46000    289.51504   -448.06744    149180.41   -47643.655    3975.7919   -51619.447   0.14440036 
   46200    287.25525   -104.28834    148702.58   -47679.896    3944.7591   -51624.655   0.14327478 
   46400    285.73396   -627.66422    149383.62   -47659.819    3923.8678   -51583.687   0.14113748 
   46600    290.40575   -839.91032    149724.43   -47652.812    3988.0236   -51640.835   0.13928146 
   46800     288.8941   -345.70975    149053.71   -47623.231    3967.2648   -51590.495    0.1399242 
   47000    287.62987   -227.89363    148885.78   -47603.394    3949.9036   -51553.297    0.1432126 
   47200    287.59586   -686.77549    149480.21   -47570.783    3949.4366    -51520.22   0.14637188 
   47400    286.61663    -711.9164    149515.71   -47500.206    3935.9892   -51436.195   0.14617296 
   47600    293.60622   -306.49827    149047.22     -47477.4    4031.9745   -51509.375   0.13909159 
   47800    295.53313   -359.78834    149106.41   -47446.589    4058.4358   -51505.025   0.14227983 
   48000    297.14318   -620.64145    149463.77   -47447.665    4080.5461   -51528.212   0.14635251 
   48200    293.36858   -569.87444    149363.84   -47448.446    4028.7109   -51477.157   0.15221053 
   48400    290.68526   -400.15354     149096.8   -47430.101    3991.8621   -51421.963   0.15214999 
   48600    294.34054   -468.67246    149217.64   -47495.145    4042.0585   -51537.204   0.14535999 
   48800    293.71629   -596.06466    149419.99   -47434.584     4033.486    -51468.07   0.14764039 
   49000    291.28991    -551.5627    149285.33   -47412.484    4000.1655    -51412.65     0.151077 
   49200    291.28116   -379.28703    149118.78   -47447.652    4000.0453   -51447.697    0.1467124 
   49400    295.23634   -504.30653    149255.62   -47458.127    4054.3602   -51512.487   0.14798907 
   49600    291.17727   -603.97147     149376.1   -47473.703    3998.6187   -51472.322   0.14577452 
   49800    292.94707   -505.62421    149234.61   -47454.439    4022.9226   -51477.361   0.14665974 
   50000    287.91913   -470.13275    149123.82   -47455.358    3953.8759   -51409.234    0.1491538 
   50200    291.47473   -515.48863    149277.28   -47491.972    4002.7036   -51494.675    0.1438035 
   50400    293.79175   -587.93283    149383.49   -47495.813    4034.5221   -51530.335   0.14761438 
   50600    292.09972   -513.81897    149245.31    -47518.06    4011.2863   -51529.346   0.14942792 
   50800    292.47046   -446.54766    149150.19   -47530.457    4016.3775   -51546.835   0.14760717 
   51000    293.98839   -485.68721    149298.91   -47465.424    4037.2226   -51502.646   0.14103068 
   51200    291.82701   -569.87182       149408   -47495.471    4007.5412   -51503.012   0.14107562 
   51400    289.45846   -494.46563    149246.01   -47459.685    3975.0149     -51434.7   0.15000891 
   51600    290.95945   -420.61968     149148.8   -47460.865    3995.6274   -51456.493   0.14553601 
   51800    296.70548   -535.62694    149319.48   -47456.165    4074.5353     -51530.7   0.14268887 
   52000    299.46457   -562.78975       149401   -47416.256    4112.4248   -51528.681   0.14224135 
   52200    296.32266   -432.06547     149232.6   -47390.261    4069.2782   -51459.539   0.14472084 
   52400    292.38181   -405.59445    149195.87   -47370.525    4015.1601   -51385.685   0.15329038 
   52600    293.67013   -566.27837    149394.02   -47407.723     4032.852   -51440.575   0.15630233 
   52800    294.12457    -582.4659    149417.17   -47426.674    4039.0926   -51465.766   0.14955404 
   53000    294.27472   -442.37115    149215.96    -47434.52    4041.1546   -51475.675   0.14283721 
   53200    295.35894   -426.09616    149231.78   -47443.771    4056.0438   -51499.815   0.13773599 
   53400    299.38284   -627.59664    149446.56   -47471.715    4111.3023   -51583.017   0.14866095 
   53600    296.84346   -479.42681    149310.08   -47498.901    4076.4301   -51575.331   0.14214545 
   53800    289.57183   -373.67246    149046.08   -47476.803    3976.5718   -51453.375   0.14449688 
   54000    294.34364   -525.23259    149261.39   -47467.294    4042.1011   -51509.395   0.14368861 
   54200    297.94709   -659.38183    149527.24    -47472.01    4091.5858   -51563.596   0.14652604 
   54400    298.74426   -434.58917    149215.78   -47502.044    4102.5331   -51604.577   0.14582364 
   54600    293.99997     -294.586    148992.95   -47497.383    4037.3816   -51534.765   0.14895271 
   54800    292.46461    -598.0511    149406.78   -47438.812    4016.2971   -51455.109   0.15086835 
   55000     289.8482   -691.53845    149586.29   -47439.451    3980.3671   -51419.819   0.14764758 
   55200    291.71915   -377.73962     149136.4   -47473.268      4006.06   -51479.328   0.14133118 
   55400    291.98522   -281.12664    149010.61   -47498.934    4009.7138   -51508.648   0.14283554 
   55600    292.14384   -667.94127    149492.73   -47531.718    4011.8921    -51543.61   0.14565942 
   55800    294.50498   -700.96221    149492.48   -47504.122    4044.3167   -51548.438   0.14573759 
   56000    287.65892   -292.00989    148960.86   -47491.034    3950.3026   -51441.336   0.14664905 
   56200    293.59579   -317.34862    149050.15   -47525.906    4031.8312   -51557.737   0.14569829 
   56400    289.19555   -774.00576    149610.31   -47523.763    3971.4044   -51495.168   0.15182026 
   56600     288.0858   -615.71161     149405.3   -47528.522    3956.1647   -51484.686   0.15106202 
   56800    287.62319   -244.64633    148868.64     -47482.3    3949.8119   -51432.112   0.15274506 
   57000    290.32486   -435.12194    149180.48   -47488.673    3986.9129   -51475.586   0.15211556 
   57200     288.1929   -818.15555    149668.93   -47513.182    3957.6355   -51470.818   0.15423366 
   57400    292.11204   -491.87198    149226.59   -47535.928    4011.4555   -51547.384   0.14853065 
   57600    289.61838   -199.29658    148797.28   -47527.156     3977.211   -51504.367   0.14223302 
   57800    296.84846    -496.2821    149304.66   -47538.421    4076.4987    -51614.92    0.1404447 
   58000    288.85003   -816.70016    149671.35   -47546.171    3966.6596   -51512.831   0.15357676 
   58200     285.2759   -408.22946    149117.26   -47589.985    3917.5775   -51507.563   0.14958419 
   58400    291.89822   -209.11703    148819.92   -47584.448    4008.5191   -51592.967    0.1446739 
   58600    294.75469   -616.12818    149415.74   -47560.444    4047.7459    -51608.19    0.1410918 
   58800    290.60991    -793.1203    149607.08   -47590.597    3990.8273   -51581.424    0.1526694 
   59000    287.41053   -333.01419    148980.41   -47618.894    3946.8915   -51565.786   0.14835824 
   59200    289.39724   -226.18494    148864.22   -47619.958    3974.1742   -51594.132   0.14544482 
   59400    288.40422   -663.44184    149461.45   -47557.324    3960.5375   -51517.861   0.14906914 
   59600    288.93675   -671.79302    149470.72   -47551.724    3967.8504   -51519.575   0.14208431 
   59800    292.37496   -252.83674     148935.1   -47541.725     4015.066   -51556.791   0.13619638 
   60000    293.14475   -365.61274    149047.89   -47529.222    4025.6372   -51554.859   0.14737272 
   60200    294.75853   -685.44692    149526.79   -47498.147    4047.7986   -51545.946   0.15280434 
   60400    292.95759   -598.66876    149386.19   -47466.706     4023.067   -51489.773   0.14768906 
   60600    286.75474    -296.5352     148980.9   -47510.165    3937.8858   -51448.051   0.15125448 
   60800    298.09415   -389.49266    149150.28   -47449.001    4093.6053   -51542.606   0.14511666 
   61000    293.30136   -714.34499    149481.12    -47486.83    4027.7878   -51514.618   0.15818519 
   61200    292.64651   -539.34207    149273.17   -47491.946    4018.7951   -51510.741   0.15420241 
   61400    294.63056   -312.48297    149009.79    -47491.26    4046.0412   -51537.301   0.14796367 
   61600    290.12739   -524.73134    149241.19   -47481.697    3984.2011   -51465.898   0.15054355 
   61800    295.07179   -652.11699    149455.23   -47480.325    4052.1005   -51532.425   0.14307029 
   62000    289.83245   -500.87571    149213.13   -47506.221    3980.1507   -51486.372   0.15264607 
   62200    293.20848   -321.31179    149036.32   -47519.853    4026.5125   -51546.366   0.14434814 
   62400    292.60516   -543.65254    149286.49   -47478.863    4018.2272    -51497.09   0.15198918 
   62600     286.5748   -661.48582    149439.57   -47497.166    3935.4147   -51432.581   0.15482948 
   62800    290.73062   -471.75532    149210.47   -47475.996    3992.4849   -51468.481   0.15438053 
   63000    295.62014    -393.6433    149108.87   -47444.185    4059.6308   -51503.816   0.15338505 
   63200    292.85126   -580.94917     149347.4   -47447.626    4021.6068   -51469.233    0.1527141 
   63400    298.52788   -559.99569    149376.42   -47402.566    4099.5615   -51502.127    0.1500033 
   63600    292.59076   -432.91211    149172.48   -47383.007    4018.0295   -51401.037   0.15416263 
   63800    294.19459   -457.88263    149180.99   -47411.732    4040.0542   -51451.786   0.15113232 
   64000    297.66225   -538.35038    149298.16   -47403.493    4087.6743   -51491.167   0.15022107 
   64200    299.68155   -488.30725    149265.27   -47405.493    4115.4044   -51520.898   0.14973654 
   64400    299.18235   -463.79736    149211.93   -47392.723    4108.5491   -51501.272   0.14771706 
   64600    296.58101   -518.14175     149257.9   -47449.201     4072.826   -51522.027   0.15449201 
   64800    290.54501   -569.59251    149301.55   -47458.021     3989.936   -51447.957   0.15996958 
   65000    295.59883   -444.00429     149235.1   -47449.157    4059.3381   -51508.495   0.14812272 
   65200    298.29018   -450.99306    149220.26   -47476.538    4096.2973   -51572.835   0.14815205 
   65400    291.35903   -516.27183    149232.97   -47501.891    4001.1146   -51503.006   0.15279336 
   65600    298.96159    -494.1476    149216.56   -47526.994    4105.5175   -51632.512   0.14896301 
   65800    293.24564   -489.71898    149215.14   -47501.048    4027.0228   -51528.071   0.15261794 
   66000    292.77139    -484.8642    149240.83   -47499.788      4020.51   -51520.298   0.14979762 
   66200    290.36827   -541.25449    149241.62   -47524.792    3987.5089     -51512.3   0.14876323 
   66400    292.29662   -483.73577    149185.19   -47520.959    4013.9901   -51534.949   0.14752545 
   66600    290.61725    -478.7444    149166.31   -47533.192    3990.9281    -51524.12   0.15489456 
   66800    293.51308   -470.55547    149230.19   -47515.025    4030.6954    -51545.72   0.15598786 
   67000    296.24463   -565.65037    149268.97   -47545.218    4068.2066   -51613.425   0.15178209 
   67200    288.71846   -496.46633    149194.82   -47565.314    3964.8528   -51530.167   0.14739633 
   67400    293.17112   -465.19214    149165.81   -47599.857    4025.9994   -51625.856   0.14847275 
   67600    292.10106   -480.75088    149246.31   -47554.365    4011.3047    -51565.67    0.1431934 
   67800    293.71535   -536.52852    149272.95   -47501.999     4033.473   -51535.472   0.15161514 
   68000    297.59984   -453.79526    149201.06       -47499    4086.8171   -51585.817   0.14365453 
   68200    288.43445   -502.01139    149192.93   -47571.887    3960.9526    -51532.84   0.14653863 
   68400    294.38625   -498.79314    149233.41   -47514.915    4042.6862   -51557.601    0.1497729 
   68600     288.6639   -508.17985    149222.24   -47499.086    3964.1035    -51463.19    0.1541289 
   68800    295.74164    -476.3348    149174.59   -47466.307    4061.2993   -51527.606    0.1586332 
   69000    290.07862   -487.74053    149195.36   -47511.256    3983.5313   -51494.787   0.15342018 
   69200    293.34916   -508.69734    149237.02    -47517.29    4028.4444   -51545.735    0.1483723 
   69400    291.70377    -484.0467    149199.64   -47555.953    4005.8488   -51561.802   0.14575202 
   69600    288.31516   -462.88302    149122.75    -47569.43    3959.3144   -51528.745   0.15066602 
   69800    289.02474   -505.31174    149182.82   -47535.769    3969.0588   -51504.828   0.15248378 
   70000    293.73552   -518.92558    149274.97   -47495.252      4033.75   -51529.002   0.14953416 
   70200    296.42517   -487.10224    149253.56    -47478.64    4070.6859   -51549.326   0.14757069 
   70400    289.63985   -469.51132    149187.18   -47492.985    3977.5059   -51470.491   0.15199577 
   70600    291.52335   -500.97366    149224.75    -47465.63    4003.3712   -51469.002   0.15413262 
   70800    292.27968   -594.58156    149305.59   -47489.578    4013.7575   -51503.335    0.1543744 
   71000    292.02013   -498.43703     149193.6   -47536.316    4010.1933   -51546.509    0.1544145 
   71200    290.79896    -435.5362    149083.25   -47544.856    3993.4235    -51538.28    0.1533084 
   71400    296.37347   -518.68819    149247.06   -47511.496    4069.9758   -51581.472    0.1526599 
   71600    292.77289    -617.4978     149419.9   -47488.477    4020.5307   -51509.008    0.1501489 
   71800    290.54922   -493.89569    149235.43   -47509.441    3989.9939   -51499.435   0.14501422 
   72000    291.58118   -366.90078    149064.36   -47537.269    4004.1653   -51541.434   0.14593313 
   72200    286.57394   -552.47434    149286.71    -47570.91     3935.403   -51506.313   0.15131488 
   72400    289.22183   -657.54577    149428.66   -47551.498    3971.7654   -51523.263   0.14887775 
   72600    290.95566   -444.67179    149186.92   -47520.109    3995.5754   -51515.685    0.1471765 
   72800    289.44155   -365.41472    149068.26   -47597.169    3974.7827   -51571.952   0.14604871 
   73000    290.48516   -542.73025    149292.23   -47593.866    3989.1141    -51582.98   0.14433654 
   73200    282.85713   -630.27616       149350   -47606.094    3884.3615   -51490.456   0.15522795 
   73400    287.60539   -393.64711    149098.93     -47603.1    3949.5674   -51552.668   0.15026724 
   73600    291.79144   -369.09283    149092.91   -47586.454    4007.0527   -51593.507   0.14247247 
   73800    289.29169   -614.20012    149400.92   -47578.885    3972.7247   -51551.609   0.14117946 
   74000    285.14446   -632.24159    149361.29   -47626.387    3915.7725   -51542.159   0.14606424 
   74200    285.41678    -339.5771    149005.13   -47624.566    3919.5122   -51544.079   0.15041776 
   74400     289.8042   -418.73743    149094.98   -47587.363    3979.7629   -51567.126   0.14876896 
   74600    283.59606   -675.30195    149455.42   -47607.419    3894.5089   -51501.928   0.14911729 
   74800    291.01882   -548.01943    149308.77   -47619.318    3996.4426   -51615.761   0.14662054 
   75000    292.08632   -305.95888    149010.09    -47585.53    4011.1023   -51596.632   0.14407497 
   75200    293.33322    -510.0199    149226.74   -47572.069    4028.2253   -51600.295   0.14707031 
   75400    293.08484   -689.46574    149489.82   -47556.105    4024.8145   -51580.919   0.15449773 
   75600    289.00438   -420.54176    149193.37   -47536.816    3968.7792   -51505.595   0.15206709 
   75800    290.53484   -315.00792    149021.62   -47515.622    3989.7964   -51505.418   0.14605426 
   76000    292.09306   -610.32095    149390.56   -47499.997    4011.1947   -51511.192   0.14762208 
   76200    288.36012    -728.7045    149510.27   -47523.824    3959.9319   -51483.755   0.15570609 
   76400    291.31032    -382.1736    149070.54    -47497.07    4000.4457   -51497.516   0.15607021 
   76600    293.83001   -306.08016    149018.98    -47484.68    4035.0476   -51519.728   0.14747732 
   76800    297.79054   -691.86285    149468.86   -47481.096    4089.4359   -51570.531   0.15407432 
   77000    294.31461   -657.40674       149442   -47482.735    4041.7024   -51524.437   0.15342502 
   77200    295.01749   -236.69054    148962.42   -47531.222    4051.3548   -51582.576   0.14367449 
   77400    286.53913   -396.75215    149057.21   -47521.152     3934.925   -51456.077   0.15600003 
   77600    288.46741   -748.58984    149545.01   -47532.613    3961.4053   -51494.018   0.15652118 
   77800    287.80143   -642.02701     149344.3   -47547.133    3952.2595   -51499.393   0.16034506 
   78000    290.28955   -220.18277    148854.37   -47550.574    3986.4279   -51537.002   0.14794579 
   78200    285.94453    -444.0436    149135.49   -47543.178    3926.7595   -51469.937    0.1535039 
   78400    290.96622   -805.92355    149623.55   -47558.284    3995.7203   -51554.004   0.15021604 
   78600    288.02666   -518.91283    149236.89   -47579.787    3955.3525   -51535.139   0.15100932 
   78800    295.99527   -160.70674    148790.39   -47569.704    4064.7822   -51634.486   0.14781245 
   79000    288.98361   -508.27356    149291.75   -47548.835     3968.494   -51517.329    0.1508789 
   79200    294.25879   -828.61753    149706.07    -47555.73    4040.9359   -51596.666   0.15361057 
   79400    292.12216    -413.8884    149137.23   -47513.345    4011.5944    -51524.94   0.14600502 
   79600    295.67427   -176.35739    148825.29   -47507.005    4060.3742   -51567.379   0.15201315 
   79800    287.54198   -676.44025    149434.31   -47528.766    3948.6966   -51477.462    0.1564917 
   80000    295.24938   -778.01799    149593.57    -47498.89    4054.5392   -51553.429   0.15721578 
   80200     297.2601   -275.20344    148932.49   -47468.513    4082.1516   -51550.664   0.15186164 
   80400    297.04545   -241.37311    148930.87   -47439.255     4079.204   -51518.459   0.14244546 
   80600    293.92369   -783.81333    149647.34   -47453.552    4036.3341   -51489.886   0.15079672 
   80800    299.22273   -690.02153    149522.25   -47397.329    4109.1037   -51506.433   0.15699969 
   81000    291.51232   -215.43105    148856.25   -47453.409    4003.2198   -51456.629   0.15657104 
   81200    296.63068   -342.11294    149063.63   -47433.738     4073.508   -51507.246   0.15107861 
   81400    293.25095   -819.41853    149655.38   -47405.416    4027.0956   -51432.511   0.16265761 
   81600    288.06999   -618.98948    149346.83   -47427.149    3955.9476   -51383.097   0.15979118 
   81800    293.23326   -178.14076    148818.72   -47434.937    4026.8528    -51461.79   0.15254735 
   82000    297.76998   -453.63726    149196.69   -47400.044    4089.1536   -51489.197   0.15805369 
   82200    293.45133   -798.34486    149618.22    -47439.97    4029.8474   -51469.817   0.16438981 
   82400    296.09019   -501.06843    149199.54   -47445.652    4066.0857   -51511.738   0.15013132 
   82600    297.09324   -235.88306    148895.98   -47491.993    4079.8602   -51571.854   0.14254079 
   82800     291.0488   -560.43082    149292.32   -47529.056    3996.8544    -51525.91    0.1559522 
   83000    288.65524   -704.70781    149496.71   -47509.946    3963.9846   -51473.931   0.16141841 
   83200    292.09416   -426.20182    149113.71   -47534.283    4011.2099   -51545.493   0.15138457 
   83400    288.16521   -362.15099    148985.96   -47554.713    3957.2552   -51511.968   0.15394172 
   83600    288.94244   -611.62354     149315.4   -47569.329    3967.9287   -51537.258   0.15737922 
   83800    294.14554   -609.80467    149376.62   -47518.019    4039.3807     -51557.4   0.15169562 
   84000    295.82872   -407.44133    149108.26   -47550.811    4062.4951   -51613.306   0.14402577 
   84200    291.84315   -381.10935    149087.78   -47538.191    4007.7629   -51545.954   0.15013317 
   84400    293.76723   -590.21664    149347.44    -47540.08    4034.1854   -51574.265   0.15285112 
   84600    288.01646   -569.84569    149321.84   -47536.509    3955.2125   -51491.722   0.14929184 
   84800    289.72582   -419.07285    149100.79   -47548.123    3978.6864   -51526.809   0.14764329 
   85000     293.8436   -413.43513    149155.44   -47512.592    4035.2342   -51547.826   0.14852485 
   85200    293.74638   -581.78113    149381.87   -47480.709    4033.8991   -51514.608   0.15506125 
   85400    290.78313   -580.11009    149317.28   -47468.102    3993.2061   -51461.308     0.159346 
   85600    292.00274   -446.40386    149106.67   -47466.547    4009.9545   -51476.501    0.1609392 
   85800    288.62544   -484.57268    149169.65   -47480.344    3963.5754   -51443.919   0.15573254 
   86000    290.81803   -538.93178    149351.09   -47432.325    3993.6853   -51426.011   0.15216789 
   86200    295.00862   -476.42726    149293.59   -47442.989    4051.2329   -51494.222   0.14520259 
   86400    292.59326   -438.27765    149115.07   -47438.033    4018.0638   -51456.096   0.15500543 
   86600    295.70907   -453.18762    149178.22   -47436.642     4060.852   -51497.494     0.155191 
   86800    292.19672   -611.63006    149364.99   -47465.564    4012.6183   -51478.183    0.1559161 
   87000    294.54586   -505.22382    149278.87   -47488.267     4044.878   -51533.145   0.15000645 
   87200    291.98214    -412.8093    149092.91   -47458.569    4009.6716   -51468.241   0.15123155 
   87400    301.80479   -442.31833    149197.45   -47421.959     4144.562   -51566.521   0.15077504 
   87600    293.11689      -620.09    149389.21   -47487.262    4025.2546   -51512.517    0.1578928 
   87800    289.59613    -509.4122    149255.96    -47494.05    3976.9055   -51470.956     0.152443 
   88000    297.04295   -369.94407    149073.07   -47447.648    4079.1696   -51526.818   0.14807113 
   88200    288.90546   -528.05305    149273.46   -47457.953    3967.4208   -51425.374   0.15417998 
   88400    296.73312   -650.69493    149435.58    -47443.09    4074.9148   -51518.004   0.14973629 
   88600    295.56594   -447.23405     149203.7   -47458.885    4058.8864   -51517.771   0.14878634 
   88800    295.51166   -349.36925    149062.43   -47450.417     4058.141   -51508.558   0.15314677 
   89000    289.44534   -540.43653    149325.32   -47469.371    3974.8347   -51444.206   0.15275736 
   89200    292.10942   -624.53982    149431.35   -47442.545    4011.4195   -51453.965   0.15132105 
   89400    293.77401   -363.84397    149105.89   -47416.825    4034.2785   -51451.103   0.15383308 
   89600    295.70763   -330.45809     149077.9   -47440.882    4060.8322   -51501.714   0.15447338 
   89800    294.97384   -651.59152    149498.87   -47472.814    4050.7554    -51523.57   0.15234479 
   90000    293.06683    -618.6365    149411.57    -47490.31    4024.5672   -51514.878   0.15403848 
   90200    292.85262    -288.5486    148903.75   -47539.514    4021.6255    -51561.14   0.14803701 
   90400    294.65936   -348.34698    149043.94   -47559.649    4046.4368   -51606.086   0.14610995 
   90600    288.00731   -794.12058    149596.51   -47544.933    3955.0868   -51500.019    0.1531486 
   90800    288.78208   -606.23743     149326.7   -47571.579    3965.7265   -51537.306   0.15072395 
   91000    290.53977    -155.9557    148749.54   -47576.143    3989.8641   -51566.007   0.14998887 
   91200    291.90133   -430.14899    149125.02   -47589.169    4008.5618    -51597.73   0.14631698 
   91400    290.66202   -858.87369    149687.58    -47572.64    3991.5429   -51564.183   0.15611368 
   91600    289.02857   -514.39753    149178.91   -47582.089    3969.1114     -51551.2   0.15260458 
   91800    293.75839    -100.7482    148678.47   -47560.643     4034.064   -51594.707    0.1492847 
   92000    291.61255   -588.62699    149306.49   -47572.506    4004.5961   -51577.102   0.15366743 
   92200    290.57683   -863.61992    149667.01   -47590.455     3990.373   -51580.828    0.1565866 
   92400    289.08761   -406.19468     148972.6   -47576.138    3969.9222    -51546.06   0.15573818 
   92600    289.80153   -188.84806    148722.08   -47633.735    3979.7262   -51613.461   0.14619264 
   92800    289.08917   -699.16987    149430.24   -47597.565    3969.9436   -51567.508   0.15291188 
   93000    290.42693   -776.64481    149597.14   -47522.342    3988.3145   -51510.657   0.15960651 
   93200    290.50654   -352.31624    148943.78   -47526.454    3989.4078   -51515.862   0.15899207 
   93400    293.68633   -277.78357    148886.73   -47530.282    4033.0746   -51563.357   0.15790325 
   93600    292.20961   -724.28652    149518.03   -47509.305    4012.7953     -51522.1   0.15825962 
   93800    291.52798   -706.94034    149501.42   -47499.626    4003.4348   -51503.061   0.15509701 
   94000    296.82629   -226.61142    148936.58   -47505.329    4076.1943   -51581.523   0.14831553 
   94200    289.45743   -339.02385     149023.7   -47587.215    3975.0008   -51562.215   0.15228712 
   94400     286.9583   -732.50232    149507.46   -47567.902    3940.6813   -51508.583   0.15430453 
   94600    286.29775   -586.64943    149344.01    -47565.83    3931.6101    -51497.44   0.14882235 
   94800    282.83838   -305.65132    148916.93   -47621.569     3884.104   -51505.673   0.14601096 
   95000    291.98304   -418.38335    149127.26   -47627.924    4009.6839   -51637.608   0.14617531 
   95200    288.63688    -714.0076    149493.21   -47629.836    3963.7325   -51593.569   0.15026883 
   95400    288.40686   -504.73015    149244.44    -47643.43    3960.5737   -51604.004   0.15123399 
   95600    290.50641   -296.60249    148961.92   -47608.826     3989.406   -51598.232   0.14708941 
   95800    288.88724   -573.42945    149238.61   -47571.361    3967.1705   -51538.531   0.14789408 
   96000    295.84435   -625.67531    149438.42   -47560.766    4062.7098   -51623.476   0.14648578 
   96200    287.99191   -470.42271    149125.74   -47605.551    3954.8754   -51560.426    0.1493872 
   96400    290.75048   -303.11204    148982.89   -47600.544    3992.7578   -51593.302   0.14622478 
   96600    287.58072   -604.21326    149320.89   -47610.348    3949.2286   -51559.577   0.14271418 
   96800    285.12892   -629.44067    149411.59   -47660.928    3915.5592   -51576.487    0.1410063 
   97000    283.98617   -380.74825    149052.24   -47647.539    3899.8661   -51547.405   0.14635682 
   97200    290.64296   -340.68812    149016.65    -47635.59    3991.2811   -51626.871   0.14426455 
   97400    291.05113   -676.92928    149414.26   -47588.059    3996.8864   -51584.945   0.15245092 
   97600    290.82806   -611.78101     149423.2   -47559.638     3993.823   -51553.461    0.1497321 
   97800    291.20788   -342.52558    149034.35   -47557.503    3999.0389   -51556.542   0.14752388 
   98000    291.74786   -379.25664    149106.17   -47528.978    4006.4543   -51535.432   0.14744694 
   98200    298.02016   -677.52017    149497.47   -47536.884    4092.5892   -51629.473   0.15128097 
   98400    295.99985   -567.85764    149379.83   -47466.201    4064.8452   -51531.046   0.15011407 
   98600    290.26877   -351.15897    149034.92    -47517.06    3986.1425   -51503.202   0.15075845 
   98800     295.4724   -423.86773    149207.14   -47478.551    4057.6019   -51536.153   0.14454973 
   99000    293.78869    -674.2216     149532.8   -47479.447    4034.4802   -51513.927   0.14945159 
   99200    291.81947   -536.95404    149299.07   -47546.813    4007.4377   -51554.251   0.14598373 
   99400    289.64733    -303.4527    148959.68    -47642.37    3977.6086   -51619.978   0.14514843 
   99600    287.94647   -534.94273     149225.2   -47664.729    3954.2514   -51618.981   0.14979678 
   99800    289.14289   -665.15629     149504.4   -47633.519    3970.6813     -51604.2   0.14368262 
  100000     289.1143   -413.22192    149195.77   -47635.952    3970.2887   -51606.241   0.14282287 
  100200    288.22686   -331.58162    148979.32   -47595.491    3958.1018   -51553.593   0.14590342 
  100400    290.21556   -595.79189    149374.01   -47591.438    3985.4119    -51576.85   0.14633332 
  100600     290.1878   -751.83374    149547.91    -47537.63    3985.0306   -51522.661   0.14976047 
  100800    292.52567   -384.07065    149075.02   -47571.143    4017.1357   -51588.279   0.14636559 
  101000    285.66819   -281.59443    148945.22   -47554.246    3922.9647    -51477.21   0.15074133 
  101200    290.97068    -679.8903    149473.77   -47528.602    3995.7817   -51524.384   0.14672776 
  101400    291.66997   -711.64059    149512.04   -47534.058    4005.3847   -51539.442   0.14813198 
  101600    290.13107   -247.21884    148916.78    -47554.61    3984.2515   -51538.862   0.14840734 
  101800    287.58711   -273.02346    148969.31   -47521.162    3949.3164   -51470.478   0.14970055 
  102000    289.16834   -857.66372    149613.58   -47517.931    3971.0308   -51488.962   0.16183032 
  102200    292.73498   -674.80193     149435.8    -47510.83    4020.0101    -51530.84   0.15532898 
  102400    294.79425   -143.59081    148778.69   -47456.395    4048.2892   -51504.684   0.15165828 
  102600    296.40556   -409.96162    149134.41   -47469.104    4070.4166   -51539.521   0.15232335 
  102800    296.70011   -890.16194    149774.91   -47474.406    4074.4615   -51548.868   0.15790496 
  103000    292.45609   -515.82482    149298.75   -47472.119    4016.1802   -51488.299    0.1497594 
  103200    292.69704   -109.04504    148735.13   -47455.895     4019.489   -51475.384   0.14860164 
  103400     296.1372   -550.21617    149273.05   -47481.957    4066.7313   -51548.688   0.14940576 
  103600    288.74488   -871.44983    149705.97   -47479.563    3965.2156   -51444.779   0.15832239 
  103800    297.50551   -372.20234    149102.65   -47489.686    4085.5218   -51575.208   0.14875562 
  104000    295.56328   -160.20738    148809.52   -47500.276    4058.8498   -51559.126   0.15081541 
  104200    292.64994    -664.7839    149427.17   -47511.121    4018.8421   -51529.964    0.1558074 
  104400    285.53145   -779.17976    149578.96    -47523.68    3921.0869   -51444.767   0.15485442 
  104600    293.88035   -301.78798    148967.53   -47524.963    4035.7389   -51560.702   0.14916967 
  104800    290.91965   -270.68644     148926.7   -47515.789    3995.0808    -51510.87   0.14889143 
  105000    288.76283   -728.45546     149489.6   -47540.943    3965.4621   -51506.405   0.15302985 
  105200    289.35033   -663.62041    149433.75   -47541.761    3973.5299   -51515.291   0.14981437 
  105400    290.90601   -334.03385    148950.43   -47536.494    3994.8935   -51531.387   0.14673146 
  105600    290.72677   -440.78807    149056.19   -47534.054    3992.4321   -51526.486   0.14906964 
  105800    288.02128   -671.48534     149463.3   -47547.298    3955.2787   -51502.576   0.15048609 
  106000    289.69848   -541.19866    149311.85   -47529.474    3978.3111   -51507.785    0.1525284 
  106200    292.42721   -336.20404    148991.09   -47507.806    4015.7836   -51523.589   0.15204446 
  106400    292.87555   -446.17292    149141.07   -47519.041    4021.9404   -51540.981   0.15080856 
  106600    288.46446   -615.23376    149396.97   -47518.438    3961.3647   -51479.803   0.15160107 
  106800    292.89178   -488.93215    149247.46   -47512.707    4022.1634    -51534.87   0.14747884 
  107000    294.85829   -377.64632    149046.78   -47471.035    4049.1686   -51520.204   0.14735912 
  107200    293.55464   -514.36752    149238.18   -47458.039    4031.2661   -51489.305   0.14745771 
  107400    295.89782   -604.24929    149405.54   -47463.714     4063.444   -51527.158   0.15008085 
  107600    293.34768   -475.59519    149226.75    -47442.53     4028.424   -51470.954   0.15081526 
  107800    287.28109    -415.7672    149099.89   -47465.365     3945.114   -51410.479   0.15065917 
  108000    295.53854    -483.0178    149305.64   -47441.152    4058.5101   -51499.662   0.14788638 
  108200    290.57154   -650.64789    149427.96   -47473.577    3990.3004   -51463.878   0.15236477 
  108400    292.76504   -470.59907    149230.09   -47470.816    4020.4228   -51491.239   0.15209322 
  108600    290.06768   -446.84394    149114.22   -47443.673    3983.3811   -51427.054   0.15741445 
  108800    289.06275    -520.1492    149298.57   -47464.511    3969.5808   -51434.092   0.14656995 
  109000    296.57611   -556.05981    149369.91   -47503.202    4072.7587   -51575.961   0.14160581 
  109200    288.23241   -447.68859    149137.32   -47505.257     3958.178   -51463.435   0.14902064 
  109400    292.71789   -423.10193    149148.51   -47490.849    4019.7753   -51510.624   0.14957875 
  109600    300.37313   -554.43988    149389.77   -47451.135    4124.9016   -51576.037   0.14718451 
  109800    291.96717   -556.89858    149364.98   -47502.362    4009.4661   -51511.828    0.1466866 
  110000     296.2048    -427.4829    149159.53   -47443.286    4067.6597   -51510.946   0.15417783 
  110200     294.3593     -475.972    149218.72   -47429.938    4042.3161   -51472.254   0.15586469 
  110400    299.56969   -572.13614    149378.08   -47480.242    4113.8683   -51594.111   0.15030193 
  110600    292.31107   -498.86649    149259.27    -47553.09    4014.1887   -51567.279   0.14960961 
  110800    288.91527   -433.17515    149113.12   -47551.263    3967.5555   -51518.818   0.14771659 
  111000    294.36214   -472.65106    149235.36   -47553.312    4042.3551   -51595.668    0.1414458 
  111200    293.67192   -577.66579    149380.99   -47539.863    4032.8766    -51572.74   0.14245861 
  111400    291.43951   -490.73422    149271.01   -47594.782    4002.2198   -51597.002   0.14369315 
  111600    288.51493   -421.88974    149120.41   -47649.152    3962.0578    -51611.21   0.14731478 
  111800    286.41856   -505.35181    149227.65    -47682.48    3933.2692   -51615.749   0.14172356 
  112000    288.39188    -575.1137    149364.34    -47672.76     3960.368   -51633.128   0.13947035 
  112200    289.11306   -500.21445    149234.28   -47631.706    3970.2717   -51601.978   0.14776067 
  112400    287.82622   -412.44962    149140.14   -47600.118       3952.6   -51552.718    0.1457748 
  112600    289.03877   -519.14684     149286.1   -47574.223    3969.2515   -51543.475   0.14364623 
  112800    289.06109    -594.5219    149371.05   -47590.171     3969.558   -51559.729   0.14561407 
  113000    288.70535   -453.93674    149247.02   -47569.787    3964.6728    -51534.46   0.14325121 
  113200    290.30253   -436.64332    149224.18   -47606.311    3986.6062   -51592.917   0.14016612 
  113400    287.59953   -550.34357    149329.72   -47585.443    3949.4869    -51534.93   0.14068268 
  113600    291.84088   -535.63399    149322.52   -47590.644    4007.7317   -51598.375     0.140042 
  113800    289.38032   -471.76569    149219.19   -47573.871    3973.9418   -51547.812   0.14805381 
  114000    289.05803   -462.41707     149229.9   -47559.413     3969.516   -51528.929   0.14765646 
  114200     285.9653   -533.99588     149306.6   -47571.052    3927.0448   -51498.096   0.14921347 
  114400    293.05405   -496.24009    149267.03   -47512.684    4024.3917   -51537.075    0.1444118 
  114600      287.389   -446.62991    149216.56   -47485.908    3946.5958   -51432.503   0.14473166 
  114800    293.22485   -501.37588    149275.05   -47471.973    4026.7372   -51498.711    0.1492796 
  115000    292.79069   -613.45369    149343.74   -47501.034    4020.7751   -51521.809   0.15342017 
  115200    296.52493   -497.65922    149272.43    -47516.14    4072.0558   -51588.196   0.14585586 
  115400    295.55444   -449.52236    149211.68   -47529.497    4058.7285   -51588.225   0.14065657 
  115600    290.49386    -515.4618    149299.89    -47510.24    3989.2336   -51499.473   0.14551743 
  115800    290.34197   -532.82629    149309.96   -47525.775    3987.1478   -51512.923   0.14434297 
  116000    294.43722   -456.39021    149182.72   -47512.393    4043.3861    -51555.78   0.15079111 
  116200    289.37849   -496.27971     149200.8   -47529.532    3973.9168   -51503.449   0.15492023 
  116400    287.51452   -531.62181    149313.58   -47569.558    3948.3196   -51517.877   0.14541592 
  116600    289.53775   -516.98848    149245.15    -47582.14    3976.1038   -51558.243   0.14556958 
  116800    291.26973    -443.9624    149126.86   -47538.956    3999.8883   -51538.844   0.14643888 
  117000    289.32824    -451.3309    149262.76   -47544.819    3973.2266   -51518.045   0.14656748 
  117200    291.07256    -612.5469    149405.89   -47533.406    3997.1807   -51530.586   0.14863452 
  117400     291.0208   -515.21946    149216.45   -47561.315    3996.4699   -51557.785   0.14778247 
  117600    291.14753   -357.37252    149043.14   -47541.715    3998.2102   -51539.925   0.14317474 
  117800    292.48645   -525.14277    149309.79    -47500.76     4016.597   -51517.357   0.14115998 
  118000    292.39865   -633.76052    149512.97   -47489.876    4015.3913   -51505.267   0.14753422 
  118200    288.61241   -495.38271    149203.67   -47526.747    3963.3965   -51490.143   0.15474048 
  118400    290.35478   -309.97354    148996.29   -47578.783    3987.3237   -51566.107   0.14545982 
  118600    288.62889   -554.33101    149348.78   -47604.775    3963.6227   -51568.398   0.14291276 
  118800    286.69584   -698.09043    149489.25   -47652.292    3937.0769   -51589.369   0.15084015 
  119000     288.9397   -337.81032    149028.07   -47654.128     3967.891   -51622.019   0.14214166 
  119200    285.48578   -332.99869    148932.65   -47656.671    3920.4597    -51577.13   0.14908144 
  119400    290.83392   -640.13843    149425.73   -47679.789    3993.9035   -51673.692   0.14246337 
  119600    288.12376   -710.17591    149492.81   -47617.516     3956.686   -51574.202   0.15077695 
  119800    292.08167   -340.38275    149008.67   -47618.894    4011.0384   -51629.932   0.14580589 
  120000    290.65296   -336.22657    148995.66   -47637.781    3991.4185     -51629.2   0.13998895 
  120200    284.51942    -748.1807    149493.55   -47606.555    3907.1891   -51513.744   0.15299384 
  120400    286.48417   -654.29905    149415.99   -47652.717    3934.1701   -51586.887   0.15155007 
  120600    291.92738   -262.91646    148883.13   -47650.748    4008.9195   -51659.668   0.15122301 
  120800    282.18142   -394.97104    149031.66   -47640.193    3875.0823   -51515.275   0.15417106 
  121000     287.8994   -762.42032    149562.73   -47620.351    3953.6049   -51573.956   0.14929271 
  121200    287.26327   -574.15143    149331.83   -47619.751    3944.8693    -51564.62   0.14726666 
  121400    288.64855   -204.55915    148831.56   -47621.984    3963.8927   -51585.876   0.14764813 
  121600    288.65409   -439.43668    149144.76   -47611.714    3963.9689   -51575.682   0.14900387 
  121800    284.86642   -788.94126    149639.31   -47604.338    3911.9543   -51516.293   0.15021476 
  122000    289.90591   -540.95282    149268.45   -47584.652    3981.1596   -51565.812    0.1459928 
  122200    290.08473    -210.7947    148823.41   -47556.026    3983.6153   -51539.642   0.14326756 
  122400    291.75927   -527.32935    149264.35   -47507.997     4006.611   -51514.608   0.14851947 
  122600    291.37353   -774.35479    149678.04   -47424.812    4001.3138   -51426.126   0.15808856 
  122800    292.92024   -464.18346    149258.51   -47428.216    4022.5542    -51450.77    0.1557824 
  123000    295.44913   -233.86393    148936.07   -47479.055    4057.2824   -51536.338   0.14585151 
  123200    291.65227   -571.43926    149352.34   -47499.779    4005.1416   -51504.921     0.147517 
  123400    287.31941   -745.68679     149545.1   -47580.298    3945.6401   -51525.938   0.14824296 
  123600    295.07984   -383.69372    149115.74   -47532.378     4052.211   -51584.589   0.14711896 
  123800    291.12812   -331.21566    149036.33   -47555.479    3997.9437   -51553.422   0.14555805 
  124000    292.21847   -645.87865    149433.49   -47536.044     4012.917   -51548.961   0.14688907 
  124200    290.35112   -648.90329    149389.15    -47519.26    3987.2735   -51506.533   0.15430999 
  124400    289.61269   -308.04831    149005.16   -47535.618    3977.1328   -51512.751   0.14533317 
  124600    287.66741   -420.86561    149131.45   -47552.892    3950.4192   -51503.312   0.14914708 
  124800    294.88837   -676.05352    149473.56   -47554.861    4049.5817   -51604.443   0.15576293 
  125000    291.66135   -537.65982    149259.34   -47564.824    4005.2663    -51570.09    0.1539087 
  125200    295.88919   -316.73761     148970.1   -47557.257    4063.3255   -51620.583   0.14705388 
  125400    290.09696   -564.36293    149219.52   -47623.711    3983.7831   -51607.495   0.14609066 
  125600    287.47936   -643.05001    149399.04   -47614.662    3947.8367   -51562.499   0.14575521 
  125800    289.23361   -475.03347    149148.73   -47607.407    3971.9271   -51579.335   0.14876654 
  126000    289.33756   -342.10172    149021.04   -47576.533    3973.3546   -51549.887   0.14808155 
  126200    291.80837   -567.57083    149317.36   -47554.674    4007.2853   -51561.959   0.15265637 
  126400    292.45066   -640.75714    149391.17    -47583.34    4016.1056   -51599.445    0.1540772 
  126600    293.65156   -346.62523    149090.05   -47610.054     4032.597   -51642.651   0.14141568 
  126800    289.55611   -406.77634    149073.36   -47581.744    3976.3559   -51558.099   0.15047465 
  127000    282.89411   -629.69416    149349.18   -47596.632    3884.8694   -51481.502    0.1575691 
  127200     288.2177   -588.12599    149319.23   -47632.089    3957.9761   -51590.065   0.15324599 
  127400    287.94175   -376.08381    149048.08   -47633.687    3954.1865   -51587.873   0.15140147 
  127600    289.99434   -432.09999    149142.55   -47627.785     3982.374   -51610.159   0.14256985 
  127800    286.62256   -629.09077    149378.11   -47613.725    3936.0707   -51549.796   0.14886623 
  128000    286.02734   -549.77678    149243.91   -47611.358    3927.8968   -51539.255   0.14900128 
  128200    293.41019   -373.75437    149040.92   -47577.485    4029.2824   -51606.767    0.1487948 
  128400    290.03563   -476.74211    149214.08   -47601.583     3982.941   -51584.524    0.1534778 
  128600     287.9941   -653.61336     149388.4   -47631.183    3954.9054   -51586.088   0.15389568 
  128800    283.75705   -461.55419    149174.76   -47667.765    3896.7197   -51564.485   0.14549604 
  129000    282.14187   -347.15411    148997.35   -47702.346    3874.5392   -51576.885    0.1472497 
  129200    291.62178   -522.20334    149246.98   -47658.965    4004.7229   -51663.688   0.14882572 
  129400     290.3391   -634.35494    149440.72   -47656.406    3987.1083   -51643.514   0.15091402 
  129600    286.67669   -457.34838    149189.26   -47657.788    3936.8139   -51594.602   0.14882496 
  129800      284.868   -346.76294    149032.74   -47670.848    3911.9759   -51582.824   0.14519294 
  130000    287.93487   -560.83994    149323.89   -47680.345     3954.092   -51634.437   0.14522762 
  130200    289.32932   -640.66851    149447.23   -47698.049    3973.2415    -51671.29   0.14333667 
  130400    286.25974   -406.95283    149085.19   -47685.154    3931.0882   -51616.242   0.14703751 
  130600    290.64582   -344.92926    148993.19   -47643.533    3991.3204   -51634.854   0.14556652 
  130800    281.05111   -637.74722    149449.69   -47660.388    3859.5601   -51519.948   0.14783597 
  131000    281.76458   -693.32641    149513.68   -47678.636    3869.3579   -51547.994   0.14987513 
  131200    285.45234   -339.50884    148984.41   -47656.977    3920.0005   -51576.977   0.14532178 
  131400    294.46803   -288.09407    148993.61     -47661.2    4043.8093   -51705.009   0.14359053 
  131600    290.42178   -744.06815    149643.86   -47648.625    3988.2438   -51636.869   0.14640401 
  131800    293.03196    -680.0799    149526.85   -47622.298    4024.0883   -51646.386    0.1482011 
  132000    288.07432   -157.24126    148818.68   -47570.781    3956.0071   -51526.788   0.14339491 
  132200    292.11882   -359.75128    149074.25   -47579.326    4011.5486   -51590.875   0.14039163 
  132400     288.3939   -857.31852    149763.98   -47574.967    3960.3957   -51535.363     0.148737 
  132600    289.13134    -534.7794    149319.16   -47555.313    3970.5227   -51525.836   0.14878915 
  132800    293.16418   -82.960185    148709.28   -47529.303     4025.904   -51555.206    0.1471129 
  133000    291.53002   -556.01282    149315.03   -47521.854    4003.4628   -51525.316   0.15079745 
  133200    290.28629   -897.42071    149816.67   -47462.571    3986.3832   -51448.954   0.15677483 
  133400     296.1247   -372.41302    149131.94    -47455.72    4066.5596    -51522.28   0.14718808 
  133600    289.39785   -171.79202    148765.17   -47470.543    3974.1826   -51444.725   0.15446924 
  133800    290.86838   -715.93983    149483.21    -47487.55    3994.3768   -51481.927   0.16338679 
  134000    296.92905   -807.45694    149685.53    -47434.39    4077.6055   -51511.996   0.15797702 
  134200    298.36921    -252.8412    149005.18   -47452.811    4097.3825   -51550.194   0.14642077 
  134400      298.759   -246.62791    148936.92   -47452.894    4102.7354    -51555.63   0.14693198 
  134600    295.39697   -683.54339    149525.75    -47462.98    4056.5661   -51519.546   0.14874585 
  134800    288.83703   -684.45475    149468.11   -47505.197    3966.4811   -51471.678   0.15128249 
  135000    291.02675   -304.37576    148984.27   -47564.768    3996.5516   -51561.319   0.14759762 
  135200    290.39869   -375.52189    149090.05   -47574.587    3987.9267   -51562.513   0.14931509 
  135400    288.28112   -669.56164    149472.31   -47593.397     3958.847   -51552.244   0.15175304 
  135600    289.65082   -595.59762    149335.41   -47557.282    3977.6565   -51534.939   0.14743122 
  135800    293.05225   -319.71363    149011.04   -47631.184    4024.3669   -51655.551   0.14114628 
  136000    285.08581   -461.45994    149148.69   -47662.663     3914.967    -51577.63   0.15091186 
  136200    287.35544   -624.24622    149402.75   -47670.674     3946.135   -51616.809   0.14313803 
  136400    290.34414   -533.84605    149269.09   -47625.733    3987.1776   -51612.911   0.14279064 
  136600    289.37503    -369.3123    149095.24   -47570.923    3973.8692   -51544.792   0.14103145 
  136800    285.66924   -537.41102     149249.9   -47578.945     3922.979   -51501.924   0.14774294 
  137000    286.30999   -645.04967    149358.52   -47583.849    3931.7783   -51515.628   0.15611722 
  137200    289.93267   -467.30851    149188.07   -47616.255     3981.527   -51597.782   0.15075564 
  137400    289.15656   -399.14009    149127.58   -47574.324     3970.869   -51545.193   0.14850758 
  137600    281.55519   -606.42294    149337.54   -47564.782    3866.4826   -51431.264   0.15436729 
  137800    291.87774   -552.91992    149363.94    -47537.78    4008.2379   -51546.018    0.1486794 
  138000    287.93707   -399.89803    149167.07   -47537.418    3954.1222    -51491.54   0.14834014 
  138200    288.18478   -492.24323    149201.99   -47588.219    3957.5239   -51545.743   0.14797242 
  138400     288.8666   -566.92688    149384.07   -47572.493    3966.8871    -51539.38   0.14844681 
  138600    289.81349   -589.72723    149312.83    -47586.49    3979.8904   -51566.381   0.14958825 
  138800    291.47573   -397.54098       149077   -47536.804    4002.7173   -51539.522   0.14895229 
  139000    292.25139   -443.37544    149186.73   -47524.891    4013.3691    -51538.26   0.15185975 
  139200    290.74718   -646.65136     149424.9   -47523.966    3992.7124   -51516.678   0.15746347 
  139400    293.15593   -554.51011    149287.09   -47552.138    4025.7908   -51577.929   0.15018066 
  139600     296.4046   -320.21875    149061.58   -47536.092    4070.4034   -51606.496   0.14630249 
  139800    292.02555   -449.79399    149245.66   -47495.851    4010.2677   -51506.119   0.15009191 
  140000    291.17371   -634.07861    149495.87   -47459.917    3998.5698   -51458.487   0.15398631 
  140200    298.50636   -478.12215    149258.62   -47505.199     4099.266   -51604.464   0.14325676 
  140400    292.92614   -323.82559    149027.66   -47531.689    4022.6352   -51554.324   0.14556254 
  140600    291.68913   -519.84102    149284.37   -47529.726    4005.6477   -51535.373   0.15125494 
  140800    288.94631   -685.02259    149441.94   -47520.351    3967.9817   -51488.332   0.15418603 
  141000    286.63523   -399.94422    149111.44   -47558.692    3936.2447   -51494.936   0.15110028 
  141200     293.1298   -328.02486    149010.93   -47511.818    4025.4319    -51537.25   0.15043565 
  141400    289.30966   -596.15031    149402.03   -47513.504    3972.9715   -51486.476   0.14997113 
  141600    297.54537   -618.84582     149462.8   -47496.728    4086.0692   -51582.797   0.14769352 
  141800    291.61195   -301.88801    149027.95   -47553.214    4004.5879   -51557.802   0.15024408 
  142000    285.83813    -363.1771    149029.48   -47569.872    3925.2985    -51495.17   0.15312844 
  142200    293.53414   -702.23233     149510.8   -47563.867    4030.9845   -51594.851   0.14763323 
  142400    288.77991   -690.07398    149402.67   -47566.198    3965.6967   -51531.895   0.15331191 
  142600    294.36524   -214.25566    148864.93   -47561.454    4042.3977   -51603.852   0.14858108 
  142800    291.94141   -381.13449    149081.35   -47565.533    4009.1122   -51574.645   0.14780433 
  143000    292.06662    -830.3563    149641.43   -47621.787    4010.8317   -51632.619   0.15081752 
  143200    290.33795   -548.72864    149294.25   -47591.679    3987.0926   -51578.772   0.14970709 
  143400    294.49049   -146.67808    148763.84   -47559.007    4044.1177   -51603.125   0.14672377 
  143600    287.62202   -507.71882    149226.58   -47546.674    3949.7958    -51496.47    0.1535405 
  143800    287.31393   -863.93703    149724.49   -47553.634    3945.5649   -51499.199   0.15636351 
  144000    287.47365   -441.08757    149155.06   -47545.596    3947.7583   -51493.354   0.15110699 
  144200    291.36051   -110.35668    148766.91   -47522.834    4001.1349   -51523.969   0.14783214 
  144400    289.87353   -670.37719    149474.18   -47521.134    3980.7149   -51501.849   0.15591697 
  144600    291.02243   -907.19152    149755.04   -47489.456    3996.4922   -51485.949   0.16004258 
  144800    296.16049   -313.74654    148964.32   -47464.657    4067.0512   -51531.708    0.1492065 
  145000    292.32383   -162.75285    148816.99    -47509.21    4014.3638   -51523.573    0.1451004 
  145200    285.47972   -773.73051    149573.86   -47534.563    3920.3765    -51454.94   0.15398555 
  145400    293.05085   -739.14156    149561.39    -47539.73    4024.3478   -51564.077   0.15158437 
  145600    290.68543   -246.83591    148892.26   -47562.925    3991.8643    -51554.79    0.1546884 
  145800    291.48387   -309.36526    149007.63   -47580.103    4002.8291   -51582.932   0.15067279 
  146000    290.73892   -716.12375    149567.49   -47562.681     3992.599    -51555.28   0.14935801 
  146200    290.86737   -619.05237    149377.59    -47595.56    3994.3629   -51589.923   0.15042274 
  146400    288.82678   -272.60727    148929.06   -47550.886    3966.3403   -51517.226   0.15167608 
  146600    290.84675   -455.61723    149184.62   -47515.237    3994.0798   -51509.317   0.15600874 
  146800    289.83226   -737.78115    149564.25    -47467.38    3980.1481   -51447.528   0.15680627 
  147000    290.45012   -553.52834    149324.47   -47483.053     3988.633   -51471.686   0.15041355 
  147200    295.31059   -303.72488    149028.55   -47453.192    4055.3798   -51508.572   0.14936947 
  147400    291.16629   -512.75815    149292.61   -47518.824    3998.4679   -51517.291    0.1493763 
  147600     292.7933   -657.42649    149518.61   -47530.054    4020.8109   -51550.865   0.15273073 
  147800    287.58161   -522.12393    149260.32   -47573.706    3949.2409   -51522.947   0.15775093 
  148000     294.5079   -327.59313    149045.58   -47540.597    4044.3568   -51584.953   0.15185886 
  148200    293.04495     -540.981    149301.41   -47581.389    4024.2668   -51605.656   0.14961694 
  148400    285.94818    -645.3707    149454.74   -47628.567    3926.8096   -51555.377   0.15036577 
  148600    294.76218   -432.46657    149223.84   -47600.821    4047.8488    -51648.67   0.14332766 
  148800    289.15427   -397.45935    149130.53   -47604.722    3970.8376   -51575.559   0.14241515 
  149000    286.02232   -555.30258    149343.96   -47609.643    3927.8277    -51537.47   0.14532325 
  149200    288.65079   -567.65484    149412.57   -47614.774    3963.9235   -51578.697    0.1456099 
  149400    289.01666   -464.04463    149192.16   -47640.155    3968.9478   -51609.102   0.14937676 
  149600    289.59285   -363.68521    149132.77   -47639.509    3976.8605   -51616.369   0.14235484 
  149800    288.22462   -580.99729    149340.04   -47624.391    3958.0711   -51582.462   0.15063761 
  150000    290.98139   -567.38396    149353.15   -47583.885    3995.9287   -51579.814   0.15073211 
  150200    293.38846   -442.52896       149149   -47530.019     4028.984   -51559.003   0.15684872 
  150400     288.4739    -458.3396    149173.91   -47500.093    3961.4943   -51461.587   0.15753477 
  150600    288.31366   -594.54104    149352.35   -47549.107    3959.2938   -51508.401   0.15035221 
  150800    295.23886   -534.83727    149313.22   -47513.106    4054.3948     -51567.5   0.14436106 
  151000    288.06012   -471.13909    149153.87   -47553.667    3955.8121   -51509.479   0.15100469 
  151200     286.6171   -446.74427    149182.33   -47539.911    3935.9957   -51475.907   0.15447578 
  151400     293.3705    -548.8863    149336.65   -47452.315    4028.7373   -51481.053   0.15968806 
  151600    291.46427   -563.09125    149302.43   -47438.073    4002.5598   -51440.633   0.15664796 
  151800    294.09634    -387.5773    149149.94    -47452.08    4038.7051   -51490.785   0.15040275 
  152000    289.49465   -478.43785    149194.89   -47452.932    3975.5118   -51428.444   0.15393599 
  152200    292.39738   -605.98094    149331.11   -47471.395    4015.3738   -51486.769   0.16143172 
  152400    287.09787   -546.47546    149260.15   -47519.941    3942.5979   -51462.539   0.16068318 
  152600     295.1008    -410.4055    149121.93    -47490.19    4052.4989   -51542.689   0.15233281 
  152800    299.57313   -452.27275    149250.24   -47421.216    4113.9156   -51535.132   0.14703808 
  153000     291.6549   -638.47171    149411.22   -47489.005    4005.1777   -51494.182   0.14902733 
  153200    295.42394   -413.88756    149213.06   -47430.132    4056.9365   -51487.068   0.15041721 
  153400    299.72495   -394.12827    149066.19   -47486.973    4116.0005   -51602.974   0.15269687 
  153600    293.74876   -603.21269    149316.74   -47511.689    4033.9319    -51545.62   0.15728619 
  153800    292.75229   -644.51265    149404.06   -47540.016    4020.2477   -51560.263   0.15636377 
  154000    291.25921   -387.34246    149073.49   -47556.956    3999.7439     -51556.7   0.15041959 
  154200    290.82835   -367.07522    149044.41   -47502.781     3993.827   -51496.608   0.15378739 
  154400    293.99917    -651.9379    149471.26   -47493.832    4037.3706   -51531.202    0.1562066 
  154600    293.51744   -665.32876     149468.7   -47514.554    4030.7553   -51545.309   0.15815116 
  154800    291.50175   -292.48229    148954.75   -47533.466    4003.0745   -51536.541   0.15120125 
  155000    296.18386   -336.75508    149008.95    -47523.19    4067.3721   -51590.562   0.14937804 
[...]
  163200    292.34603   -435.30184    149195.93   -47591.774    4014.6687   -51606.443   0.13918024 
  163400    289.01924   -481.44523    149217.49    -47625.72    3968.9833   -51594.703   0.14772717 
  163600    294.40427    -491.3411    149292.94   -47575.648    4042.9338   -51618.582   0.14279407 
  163800    289.39745   -513.11257    149278.26   -47635.225     3974.177   -51609.402   0.14343724 
  164000    289.31001   -444.73537    149197.39   -47652.375    3972.9763   -51625.352   0.14294592 
  164200    290.94936   -464.17759    149233.53   -47649.658    3995.4888   -51645.147   0.14472302 
  164400    284.33966   -561.22839    149295.95   -47590.711    3904.7205   -51495.432   0.14866842 
  164600    292.81462    -481.1477    149240.48   -47571.257    4021.1037   -51592.361   0.15302851 
  164800    289.65445   -416.11117    149199.03   -47609.967    3977.7064   -51587.673   0.15110175 
  165000    285.44612     -549.458    149276.55   -47585.408     3919.915   -51505.323   0.15306338 
  165200    286.46125   -562.88167    149312.54   -47580.508    3933.8555   -51514.363   0.14288547 
  165400    288.77524   -460.10199    149205.89   -47610.126    3965.6325   -51575.759   0.14142149 
  165600    290.93224   -467.29503    149178.55   -47549.704    3995.2537   -51544.958   0.15255835 
  165800    286.67709   -541.74031    149296.22   -47572.852    3936.8195   -51509.671   0.14874365 
  166000    288.98709   -555.50232    149323.44    -47531.47    3968.5418   -51500.012   0.14704227 
  166200    294.57857   -457.34221    149218.34   -47563.905    4045.3272   -51609.232   0.14307217 
  166400    285.77595   -476.12025    149210.64   -47558.737    3924.4445   -51483.181   0.14767239 
  166600    290.11093   -527.75534       149297   -47553.714     3983.975   -51537.689   0.14919673 
  166800    291.52308   -536.04415    149263.75   -47614.661    4003.3675   -51618.029   0.14726827 
  167000    287.77046   -437.77349    149150.52    -47615.32    3951.8343   -51567.155   0.15061367 
  167200    291.46683    -467.1805    149217.18   -47563.844     4002.595   -51566.439   0.14790307 
  167400    288.33344    -569.2843    149365.16   -47607.365    3959.5655    -51566.93   0.14131472 
  167600    284.86136     -518.258     149248.7   -47589.041    3911.8848   -51500.926   0.14535918 
  167800    284.25083   -420.76779    149057.92    -47660.21    3903.5006    -51563.71   0.14921367 
  168000    285.27654   -460.39717    149159.93   -47647.204    3917.5862    -51564.79   0.14433759 
  168200    290.81449   -643.01036    149405.15   -47643.683    3993.6367   -51637.319   0.14590026 
  168400    282.41589   -520.50698    149237.19    -47599.11    3878.3022   -51477.413   0.15148164 
  168600    286.47052   -315.48423    148986.57    -47612.84    3933.9828   -51546.823   0.14974868 
  168800    292.30614   -511.23716    149245.99    -47652.37    4014.1209   -51666.491   0.14475952 
  169000    289.77912    -753.5618     149467.9   -47634.934    3979.4183   -51614.353   0.15107579 
  169200    284.08937   -449.71475    149087.44   -47605.853    3901.2834   -51507.137    0.1592749 
  169400    287.84814   -295.56152    148903.48   -47633.808     3952.901   -51586.709   0.14853207 
  169600    288.83328   -607.92261    149381.75   -47640.806    3966.4296   -51607.235    0.1402108 
  169800    285.39907   -730.67533    149503.39   -47643.723     3919.269   -51562.992   0.14424265 
  170000    290.27776   -306.72733    148898.49   -47688.339     3986.266   -51674.605   0.14534696 
  170200    285.54464   -254.67886    148862.77   -47698.309    3921.2681   -51619.577   0.14643296 
  170400    285.35929   -762.89217    149513.45   -47662.058    3918.7227   -51580.781   0.14752006 
  170600    288.58988   -643.88947    149440.15   -47642.788    3963.0871   -51605.875   0.14486554 
  170800     286.5999   -213.21191    148765.66   -47672.229    3935.7594   -51607.988   0.15242588 
  171000    288.08009   -325.54788    148950.82    -47671.92    3956.0864   -51628.006    0.1429028 
  171200    283.01084   -860.43766    149634.99   -47691.797    3886.4723   -51578.269   0.14616567 
  171400    286.51411   -594.85362    149326.33   -47689.374    3934.5813   -51623.955   0.15024634 
  171600    291.54946   -141.51349     148708.2   -47658.343    4003.7298   -51662.073   0.14554768 
  171800    285.76155   -445.67807     149122.8    -47633.79    3924.2467   -51558.037   0.13962967 
  172000    289.49661   -822.19529    149661.04   -47633.705    3975.5388   -51609.244   0.13875161 
  172200    287.87583   -461.96095    149137.24   -47643.362    3953.2813   -51596.644   0.14730816 
  172400    287.67821   -189.81876    148719.13   -47614.925    3950.5675   -51565.492   0.15206799 
  172600    285.91881   -525.19637       149300   -47595.733    3926.4063   -51522.139   0.14383629 
  172800    288.86549   -865.48667    149632.71   -47600.182    3966.8718   -51567.054   0.15424722 
  173000    285.10252    -387.0785    149005.86   -47623.045    3915.1965   -51538.242   0.15320961 
  173200    288.12483   -193.81514    148766.46   -47663.145    3956.7007   -51619.846   0.14624175 
  173400    289.88242   -637.38007    149380.95   -47646.068     3980.837   -51626.905    0.1479887 
  173600    287.09181   -738.05128    149533.01   -47594.126    3942.5147    -51536.64   0.15450006 
  173800    289.10552   -281.78687    148981.69   -47598.895    3970.1681   -51569.063   0.14771677 
  174000    290.21274   -321.76006    148939.91   -47563.106    3985.3731    -51548.48   0.14455127 
  174200    288.35391   -654.06752    149423.86   -47553.577    3959.8466   -51513.424   0.15107277 
  174400    292.50639   -651.45661    149388.79   -47535.994    4016.8709   -51552.865   0.15174368 
  174600    290.89399   -287.59228    148952.93   -47550.521    3994.7285   -51545.249   0.14450136 
  174800    287.57521   -427.35928    149047.88   -47513.611    3949.1529   -51462.764   0.15073527 
  175000    292.13793   -679.84168    149405.73   -47559.187     4011.811   -51570.998   0.15176805 
  175200    288.33197   -533.30197    149262.21   -47555.659    3959.5453   -51515.205   0.15383893 
  175400    287.50385   -316.36106    148964.52   -47567.989     3948.173   -51516.162   0.14244543 
  175600     293.1296   -479.89656    149162.43   -47579.149    4025.4292   -51604.578   0.14398543 
  175800    288.20713   -659.38502    149419.62   -47560.588    3957.8309   -51518.419   0.15129836 
  176000    288.10993   -470.96157    149190.42   -47549.063    3956.4961   -51505.559   0.15120877 
  176200    293.18947    -313.1909    149021.21   -47499.945    4026.2514   -51526.196     0.143844 
  176400    296.82032   -573.23744    149280.02   -47537.958    4076.1123    -51614.07   0.14390972 
  176600    293.34008   -632.35847    149352.67   -47516.421    4028.3196   -51544.741   0.15457615 
  176800    293.58928   -443.17789    149103.12   -47526.056    4031.7418   -51557.798   0.14941318 
  177000    294.45569   -430.00206    149096.18   -47543.171    4043.6398   -51586.811   0.14565816 
  177200     295.8936   -558.51761       149358   -47555.393    4063.3861   -51618.779   0.14930027 
  177400    285.45354    -645.6863    149328.48    -47644.33    3920.0169   -51564.347   0.15425983 
  177600      287.117   -403.43186    149019.57   -47612.319    3942.8605   -51555.179   0.14808044 
  177800    289.80556   -394.55218    149098.57   -47589.362    3979.7815   -51569.143   0.14383882 
  178000    288.80223   -674.01699    149402.54   -47545.416    3966.0031   -51511.419   0.15674819 
  178200    287.69383   -512.11303    149274.59   -47581.738    3950.7819    -51532.52   0.14996942 
  178400    293.95363   -314.57226    149000.95   -47560.213    4036.7453   -51596.958   0.14156595 
  178600    288.81551   -526.87222    149181.01   -47574.486    3966.1855   -51540.672   0.14533289 
  178800    296.32839   -638.37548    149411.34   -47542.347    4069.3568   -51611.704   0.15454048 
  179000    290.70803   -500.25164    149221.15   -47518.342    3992.1747   -51510.517   0.15435473 
  179200     291.6167   -396.48713    149040.01   -47543.506    4004.6531    -51548.16   0.14496514 
  179400    290.82989   -546.26723    149220.87   -47515.835    3993.8482   -51509.684   0.15130361 
  179600    290.69861   -600.91857    149347.89   -47520.373    3992.0454   -51512.418   0.15411993 
  179800    288.61114   -445.65537    149137.74   -47550.504     3963.379   -51513.883   0.15108948 
  180000    294.24629   -378.29918     149023.1   -47519.192    4040.7642   -51559.956   0.14446195 
  180200    292.57227   -538.15242    149292.71   -47478.173    4017.7755   -51495.948    0.1476347 
  180400    289.82603    -607.8045    149412.94   -47431.923    3980.0625   -51411.986   0.15356744 
  180600     291.3596   -391.66135    149056.61   -47524.196    4001.1224   -51525.319   0.14744327 
  180800    292.82067   -299.56484    148934.04   -47489.431    4021.1867   -51510.617   0.14947912 
  181000    291.22678   -674.01501    149457.09   -47526.704    3999.2985   -51526.003    0.1541597 
  181200     292.6377    -778.1466    149518.88   -47509.147    4018.6741   -51527.821   0.15415146 
  181400    294.15976   -192.92137    148810.66   -47553.416    4039.5759   -51592.992   0.14364189 
  181600    290.18148   -276.81563       148882   -47574.456    3984.9438     -51559.4   0.15233024 
  181800    288.61253   -873.60766     149670.7   -47537.932    3963.3982    -51501.33   0.16752692 
  182000    287.83434   -726.17389     149439.8   -47547.496    3952.7116   -51500.207   0.15615875 
  182200    293.36972   -60.534502    148610.93   -47568.265    4028.7267   -51596.992   0.14168431 
  182400    294.02517   -352.80007    148994.62   -47568.806    4037.7276   -51606.534   0.14762963 
  182600    292.80964   -929.46226    149797.67   -47523.397    4021.0353   -51544.432   0.15439158 
  182800    288.97663   -583.43055    149328.89   -47492.495    3968.3982   -51460.893    0.1493318 
  183000    293.41452   -84.094349     148667.2   -47496.899    4029.3419   -51526.241   0.14610842 
  183200     294.0619   -496.71563    149236.41    -47477.96     4038.232   -51516.192   0.15257139 
  183400    287.97665   -904.87703    149785.37   -47478.324    3954.6659    -51432.99   0.15385439 
  183600    291.14354   -450.69039    149165.65   -47514.308    3998.1554   -51512.463   0.14283443 
  183800    290.02006   -159.04518    148753.67   -47550.275    3982.7271   -51533.003   0.14993445 
  184000    286.71021    -610.6511       149374   -47560.232    3937.2744   -51497.507   0.15540805 
  184200    292.27952   -827.87325    149642.73   -47600.575    4013.7554   -51614.331    0.1456732 
  184400    289.27329   -350.98333    149027.15   -47613.529     3972.472   -51586.002   0.14323837 
  184600    291.28813   -212.88628    148849.27   -47624.449     4000.141    -51624.59   0.14811401 
  184800    287.69164   -680.66614    149411.69   -47608.187    3950.7519   -51558.939   0.15476026 
  185000    288.76642   -701.76227    149468.38    -47597.76    3965.5114   -51563.272    0.1460171 
  185200    289.18531   -356.79072    148983.91   -47659.238    3971.2639   -51630.502    0.1436592 
  185400    290.23071   -336.71787     149004.4   -47637.775    3985.6199   -51623.395   0.15296894 
  185600    289.08579   -673.48539    149435.41   -47638.182    3969.8971   -51608.079   0.15312655 
  185800    291.95217   -604.41711    149347.77   -47583.799      4009.26   -51593.059   0.14262964 
  186000    292.28332   -318.50421    148989.62    -47572.26    4013.8075   -51586.068   0.14381335 
  186200    292.39159   -453.71798    149150.01   -47564.164    4015.2943   -51579.458   0.15477389 
  186400    285.42667   -663.54303    149451.27   -47510.248     3919.648   -51429.896   0.15611904 
  186600    290.95143   -531.36054    149255.45   -47545.396    3995.5173   -51540.913   0.14505027 
  186800    292.16642   -294.89117    149029.93    -47573.39    4012.2021   -51585.593   0.14431287 
  187000    296.68656   -477.33875    149266.01   -47544.746    4074.2755   -51619.021   0.15043082 
  187200    287.80106   -690.82438    149469.29   -47561.531    3952.2545   -51513.785   0.14505182 
  187400    287.86589   -455.24288    149213.77   -47549.437    3953.1448   -51502.582   0.14573395 
  187600    295.25243   -382.02585     149078.5   -47592.996    4054.5811   -51647.577    0.1506667 
  187800    293.64705   -579.88044    149334.68   -47579.571    4032.5352   -51612.107   0.14833492 
  188000    292.27047   -602.38208    149395.94   -47552.262    4013.6311   -51565.893   0.14258147 
  188200    293.10135   -381.33659    149119.28   -47544.991    4025.0412   -51570.032   0.14708243 
  188400     290.5722   -354.61204    149102.47   -47532.993    3990.3095   -51523.302    0.1553706 
  188600    294.11528    -603.9635    149412.48   -47537.109    4038.9651   -51576.074   0.14791752 
  188800     293.3544   -585.95795    149384.11     -47550.4    4028.5163   -51578.916   0.14041762 
  189000    296.44155   -333.04912    149096.49   -47546.054    4070.9109   -51616.965   0.14283362 
  189200    289.63181   -450.46351    149153.79   -47549.013    3977.3954   -51526.408   0.15140827 
  189400    290.02496   -654.34376    149424.18   -47508.829    3982.7944   -51491.623   0.15034543 
  189600    288.36266   -561.56236     149297.6   -47522.866    3959.9668   -51482.833   0.14971386 
  189800    286.28373   -277.55536    149001.02   -47563.064    3931.4177   -51494.482   0.15206559 
  190000    289.43233   -437.52399    149183.86   -47595.395    3974.6561   -51570.051   0.14786418 
  190200    289.64126   -701.79471    149482.29   -47566.142    3977.5252   -51543.667    0.1468367 
  190400    286.79151   -560.65389    149211.18   -47566.202    3938.3907   -51504.593   0.15563176 
  190600    292.23593   -236.85882    148881.08   -47512.162    4013.1567   -51525.319   0.15561148 
  190800    293.22672   -549.63486    149298.27   -47543.208    4026.7629   -51569.971   0.14584313 
  191000    289.88881    -792.1331     149643.5   -47552.247    3980.9247   -51533.172   0.14413568 
  191200    290.90557   -366.24564    149073.52   -47550.202    3994.8875    -51545.09    0.1473379 
  191400    289.67835   -155.29496    148755.17   -47578.219    3978.0345   -51556.254   0.14849302 
  191600    293.60764    -716.0653    149524.41   -47528.494    4031.9939   -51560.488   0.14959798 
  191800    290.85558   -935.80628    149791.16   -47557.633     3994.201   -51551.834   0.15162713 
  192000    284.09533   -183.12738    148780.68   -47565.205    3901.3652    -51466.57   0.15702812 
  192200    294.42622   -44.054275    148669.87   -47537.665    4043.2351     -51580.9   0.14897343 
  192400     287.9879   -948.56407    149856.48   -47535.136    3954.8204   -51489.956   0.15217044 
  192600    286.55465   -877.91642    149738.41   -47565.658    3935.1381   -51500.796   0.14918871 
  192800    290.74027    41.166847    148521.98   -47549.426    3992.6175   -51542.043   0.15353419 
  193000    301.57439   -203.10337    148838.79   -47542.859     4141.398   -51684.257   0.14429077 
  193200    291.21769   -1005.9494    149955.73    -47483.82    3999.1737   -51482.994   0.14977201 
  193400    297.18456   -728.47284    149528.69   -47491.461    4081.1143   -51572.575   0.15759598 
  193600    295.86229   -40.352427    148649.63   -47509.262     4062.956   -51572.218   0.15480562 
  193800     292.1191   -408.36036    149151.36    -47557.99    4011.5524   -51569.543   0.14912934 
  194000    289.31424   -898.58182    149794.52   -47576.172    3973.0344   -51549.207   0.14970379 
  194200    288.71255   -499.35301    149234.37   -47566.888    3964.7716   -51531.659   0.16245043 
  194400    288.67594   -128.20153    148750.23   -47550.778    3964.2689   -51515.047   0.15332124 
  194600    288.13973   -562.18634    149303.81   -47573.442    3956.9053   -51530.348   0.14494673 
  194800    291.80675   -833.72849    149638.45   -47555.514     4007.263   -51562.777   0.15188747 
  195000      294.326   -379.45932    149114.23   -47542.412    4041.8588   -51584.271   0.15711731 
  195200    291.65414   -260.47803     148904.1   -47529.012    4005.1672   -51534.179   0.15043624 
  195400    291.40537   -649.34649    149412.19   -47528.424     4001.751   -51530.176   0.14512669 
  195600    291.90726   -668.79082    149506.34   -47530.727    4008.6432    -51539.37   0.15645268 
  195800    291.06191   -343.11277    148999.92   -47580.348    3997.0344   -51577.383   0.15723239 
  196000    288.76914   -318.41833    148976.16   -47550.125    3965.5488   -51515.674   0.14881263 
  196200    288.57874     -675.236    149450.41   -47533.991    3962.9341   -51496.925    0.1542192 
  196400    290.84392   -616.41769    149442.42   -47533.314    3994.0408   -51527.355   0.15673553 
  196600    293.76243   -374.25314    149016.36   -47603.476    4034.1195   -51637.596   0.14584642 
  196800    290.00927   -348.01461    149044.44   -47594.188     3982.579   -51576.767   0.13957976 
  197000      292.866   -634.31359    149425.21   -47602.294    4021.8093   -51624.104    0.1496556 
  197200    284.92501   -591.90579    149308.71   -47657.906    3912.7589   -51570.664   0.15651125 
  197400    290.22846   -301.02438    148972.17   -47618.345     3985.589   -51603.934   0.14711838 
  197600    294.44572   -442.59266    149155.79   -47531.527    4043.5029    -51575.03   0.14614555 
  197800    292.65703   -657.53203    149461.94   -47514.165    4018.9395   -51533.104   0.15631637 
  198000    292.10246   -548.31588    149240.03   -47545.586    4011.3238    -51556.91   0.15736704 
  198200    289.43686   -306.49602    148964.52   -47573.244    3974.7183   -51547.963   0.14897698 
  198400    294.94337   -534.69484    149228.98   -47499.779     4050.337   -51550.116   0.15197245 
  198600     294.1934   -737.19997    149479.64    -47486.28    4040.0379   -51526.318   0.15899604 
  198800    288.66773   -457.26058    149183.64   -47521.156    3964.1561   -51485.312   0.15519348 
  199000    289.32398   -322.40973    148979.08   -47528.935    3973.1681   -51502.103   0.14652545 
  199200    284.31367   -501.76078    149286.35   -47520.097    3904.3636    -51424.46   0.15614257 
  199400    288.71926   -700.14979    149495.88   -47530.309    3964.8638   -51495.173   0.15969028 
  199600     289.8004   -432.90145    149175.73   -47556.512    3979.7107   -51536.223   0.15033167 
  199800    290.87887   -324.88287     149019.4    -47536.35    3994.5208   -51530.871   0.14527612 
  200000    291.35024     -561.876    149386.71   -47553.145    4000.9939   -51554.139   0.15082025 
Loop time of 107.766 on 6 procs for 200000 steps with 4608 atoms

Performance: 801.735 ns/day, 0.030 hours/ns, 1855.869 timesteps/s
97.9% CPU use with 6 MPI tasks x no OpenMP threads

MPI task timing breakdown:
Section |  min time  |  avg time  |  max time  |%varavg| %total
---------------------------------------------------------------
Pair    | 76.176     | 76.618     | 76.921     |   2.9 | 71.10
Neigh   | 12.217     | 12.395     | 12.68      |   5.6 | 11.50
Comm    | 8.2702     | 8.819      | 9.4655     |  13.2 |  8.18
Output  | 3.0225     | 3.0235     | 3.0271     |   0.1 |  2.81
Modify  | 5.6298     | 5.7152     | 5.7676     |   2.1 |  5.30
Other   |            | 1.196      |            |       |  1.11

Nlocal:        768.000 ave         781 max         754 min
Histogram: 1 0 1 0 2 0 0 0 0 2
Nghost:        1391.17 ave        1403 max        1373 min
Histogram: 1 0 0 0 1 0 1 2 0 1
Neighs:        0.00000 ave           0 max           0 min
Histogram: 6 0 0 0 0 0 0 0 0 0
FullNghs:      21856.0 ave       22266 max       21405 min
Histogram: 1 0 0 1 2 0 0 0 1 1

Total # of neighbors = 131136
Ave neighs/atom = 28.458333
Neighbor list builds = 12569
Dangerous builds = 0
write_data		data.${NAME}
write_data		data.ice_291K_-500atm_ML
System init for write_data ...
Total wall time: 0:02:39
