LAMMPS data file via write_data, version 29 Oct 2020, timestep = 100000

8508 atoms
1 atom types

-0.26985559762227496 104.54380353728337 xlo xhi
-0.12795897561963088 51.03507897561745 ylo yhi
-0.12795897561963088 51.03507897561745 zlo zhi

Masses

1 18.015

Atoms # atomic

283 1 0.9381435107628322 0.5426847174787329 0.622557986761878 0 1 0
284 1 2.6546265464165257 1.986190396285084 2.129640513652259 0 1 0
286 1 7.526651113995905 0.6041024981201659 0.7008478397971123 0 1 0
287 1 9.244604009947796 1.900915838205294 2.4941969255376737 0 1 0
288 1 13.894145516653294 0.305167331618049 0.7027585285600079 0 1 0
289 1 15.4580265527153 1.8872203343925937 2.3708559352098004 0 1 0
1007 1 20.58395965741233 0.37747622360491295 0.4180981686966869 0 1 0
1008 1 21.846227329466785 1.9242125658179083 2.4545284809391115 0 1 0
1010 1 26.891901136156296 -0.028746453254081275 0.7450751303853451 0 1 0
1016 1 28.29520696099011 1.7209079186725986 2.4194990416079225 0 1 0
1012 1 33.19360205500205 0.03579103813125872 0.6756177465943721 0 1 0
290 1 4.318125788371797 3.763784074566097 0.38149949828643615 0 1 0
291 1 5.8991108562541035 5.064906209711712 2.3025740023049517 0 1 0
292 1 10.750439901466702 3.3416866275737234 1.0026136708707494 0 1 0
293 1 12.297460399579665 5.25306498842213 2.412550766276896 0 1 0
294 1 17.106232275021114 3.275200403905881 0.8926882341491778 0 1 0
754 1 18.76683505375311 4.971993020247137 2.1677054117977756 0 1 0
1015 1 23.436010431226585 3.0925680636994035 0.587093742543801 0 1 0
1020 1 25.139265271007837 5.021715178341202 1.9657433600498715 0 1 0
1017 1 29.986173150419937 3.5087464662917345 0.7646983559464845 0 1 0
1018 1 31.737755333912624 5.220996949148591 2.2088657202498383 0 1 0
295 1 1.0331774953326975 6.429236079172937 0.5524336888779134 0 1 0
388 1 2.8645454403458936 8.345903727895603 2.0826413437083575 0 0 0
296 1 7.639453818054777 6.596651665573724 0.7503466750827769 0 1 0
391 1 8.775119099105645 8.105082025959621 2.475616994658246 0 0 0
297 1 14.124675714460034 6.632699356878168 0.725464198532343 0 1 0
301 1 15.719202368139749 8.237276153269555 2.388723006489187 0 0 0
1019 1 20.574317067429657 6.682636990214282 0.6181456548030568 0 1 0
1094 1 22.237312933571943 8.421249135705002 2.44298688865913 0 0 0
1021 1 27.014110913498612 6.670416763326123 0.24307060104372163 0 1 0
944 1 28.680401164145408 8.05121955058818 1.732925757829085 0 0 0
1022 1 33.13111305305927 6.674465591318847 0.2922565521553178 0 1 0
1023 1 34.567744803329084 8.190455232538609 2.2717476857586014 0 0 0
4322 1 -0.034420883369452204 43.458990871203085 15.897856913370255 1 -1 1
199 1 4.6954874713081685 9.860501494515274 0.9479550881223859 0 0 0
201 1 10.476271757604419 9.916453968736963 0.8761939340319933 0 0 0
202 1 12.295854379929647 11.349407442953503 2.4274458759927646 0 0 0
203 1 17.090672438656217 10.064474820064259 0.8139160499764894 0 0 0
943 1 23.56636149379277 9.622160859870654 0.22882102745459698 0 0 0
1030 1 24.87422404266082 11.302621276406505 2.425129498239232 0 0 0
945 1 30.045076017601524 10.223488508023221 0.3027928710648188 0 0 0
204 1 1.4704315959790573 12.841328314600986 0.8508427625997713 0 0 0
207 1 7.306650929688179 12.906127796202522 0.9091350018032811 0 0 0
209 1 9.372915403483354 14.301092103981745 2.096213989504396 0 0 0
210 1 13.87432920414308 12.819102822241778 0.461284508814617 0 0 0
786 1 19.039017038976116 11.608001434209651 2.21475360782901 0 0 0
946 1 20.484633835285113 13.115398873141842 0.4300067934136458 0 0 0
948 1 26.52153147589185 12.748152521966505 0.5639234930164941 0 0 0
953 1 28.211905379485753 14.338804714415007 2.2272937507770325 0 0 0
1027 1 31.86450489971525 11.738610306195849 1.797702877753832 0 0 0
950 1 33.648471158514766 12.93290232933307 0.29854630874800164 0 0 0
213 1 4.5179742307176545 16.16208886561622 0.7055739140688974 0 0 0
205 1 3.032796458335696 14.694611826759687 2.5212312686034175 0 0 0
215 1 10.803427193344763 16.10992549370503 0.9012015679407495 0 0 0
217 1 16.96388562806861 16.036882757802058 0.9983445752746956 0 0 0
951 1 23.964598835102986 16.24270081260255 0.6368523375304443 0 0 0
1034 1 22.265479055391992 14.792329001804958 2.355533342858112 0 0 0
1041 1 25.494649523867096 17.573924394722003 2.3253240050164665 0 0 0
952 1 29.926706027705375 15.911371921057466 0.7771473738622844 0 0 0
218 1 1.3750072666209832 19.470111219468833 0.7624514985763854 0 0 0
97 1 0.09809910604881533 17.626399062265794 2.3656508885574254 0 0 0
311 1 5.714223835478193 17.78759483780065 2.463404473309715 0 0 0
219 1 7.494525455425433 19.454087329683727 0.8619173460042243 0 0 0
317 1 12.590625590668056 17.706104667245622 2.268999332981378 0 0 0
220 1 13.906268338896805 19.49180004680071 0.7405480711496906 0 0 0
275 1 18.85779106350669 18.0076418028768 2.0850947776350037 0 0 0
956 1 20.402944037067677 19.45616552912705 0.40769410540741824 0 0 0
958 1 27.177863431328944 19.099424785548017 0.7981924852084724 0 0 0
1044 1 31.59429686637918 17.7043862306163 2.1001538579208643 0 0 0
960 1 33.06771727740833 19.726463164837316 0.5751321288897392 0 0 0
308 1 -0.2646610560313576 18.014595424119204 9.04134310376643 0 0 0
316 1 3.1052096124903525 20.73950623334915 2.042193791819835 0 0 0
224 1 4.6878027378935565 22.532648011501877 0.6498847483938696 0 0 0
226 1 11.052669584777698 22.5918303902389 0.8870955702239205 0 0 0
322 1 9.525487950003528 20.982105734266142 2.4032232440401344 0 0 0
325 1 15.59297738406456 20.965635004935795 2.3082763036418026 0 0 0
229 1 17.38019075184493 22.545458275072228 0.7417348368164389 0 0 0
1046 1 22.005691972675013 20.917278766086916 2.090422244773949 0 0 0
961 1 23.871309235280957 22.486272736572634 0.7387097797078654 0 0 0
964 1 30.350333468652362 22.226072076392697 0.7392048991391243 0 0 0
1048 1 28.815372018766343 20.69460305754758 2.4072233819219844 0 0 0
230 1 1.3006012839709769 25.999000585473475 0.6060627867155443 0 0 0
232 1 6.340348117713422 24.207489566986666 1.9238212186154722 0 0 0
231 1 7.8540041874015 25.94255091788221 0.6044659498867805 0 0 0
234 1 14.191267746085426 25.923134266760105 0.6740100645477103 0 0 0
332 1 12.551358888995969 24.164725268672093 2.3559764641501064 0 0 0
309 1 18.8139175440114 24.337881203176316 2.3169737208722747 0 0 0
965 1 20.920256265751263 25.584579170067062 0.7747137066437706 0 0 0
967 1 26.770796158088398 25.59499645985045 0.6637145923559344 0 0 0
966 1 25.6391991543805 24.025027953847587 2.6908122443857327 0 0 0
968 1 31.467320955735993 24.119348853103563 2.6572730736584464 0 0 0
970 1 32.881067721837184 25.736296872669858 0.7979125926295196 0 0 0
327 1 3.356042982229264 27.78543268157148 2.0060721916070543 0 0 0
235 1 5.1114807093469565 29.365539303845786 0.28662405338966057 0 0 0
237 1 9.606555011930743 27.28187528071675 2.1754400207249227 0 0 0
238 1 11.149882234915777 28.870579198760826 0.6244483962848335 0 0 0
338 1 15.687819722773476 27.58480037173518 2.2702667269137287 0 0 0
240 1 17.343283497395703 29.045328994875206 0.5568959906704587 0 0 0
972 1 23.785015468845234 28.52860810002182 0.8220853192683675 0 0 0
1055 1 22.454116055214758 27.162819136202213 2.3761456867565287 0 0 0
1057 1 28.755415851280574 26.948986474769104 2.2916573162746037 0 0 0
973 1 29.7374368712889 29.200572291317876 0.7364568834022792 0 0 0
242 1 1.3798953104028993 31.992521724325254 0.6217037763823967 0 0 0
70 1 -0.08665433311589679 30.560792837078232 2.38954740581151 0 0 0
340 1 6.692648402016843 30.90995300820501 2.229638698452367 0 0 0
245 1 8.245695682151716 32.22448839860603 0.4474480323040265 0 0 0
336 1 12.583740570499574 30.675800796286737 1.9827633497189243 0 0 0
247 1 14.246399594414719 32.5570990487456 0.5437639002212283 0 0 0
826 1 19.07735619811689 30.66293303498769 2.173070027605368 0 0 0
976 1 20.76716041564621 31.8533619922485 0.2795490836022871 0 0 0
1060 1 25.55109912430853 30.035230380999838 2.165067401422336 0 0 0
978 1 26.789586676806078 31.790826962279684 0.5124068970154868 0 0 0
1059 1 31.609202712485352 30.49586099598833 2.2401928490175496 0 0 0
981 1 32.89155801302191 31.774841000603942 0.39959321119679436 0 0 0
243 1 2.854066489339626 33.74496687645376 2.3004769632332684 0 0 0
347 1 9.543883552389271 33.99802316070348 2.266240912549145 0 0 0
251 1 11.137366286428973 35.469293932678866 0.508877320014742 0 0 0
252 1 16.00418747633731 33.8344661701104 2.101661139311209 0 0 0
253 1 17.27559883227399 35.438370078483544 0.6434352006982426 0 0 0
1063 1 22.295854273403577 33.49587410358198 2.3025399388900314 0 0 0
983 1 23.640548745029413 34.940038910443164 0.7394108533353786 0 0 0
979 1 28.420367750473638 33.62806703002394 1.8972910585459024 0 0 0
985 1 30.161832914313546 35.26859670891329 0.504954817810676 0 0 0
982 1 34.579974420391615 33.41841480435936 1.868403551476121 0 0 0
255 1 1.111181270434452 38.309164271491724 0.16658749170435522 0 0 0
249 1 4.588027582712985 35.747282337139154 0.06257681971873816 0 0 0
257 1 5.986357839425645 37.22212598514321 2.056051685239994 0 0 0
260 1 12.562273752063586 36.9930332776927 2.222765543043524 0 0 0
747 1 18.81426894756732 37.31300578485214 2.0122549467455 0 0 0
988 1 20.615005895604895 38.57034433988245 0.4295909953408812 0 0 0
984 1 25.096672675756793 36.88453126491146 2.0169618650776724 0 0 0
990 1 26.770658034247635 38.32985303655643 0.46979121646725286 0 0 0
1066 1 31.374516427342467 36.90449373263999 2.4053960610366665 0 0 0
264 1 2.919513909999226 40.21831848113139 2.155112783747133 0 0 0
258 1 7.481692508506595 38.81353522742954 0.40623708381927015 0 0 0
359 1 9.399842929602395 40.454408439166755 2.0739485770839092 0 0 0
261 1 14.196666066842987 38.876722964219354 0.7613662365260834 0 0 0
266 1 17.08400870505717 41.535041044834756 1.0761144094494193 0 0 0
1069 1 21.952648150543133 40.16158649736683 2.2206964446543234 0 0 0
993 1 23.76509726666137 41.562739224554676 0.9489549412100697 0 0 0
1070 1 28.434235994139637 40.16458261642961 2.0248670978515912 0 0 0
991 1 32.895841382058215 38.69514306848673 0.7050311415995674 0 0 0
3464 1 34.665614002149404 40.54750496901707 15.080326238242957 0 0 0
263 1 4.326214470226178 42.09927964277422 0.7075512604420973 0 0 0
270 1 5.722617128813933 43.600120118316326 2.567773164716859 0 0 0
265 1 10.969687107029705 41.9105809536362 0.3873224586774785 0 0 0
361 1 12.37540618088202 43.570195224555164 1.6308465612911647 0 0 0
191 1 18.78337091134336 43.23653614557648 2.3665497155120025 0 0 0
999 1 25.11615358516359 43.79183388391475 2.1257304440486635 0 0 0
994 1 30.210809435988878 41.8126798560495 0.6125906074945654 0 0 0
996 1 31.703179980219364 43.39944479182762 2.4959451745287633 0 0 0
268 1 1.2118799287186164 45.01757051129108 0.5673339617706484 0 0 0
368 1 2.6359442469542937 46.84826769479032 2.1074048859140597 0 0 0
272 1 7.504715366733149 44.88871196605676 0.6451826595332482 0 0 0
365 1 8.938415009311843 46.44963187850372 2.353327673594634 0 0 0
274 1 14.083048566020121 45.19972391475389 0.19073996775771923 0 0 0
374 1 15.413499124903263 46.67359212492015 2.2956836934646505 0 0 0
997 1 20.275930867559286 44.933484410679725 0.7596428380859664 0 0 0
1003 1 21.713398220190626 46.582921439898996 2.552084794783096 0 0 0
998 1 27.04494713270897 45.1580999976143 0.5761321185274686 0 0 0
1000 1 28.644949654051015 46.329876209694376 2.3042205074218134 0 0 0
1001 1 33.05426152661348 45.02488156805545 0.7778153014453237 0 0 0
277 1 4.471184087617308 48.240235263710176 0.619610078733697 0 0 0
370 1 6.132217772571281 50.038746217632436 2.2365082132990732 0 0 0
279 1 10.54079806964096 48.19330949254646 0.4624318993898606 0 0 0
379 1 12.477750918199641 49.68133811460571 2.1580447095717665 0 0 0
281 1 17.27743282087726 48.0071029292415 0.8807608219272212 0 0 0
155 1 18.828523237141454 50.06335265502689 2.108150014450845 0 0 0
1002 1 23.42322040903846 48.23949856687828 0.9265408306734242 0 0 0
1009 1 25.161089152121868 49.741076417730625 2.3161486941404936 0 0 0
1005 1 30.21847929817533 47.8199303779172 0.6016608147126671 0 0 0
1011 1 31.56875044264944 49.7243809488337 2.116112342917373 0 0 0
376 1 4.220492146940525 0.3513289871513719 3.482088982985702 0 1 0
377 1 5.68966364489661 2.108204852029353 5.28647690642502 0 1 0
378 1 10.598769780990725 0.034627979002089276 3.876550359004452 0 1 0
478 1 11.518687023414293 1.966302901850829 5.529064587014715 0 1 0
381 1 16.983610679875298 0.2716365515268628 3.9369737012811683 0 1 0
282 1 18.61062307047206 1.8879905872517178 5.120037695000052 0 1 0
1086 1 23.349289649876933 -0.0255753399231618 3.9835635659598854 0 1 0
1089 1 25.42505074115988 1.59880764344725 5.279673530970027 0 1 0
1087 1 29.986485712394327 0.07421612399296537 4.027386711643315 0 1 0
1091 1 31.61705701713849 1.684932685970182 5.3892142221215815 0 1 0
382 1 0.9007785107399242 3.380995972923974 3.6808415530411542 0 1 0
482 1 2.7580590308501503 4.887995316904301 5.2611486873971325 0 1 0
383 1 7.5562354896873245 3.388171872244937 3.969869122157764 0 1 0
384 1 8.898342308299076 5.127880661922797 5.408161546985363 0 1 0
385 1 13.636641002329991 3.258227760687471 4.379092923618142 0 1 0
386 1 15.437267172502315 4.825735936624224 5.3651767603568645 0 1 0
1088 1 20.252543479663323 3.4982193201943472 3.6133667261946383 0 1 0
1169 1 21.96163157294234 4.682218712352343 5.320487064733642 0 1 0
1090 1 26.666342897321712 3.7854889751047405 3.719161231548399 0 1 0
1096 1 28.377595483344862 5.242470045453701 5.3505825128766205 0 1 0
1092 1 33.49063920166644 3.144732487484307 3.8467170057375983 0 1 0
2311 1 28.034696158725907 49.731271676673046 24.5959364502804 0 0 0
389 1 4.404207563919092 6.96546953901953 3.873696101617159 0 1 0
390 1 5.806634210040049 8.065370924366574 5.9027552891295025 0 0 0
393 1 10.69605141625553 6.73798394351052 4.052164429402028 0 1 0
392 1 12.278987147011568 8.389115352166263 5.432599789800747 0 0 0
394 1 17.149310287686337 6.280074848050533 3.7133041729323293 0 1 0
732 1 18.6228747134544 7.992688928143764 5.432147055809784 0 0 0
1095 1 23.714949126396778 6.400209617160795 3.683351054000993 0 1 0
1099 1 25.432147939986525 8.093752447273932 4.938572925238483 0 0 0
1097 1 30.108019515933385 6.695792164629953 3.7083199576360157 0 1 0
1103 1 31.781231395167566 8.111022419535097 5.805629465355298 0 0 0
298 1 1.1629851078599136 9.742339211290094 3.9009727723450656 0 0 0
304 1 2.758534719650219 11.147230894517804 5.374956006881311 0 0 0
200 1 5.801701452349215 11.388939530592822 2.895716269453836 0 0 0
299 1 7.503370733732535 9.636731634671824 4.3860649351300545 0 0 0
397 1 8.916755522807984 11.394337571563646 5.8111077540048575 0 0 0
300 1 14.332054082784644 9.925769835656332 3.8143511328788655 0 0 0
306 1 15.736262775247951 11.536603441740866 5.51637775186757 0 0 0
1024 1 20.310891359178733 9.737130922747602 4.037138768830421 0 0 0
1028 1 21.890697667698795 11.509154952827073 5.274028442453115 0 0 0
1025 1 26.92612137625078 9.700508609975634 3.486928366638358 0 0 0
1101 1 28.45990591531107 11.163495137924546 5.163647276261043 0 0 0
1026 1 33.00019882996233 9.915875255842423 3.8030781241284464 0 0 0
303 1 4.40627432749139 13.06063846182262 4.334006343763801 0 0 0
408 1 6.222807411262299 14.555148524128391 5.6127825463154934 0 0 0
305 1 10.735987088950345 12.81918037545584 4.056567773572407 0 0 0
216 1 15.254361636228463 14.391019604695186 2.770526253435126 0 0 0
307 1 17.507905371941405 13.20058157178638 3.7591824549598116 0 0 0
1029 1 23.72503018840995 13.126205169946154 4.065412373892423 0 0 0
1111 1 25.261197785361123 14.39527867051763 5.856211522650408 0 0 0
1031 1 30.14464414004385 12.976429881997188 3.5164657381080104 0 0 0
310 1 1.5426839786405626 16.09893943363605 4.424223256503781 0 0 0
312 1 7.749105451936277 16.00505386566807 3.60392275324235 0 0 0
313 1 12.258147919721704 14.619242702422115 5.757404125143201 0 0 0
314 1 13.671611126526896 16.048673500258573 4.174159636627623 0 0 0
795 1 18.878711448538624 14.72758372787244 5.491344653045388 0 0 0
1035 1 20.540816424633302 16.155387210313233 3.8120627735061814 0 0 0
1036 1 26.719995858316143 15.584382840468912 3.926335520178447 0 0 0
1042 1 28.24536195672194 17.373057638296633 5.375776407955783 0 0 0
1032 1 31.61074847199132 14.755948309559273 5.159573301921935 0 0 0
1037 1 33.21677604647396 16.18048927483583 3.674512882038095 0 0 0
315 1 4.722652842780192 19.47325311991212 4.200898868708458 0 0 0
415 1 8.874766049411082 17.652291959400568 5.353737327264188 0 0 0
318 1 10.867854563970717 18.848119254893735 4.144578472806143 0 0 0
319 1 15.505920512924174 17.637428232105158 5.551917386789721 0 0 0
320 1 17.108005339128642 19.033382600717456 3.9895802253407346 0 0 0
1039 1 21.90892350487423 17.79807120926954 5.542918338484437 0 0 0
1040 1 23.41384366879666 19.223558644820805 3.5966132197073253 0 0 0
1043 1 30.093109749935564 19.05767693540733 4.180415068084959 0 0 0
1050 1 31.867580969527758 20.597713889704195 5.434665782493961 0 0 0
321 1 1.4516727581174915 22.633568729187477 4.074181607198689 0 0 0
481 1 -0.19925307721105212 20.857105492485537 5.605433515872865 0 0 0
413 1 5.997999303579563 21.61458845479366 5.3092292672884644 0 0 0
323 1 7.613979322899306 22.61157772099216 3.6760594925753804 0 0 0
421 1 12.127932479273916 21.33272977543511 5.313096949918853 0 0 0
324 1 14.173991240731464 22.742357836569703 4.132297196113396 0 0 0
117 1 18.337901095157914 20.904911301436417 5.7076602646676555 0 0 0
1045 1 20.108101142399523 22.458551460344644 4.177355090226113 0 0 0
1121 1 25.031504461650357 20.85207817641506 5.5029455629766995 0 0 0
1047 1 26.931660854440796 22.27847764532924 4.207156327697401 0 0 0
1049 1 33.19829610444735 22.52544863213873 4.232274996869732 0 0 0
329 1 3.1672152835921294 24.734862265615806 5.322513255628997 0 0 0
328 1 4.803738840209568 25.979200944492188 3.741403944008962 0 0 0
426 1 9.49778435235297 24.021405723957436 5.299045497375442 0 0 0
330 1 11.022200187343806 25.82385501056468 3.8820644349791174 0 0 0
333 1 17.31958586385417 25.84207924143191 3.8152037154140523 0 0 0
428 1 15.799700854658614 24.607506562025286 5.796851903771265 0 0 0
1051 1 23.849574404860764 25.836119939833136 4.12092582417965 0 0 0
1125 1 22.014588559585693 24.146315241381195 5.822126579125184 0 0 0
1053 1 29.815027205513122 25.62178991656127 4.379023541483809 0 0 0
3101 1 34.63463491730382 24.27560714668135 5.688288347089155 0 0 0
33 1 -0.027978330228694115 27.841540361913733 4.879357825900882 0 0 0
334 1 1.8717722152125074 29.345953189317157 3.5139129347864846 0 0 0
424 1 6.562292816419969 27.348852080231147 5.350581812476123 0 0 0
335 1 8.039499320423314 28.981277987850834 3.757317922662063 0 0 0
331 1 12.836733049513413 27.47332968378626 5.170375766598676 0 0 0
337 1 14.22948445755053 29.394717487298596 3.7032891204482428 0 0 0
1054 1 20.290683212739737 28.666850594574225 3.927913253161683 0 0 0
829 1 19.05969885527647 26.923880262278818 5.633246905821728 0 0 0
1056 1 27.069023569657638 28.61433781882086 3.9700620088684726 0 0 0
1131 1 25.543242088335145 27.337503853826764 5.835378661328089 0 0 0
1058 1 33.34490975727021 28.640959193778535 3.895692205869217 0 0 0
1133 1 31.681501386042004 27.370741384794947 5.913429518895837 0 0 0
429 1 3.0053780468576115 31.11357002098025 5.385818879159413 0 0 0
341 1 4.825270206470426 32.390867246963055 3.541330656293116 0 0 0
438 1 9.63520953143789 30.942258288691537 5.265795809322428 0 0 0
342 1 10.90234227829056 32.325630924648436 3.6654080012301233 0 0 0
343 1 17.494887405064294 31.99305170718854 4.058376809854028 0 0 0
440 1 15.662520882689899 30.41425451296191 5.826718287257763 0 0 0
1129 1 22.366137447366768 30.295169281407873 5.285870955912888 0 0 0
1061 1 24.170692824355694 32.04880733968021 3.652189820261718 0 0 0
1136 1 28.41712322844757 30.39947935603108 5.486274530842649 0 0 0
1062 1 30.001490509896385 31.918701383673987 3.717477891754891 0 0 0
344 1 1.1942865860529372 35.36804592282161 3.917793303330477 0 0 0
345 1 6.120910730783715 33.67919671203303 5.423111355007539 0 0 0
346 1 7.295789808617904 35.33165007365571 3.7930744957343028 0 0 0
446 1 12.25228346078514 34.02042164006173 5.148735849606599 0 0 0
349 1 14.187597018700382 35.226577643509444 3.714272072028269 0 0 0
847 1 19.26713725938049 33.705278052379796 5.196829599482227 0 0 0
1064 1 20.794539590207396 35.58161414855306 3.660419938391453 0 0 0
1139 1 25.65260963096126 33.90724538962128 5.419619555663388 0 0 0
1065 1 26.898045373372838 35.48267073809318 3.44553281839289 0 0 0
1137 1 31.405680749316 33.656324009668154 5.318691527793112 0 0 0
1067 1 33.159532912641495 35.08177848588464 3.6156284025969456 0 0 0
451 1 2.6877200148827987 37.10180142283332 5.325663197254553 0 0 0
351 1 4.350093265575888 38.529591572234196 3.6370838210543863 0 0 0
348 1 8.742945817242928 37.0194546259699 5.542166962804657 0 0 0
352 1 10.710405666075882 38.58488556145902 3.808173931271145 0 0 0
353 1 15.748583738710295 36.79898677912517 5.372339908376737 0 0 0
355 1 17.224879551897725 38.62149251988062 3.9628573849743107 0 0 0
1143 1 21.96419648669716 36.83279042211561 5.520103097648546 0 0 0
1068 1 23.61768281192093 38.48325744766551 3.916474021582724 0 0 0
1141 1 28.270132471739068 36.95181572848314 5.210412525247733 0 0 0
1073 1 34.48184989542942 36.81165248527685 5.388298036190595 0 0 0
358 1 6.23242059772967 40.13162690939821 5.109481966738761 0 0 0
459 1 12.200448493199751 40.105922100162104 5.210068769357154 0 0 0
354 1 15.333995212357824 40.28422884720884 2.7555677107446814 0 0 0
892 1 19.0463685727265 40.04967296038677 5.437648078687235 0 0 0
1074 1 20.621075570314716 41.65076072724712 4.159647691794368 0 0 0
1148 1 25.345923058263704 40.25646444269029 5.379735915941976 0 0 0
1071 1 29.965856903813048 38.71377743965908 3.938282601635831 0 0 0
1072 1 31.525811237158532 40.631197274400776 5.325569029542703 0 0 0
357 1 1.2345970622227413 42.11486937352363 3.8478703988051843 0 0 0
363 1 2.9072837388682555 43.61719240734564 5.592795477715471 0 0 0
360 1 7.751008113927821 41.873151100724726 3.7033743865331754 0 0 0
462 1 8.96208057119577 43.682760962722114 5.303234758502124 0 0 0
362 1 13.561792978330441 42.28986576339925 3.7952209879171606 0 0 0
464 1 15.185764614693717 43.69661017402443 5.467545887166277 0 0 0
1152 1 21.870933664466016 43.59198782993916 5.725596442056775 0 0 0
1075 1 26.58140498571992 41.86144530278686 3.532663603204943 0 0 0
1155 1 27.96742866790491 43.72154001217771 4.984973338407733 0 0 0
1076 1 33.53202592388455 41.92919970288827 3.808596910260344 0 0 0
364 1 4.074573903229525 45.34815811085649 3.8966233942854283 0 0 0
371 1 5.515578353558686 46.6995077119915 5.783823906945825 0 0 0
366 1 10.814319372115532 45.02001293065108 3.782068782718885 0 0 0
469 1 11.771983151330005 46.83189505786004 5.521728380409226 0 0 0
367 1 17.021912681740996 44.831525949629025 3.5950014570042503 0 0 0
267 1 18.460067912934285 46.56771602693867 5.302942604363921 0 0 0
1077 1 23.55203427172631 45.167198576763965 4.257357235605696 0 0 0
1078 1 25.385189516253007 46.75575326211258 5.702498877821133 0 0 0
1079 1 30.106091967570116 44.961624005147016 4.145709672722418 0 0 0
1084 1 31.503892581513092 46.53534626679719 5.664760117157396 0 0 0
2312 1 33.24465258055203 48.08187111675893 22.7792101742617 0 0 0
375 1 2.834562457318297 50.02398009016248 5.274288157867906 0 0 0
369 1 1.0624139642383732 48.35522023973891 3.8905570029367142 0 0 0
372 1 7.481200134903023 48.2275716830428 3.938170235552965 0 0 0
477 1 8.842007176832041 49.81676410377946 5.610616753715438 0 0 0
373 1 13.811975609265648 48.003912588476155 4.140940733040781 0 0 0
380 1 15.246245170009018 50.06737522145505 5.592710645397044 0 0 0
1080 1 20.195269261157264 48.30486790635592 3.785528537708425 0 0 0
1081 1 21.476121077573946 49.63608803096824 5.584099135741202 0 0 0
1082 1 26.908501708071622 48.263186737957625 3.82585898634225 0 0 0
1083 1 28.436229673483925 49.69061146322956 5.417159356067174 0 0 0
4585 1 0.46888457221941104 6.172888969956062 3.30120068697457 2 2 1
1085 1 33.0139737161907 47.762875285637605 3.843072188647119 0 0 0
473 1 0.967130844350476 0.2485749303796575 7.201527540894001 0 1 0
474 1 2.561407924850879 2.024137694443837 8.460145276126497 0 1 0
476 1 7.076920319371039 0.2790443901930301 7.0494690921000585 0 1 0
484 1 8.631133032767835 1.8210213918259632 8.718559254347337 0 1 0
479 1 13.186729176991472 0.2349699484035443 6.94446131959445 0 1 0
480 1 15.651198635643562 1.3316118953037415 8.204586373503437 0 1 0
1160 1 20.003378416510493 0.36026738191025937 7.22744337925789 0 1 0
1250 1 22.061518777710713 1.526602290538677 8.746894560593262 0 1 0
1162 1 26.7456011823036 -0.022124890501169822 7.15978527756625 0 1 0
1166 1 28.356853003928197 1.6909241848379073 8.715347872467197 0 1 0
1164 1 33.155106791595365 0.004715684542091314 7.230646022724315 0 1 0
79 1 -0.11829056440333091 5.5264694687750895 8.650818361169497 0 1 0
483 1 4.176019883461596 3.6031963583812634 7.095657618306881 0 1 0
578 1 5.919486572768037 4.9679258539526865 8.609238208489408 0 1 0
485 1 10.198144984265888 3.7295280178124246 7.302072092416086 0 1 0
486 1 12.560485059402966 4.808134312412804 8.538587583294573 0 1 0
487 1 17.113616663578693 3.290223861063191 6.674890834410733 0 1 0
222 1 18.53459132646575 4.897870674692805 8.634336651846995 0 1 0
1165 1 23.796491485339306 3.215908847214891 7.149347315642285 0 1 0
1171 1 25.054882203038154 4.971526170715101 8.72206346586679 0 1 0
1167 1 29.91073678062016 3.412726428319541 6.8406805808756905 0 1 0
1168 1 31.499024111498358 5.005391803346905 8.334543046767951 0 1 0
488 1 1.5081446849090485 6.789959715043451 6.968106653006315 0 1 0
489 1 2.8253961741926763 8.264601528052593 8.855202226476479 0 0 0
490 1 7.529469886208666 6.663881402341204 7.175119782184082 0 1 0
398 1 9.113574932590577 8.034047043685964 8.794714668463568 0 0 0
491 1 14.057104668217535 6.7142769298175935 7.049781412148167 0 1 0
1170 1 20.39085511680761 6.408301731114627 6.986213574322701 0 1 0
1098 1 21.932245441584392 8.1956888716115 8.388582279074015 0 0 0
1172 1 26.60408264990733 6.379904927166838 6.891482633780691 0 1 0
1177 1 27.759948767282527 7.850474168994976 8.830279813931893 0 0 0
1173 1 33.315025374662206 6.429959751876861 7.007572902121507 0 1 0
1174 1 34.52628556315717 8.295439180516585 8.624740147709154 0 0 0
68 1 -0.10743609939564427 11.40418846943836 8.670859241133808 0 0 0
396 1 4.296523750527882 9.75638758107219 7.369659544098136 0 0 0
403 1 6.086087723720013 11.406522178576235 8.996498879694231 0 0 0
399 1 10.705397841566509 9.861212616080037 7.316521070670826 0 0 0
500 1 12.816697130792564 11.309437941790739 8.785824037287037 0 0 0
401 1 17.565486806480234 9.559178243097953 7.2479415918179475 0 0 0
821 1 19.146922434042466 11.172158658956393 8.756474217574015 0 0 0
1100 1 23.597013006294887 9.791035186537076 6.7268328576999705 0 0 0
1176 1 24.996921019462683 11.231358704327366 8.613531047647994 0 0 0
1102 1 29.61233289618182 9.740836993903411 7.219776454425985 0 0 0
1104 1 31.57745590821266 11.36959075117478 8.563153968153202 0 0 0
402 1 1.318639328566231 12.868935222784767 7.0094193822446815 0 0 0
498 1 3.051807215155683 14.405486742029776 8.674415245643496 0 0 0
404 1 7.570967153109805 13.267430055026026 7.777466073378998 0 0 0
406 1 14.294959263020845 13.225699446186061 7.162542949119312 0 0 0
1106 1 20.495117722432056 13.093825473467676 7.1802324247723 0 0 0
1107 1 27.194749145487563 12.710005254926703 7.231909523439662 0 0 0
1113 1 28.519712358542314 14.581431921044379 8.915798461811054 0 0 0
1108 1 33.30432317834253 13.162357592869363 6.890238055247685 0 0 0
407 1 4.7304235724478305 16.191413628049325 7.573416541852164 0 0 0
409 1 10.72467076867549 16.61917567367027 7.292893832581712 0 0 0
405 1 9.376225289952536 14.922657283887911 8.823692789318873 0 0 0
410 1 17.284640263987065 16.167026131403556 7.313031345857706 0 0 0
509 1 15.710660132905716 14.736527824209674 8.953469682356548 0 0 0
1109 1 21.922576975999075 14.624474568551149 8.6320321906803 0 0 0
1110 1 23.71530933424715 16.37248846950969 7.2315125059694045 0 0 0
1112 1 29.837816688018016 15.990197350260903 6.7760259785835615 0 0 0
1114 1 31.57349534325039 17.581961752604776 8.501693113624597 0 0 0
411 1 1.3878561019913946 19.427634705853304 7.381769702235975 0 0 0
412 1 3.038249729316082 17.830741771598365 6.012840754237056 0 0 0
414 1 7.697434286765816 19.96172268987045 6.771128309896407 0 0 0
507 1 6.23311246803868 18.427008960878826 8.770810861681625 0 0 0
513 1 12.389943713168977 17.969820519869263 8.808463841175968 0 0 0
416 1 13.908610855338642 19.647727979266442 7.071058510275019 0 0 0
1116 1 20.257666055621605 19.31050581175315 6.9100319527537035 0 0 0
955 1 18.975598831848025 17.789248659641903 8.811213366428598 0 0 0
1118 1 26.775715590419242 19.21441369819924 6.995518747086657 0 0 0
1187 1 25.45852231795448 17.78245768157232 8.892870233152234 0 0 0
1119 1 33.3720247931498 19.067311162950382 6.945756839264267 0 0 0
517 1 2.8490215773490117 21.341755886311855 8.814098560793953 0 0 0
419 1 4.378924023623132 23.064142402237625 6.982990032675166 0 0 0
518 1 8.982874641743097 21.269377682190978 8.92253552567002 0 0 0
420 1 10.786130094518386 22.64735831167227 7.405527436876342 0 0 0
422 1 16.57862122850986 22.658018179842433 7.154485568911199 0 0 0
520 1 15.696202827580194 20.900224427751905 8.968592598092519 0 0 0
1117 1 21.41671329651826 20.727236127327547 8.767478010300723 0 0 0
1120 1 23.80417358491736 22.66383797145205 7.439806927616081 0 0 0
1124 1 28.692742834489778 20.72894419020655 8.604551183205416 0 0 0
1122 1 30.449467280112213 22.130012942815107 7.266775461588414 0 0 0
1123 1 31.977647685424962 23.442893768302543 8.924904114124297 0 0 0
28 1 -0.08628672467413445 24.643376816819956 8.401034932374305 0 0 0
423 1 1.6499625129712763 26.15331390662158 6.770912482621357 0 0 0
525 1 6.0476687815082935 24.36731920505475 8.659278814819112 0 0 0
425 1 8.078490646780033 25.609222625155766 7.027707732988313 0 0 0
427 1 14.110138226480792 25.980218472702628 7.254520136999555 0 0 0
528 1 12.978257632182293 23.902860461662424 8.86652038395303 0 0 0
143 1 18.503063900632615 24.02961690895826 8.705243434153294 0 0 0