LAMMPS data file via write_data, version 29 Oct 2020, timestep = 200000

4608 atoms
1 atom types

0.009398569998236184 57.26111143000011 xlo xhi
0.008354284444372695 50.89876571555228 ylo yhi
0.008354284444372695 50.89876571555228 zlo zhi

Masses

1 18.015

Atoms # atomic

29 1 4.642707700792845 1.591008400154608 1.3306421208937989 0 0 0
285 1 11.196993932742819 1.4913442322298176 1.5572245098181854 0 0 0
34 1 0.1498681136874566 9.730643164052477 22.172199715458337 0 0 0
537 1 15.572391838053104 50.820621564447336 3.3040313252041655 0 -1 0
541 1 17.269700148284873 1.5060028150427869 1.6562387142077089 0 0 0
30 1 1.599406077573739 5.191827132803238 1.7332394489701684 0 0 0
286 1 8.327568435584174 4.556418464028748 1.8865382768439782 0 0 0
542 1 14.133822902353257 4.57608781651149 1.7342261909238874 0 0 0
1024 1 2.9147294999300013 47.55811136740314 25.279801917220162 0 0 0
740 1 17.429169857446595 49.5177827851654 23.78758400867347 0 0 0
32 1 3.268377819599016 3.5806298519441104 0.28586327020247154 0 0 0
927 1 0.052878579463367714 25.268340235376705 25.255691211596464 0 0 0
61 1 4.831008153716433 8.192751213850803 2.0279650541469794 0 0 0
103 1 0.16123499217801004 19.298894626390023 18.80845311286837 0 0 0
1088 1 9.525155625302421 9.948886025421931 25.28484923674591 0 0 0
317 1 11.551591822697123 7.8807758772388015 1.872998643378972 0 0 0
138 1 0.08338396959633446 28.450578651152917 15.38345848804586 0 0 0
573 1 17.326397551619117 7.777527431327226 1.7156237097595188 0 0 0
62 1 1.600052467795384 11.387491800706991 2.0556708653670754 0 0 0
318 1 7.892457554458812 10.736434443568287 1.7029310656327874 0 0 0
314 1 6.736974796969614 9.613511886820106 3.696485334389632 0 0 0
55 1 0.013306096379054111 6.123225220222527 6.49828031836518 0 0 0
1055 1 6.1941190457858 50.79303184101887 25.373613092686224 0 -1 0
574 1 14.684336610530053 11.182310660155984 1.3433775328205986 0 0 0
736 1 15.866479990597734 41.03629730836177 0.4253005309724909 0 0 0
183 1 0.015928011436272982 31.80171673021803 6.128227847304369 0 0 0
93 1 4.8342980850497215 14.331319778541006 1.6330371367748928 0 0 0
74 1 0.23867415504305647 16.36175668129351 15.679210228901157 0 0 0
349 1 11.281909711481783 14.189817880679001 1.161737649635629 0 0 0
1408 1 15.789409147681074 22.343166637978136 25.269363251814706 0 0 0
1440 1 15.994365786593978 28.873802687448254 25.132714258515925 0 0 0
605 1 17.511483587652428 14.48476256870613 1.658361555853844 0 0 0
111 1 0.29667184833962684 19.54287854487289 12.176298672968732 0 0 0
94 1 1.6475130624649539 17.37744544806865 1.697770709854235 0 0 0
350 1 8.146263737660963 17.784203249147687 1.432745419609715 0 0 0
606 1 14.704517413025169 17.669161738655845 1.5391360712435773 0 0 0
415 1 6.330900651803613 25.486755565570828 0.13506290919795397 0 0 0
1215 1 6.057358435448482 31.833894913535637 25.23801305997157 0 0 0
125 1 4.87890525247908 20.382417745461453 1.4509365876076123 0 0 0
381 1 10.802179868057358 20.74010149628803 1.504027052023094 0 0 0
637 1 17.83261058001774 20.782865901602783 1.5651691722780532 0 0 0
126 1 2.072832209712318 23.406502579121607 1.6793620265360636 0 0 0
382 1 8.059958726367388 23.859478535708806 1.4734760345123865 0 0 0
119 1 0.10572188809710781 19.156857129798023 6.3264241492693065 0 0 0
638 1 14.268648054102629 24.18133095965435 1.2167242089846466 0 0 0
186 1 0.05957574290933743 35.135924851020235 3.3298270837155792 0 0 0
665 1 16.10171690867975 25.46202264888166 2.953266200926098 0 0 0
157 1 4.774946312197062 26.996105258194667 1.6567246600884895 0 0 0
409 1 9.597288468357398 25.477310604759445 2.9663812638983864 0 0 0
413 1 11.257341925725186 26.940492642985564 1.4076076538617561 0 0 0
192 1 3.0784057700575143 34.93058863232106 0.048398825998329835 0 0 0
669 1 17.65398945165032 27.238300179856576 1.6322110048574885 0 0 0
1216 1 9.65834249061222 34.60469642515554 25.195624710954025 0 0 0
158 1 1.6677089677609256 30.09224520280773 1.824378182490331 0 0 0
414 1 7.839700036359943 30.476389481744846 1.5363367446883673 0 0 0
410 1 6.446310007836682 28.868576703055997 3.2225349075226104 0 0 0
670 1 14.301907097466001 30.224361497126285 1.6415003840608016 0 0 0
666 1 12.935497266007213 28.264966619497027 3.0342123694298313 0 0 0
215 1 0.15515840763196556 38.36507672447206 6.18343807480622 0 0 0
122 1 0.3747645494265571 21.945712168469495 3.1218380705460302 0 0 0
185 1 3.3933599125473046 31.733975113007336 3.0142384047603428 0 0 0
189 1 4.881133791102249 33.47792916024468 1.6118645783503966 0 0 0
445 1 11.422996790127796 33.594117589781135 1.237365688273281 0 0 0
320 1 9.810010227965314 9.457355150329004 0.3910612540776888 0 0 0
701 1 17.446008754675592 33.27220383061707 1.4635160664595985 0 0 0
190 1 1.4338726534309223 36.61788204201729 1.4857459645671305 0 0 0
217 1 3.080019846909159 37.99675121583383 3.028409682407818 0 0 0
10 1 0.2176374765308646 3.193114454568156 15.947596756298372 0 0 0
446 1 7.898225978092614 36.66980265948534 1.0924145483785996 0 0 0
114 1 0.23830850543357268 22.247641256148263 9.69975541561576 0 0 0
702 1 14.020856372687534 37.0488573168987 1.4529135740794692 0 0 0
729 1 16.047442365263 37.98691295989287 3.0451878925050457 0 0 0
221 1 4.473441086799707 40.05388451159931 1.8725705813828097 0 0 0
58 1 0.21813170293096387 9.540484472958969 3.440082785783489 0 0 0
477 1 10.800125550520276 39.922246798065956 1.403963991875218 0 0 0
223 1 0.11823626207640814 38.69455382129035 0.16983673745377237 0 0 0
733 1 17.851756971452758 39.432719456827975 1.447509647853113 0 0 0
222 1 1.5030505499726199 43.20650745363326 1.487501788898938 0 0 0
234 1 0.20684085044636902 48.23712680153012 15.927662665836976 0 0 0
218 1 0.2522101515497667 41.40559844429267 3.2066167517496393 0 0 0
478 1 7.5504976562606485 42.98295814255303 1.6329071878958616 0 0 0
734 1 13.99417661539716 43.270908210467134 1.2888182927780873 0 0 0
249 1 3.001056188762631 44.75029898371135 3.2088350969304997 0 0 0
253 1 4.504821950074098 46.367582165625514 1.6216265348062255 0 0 0
506 1 6.0829798351624484 47.95913316210723 3.264080902511732 0 0 0
47 1 0.027812211694249113 6.44970173058359 12.990292403096369 0 0 0
509 1 11.068604987176846 46.503319907207434 1.9775543244549707 0 0 0
762 1 12.737755112977995 47.74203053381138 3.6864578315810914 0 0 0
761 1 15.555795626367557 44.58759585941333 3.0630827757823678 0 0 0
765 1 17.528696455428 46.17453462453307 1.5630285953161247 0 0 0
1706 1 18.695930538916773 35.09075556974372 15.829096035480934 0 0 0
254 1 1.7627405043991784 49.58207306739856 1.607417161332112 0 0 0
25 1 3.2368969135128802 0.11977392065125458 3.087098833187797 0 0 0
510 1 7.956034857990767 49.56705840053419 1.8022955451919345 0 0 0
1671 1 19.049399764337036 25.01624148390293 18.940630198486755 0 0 0
766 1 14.23956619824094 48.92307307702601 1.8026862584968901 0 0 0
50 1 0.4220774704697311 9.382169478661318 9.67598623294963 0 0 0
27 1 1.669005023852254 1.5070388536580486 4.986465620980984 0 0 0
24 1 3.359234937586391 3.215442342413908 6.371285448970135 0 0 0
281 1 9.609924582879982 50.855285608841605 3.444621066492317 0 -1 0
283 1 7.527079070306706 1.357918819542544 4.789894594159895 0 0 0
280 1 9.296944195872465 3.0661383272714997 6.31157788748982 0 0 0
539 1 14.158679545033365 1.5598365499439488 5.002462848722974 0 0 0
536 1 16.021553861624337 3.1902611776447594 6.240027303489686 0 0 0
57 1 3.291520105770075 6.5418392111794565 3.393112347805756 0 0 0
28 1 4.917939883253381 4.999395118179901 4.842377593086014 0 0 0
282 1 6.419925078835517 3.186271374101787 3.306822068289105 0 0 0
538 1 12.693202660863935 3.0993648273395107 3.386153910864745 0 0 0
284 1 11.00815639169618 4.5415042291289 4.904337775339556 0 0 0
540 1 17.614488371690964 5.087954838597205 4.984762378746329 0 0 0
1751 1 19.061277000692986 38.259320050429636 6.289891491922642 0 0 0
59 1 1.6106891971347026 7.9200052026886 5.16284700998373 0 0 0
315 1 8.209770445187372 8.007807597780388 5.184599473401417 0 0 0
313 1 9.641712418323698 6.419321174735311 3.4489189757523424 0 0 0
569 1 15.676637781647237 6.163075928448746 3.102725438902009 0 0 0
571 1 14.398857059321786 7.687989359466248 5.108654659228003 0 0 0
1615 1 18.564687151552608 12.643211891591665 13.000187433022463 0 0 0
89 1 3.3063355260464116 12.99735641581157 3.5979378506271518 0 0 0
60 1 4.963939436329588 11.271138536732812 5.00259154111775 0 0 0
570 1 13.292114029694337 9.638918138023525 3.3137316667091197 0 0 0
316 1 11.432741435234274 11.082834099664865 4.832923299202874 0 0 0
572 1 17.233873539787453 11.038373828579546 4.703584492246505 0 0 0
1559 1 18.799958924515227 0.13625375256408745 6.455601194494861 0 0 0
91 1 1.3993492336437412 14.418351021231402 4.839832253393737 0 0 0
64 1 3.0900987468981223 9.711029968522842 0.47902658280673 0 0 0
347 1 8.462750848737 14.566860704849686 4.7300338559268775 0 0 0
345 1 9.798241230604686 12.576620169322734 2.8782025404371017 0 0 0
603 1 14.14284680970446 14.629667762656899 4.789070145054466 0 0 0
601 1 15.90731076271097 12.888731214294422 3.1840361230110723 0 0 0
92 1 4.9301616668296475 17.60603080753636 4.7851816225495885 0 0 0
346 1 6.582745194179605 16.099545919856 2.9438768379337716 0 0 0
348 1 11.353523323147442 17.327616971449892 4.573964396324207 0 0 0
602 1 12.89146730267479 15.96206255769101 2.7324521072141694 0 0 0
604 1 17.352361548433766 17.72304090405043 4.7753594813226234 0 0 0
1594 1 18.782537089206432 9.37271655014305 3.3650993873753894 0 0 0
123 1 1.8190050682012944 20.736792826443665 4.81711134489963 0 0 0
121 1 3.401898139590355 18.978373674980453 3.0340667399449566 0 0 0
379 1 8.131004973005757 20.59039401844048 4.726954507348569 0 0 0
377 1 9.617606582665513 18.983252683221085 3.2915234299208445 0 0 0
635 1 14.295958005748728 20.984732129317127 4.503536520887637 0 0 0
633 1 15.978512870425233 19.309922440455747 3.2152051770752648 0 0 0
484 1 10.901951578035176 49.434625828912615 23.974208376630088 0 0 0
1610 1 18.728969873226266 15.751267244353826 15.98179773027431 0 0 0
124 1 5.22687195610264 24.121009063243836 4.470729582788813 0 0 0
407 1 6.701808071962992 25.56322230509202 6.470111404503931 0 0 0
378 1 6.541361399375845 21.91852978349394 3.0706751431921857 0 0 0
380 1 11.466537452887923 24.081613032184805 4.582860269357655 0 0 0
376 1 10.042038038049885 22.36076006783122 6.1685247882167 0 0 0
634 1 12.690678900203462 22.56636750980579 2.688165443524061 0 0 0
636 1 17.667194063424777 24.004361391229164 4.678851075644071 0 0 0
155 1 1.3985839394358766 26.630214938027805 4.4170087212283535 0 0 0
153 1 3.3997259230870456 25.361034298414587 3.001260020150646 0 0 0
411 1 8.073601645747386 26.978046569590592 4.698425838041015 0 0 0
667 1 14.886229163411166 27.182129589597288 4.634983254633694 0 0 0
1746 1 19.052694972482755 41.64628005553701 9.419857473752742 0 0 0
156 1 4.845831581331294 30.39973394589663 4.984329827478612 0 0 0
439 1 6.204606904974268 32.1898501506984 6.39423656903464 0 0 0
441 1 9.988101248578593 31.97855763614665 2.686553036834125 0 0 0
408 1 9.464836335638196 28.511775205403673 6.206726676851673 0 0 0
412 1 11.029588049361545 30.246177937438087 4.395474594517622 0 0 0
664 1 16.071272579708207 29.07357714550615 6.389244141784482 0 0 0
668 1 17.777006170082554 30.202127779875994 4.827622762256976 0 0 0
187 1 1.6233881688253244 33.20414099896462 4.551701902410419 0 0 0
442 1 6.365697849544116 35.0980405136894 3.126678861316713 0 0 0
443 1 7.940012084667156 33.18261835487162 4.40524133505797 0 0 0
698 1 12.697377377208568 35.06500090925772 3.1565378435830485 0 0 0
699 1 14.423206210919506 33.33227677221699 4.5488402983287175 0 0 0
697 1 16.123761274989164 31.565193411653627 3.286888070616428 0 0 0
184 1 3.120963375107438 34.99547531366814 6.218840991698818 0 0 0
188 1 4.640967049060483 36.73248476352691 4.738359381004059 0 0 0
473 1 9.394335837287818 38.04541833548669 2.8089690184480105 0 0 0
444 1 11.067183597139717 36.576761161051955 4.638325106722181 0 0 0
700 1 17.434025133678272 36.4553459429909 4.869263993958744 0 0 0
219 1 1.9168539085661207 39.924974183199005 4.7530093033421394 0 0 0
216 1 3.2248068188955075 41.52364935729912 6.44302003190575 0 0 0
474 1 6.110623984826746 41.38798688533608 3.4308090433436953 0 0 0
475 1 7.8460170148378285 39.68610857664697 4.7402623352523845 0 0 0
730 1 12.511523233051832 41.40969857198614 2.7977469405343656 0 0 0
731 1 14.358479238373764 39.84675468802661 4.474124068002315 0 0 0
220 1 4.799806571113017 43.12922621765935 4.7330069717503305 0 0 0
505 1 9.301897034631752 44.50909562733573 3.1276211889429653 0 0 0
476 1 11.17338099092845 42.99734007897084 4.926407058451729 0 0 0
728 1 16.018020066729367 41.50627418527062 6.511784766211466 0 0 0
732 1 17.482357324892394 43.36555224345715 4.7797262255121 0 0 0
251 1 1.2758026402822051 46.366785387247525 4.601900831020535 0 0 0
248 1 3.061981105267014 47.82914780519084 6.1919992099349965 0 0 0
507 1 7.990450695914203 46.427923206891066 4.873866848130781 0 0 0
759 1 12.685073336083244 44.38577547331737 6.595478185302393 0 0 0
504 1 9.475404230057208 47.758142480582215 6.439429819738789 0 0 0
763 1 14.451030091696513 46.02491704074578 5.080195779550079 0 0 0
1714 1 19.007783244623454 34.855840807933134 9.676880270429328 0 0 0
1735 1 18.828995292856263 38.21299985707929 19.03453410162927 0 0 0
252 1 4.723593772784366 49.534609253823014 4.775117567548414 0 0 0
279 1 6.2476265762181775 50.85779467142024 6.640360284040266 0 -1 0
508 1 11.277953240391806 49.314398372457475 5.147000432964502 0 0 0
535 1 12.560520258504324 0.1603352337400139 6.696243917000108 0 0 0
760 1 15.943759074192238 47.83325830557687 6.3928265900969174 0 0 0
764 1 17.193924223061046 49.32468096476998 4.626375252588782 0 0 0
21 1 4.9949682679164145 1.657653144597594 8.265844742972634 0 0 0
274 1 6.095287695384657 3.1779467709664453 10.203227116200553 0 0 0
277 1 10.744949162414894 1.7133074713878207 8.194465974184284 0 0 0
530 1 12.554835986791876 3.138625333357509 9.737451940634005 0 0 0
533 1 17.32410445709788 1.8605395812483447 8.13251994303456 0 0 0
22 1 1.7870973721297425 4.622596380056491 8.169249888586304 0 0 0
49 1 3.341137042851008 6.466004516260554 9.83073758994857 0 0 0
311 1 6.418993387667385 6.253049671667772 6.601638746271988 0 0 0
278 1 7.592217923761857 4.687050572208918 8.227231512725318 0 0 0
567 1 12.624341418325338 6.415742022674787 6.425933280941712 0 0 0
305 1 9.647472134762863 6.074581696185987 9.407985050912089 0 0 0
534 1 14.12489977609269 4.600489318088673 7.781767428486353 0 0 0
575 1 12.910554911220238 6.256835960543246 0.15444334031450782 0 0 0
56 1 3.252264309839215 9.784203912076228 6.590462614732988 0 0 0
53 1 4.8184009214518895 7.925661981172311 8.024755117245393 0 0 0
312 1 9.60542303323667 9.831700695113911 6.635752382486038 0 0 0
309 1 11.070361323096355 7.873776566144479 8.21934035282736 0 0 0
561 1 15.497578590122544 6.164030010703105 10.078704185636376 0 0 0
565 1 17.197993240618384 7.8011230445597475 8.31596572553494 0 0 0
54 1 1.6921815192791594 11.21605726167285 8.081329624794385 0 0 0
310 1 7.779091344399999 11.200118756524459 8.180265460147966 0 0 0
566 1 14.156668720500004 11.237630518278552 8.059542911610006 0 0 0
568 1 15.912477929415516 9.695354284024562 6.6408805650320755 0 0 0
1770 1 18.760329302538445 47.61187754861416 15.911268780679178 0 0 0
88 1 3.4567461680539076 16.182369687393233 6.306584704239746 0 0 0
85 1 4.9873244832457795 14.26227507067175 7.969362695939851 0 0 0
343 1 6.846087681796337 12.891051957023867 6.2089385050908925 0 0 0
341 1 11.318275605633184 14.321142091161493 8.205309520097437 0 0 0
599 1 12.709979874155021 12.88456027822552 6.424128914985872 0 0 0
600 1 15.945782782603867 15.87902271617491 6.412830320561336 0 0 0
597 1 17.612080047777706 14.275017073683685 8.060723353496455 0 0 0
86 1 1.6181720151210703 17.71015689549331 7.925774243243791 0 0 0
342 1 8.13665456393408 17.654008024669363 7.924185915293607 0 0 0
338 1 6.631064137012141 15.92819209306987 9.23651088929896 0 0 0
344 1 10.073086964342098 16.234397302339524 6.698714694747434 0 0 0
598 1 14.440149484548176 17.634694836794182 7.9933594583321534 0 0 0
117 1 5.408744851248872 21.05875673117983 7.608037665883659 0 0 0
375 1 6.378299553683209 19.107910144779762 6.334751263073394 0 0 0
369 1 9.879866775046748 18.986195685795003 9.486788919609864 0 0 0
373 1 11.414970250047089 20.566434062346726 7.944061883557104 0 0 0
631 1 12.766082526715502 19.239323471091573 6.104661143918117 0 0 0
629 1 17.57536945671708 20.740252689579187 7.876869436577352 0 0 0
1722 1 18.885512584059956 35.070341233481514 3.1704283294584106 0 0 0
118 1 1.6970435167116467 23.671741056462167 7.941331888591324 0 0 0
145 1 3.163359451419706 25.414848158259215 9.611159592328752 0 0 0
120 1 3.478798352828549 22.50134902427438 6.054143333510408 0 0 0
374 1 8.526258897846512 23.90247167694832 7.768004680796742 0 0 0
632 1 16.192930683536346 22.37238187280063 6.0510041676292134 0 0 0
630 1 14.494987558219782 24.23330998346521 7.863807321568991 0 0 0
544 1 15.89439970614405 3.401601482704521 0.3643997963399129 0 0 0
149 1 4.888080988311539 27.406494113810474 7.385184286606712 0 0 0
663 1 13.10402341174126 25.759656858461057 6.212275040945089 0 0 0
405 1 11.402520993837161 27.129986993774704 7.829106637418267 0 0 0
657 1 16.243408920628948 25.50387054745872 9.413403175126447 0 0 0
661 1 17.50804545498519 27.09922791991991 7.962947515197937 0 0 0
1698 1 18.801039280756285 34.827283715378854 22.555617790843694 0 0 0
150 1 1.429761341944257 29.95472484634293 7.488640729040554 0 0 0
152 1 2.956145222365917 28.44694930173819 5.943138565293904 0 0 0
402 1 6.278960125482427 28.873478934276804 9.368036754840022 0 0 0
406 1 7.7663267789107495 30.456408219525223 7.727013328292067 0 0 0
695 1 12.762083214203786 31.732406123809525 6.080192186726112 0 0 0
658 1 12.819835721053519 28.645606966450583 9.533862263930953 0 0 0
662 1 14.445519039902507 30.519259255181357 8.080250145653462 0 0 0
1591 1 19.082538831625364 6.504474450811345 6.669394409330566 0 0 0
181 1 4.627662968857308 33.72464427137162 8.02672192716329 0 0 0
177 1 3.228458130033029 31.85370596835236 9.466569998011405 0 0 0
437 1 11.235735306947682 33.53695107895732 7.70819949130967 0 0 0
693 1 17.317476231759997 33.16341226592112 8.393321156654165 0 0 0
1743 1 18.686202993238734 38.16927021912378 12.597626344567878 0 0 0
182 1 1.5299234190188398 36.62738478330235 7.887251788076495 0 0 0
228 1 4.62132274199281 49.14014550823041 23.786981205172488 0 0 0
434 1 6.016624779271211 35.217487393112705 9.877031483681922 0 0 0
440 1 9.626060294141984 34.87348187603007 5.961651289724347 0 0 0
438 1 7.78922695791446 36.49921287158448 7.964685662552521 0 0 0
696 1 16.0526130901628 34.638913554413584 6.349450457887346 0 0 0
694 1 14.332506959420913 36.80856756714564 7.512664506608879 0 0 0
1586 1 19.08180684279092 9.7613807354924 9.39692508869185 0 0 0
471 1 6.266260458020713 38.24001234464377 6.422131428257239 0 0 0
213 1 4.771860103536164 39.832877297478845 7.939249347385417 0 0 0
472 1 9.153372835308252 41.50391637563999 6.395859364731913 0 0 0
469 1 10.809131640609655 39.78620157420418 7.7829087050953545 0 0 0
727 1 12.693531258422961 38.27575980199298 6.284302631964454 0 0 0
725 1 17.50986967102704 39.60098722812162 8.19900852703622 0 0 0
1775 1 18.83595590504756 44.61803585856263 12.415696059287175 0 0 0
214 1 1.2576456284248037 43.279898563459156 7.942181547239393 0 0 0
241 1 2.964982240886864 44.71571240171466 9.441233459035155 0 0 0
503 1 6.4220928613440975 44.83618504193446 6.320055530126002 0 0 0
470 1 7.811045818716039 43.34098907432891 8.020054226255345 0 0 0
497 1 9.519844459203071 44.63089223623827 9.80384730163732 0 0 0
726 1 14.144610495726816 43.04364680882628 8.021954733753397 0 0 0
753 1 15.70015826109542 44.617269710060384 9.681163544076052 0 0 0
245 1 4.619617388219875 46.48383402364019 7.702407559049676 0 0 0
498 1 6.192178045146638 47.778023020837885 9.613245457152255 0 0 0
501 1 11.017656378428038 46.06398575814158 8.320212072898515 0 0 0
754 1 12.55643344863195 47.96517917978321 9.72263620075403 0 0 0
757 1 17.339581381576355 45.99785381186971 8.210872383045997 0 0 0
246 1 1.352173216471947 49.135082944658855 7.872430912532419 0 0 0
502 1 7.923247444146605 49.30160644312788 8.069289302863162 0 0 0
758 1 14.373912294124242 49.33746205129948 8.044539414667398 0 0 0
19 1 1.4812891382961149 1.5401204989655315 11.203127025870655 0 0 0
275 1 7.787889489903048 1.4350756611383648 11.685634334558921 0 0 0
531 1 14.580185629495436 1.7225736979320128 11.116966957044331 0 0 0
529 1 15.959942379377214 0.04307729513114111 9.698935409173703 0 0 0
1730 1 18.659617664311646 41.35528093000165 22.011984887785854 0 0 0
20 1 4.707296220487717 4.840737914844439 11.633853141744131 0 0 0
16 1 3.06833673074251 2.937526099542616 12.669256017655965 0 0 0
276 1 11.003280578929914 4.600566458054396 11.35789292614151 0 0 0
528 1 15.976911878681307 3.3248238426330996 12.809924185065299 0 0 0
532 1 17.73911412985728 4.979935326260908 11.06209225003223 0 0 0
42 1 0.06125030620324829 9.768297303784372 16.316106464732268 0 0 0
1618 1 19.03816710700777 16.057888926537114 9.62756844561699 0 0 0
51 1 1.858964751936834 7.862849046214259 11.72358932613067 0 0 0
306 1 6.008276210299977 9.542506309044233 9.773218929562523 0 0 0
307 1 8.0323147901402 7.769463755335268 10.907659862600749 0 0 0
559 1 12.517330448605303 6.391037002596306 13.049666229183922 0 0 0
563 1 13.923261898680689 7.8128509590599045 11.474858191135217 0 0 0
52 1 5.02198888643828 11.219182420238688 11.501454940984646 0 0 0
81 1 3.4131643374668372 12.478688198220464 9.354252704361869 0 0 0
562 1 12.848036484518977 9.461450365669036 9.579849693258172 0 0 0
308 1 11.134445387097859 10.597379633222838 11.445434653014653 0 0 0
560 1 15.747797014337513 9.39313987864849 12.84527444407473 0 0 0
564 1 17.341344997762892 10.7816557878378 11.291262326654618 0 0 0
83 1 1.7684384923022487 14.362658023885542 11.37541290298404 0 0 0
337 1 9.799231685729032 12.719994987439913 9.713358380998635 0 0 0
339 1 7.897908691965829 14.34078419661411 10.979412215294477 0 0 0
595 1 14.422965038494695 14.47086743942498 11.43321881813058 0 0 0
593 1 15.8343899956709 12.70361202376561 9.618917373300432 0 0 0
739 1 14.027398729018643 46.41947558034298 23.722262158330945 0 0 0
113 1 3.6626611206491915 19.487069838989786 9.318323581112574 0 0 0
84 1 5.102642810359342 17.690462758552602 11.044408473361422 0 0 0
80 1 3.4748396061722833 16.45275464223574 12.61709271198309 0 0 0
340 1 11.287968566928564 17.53594459840566 11.184319443159723 0 0 0
623 1 13.092832539217715 19.176629908089907 12.46576590026762 0 0 0
594 1 12.808979018745955 15.885655667889939 9.666363359520746 0 0 0
596 1 17.551798097992865 17.55407171993766 11.117814996522625 0 0 0
115 1 2.1862994143594228 21.039274982898398 10.81812966897884 0 0 0
371 1 8.32116127064947 20.676542983694453 11.06023765305057 0 0 0
626 1 12.841188151755029 22.362036385843314 9.295138942334646 0 0 0
627 1 14.478162555074373 21.087779436244798 11.006496747821084 0 0 0
625 1 15.928726959057961 19.28750661516995 9.581110333776563 0 0 0
163 1 1.5913684982950556 32.94623988064338 23.62497459418625 0 0 0
370 1 6.981487159831786 22.594940898147104 9.540698795156962 0 0 0
116 1 5.1240594449368775 24.067963961719673 10.845401292866974 0 0 0
372 1 11.168749330751906 24.003075256596173 10.968817481309882 0 0 0
628 1 17.726165530302392 23.67226821526626 11.359692322822015 0 0 0
147 1 1.5124238239487688 27.029278492392553 11.219857927252482 0 0 0
399 1 6.412796040522887 25.349428455652326 12.717154765988237 0 0 0
403 1 7.581414677081844 26.99307658154954 11.09580369423734 0 0 0
401 1 9.817529265611268 25.66655601096812 9.577105971299687 0 0 0
400 1 9.020859394068978 28.671887526363996 12.835575976037598 0 0 0
659 1 14.436498316940165 26.888564038619595 11.017421175826627 0 0 0
644 1 17.734418925663586 30.33625350890243 23.532102511573616 0 0 0
148 1 4.651414524051825 30.173977581808344 10.940644228893289 0 0 0
404 1 10.977835468803624 30.228976932390527 11.110822671171348 0 0 0
656 1 15.989167188862194 28.45259446085348 12.666653859251289 0 0 0
689 1 15.57678783209259 31.91926512553876 10.063825350789768 0 0 0
660 1 17.45759643653026 30.265388827581006 11.264681881174196 0 0 0
738 1 12.515967779071143 47.75389174177257 22.229972688801684 0 0 0
179 1 1.5525195023801002 33.74015093094225 11.150307612762997 0 0 0
431 1 6.523711717831319 31.767476339898394 12.405196578105487 0 0 0
433 1 9.674256175309907 32.08853790133386 9.385838281601432 0 0 0
435 1 8.034207313638788 33.49972067414415 11.006581559558347 0 0 0
690 1 12.633963889328706 35.1877219566498 8.945097371901303 0 0 0
691 1 13.814028925657958 33.91421483793955 11.097938748657521 0 0 0
176 1 3.21629312839023 35.2344687110225 12.885934712679664 0 0 0
180 1 4.377363289635187 36.956210819238876 11.19880082383555 0 0 0
465 1 9.215287012225382 38.05181529193731 9.663728683266847 0 0 0
436 1 11.081195461982995 36.62981418802758 11.084856626083079 0 0 0
692 1 17.255711092288117 36.44233157562019 10.898786104234253 0 0 0
209 1 2.946399491617362 38.44832694399006 9.419116315696241 0 0 0
211 1 1.381253896411642 39.94724956645998 11.192766757760106 0 0 0
466 1 6.424042831794273 41.621804735594715 9.547531705220353 0 0 0
463 1 5.810689227418742 38.300359641179796 13.075945230972206 0 0 0
467 1 7.765837028960548 39.82028119575895 11.240126279290388 0 0 0
723 1 14.06287843755243 39.59781388735386 11.441816297249307 0 0 0
721 1 15.655868101400877 38.27458214747589 9.606391863898072 0 0 0
208 1 3.143959348261704 41.6071172906694 12.569124585681893 0 0 0
212 1 4.522503995799872 43.089562488120364 10.786475293762955 0 0 0
495 1 5.98384689074471 44.83707669324308 12.581248385474858 0 0 0
468 1 10.866794444854182 42.77454904773798 11.17883474939968 0 0 0
722 1 12.735763274168082 41.266301111492645 9.46948630082451 0 0 0
720 1 15.48950537317113 41.650281187381445 12.885850332396688 0 0 0
724 1 17.2176131858387 43.0102947002955 11.238936120851175 0 0 0
243 1 1.2204797309245983 46.103085640361535 10.984168794150964 0 0 0
499 1 7.840472551591194 46.11022330230266 11.27165625573096 0 0 0
496 1 9.175427841946433 47.840661908419655 12.70228461926626 0 0 0
755 1 13.888478115711132 45.980971608797084 11.678699473992456 0 0 0
752 1 15.679509498972655 47.540127186522206 12.659528880663608 0 0 0
170 1 0.05882372644795453 34.8667712646759 15.857810694426226 0 0 0
17 1 3.173782564460536 0.1511260386551648 9.394484728092866 0 0 0
244 1 4.705240469837732 49.6684590397374 11.175995701161078 0 0 0
271 1 6.100194168464081 50.762499508702945 13.19424287735475 0 -1 0
273 1 9.052861237913055 50.801999006375745 9.785366375470677 0 -1 0
527 1 12.538058632332376 0.19410740617807823 12.726592640864501 0 0 0
500 1 10.96355770680227 49.44218562021991 11.353513045558698 0 0 0
756 1 17.38242984945418 48.98671653161401 11.016458434261947 0 0 0
483 1 8.02723122320586 46.03716244762786 24.062414151627404 0 0 0
13 1 4.598130458638324 1.5540940108364159 14.653330610506364 0 0 0
272 1 9.193742940104002 3.1833160480250005 13.103083693774716 0 0 0
265 1 9.389513581226968 50.731342539936826 16.07079220964135 0 -1 0
269 1 10.97285432890494 1.6583604768917353 14.60047528987192 0 0 0
521 1 15.98277014454726 50.866460650557485 16.438727320811083 0 -1 0
525 1 17.79638873691414 1.3579355192877525 14.532261242498208 0 0 0
14 1 1.6361139424894153 4.650056182524464 14.295010018437013 0 0 0
266 1 6.378158590760562 3.1954357283419093 16.271501196852487 0 0 0
270 1 7.855125716115348 5.046427601775361 15.058964108640751 0 0 0
297 1 9.650764384226491 6.692834814126911 16.099615918160676 0 0 0
526 1 14.543288472576666 5.00491935796934 14.44731765359902 0 0 0
45 1 5.029718209123773 7.9548304841603885 14.85600187208325 0 0 0
303 1 6.514149756030807 6.327284355483416 12.905815278515322 0 0 0
301 1 10.992024558612844 8.380313164001263 14.576973951493592 0 0 0
557 1 17.51703870867454 7.930572938326905 14.597004160347932 0 0 0
46 1 1.7049618885573516 11.173807087708786 14.665376238655583 0 0 0
48 1 3.346561255621699 9.585423330802838 13.303741742868832 0 0 0
335 1 6.290539557122733 13.34910747097359 12.603879508483931 0 0 0
302 1 7.980918959088185 11.705049139303501 14.057988699966025 0 0 0
304 1 9.15197721112239 9.407924403331137 12.648150403545985 0 0 0
558 1 14.158998754646886 11.392727575735064 14.356320697227092 0 0 0
708 1 17.241030109004182 42.90127123752132 23.690802347967743 0 0 0
1543 1 18.82507394379883 50.88391463488471 18.71744501452258 0 -1 0
77 1 4.680091654997516 14.790937349164166 14.26872149986329 0 0 0
333 1 11.053156393305697 14.376374127428619 14.6890073782217 0 0 0
591 1 12.38780887200567 13.06875069912613 12.607726581844073 0 0 0
589 1 16.814781754585702 14.386977193601636 14.439303207814728 0 0 0
78 1 1.9656716436389459 17.86364794522348 14.057774022745237 0 0 0
367 1 6.8518261848581385 19.052815593841256 12.645011703181039 0 0 0
334 1 8.359944828468107 17.322455899586778 14.313200918176987 0 0 0
336 1 9.77167570901204 15.743099813336649 12.593750003639398 0 0 0
590 1 14.359452270364086 17.691474864778293 14.538804733352304 0 0 0
592 1 16.040011922988285 16.326077564145702 13.088903807028789 0 0 0
112 1 3.3138647326680646 22.797472920667005 12.68006100621208 0 0 0
109 1 5.188404330975229 20.772387012633693 14.086602099052481 0 0 0
362 1 6.571272459801691 22.315468097703505 15.666227802081501 0 0 0
365 1 11.38787400873035 20.675488766211828 13.914757154450426 0 0 0
617 1 16.083457598868463 19.05569708537683 16.000459451075884 0 0 0
621 1 17.70470248157547 20.366811316712475 14.433136326653328 0 0 0
167 1 0.08096300516623324 31.7020201083166 18.85837121339301 0 0 0
319 1 6.340205585317372 6.174545696472574 0.5218483569981381 0 0 0
110 1 1.3741534107298652 23.90899694278373 14.264321880048474 0 0 0
368 1 9.908368606554143 22.627074037251006 12.560677489325924 0 0 0
366 1 8.371661611632335 23.96750140052811 14.237852198856103 0 0 0
624 1 15.903562925956097 22.101883773730567 13.11861104499694 0 0 0
622 1 14.125412605099612 23.819195714540268 13.909801757538686 0 0 0